<LesHouchesEvents version="3.0">
<header>
<!--
#*********************************************************************
#                                                                    *
#                        MadGraph5_aMC@NLO                           *
#                                                                    *
#                           Going Beyond                             *
#                                                                    *
#                   http://madgraph.hep.uiuc.edu                     *
#                   http://madgraph.phys.ucl.ac.be                   *
#                   http://amcatnlo.cern.ch                          *
#                                                                    *
#                     The MadGraph5_aMC@NLO team                     *
#                                                                    *
#....................................................................*
#                                                                    *
# This file contains all the information necessary to reproduce      *
# the events generated:                                              *
#                                                                    *
# 1. software version                                                *
# 2. proc_card          : code generation info including model       *
# 3. param_card         : model primary parameters in the LH format  *
# 4. run_card           : running parameters (collider and cuts)     *
# 5. pythia_card        : present only if pythia has been run        *
# 6. pgs_card           : present only if pgs has been run           *
# 7. delphes_cards      : present only if delphes has been run       *
#                                                                    *
#                                                                    *
#*********************************************************************
-->
<MGVersion>
#5.2.2.3
</MGVersion>
<MG5ProcCard>
#************************************************************
#*                     MadGraph5_aMC@NLO                    *
#*                                                          *
#*                *                       *                 *
#*                  *        * *        *                   *
#*                    * * * * 5 * * * *                     *
#*                  *        * *        *                   *
#*                *                       *                 *
#*                                                          *
#*                                                          *
#*         VERSION 2.2.3                 2015-02-10         *
#*                                                          *
#*    The MadGraph5_aMC@NLO Development Team - Find us at   *
#*    https://server06.fynu.ucl.ac.be/projects/madgraph     *
#*                                                          *
#************************************************************
#*                                                          *
#*               Command File for MadGraph5_aMC@NLO         *
#*                                                          *
#*     run as ./bin/mg5_aMC  filename                       *
#*                                                          *
#************************************************************
set group_subprocesses Auto
set ignore_six_quark_processes False
set loop_optimized_output True
set gauge unitary
set complex_mass_scheme False
import model sm
define p = g u c d s u~ c~ d~ s~
define j = g u c d s u~ c~ d~ s~
define l+ = e+ mu+
define l- = e- mu-
define vl = ve vm vt
define vl~ = ve~ vm~ vt~
import model Zprime_UFO
generate p p > zph, zph > j j
add process p p > zph, zph > b b~
output Dijet_signal
</MG5ProcCard>
<MGProcCard>
#*********************************************************************
#                        MadGraph/MadEvent                           *
#                   http://madgraph.hep.uiuc.edu                     *
#                                                                    *
#                          proc_card.dat                             *
#*********************************************************************
#                                                                    *
#            This Files is generated by MADGRAPH 5                   *
#                                                                    *
# WARNING: This Files is generated for MADEVENT (compatibility issue)*
#          This files is NOT a valid MG4 proc_card.dat               *
#          Running this in MG4 will NEVER reproduce the result of MG5*
#                                                                    *
#*********************************************************************
#*********************************************************************
# Process(es) requested : mg2 input                                  *
#*********************************************************************
# Begin PROCESS # This is TAG. Do not modify this line
p p > zph , zph > j j           #Process
# Be carefull the coupling are here in MG5 convention
          
end_coup           # End the couplings input

done               # this tells MG there are no more procs
# End PROCESS  # This is TAG. Do not modify this line
#*********************************************************************
# Model information                                                  *
#*********************************************************************
# Begin MODEL  # This is TAG. Do not modify this line
Zprime_UFO
# End   MODEL  # This is TAG. Do not modify this line
#*********************************************************************
# Start multiparticle definitions                                    *
#*********************************************************************
# Begin MULTIPARTICLES # This is TAG. Do not modify this line

# End  MULTIPARTICLES # This is TAG. Do not modify this line
</MGProcCard>
<MGRunCard>
#*********************************************************************
#                       MadGraph5_aMC@NLO                            *
#                                                                    *
#                     run_card.dat MadEvent                          *
#                                                                    *
#  This file is used to set the parameters of the run.               *
#                                                                    *
#  Some notation/conventions:                                        *
#                                                                    *
#   Lines starting with a '# ' are info or comments                  *
#                                                                    *
#   mind the format:   value    = variable     ! comment             *
#*********************************************************************
#
#*******************                                                 
# Running parameters
#*******************                                                 
#                                                                    
#*********************************************************************
# Tag name for the run (one word)                                    *
#*********************************************************************
  tag_1     = run_tag ! name of the run 
#*********************************************************************
# Run to generate the grid pack                                      *
#*********************************************************************
  .false.     = gridpack  !True = setting up the grid pack
#*********************************************************************
# Number of events and rnd seed                                      *
# Warning: Do not generate more than 1M events in a single run       *
# If you want to run Pythia, avoid more than 50k events in a run.    *
#*********************************************************************
  2000 = nevents ! Number of unweighted events requested 
 1848 = iseed   ! rnd seed (0=assigned automatically=default))
#*********************************************************************
# Collider type and energy                                           *
# lpp: 0=No PDF, 1=proton, -1=antiproton, 2=photon from proton,      *
#                                         3=photon from electron     *
#*********************************************************************
        1     = lpp1    ! beam 1 type 
        1     = lpp2    ! beam 2 type
     4000     = ebeam1  ! beam 1 total energy in GeV
     4000     = ebeam2  ! beam 2 total energy in GeV
#*********************************************************************
# Beam polarization from -100 (left-handed) to 100 (right-handed)    *
#*********************************************************************
        0     = polbeam1 ! beam polarization for beam 1
        0     = polbeam2 ! beam polarization for beam 2
#*********************************************************************
# PDF CHOICE: this automatically fixes also alpha_s and its evol.    *
#*********************************************************************
 'nn23lo1'    = pdlabel     ! PDF set                                     
 230000    = lhaid     ! if pdlabel=lhapdf, this is the lhapdf number
#*********************************************************************
# Renormalization and factorization scales                           *
#*********************************************************************
 F        = fixed_ren_scale  ! if .true. use fixed ren scale
 F        = fixed_fac_scale  ! if .true. use fixed fac scale
 91.1880  = scale            ! fixed ren scale
 91.1880  = dsqrt_q2fact1    ! fixed fact scale for pdf1
 91.1880  = dsqrt_q2fact2    ! fixed fact scale for pdf2
 1        = scalefact        ! scale factor for event-by-event scales
#*********************************************************************
# Matching - Warning! ickkw > 1 is still beta
#*********************************************************************
 0        = ickkw            ! 0 no matching, 1 MLM, 2 CKKW matching
 1        = highestmult      ! for ickkw=2, highest mult group
 1        = ktscheme         ! for ickkw=1, 1 Durham kT, 2 Pythia pTE
 1        = alpsfact         ! scale factor for QCD emission vx
 F        = chcluster        ! cluster only according to channel diag
 T        = pdfwgt           ! for ickkw=1, perform pdf reweighting
 5        = asrwgtflavor     ! highest quark flavor for a_s reweight
 T        = clusinfo         ! include clustering tag in output
 3.0      = lhe_version       ! Change the way clustering information pass to shower.        
#*********************************************************************
#**********************************************************
#
#**********************************************************
# Automatic ptj and mjj cuts if xqcut > 0
# (turn off for VBF and single top processes)
#**********************************************************
   T  = auto_ptj_mjj  ! Automatic setting of ptj and mjj
#**********************************************************
#                                                                    
#**********************************
# BW cutoff (M+/-bwcutoff*Gamma)
#**********************************
  15  = bwcutoff      ! (M+/-bwcutoff*Gamma)
#**********************************************************
# Apply pt/E/eta/dr/mij cuts on decay products or not
# (note that etmiss/ptll/ptheavy/ht/sorted cuts always apply)
#**********************************************************
   T  = cut_decays    ! Cut decay products 
#*************************************************************
# Number of helicities to sum per event (0 = all helicities)
# 0 gives more stable result, but longer run time (needed for
# long decay chains e.g.).
# Use >=2 if most helicities contribute, e.g. pure QCD.
#*************************************************************
   0  = nhel          ! Number of helicities used per event
#*******************                                                 
# Standard Cuts
#*******************                                                 
#                                                                    
#*********************************************************************
# Minimum and maximum pt's (for max, -1 means no cut)                *
#*********************************************************************
 20  = ptj       ! minimum pt for the jets 
  0  = ptb       ! minimum pt for the b 
 10  = pta       ! minimum pt for the photons 
 10  = ptl       ! minimum pt for the charged leptons 
  0  = misset    ! minimum missing Et (sum of neutrino's momenta)
  0  = ptheavy   ! minimum pt for one heavy final state
 1.0 = ptonium   ! minimum pt for the quarkonium states
 -1  = ptjmax    ! maximum pt for the jets
 -1  = ptbmax    ! maximum pt for the b
 -1  = ptamax    ! maximum pt for the photons
 -1  = ptlmax    ! maximum pt for the charged leptons
 -1  = missetmax ! maximum missing Et (sum of neutrino's momenta)
#*********************************************************************
# Minimum and maximum E's (in the center of mass frame)              *
#*********************************************************************
  0  = ej     ! minimum E for the jets 
  0  = eb     ! minimum E for the b 
  0  = ea     ! minimum E for the photons 
  0  = el     ! minimum E for the charged leptons 
 -1   = ejmax ! maximum E for the jets
 -1   = ebmax ! maximum E for the b
 -1   = eamax ! maximum E for the photons
 -1   = elmax ! maximum E for the charged leptons
#*********************************************************************
# Maximum and minimum absolute rapidity (for max, -1 means no cut)   *
#*********************************************************************
   5  = etaj    ! max rap for the jets 
  -1  = etab    ! max rap for the b
 2.5  = etaa    ! max rap for the photons 
 2.5  = etal    ! max rap for the charged leptons 
 0.6  = etaonium ! max rap for the quarkonium states
   0  = etajmin ! min rap for the jets
   0  = etabmin ! min rap for the b
   0  = etaamin ! min rap for the photons
   0  = etalmin ! main rap for the charged leptons
#*********************************************************************
# Minimum and maximum DeltaR distance                                *
#*********************************************************************
 0.4 = drjj    ! min distance between jets 
 0   = drbb    ! min distance between b's 
 0.4 = drll    ! min distance between leptons 
 0.4 = draa    ! min distance between gammas 
 0   = drbj    ! min distance between b and jet 
 0.4 = draj    ! min distance between gamma and jet 
 0.4 = drjl    ! min distance between jet and lepton 
 0   = drab    ! min distance between gamma and b 
 0   = drbl    ! min distance between b and lepton 
 0.4 = dral    ! min distance between gamma and lepton 
 -1  = drjjmax ! max distance between jets
 -1  = drbbmax ! max distance between b's
 -1  = drllmax ! max distance between leptons
 -1  = draamax ! max distance between gammas
 -1  = drbjmax ! max distance between b and jet
 -1  = drajmax ! max distance between gamma and jet
 -1  = drjlmax ! max distance between jet and lepton
 -1  = drabmax ! max distance between gamma and b
 -1  = drblmax ! max distance between b and lepton
 -1  = dralmax ! maxdistance between gamma and lepton
#*********************************************************************
# Minimum and maximum invariant mass for pairs                       *
# WARNING: for four lepton final state mmll cut require to have      *
#          different lepton masses for each flavor!                  *           
#*********************************************************************
 0   = mmjj    ! min invariant mass of a jet pair 
 0   = mmbb    ! min invariant mass of a b pair 
 0   = mmaa    ! min invariant mass of gamma gamma pair
 0   = mmll    ! min invariant mass of l+l- (same flavour) lepton pair
 -1  = mmjjmax ! max invariant mass of a jet pair
 -1  = mmbbmax ! max invariant mass of a b pair
 -1  = mmaamax ! max invariant mass of gamma gamma pair
 -1  = mmllmax ! max invariant mass of l+l- (same flavour) lepton pair
#*********************************************************************
# Minimum and maximum invariant mass for all letpons                 *
#*********************************************************************
 0   = mmnl    ! min invariant mass for all letpons (l+- and vl) 
 -1  = mmnlmax ! max invariant mass for all letpons (l+- and vl) 
#*********************************************************************
# Minimum and maximum pt for 4-momenta sum of leptons                *
#*********************************************************************
 0   = ptllmin  ! Minimum pt for 4-momenta sum of leptons(l and vl)
 -1  = ptllmax  ! Maximum pt for 4-momenta sum of leptons(l and vl)
#*********************************************************************
# Inclusive cuts                                                     *
#*********************************************************************
 0  = xptj ! minimum pt for at least one jet  
 0  = xptb ! minimum pt for at least one b 
 0  = xpta ! minimum pt for at least one photon 
 0  = xptl ! minimum pt for at least one charged lepton 
#*********************************************************************
# Control the pt's of the jets sorted by pt                          *
#*********************************************************************
 0   = ptj1min ! minimum pt for the leading jet in pt
 0   = ptj2min ! minimum pt for the second jet in pt
 0   = ptj3min ! minimum pt for the third jet in pt
 0   = ptj4min ! minimum pt for the fourth jet in pt
 -1  = ptj1max ! maximum pt for the leading jet in pt 
 -1  = ptj2max ! maximum pt for the second jet in pt
 -1  = ptj3max ! maximum pt for the third jet in pt
 -1  = ptj4max ! maximum pt for the fourth jet in pt
 0   = cutuse  ! reject event if fails any (0) / all (1) jet pt cuts
#*********************************************************************
# Control the pt's of leptons sorted by pt                           *
#*********************************************************************
 0   = ptl1min ! minimum pt for the leading lepton in pt
 0   = ptl2min ! minimum pt for the second lepton in pt
 0   = ptl3min ! minimum pt for the third lepton in pt
 0   = ptl4min ! minimum pt for the fourth lepton in pt
 -1  = ptl1max ! maximum pt for the leading lepton in pt 
 -1  = ptl2max ! maximum pt for the second lepton in pt
 -1  = ptl3max ! maximum pt for the third lepton in pt
 -1  = ptl4max ! maximum pt for the fourth lepton in pt
#*********************************************************************
# Control the Ht(k)=Sum of k leading jets                            *
#*********************************************************************
 0   = htjmin ! minimum jet HT=Sum(jet pt)
 -1  = htjmax ! maximum jet HT=Sum(jet pt)
 0   = ihtmin  !inclusive Ht for all partons (including b)
 -1  = ihtmax  !inclusive Ht for all partons (including b)
 0   = ht2min ! minimum Ht for the two leading jets
 0   = ht3min ! minimum Ht for the three leading jets
 0   = ht4min ! minimum Ht for the four leading jets
 -1  = ht2max ! maximum Ht for the two leading jets
 -1  = ht3max ! maximum Ht for the three leading jets
 -1  = ht4max ! maximum Ht for the four leading jets
#***********************************************************************
# Photon-isolation cuts, according to hep-ph/9801442                   *
# When ptgmin=0, all the other parameters are ignored                  *
# When ptgmin>0, pta and draj are not going to be used                 *
#***********************************************************************
   0 = ptgmin ! Min photon transverse momentum
 0.4 = R0gamma ! Radius of isolation code
 1.0 = xn ! n parameter of eq.(3.4) in hep-ph/9801442
 1.0 = epsgamma ! epsilon_gamma parameter of eq.(3.4) in hep-ph/9801442
 .true. = isoEM ! isolate photons from EM energy (photons and leptons)
#*********************************************************************
# WBF cuts                                                           *
#*********************************************************************
 0   = xetamin ! minimum rapidity for two jets in the WBF case  
 0   = deltaeta ! minimum rapidity for two jets in the WBF case 
#*********************************************************************
# KT DURHAM CUT                                                      *
#*********************************************************************
 -1    =  ktdurham        
 0.4  =  dparameter 
#*********************************************************************
# maximal pdg code for quark to be considered as a light jet         *
# (otherwise b cuts are applied)                                     *
#*********************************************************************
 4 = maxjetflavor    ! Maximum jet pdg code
#*********************************************************************
# Jet measure cuts                                                   *
#*********************************************************************
 0   = xqcut   ! minimum kt jet measure between partons
#*********************************************************************
#
#*********************************************************************
# Store info for systematics studies                                 *
# WARNING: If use_syst is T, matched Pythia output is                *
#          meaningful ONLY if plotted taking matchscale              *
#          reweighting into account!                                 *
#*********************************************************************
   F  = use_syst      ! Enable systematics studies
#
#**************************************
# Parameter of the systematics study
#  will be used by SysCalc (if installed)
#**************************************                                  
#
0.5 1 2 = sys_scalefact  # factorization/renormalization scale factor
0.5 1 2 = sys_alpsfact  # \alpha_s emission scale factors
30 50 = sys_matchscale # variation of merging scale
# PDF sets and number of members (0 or none for all members).
CT10nlo.LHgrid = sys_pdf # matching scales
# MSTW2008nlo68cl.LHgrid 1  = sys_pdf
</MGRunCard>
<slha>
######################################################################
## PARAM_CARD AUTOMATICALY GENERATED BY MG5 FOLLOWING UFO MODEL   ####
######################################################################
##                                                                  ##
##  Width set on Auto will be computed following the information    ##
##        present in the decay.py files of the model.               ##
##        See  arXiv:1402.1178 for more details.                    ##
##                                                                  ##
######################################################################

###################################
## INFORMATION FOR CKMBLOCK
###################################
Block ckmblock 
    1 2.277360e-01 # cabi 

###################################
## INFORMATION FOR FRBLOCK
###################################
Block frblock 
    1 1.000000e+00 # gz 

###################################
## INFORMATION FOR MASS
###################################
Block mass 
    1 5.040000e-03 # MD 
    2 2.550000e-03 # MU 
    3 1.010000e-01 # MS 
    4 1.270000e+00 # MC 
    5 4.700000e+00 # MB 
    6 1.720000e+02 # MT 
   11 5.110000e-04 # Me 
   13 1.056600e-01 # MM 
   15 1.777000e+00 # MTA 
   23 9.118760e+01 # MZ 
   25 1.200000e+02 # MH 
  10030 1.100000e+03 # MZph 
  10031 3.000000e+02 # MZpl 
## Dependent parameters, given by model restrictions.
## Those values should be edited following the 
## analytical expression. MG5 ignores those values 
## but they are important for interfacing the output of MG5
## to external program such as Pythia.
  12 0.000000 # ve : 0.0 
  14 0.000000 # vm : 0.0 
  16 0.000000 # vt : 0.0 
  21 0.000000 # g : 0.0 
  22 0.000000 # a : 0.0 
  24 79.824360 # w+ : cmath.sqrt(MZ__exp__2/2. + cmath.sqrt(MZ__exp__4/4. - (aEW*cmath.pi*MZ__exp__2)/(Gf*sqrt__2))) 

###################################
## INFORMATION FOR SMINPUTS
###################################
Block sminputs 
    1 1.279000e+02 # aEWM1 
    2 1.166370e-05 # Gf 
    3 1.184000e-01 # aS 

###################################
## INFORMATION FOR YUKAWA
###################################
Block yukawa 
    1 5.040000e-03 # ymdo 
    2 2.550000e-03 # ymup 
    3 1.010000e-01 # yms 
    4 1.270000e+00 # ymc 
    5 4.700000e+00 # ymb 
    6 1.720000e+02 # ymt 
   11 5.110000e-04 # yme 
   13 1.056600e-01 # ymm 
   15 1.777000e+00 # ymtau 

###################################
## INFORMATION FOR DECAY
###################################
DECAY   6 1.508336e+00 # WT 
DECAY  23 2.495200e+00 # WZ 
DECAY  24 2.085000e+00 # WW 
DECAY  25 5.753088e-03 # WH 
## Dependent parameters, given by model restrictions.
## Those values should be edited following the 
## analytical expression. MG5 ignores those values 
## but they are important for interfacing the output of MG5
## to external program such as Pythia.
DECAY  1 0.000000 # d : 0.0 
DECAY  2 0.000000 # u : 0.0 
DECAY  3 0.000000 # s : 0.0 
DECAY  4 0.000000 # c : 0.0 
DECAY  5 0.000000 # b : 0.0 
DECAY  11 0.000000 # e- : 0.0 
DECAY  12 0.000000 # ve : 0.0 
DECAY  13 0.000000 # mu- : 0.0 
DECAY  14 0.000000 # vm : 0.0 
DECAY  15 0.000000 # ta- : 0.0 
DECAY  16 0.000000 # vt : 0.0 
DECAY  21 0.000000 # g : 0.0 
DECAY  22 0.000000 # a : 0.0 
DECAY  10030 0.308725 # zph : (gz__exp__2*MZph*(5 + cmath.sqrt(1 - (4*MT__exp__2)/MZph__exp__2)))/(144.*cmath.pi) 
DECAY  10031 0.132629 # zpl : (5*gz__exp__2*MZpl)/(144.*cmath.pi) 
#===========================================================
# QUANTUM NUMBERS OF NEW STATE(S) (NON SM PDG CODE)
#===========================================================

Block QNUMBERS 10030  # zph 
        1 0  # 3 times electric charge
        2 3  # number of spin states (2S+1)
        3 1  # colour rep (1: singlet, 3: triplet, 8: octet)
        4 0  # Particle/Antiparticle distinction (0=own anti)
Block QNUMBERS 10031  # zpl 
        1 0  # 3 times electric charge
        2 3  # number of spin states (2S+1)
        3 1  # colour rep (1: singlet, 3: triplet, 8: octet)
        4 0  # Particle/Antiparticle distinction (0=own anti)
</slha>
## END BANNER##
<MGGenerationInfo>
#  Number of Events        :         4040
#  Integrated weight (pb)  :  0.12069E+01
#  Max wgt                 :  0.39924E-03
#  Average wgt             :  0.29874E-03
</MGGenerationInfo>
</header>
<init>
     2212     2212  0.40000000000E+04  0.40000000000E+04 0 0  247000  247000 2   1
  0.12073143339E+01  0.21442358727E-02  0.39924140000E-03   0
</init>
<event>
 5   0  0.3992414E-03  0.1110505E+04  0.7818609E-02  0.9195013E-01
        2   -1    0    0  501    0  0.00000000000E+00  0.00000000000E+00  0.13252798994E+04  0.13252798994E+04  0.25500000920E-02 0.  1.
       -2   -1    0    0    0  501  0.00000000000E+00  0.00000000000E+00 -0.23263406848E+03  0.23263406850E+03  0.25500000920E-02 0. -1.
    10030    2    1    2    0    0  0.00000000000E+00  0.00000000000E+00  0.10926458309E+04  0.15579139679E+04  0.11105048490E+04 0.  0.
        1    1    3    3  502    0 -0.33896090941E+03  0.27741158093E+03  0.10250625877E+04  0.11147219349E+04  0.50400001928E-02 0.  1.
       -1    1    3    3    0  502  0.33896090941E+03 -0.27741158093E+03  0.67583243196E+02  0.44319203302E+03  0.50400001928E-02 0. -1.
</event>
<event>
 5   0  0.3992414E-03  0.1097046E+04  0.7818609E-02  0.9208075E-01
        2   -1    0    0  501    0  0.00000000000E+00  0.00000000000E+00  0.91380419449E+03  0.91380419450E+03  0.25500000920E-02 0.  1.
       -2   -1    0    0    0  501  0.00000000000E+00  0.00000000000E+00 -0.32925840017E+03  0.32925840018E+03  0.25500000920E-02 0. -1.
    10030    2    1    2    0    0  0.00000000000E+00  0.00000000000E+00  0.58454579432E+03  0.12430625947E+04  0.10970464113E+04 0.  0.
        1    1    3    3  502    0 -0.83021303918E+02 -0.11918795878E+03  0.89161648712E+03  0.90337050348E+03  0.50400001928E-02 0.  1.
       -1    1    3    3    0  502  0.83021303918E+02  0.11918795878E+03 -0.30707069280E+03  0.33969209120E+03  0.50400001928E-02 0. -1.
</event>
<event>
 5   0  0.3962999E-03  0.1089629E+04  0.7818609E-02  0.9215359E-01
       -2   -1    0    0    0  501  0.00000000000E+00  0.00000000000E+00  0.13983303236E+03  0.13983303238E+03  0.25500000920E-02 0. -1.
        2   -1    0    0  501    0  0.00000000000E+00  0.00000000000E+00 -0.21226964496E+04  0.21226964496E+04  0.25500000920E-02 0.  1.
    10030    2    1    2    0    0  0.00000000000E+00  0.00000000000E+00 -0.19828634172E+04  0.22625294820E+04  0.10896294441E+04 0.  0.
        3    1    3    3  502    0 -0.10994256926E+03  0.29885175163E+03 -0.19093491562E+04  0.19357205244E+04  0.10100000352E+00 0.  1.
       -3    1    3    3    0  502  0.10994256926E+03 -0.29885175163E+03 -0.73514261031E+02  0.32680895759E+03  0.10100000352E+00 0. -1.
</event>
<event>
 5   0  0.3992414E-03  0.1099382E+04  0.7818609E-02  0.9205794E-01
       -2   -1    0    0    0  501  0.00000000000E+00  0.00000000000E+00  0.43570518717E+03  0.43570518717E+03  0.25500000920E-02 0.  1.
        2   -1    0    0  501    0  0.00000000000E+00  0.00000000000E+00 -0.69349718389E+03  0.69349718389E+03  0.25500000920E-02 0. -1.
    10030    2    1    2    0    0  0.00000000000E+00  0.00000000000E+00 -0.25779199672E+03  0.11292023711E+04  0.10993822271E+04 0.  0.
        1    1    3    3  502    0  0.38554424883E+03  0.39179769478E+03 -0.13222724726E+03  0.56536169519E+03  0.50400001928E-02 0.  1.
       -1    1    3    3    0  502 -0.38554424883E+03 -0.39179769478E+03 -0.12556474946E+03  0.56384067588E+03  0.50400001928E-02 0. -1.
</event>
<event>
 5   0  0.3962999E-03  0.1290767E+04  0.7818609E-02  0.9036919E-01
        2   -1    0    0  501    0  0.00000000000E+00  0.00000000000E+00  0.60759034771E+03  0.60759034771E+03  0.25500000920E-02 0. -1.
       -2   -1    0    0    0  501  0.00000000000E+00  0.00000000000E+00 -0.68552761729E+03  0.68552761730E+03  0.25500000920E-02 0.  1.
    10030    2    1    2    0    0  0.00000000000E+00  0.00000000000E+00 -0.77937269587E+02  0.12931179650E+04  0.12907671569E+04 0.  0.
        3    1    3    3  502    0  0.60020059350E+03 -0.48684581119E+02 -0.27157464189E+03  0.66057833540E+03  0.10100000352E+00 0. -1.
       -3    1    3    3    0  502 -0.60020059350E+03  0.48684581119E+02  0.19363737230E+03  0.63253962961E+03  0.10100000352E+00 0.  1.
</event>
<event>
 5   0  0.2298958E-03  0.1103883E+04  0.7818609E-02  0.9201415E-01
       -1   -1    0    0    0  501  0.00000000000E+00  0.00000000000E+00  0.98302088545E+03  0.98302088547E+03  0.50400001928E-02 0. -1.
        1   -1    0    0  501    0  0.00000000000E+00  0.00000000000E+00 -0.30990126660E+03  0.30990126664E+03  0.50400001928E-02 0.  1.
    10030    2    1    2    0    0  0.00000000000E+00  0.00000000000E+00  0.67311961886E+03  0.12929221521E+04  0.11038829966E+04 0.  0.
        1    1    3    3  502    0  0.84152433797E+02 -0.45127046746E+03  0.69549134170E+03  0.83332759064E+03  0.50400001928E-02 0.  1.
       -1    1    3    3    0  502 -0.84152433797E+02  0.45127046746E+03 -0.22371722844E+02  0.45959456146E+03  0.50400001928E-02 0. -1.
</event>
<event>
 5   0  0.2255788E-03  0.1099935E+04  0.7818609E-02  0.9205255E-01
       -1   -1    0    0    0  501  0.00000000000E+00  0.00000000000E+00  0.22017545345E+03  0.22017545350E+03  0.50400001928E-02 0. -1.
        1   -1    0    0  501    0  0.00000000000E+00  0.00000000000E+00 -0.13737431578E+04  0.13737431578E+04  0.50400001928E-02 0.  1.
    10030    2    1    2    0    0  0.00000000000E+00  0.00000000000E+00 -0.11535677044E+04  0.15939186113E+04  0.10999354940E+04 0.  0.
        3    1    3    3  502    0  0.25392461380E+03  0.48666385342E+03 -0.52774728836E+03  0.76147004294E+03  0.10100000352E+00 0. -1.
       -3    1    3    3    0  502 -0.25392461380E+03 -0.48666385342E+03 -0.62582041600E+03  0.83244856838E+03  0.10100000352E+00 0.  1.
</event>
<event>
 5   0  0.3992414E-03  0.1191502E+04  0.7818609E-02  0.9120327E-01
        2   -1    0    0  501    0  0.00000000000E+00  0.00000000000E+00  0.20672701622E+04  0.20672701622E+04  0.25500000920E-02 0. -1.
       -2   -1    0    0    0  501  0.00000000000E+00  0.00000000000E+00 -0.17168498742E+03  0.17168498744E+03  0.25500000920E-02 0.  1.
    10030    2    1    2    0    0  0.00000000000E+00  0.00000000000E+00  0.18955851748E+04  0.22389551497E+04  0.11915019964E+04 0.  0.
        1    1    3    3  502    0  0.42731858871E+03  0.32374393096E+03  0.45955854652E+03  0.70611993796E+03  0.50400001928E-02 0. -1.
       -1    1    3    3    0  502 -0.42731858871E+03 -0.32374393096E+03  0.14360266283E+04  0.15328352117E+04  0.50400001928E-02 0.  1.
</event>
<event>
 5   0  0.1508625E-03  0.1103668E+04  0.7818609E-02  0.9201624E-01
        4   -1    0    0  501    0  0.00000000000E+00  0.00000000000E+00  0.40489969266E+03  0.40490168438E+03  0.12699999809E+01 0.  1.
       -4   -1    0    0    0  501  0.00000000000E+00  0.00000000000E+00 -0.75208529733E+03  0.75208636961E+03  0.12699999809E+01 0. -1.
    10030    2    1    2    0    0  0.00000000000E+00  0.00000000000E+00 -0.34718560467E+03  0.11569880540E+04  0.11036682078E+04 0.  0.
        1    1    3    3  502    0  0.39451905142E+03 -0.25158383586E+03  0.13308295869E+03  0.48646765804E+03  0.50400001928E-02 0.  1.
       -1    1    3    3    0  502 -0.39451905142E+03  0.25158383586E+03 -0.48026856336E+03  0.67052039595E+03  0.50400001928E-02 0. -1.
</event>
<event>
 5   0  0.3992414E-03  0.1110314E+04  0.7818609E-02  0.9195197E-01
       -2   -1    0    0    0  501  0.00000000000E+00  0.00000000000E+00  0.14933803366E+03  0.14933803369E+03  0.25500000920E-02 0.  1.
        2   -1    0    0  501    0  0.00000000000E+00  0.00000000000E+00 -0.20637694055E+04  0.20637694055E+04  0.25500000920E-02 0. -1.
    10030    2    1    2    0    0  0.00000000000E+00  0.00000000000E+00 -0.19144313719E+04  0.22131074392E+04  0.11103139466E+04 0.  0.
        1    1    3    3  502    0  0.17249640398E+03  0.41940308676E+03 -0.15955006244E+04  0.16586971397E+04  0.50400001928E-02 0. -1.
       -1    1    3    3    0  502 -0.17249640398E+03 -0.41940308676E+03 -0.31893074746E+03  0.55441029957E+03  0.50400001928E-02 0.  1.
</event>
<event>
 5   0  0.3748901E-03  0.1049524E+04  0.7818609E-02  0.9255835E-01
       -2   -1    0    0    0  501  0.00000000000E+00  0.00000000000E+00  0.71932662089E+03  0.71932662090E+03  0.25500000920E-02 0. -1.
        2   -1    0    0  501    0  0.00000000000E+00  0.00000000000E+00 -0.38282363575E+03  0.38282363576E+03  0.25500000920E-02 0.  1.
    10030    2    1    2    0    0  0.00000000000E+00  0.00000000000E+00  0.33650298514E+03  0.11021502567E+04  0.10495241442E+04 0.  0.
        5    1    3    3  502    0 -0.44181009075E+03 -0.68541354936E+02  0.45672377624E+03  0.63915003826E+03  0.46999998093E+01 0. -1.
       -5    1    3    3    0  502  0.44181009075E+03  0.68541354936E+02 -0.12022079110E+03  0.46300021840E+03  0.46999998093E+01 0.  1.
</event>
<event>
 5   0  0.3748901E-03  0.1097545E+04  0.7818609E-02  0.9207588E-01
       -2   -1    0    0    0  501  0.00000000000E+00  0.00000000000E+00  0.24122335133E+03  0.24122335135E+03  0.25500000920E-02 0.  1.
        2   -1    0    0  501    0  0.00000000000E+00  0.00000000000E+00 -0.12484341590E+04  0.12484341590E+04  0.25500000920E-02 0. -1.
    10030    2    1    2    0    0  0.00000000000E+00  0.00000000000E+00 -0.10072108077E+04  0.14896575104E+04  0.10975453918E+04 0.  0.
        5    1    3    3  502    0 -0.11000523685E+03  0.78504904813E+02  0.21825581031E+03  0.25675252861E+03  0.46999998093E+01 0.  1.
       -5    1    3    3    0  502  0.11000523685E+03 -0.78504904813E+02 -0.12254666180E+04  0.12329049818E+04  0.46999998093E+01 0. -1.
</event>
<event>
 5   0  0.2300702E-03  0.1118737E+04  0.7818609E-02  0.9187120E-01
       -1   -1    0    0    0  501  0.00000000000E+00  0.00000000000E+00  0.50033966515E+03  0.50033966518E+03  0.50400001928E-02 0.  1.
        1   -1    0    0  501    0  0.00000000000E+00  0.00000000000E+00 -0.62536118491E+03  0.62536118493E+03  0.50400001928E-02 0. -1.
    10030    2    1    2    0    0  0.00000000000E+00  0.00000000000E+00 -0.12502151976E+03  0.11257008501E+04  0.11187367981E+04 0.  0.
        5    1    3    3  502    0  0.26598883160E+03 -0.46894632735E+03  0.87447813327E+02  0.54619586828E+03  0.46999998093E+01 0.  1.
       -5    1    3    3    0  502 -0.26598883160E+03  0.46894632735E+03 -0.21246933309E+03  0.57950498183E+03  0.46999998093E+01 0. -1.
</event>
<event>
 5   0  0.1508625E-03  0.1110859E+04  0.7818609E-02  0.9194672E-01
       -3   -1    0    0    0  501  0.00000000000E+00  0.00000000000E+00  0.87077316677E+03  0.87077317263E+03  0.10100000352E+00 0. -1.
        3   -1    0    0  501    0  0.00000000000E+00  0.00000000000E+00 -0.35428528107E+03  0.35428529547E+03  0.10100000352E+00 0.  1.
    10030    2    1    2    0    0  0.00000000000E+00  0.00000000000E+00  0.51648788570E+03  0.12250584681E+04  0.11108593584E+04 0.  0.
        1    1    3    3  502    0  0.26917716862E+03  0.48409225981E+03  0.21276802106E+03  0.59335646531E+03  0.50400001928E-02 0. -1.
       -1    1    3    3    0  502 -0.26917716862E+03 -0.48409225981E+03  0.30371986464E+03  0.63170200278E+03  0.50400001928E-02 0.  1.
</event>
<event>
 5   0  0.2298958E-03  0.1097361E+04  0.7818609E-02  0.9207768E-01
       -1   -1    0    0    0  501  0.00000000000E+00  0.00000000000E+00  0.18146472585E+03  0.18146472592E+03  0.50400001928E-02 0. -1.
        1   -1    0    0  501    0  0.00000000000E+00  0.00000000000E+00 -0.16590005518E+04  0.16590005518E+04  0.50400001928E-02 0.  1.
    10030    2    1    2    0    0  0.00000000000E+00  0.00000000000E+00 -0.14775358260E+04  0.18404652777E+04  0.10973606160E+04 0.  0.
        1    1    3    3  502    0 -0.70413906279E+02  0.30482433621E+02  0.17242232353E+03  0.18872401711E+03  0.50400001928E-02 0. -1.
       -1    1    3    3    0  502  0.70413906279E+02 -0.30482433621E+02 -0.16499581495E+04  0.16517412606E+04  0.50400001928E-02 0.  1.
</event>
<event>
 5   0  0.2255788E-03  0.1106940E+04  0.7818609E-02  0.9198454E-01
        1   -1    0    0  501    0  0.00000000000E+00  0.00000000000E+00  0.15160907708E+04  0.15160907708E+04  0.50400001928E-02 0.  1.
       -1   -1    0    0    0  501  0.00000000000E+00  0.00000000000E+00 -0.20205181049E+03  0.20205181056E+03  0.50400001928E-02 0. -1.
    10030    2    1    2    0    0  0.00000000000E+00  0.00000000000E+00  0.13140389603E+04  0.17181425813E+04  0.11069397186E+04 0.  0.
        3    1    3    3  502    0  0.36701834038E+03  0.66748058368E-01  0.13995325102E+02  0.36728510174E+03  0.10100000352E+00 0. -1.
       -3    1    3    3    0  502 -0.36701834038E+03 -0.66748058368E-01  0.13000436352E+04  0.13508574796E+04  0.10100000352E+00 0.  1.
</event>
<event>
 5   0  0.2255788E-03  0.1084622E+04  0.7818609E-02  0.9220311E-01
       -1   -1    0    0    0  501  0.00000000000E+00  0.00000000000E+00  0.31621980865E+03  0.31621980869E+03  0.50400001928E-02 0. -1.
        1   -1    0    0  501    0  0.00000000000E+00  0.00000000000E+00 -0.93005389382E+03  0.93005389383E+03  0.50400001928E-02 0.  1.
    10030    2    1    2    0    0  0.00000000000E+00  0.00000000000E+00 -0.61383408517E+03  0.12462737025E+04  0.10846224493E+04 0.  0.
        3    1    3    3  502    0 -0.29509447688E+03 -0.41642968881E+03 -0.96272684065E+02  0.51938701939E+03  0.10100000352E+00 0. -1.
       -3    1    3    3    0  502  0.29509447688E+03  0.41642968881E+03 -0.51756140110E+03  0.72688668314E+03  0.10100000352E+00 0.  1.
</event>
<event>
 5   0  0.3992414E-03  0.1107122E+04  0.7818609E-02  0.9198278E-01
        2   -1    0    0  501    0  0.00000000000E+00  0.00000000000E+00  0.94161706945E+03  0.94161706945E+03  0.25500000920E-02 0.  1.
       -2   -1    0    0    0  501  0.00000000000E+00  0.00000000000E+00 -0.32542953668E+03  0.32542953669E+03  0.25500000920E-02 0. -1.
    10030    2    1    2    0    0  0.00000000000E+00  0.00000000000E+00  0.61618753277E+03  0.12670466061E+04  0.11071224081E+04 0.  0.
        1    1    3    3  502    0 -0.42339971416E+03  0.32588683986E+02  0.71449558221E+03  0.83116380895E+03  0.50400001928E-02 0.  1.
       -1    1    3    3    0  502  0.42339971416E+03 -0.32588683986E+02 -0.98308049448E+02  0.43588279719E+03  0.50400001928E-02 0. -1.
</event>
<event>
 5   0  0.2257667E-03  0.1084865E+04  0.7818609E-02  0.9220070E-01
        1   -1    0    0  501    0  0.00000000000E+00  0.00000000000E+00  0.14274378956E+04  0.14274378956E+04  0.50400001928E-02 0.  1.
       -1   -1    0    0    0  501  0.00000000000E+00  0.00000000000E+00 -0.20612677799E+03  0.20612677805E+03  0.50400001928E-02 0. -1.
    10030    2    1    2    0    0  0.00000000000E+00  0.00000000000E+00  0.12213111176E+04  0.16335646737E+04  0.10848652898E+04 0.  0.
        4    1    3    3  502    0 -0.11823281269E+03 -0.10700227274E+03 -0.17003268016E+03  0.23311201082E+03  0.12699999809E+01 0. -1.
       -4    1    3    3    0  502  0.11823281269E+03  0.10700227274E+03  0.13913437978E+04  0.14004526629E+04  0.12699999809E+01 0.  1.
</event>
<event>
 5   0  0.2298958E-03  0.1110113E+04  0.7818609E-02  0.9195391E-01
       -1   -1    0    0    0  501  0.00000000000E+00  0.00000000000E+00  0.69341754402E+03  0.69341754404E+03  0.50400001928E-02 0.  1.
        1   -1    0    0  501    0  0.00000000000E+00  0.00000000000E+00 -0.44430333817E+03  0.44430333820E+03  0.50400001928E-02 0. -1.
    10030    2    1    2    0    0  0.00000000000E+00  0.00000000000E+00  0.24911420585E+03  0.11377208822E+04  0.11101130205E+04 0.  0.
        1    1    3    3  502    0 -0.40255331925E+03 -0.28412544767E+03 -0.13735926896E+03  0.51151149904E+03  0.50400001928E-02 0. -1.
       -1    1    3    3    0  502  0.40255331925E+03  0.28412544767E+03  0.38647347481E+03  0.62620938320E+03  0.50400001928E-02 0.  1.
</event>
<event>
 5   0  0.3744875E-03  0.1190130E+04  0.7818609E-02  0.9121540E-01
       -2   -1    0    0    0  501  0.00000000000E+00  0.00000000000E+00  0.41022998014E+03  0.41022998014E+03  0.25500000920E-02 0.  1.
        2   -1    0    0  501    0  0.00000000000E+00  0.00000000000E+00 -0.86318006321E+03  0.86318006321E+03  0.25500000920E-02 0. -1.
    10030    2    1    2    0    0  0.00000000000E+00  0.00000000000E+00 -0.45295008307E+03  0.12734100434E+04  0.11901299764E+04 0.  0.
        2    1    3    3  502    0 -0.46206456251E+03 -0.26902045365E+03 -0.50595520106E+03  0.73611570415E+03  0.25500000920E-02 0. -1.
       -2    1    3    3    0  502  0.46206456251E+03  0.26902045365E+03  0.53005117987E+02  0.53729433921E+03  0.25500000920E-02 0.  1.
</event>
<event>
 5   0  0.2255788E-03  0.1018688E+04  0.7818609E-02  0.9288282E-01
       -1   -1    0    0    0  501  0.00000000000E+00  0.00000000000E+00  0.16713377970E+03  0.16713377978E+03  0.50400001928E-02 0.  1.
        1   -1    0    0  501    0  0.00000000000E+00  0.00000000000E+00 -0.15522380470E+04  0.15522380470E+04  0.50400001928E-02 0. -1.
    10030    2    1    2    0    0  0.00000000000E+00  0.00000000000E+00 -0.13851042673E+04  0.17193718267E+04  0.10186881993E+04 0.  0.
        3    1    3    3  502    0 -0.38625527202E+02 -0.50670479081E+03 -0.63433485828E+03  0.81278681031E+03  0.10100000352E+00 0. -1.
       -3    1    3    3    0  502  0.38625527202E+02  0.50670479081E+03 -0.75076940897E+03  0.90658501644E+03  0.10100000352E+00 0.  1.
</event>
<event>
 5   0  0.1508625E-03  0.1116649E+04  0.7818609E-02  0.9189115E-01
        3   -1    0    0  501    0  0.00000000000E+00  0.00000000000E+00  0.26885148316E+03  0.26885150213E+03  0.10100000352E+00 0.  1.
       -3   -1    0    0    0  501  0.00000000000E+00  0.00000000000E+00 -0.11594728580E+04  0.11594728624E+04  0.10100000352E+00 0. -1.
    10030    2    1    2    0    0  0.00000000000E+00  0.00000000000E+00 -0.89062137483E+03  0.14283243645E+04  0.11166485826E+04 0.  0.
        1    1    3    3  502    0  0.15838220542E+02  0.52240695437E+03 -0.19411428995E+03  0.55753047701E+03  0.50400001928E-02 0.  1.
       -1    1    3    3    0  502 -0.15838220542E+02 -0.52240695437E+03 -0.69650708488E+03  0.87079388751E+03  0.50400001928E-02 0. -1.
</event>
<event>
 5   0  0.3962999E-03  0.1098675E+04  0.7818609E-02  0.9206484E-01
        2   -1    0    0  501    0  0.00000000000E+00  0.00000000000E+00  0.18410429617E+04  0.18410429617E+04  0.25500000920E-02 0. -1.
       -2   -1    0    0    0  501  0.00000000000E+00  0.00000000000E+00 -0.16391346049E+03  0.16391346051E+03  0.25500000920E-02 0.  1.
    10030    2    1    2    0    0  0.00000000000E+00  0.00000000000E+00  0.16771295012E+04  0.20049564222E+04  0.10986750617E+04 0.  0.
        3    1    3    3  502    0  0.98247613356E+02 -0.41007009772E+03  0.14810739008E+04  0.15399318130E+04  0.10100000352E+00 0. -1.
       -3    1    3    3    0  502 -0.98247613356E+02  0.41007009772E+03  0.19605560034E+03  0.46502460925E+03  0.10100000352E+00 0.  1.
</event>
<event>
 5   0  0.2298958E-03  0.1091797E+04  0.7818609E-02  0.9213224E-01
        1   -1    0    0  501    0  0.00000000000E+00  0.00000000000E+00  0.82206486040E+03  0.82206486041E+03  0.50400001928E-02 0. -1.
       -1   -1    0    0    0  501  0.00000000000E+00  0.00000000000E+00 -0.36250790432E+03  0.36250790436E+03  0.50400001928E-02 0.  1.
    10030    2    1    2    0    0  0.00000000000E+00  0.00000000000E+00  0.45955695608E+03  0.11845727648E+04  0.10917967023E+04 0.  0.
        1    1    3    3  502    0 -0.23325559366E+03  0.28571301466E+03  0.66642543060E+03  0.76168428715E+03  0.50400001928E-02 0. -1.
       -1    1    3    3    0  502  0.23325559366E+03 -0.28571301466E+03 -0.20686847452E+03  0.42288847761E+03  0.50400001928E-02 0.  1.
</event>
<event>
 5   0  0.3744875E-03  0.1107792E+04  0.7818609E-02  0.9197631E-01
        2   -1    0    0  501    0  0.00000000000E+00  0.00000000000E+00  0.22041941297E+03  0.22041941298E+03  0.25500000920E-02 0.  1.
       -2   -1    0    0    0  501  0.00000000000E+00  0.00000000000E+00 -0.13918942059E+04  0.13918942059E+04  0.25500000920E-02 0. -1.
    10030    2    1    2    0    0  0.00000000000E+00  0.00000000000E+00 -0.11714747929E+04  0.16123136188E+04  0.11077915035E+04 0.  0.
        2    1    3    3  502    0  0.91915653215E+02 -0.44443096641E+03 -0.12357657942E+03  0.47036001339E+03  0.25500000920E-02 0.  1.
       -2    1    3    3    0  502 -0.91915653215E+02  0.44443096641E+03 -0.10478982135E+04  0.11419536054E+04  0.25500000920E-02 0. -1.
</event>
<event>
 5   0  0.2374100E-03  0.1095000E+04  0.7818609E-02  0.9210079E-01
       -1   -1    0    0    0  501  0.00000000000E+00  0.00000000000E+00  0.77115093531E+03  0.77115093533E+03  0.50400001928E-02 0. -1.
        1   -1    0    0  501    0  0.00000000000E+00  0.00000000000E+00 -0.38871269775E+03  0.38871269778E+03  0.50400001928E-02 0.  1.
    10030    2    1    2    0    0  0.00000000000E+00  0.00000000000E+00  0.38243823756E+03  0.11598636331E+04  0.10949998365E+04 0.  0.
        2    1    3    3  502    0  0.83628271225E+02  0.12008326220E+03  0.75005286730E+03  0.76419433481E+03  0.25500000920E-02 0. -1.
       -2    1    3    3    0  502 -0.83628271225E+02 -0.12008326220E+03 -0.36761462974E+03  0.39566929830E+03  0.25500000920E-02 0.  1.
</event>
<event>
 5   0  0.3962999E-03  0.1102855E+04  0.7818609E-02  0.9202413E-01
       -2   -1    0    0    0  501  0.00000000000E+00  0.00000000000E+00  0.41903576613E+03  0.41903576614E+03  0.25500000920E-02 0.  1.
        2   -1    0    0  501    0  0.00000000000E+00  0.00000000000E+00 -0.72564816544E+03  0.72564816544E+03  0.25500000920E-02 0. -1.
    10030    2    1    2    0    0  0.00000000000E+00  0.00000000000E+00 -0.30661239931E+03  0.11446839316E+04  0.11028554483E+04 0.  0.
        3    1    3    3  502    0  0.54929445944E+03  0.31126262359E+02 -0.19185339630E+03  0.58266712903E+03  0.10100000352E+00 0. -1.
       -3    1    3    3    0  502 -0.54929445944E+03 -0.31126262359E+02 -0.11475900301E+03  0.56201680255E+03  0.10100000352E+00 0.  1.
</event>
<event>
 5   0  0.3748901E-03  0.1105564E+04  0.7818609E-02  0.9199786E-01
       -2   -1    0    0    0  501  0.00000000000E+00  0.00000000000E+00  0.77894376813E+03  0.77894376814E+03  0.25500000920E-02 0. -1.
        2   -1    0    0  501    0  0.00000000000E+00  0.00000000000E+00 -0.39228475515E+03  0.39228475516E+03  0.25500000920E-02 0.  1.
    10030    2    1    2    0    0  0.00000000000E+00  0.00000000000E+00  0.38665901298E+03  0.11712285233E+04  0.11055636849E+04 0.  0.
        5    1    3    3  502    0 -0.46191459739E+03 -0.29490676531E+03  0.26980123443E+03  0.61085996072E+03  0.46999998093E+01 0. -1.
       -5    1    3    3    0  502  0.46191459739E+03  0.29490676531E+03  0.11685777855E+03  0.56036856257E+03  0.46999998093E+01 0.  1.
</event>
<event>
 5   0  0.2374100E-03  0.1097469E+04  0.7818609E-02  0.9207662E-01
       -1   -1    0    0    0  501  0.00000000000E+00  0.00000000000E+00  0.34748246947E+03  0.34748246950E+03  0.50400001928E-02 0.  1.
        1   -1    0    0  501    0  0.00000000000E+00  0.00000000000E+00 -0.86654577870E+03  0.86654577872E+03  0.50400001928E-02 0. -1.
    10030    2    1    2    0    0  0.00000000000E+00  0.00000000000E+00 -0.51906330924E+03  0.12140282482E+04  0.10974688463E+04 0.  0.
        2    1    3    3  502    0 -0.74048252500E+02 -0.53481257394E+02  0.33901356843E+03  0.35110338673E+03  0.25500000920E-02 0.  1.
       -2    1    3    3    0  502  0.74048252500E+02  0.53481257394E+02 -0.85807687766E+03  0.86292486149E+03  0.25500000920E-02 0. -1.
</event>
<event>
 5   0  0.3962999E-03  0.1089015E+04  0.7818609E-02  0.9215965E-01
        2   -1    0    0  501    0  0.00000000000E+00  0.00000000000E+00  0.10450799113E+04  0.10450799113E+04  0.25500000920E-02 0. -1.
       -2   -1    0    0    0  501  0.00000000000E+00  0.00000000000E+00 -0.28369927434E+03  0.28369927435E+03  0.25500000920E-02 0.  1.
    10030    2    1    2    0    0  0.00000000000E+00  0.00000000000E+00  0.76138063697E+03  0.13287791857E+04  0.10890149907E+04 0.  0.
        3    1    3    3  502    0 -0.14164165344E+03  0.52433716055E+03  0.42789334533E+03  0.69143657779E+03  0.10100000352E+00 0. -1.
       -3    1    3    3    0  502  0.14164165344E+03 -0.52433716055E+03  0.33348729164E+03  0.63734260787E+03  0.10100000352E+00 0.  1.
</event>
<event>
 5   0  0.3992414E-03  0.1104735E+04  0.7818609E-02  0.9200589E-01
        2   -1    0    0  501    0  0.00000000000E+00  0.00000000000E+00  0.50306262790E+03  0.50306262791E+03  0.25500000920E-02 0. -1.
       -2   -1    0    0    0  501  0.00000000000E+00  0.00000000000E+00 -0.60650441944E+03  0.60650441944E+03  0.25500000920E-02 0.  1.
    10030    2    1    2    0    0  0.00000000000E+00  0.00000000000E+00 -0.10344179154E+03  0.11095670473E+04  0.11047347321E+04 0.  0.
        1    1    3    3  502    0 -0.25918986715E+03 -0.31873070957E+03  0.31913814155E+03  0.52020938656E+03  0.50400001928E-02 0. -1.
       -1    1    3    3    0  502  0.25918986715E+03  0.31873070957E+03 -0.42257993309E+03  0.58935766078E+03  0.50400001928E-02 0.  1.
</event>
<event>
 5   0  0.2255788E-03  0.1099706E+04  0.7818609E-02  0.9205479E-01
        1   -1    0    0  501    0  0.00000000000E+00  0.00000000000E+00  0.57110437884E+03  0.57110437886E+03  0.50400001928E-02 0.  1.
       -1   -1    0    0    0  501  0.00000000000E+00  0.00000000000E+00 -0.52939220316E+03  0.52939220318E+03  0.50400001928E-02 0. -1.
    10030    2    1    2    0    0  0.00000000000E+00  0.00000000000E+00  0.41712175685E+02  0.11004965820E+04  0.10997057886E+04 0.  0.
        3    1    3    3  502    0  0.24603519294E+03 -0.26438442337E+03 -0.39405724995E+03  0.53452181052E+03  0.10100000352E+00 0. -1.
       -3    1    3    3    0  502 -0.24603519294E+03  0.26438442337E+03  0.43576942563E+03  0.56597477152E+03  0.10100000352E+00 0.  1.
</event>
<event>
 5   0  0.3962999E-03  0.1093129E+04  0.7818609E-02  0.9211915E-01
        2   -1    0    0  501    0  0.00000000000E+00  0.00000000000E+00  0.10520384637E+04  0.10520384637E+04  0.25500000920E-02 0.  1.
       -2   -1    0    0    0  501  0.00000000000E+00  0.00000000000E+00 -0.28395586825E+03  0.28395586826E+03  0.25500000920E-02 0. -1.
    10030    2    1    2    0    0  0.00000000000E+00  0.00000000000E+00  0.76808259542E+03  0.13359943319E+04  0.10931285293E+04 0.  0.
        3    1    3    3  502    0  0.14525121747E+03 -0.28830946068E+03  0.92306372605E+03  0.97788900896E+03  0.10100000352E+00 0.  1.
       -3    1    3    3    0  502 -0.14525121747E+03  0.28830946068E+03 -0.15498113062E+03  0.35810532298E+03  0.10100000352E+00 0. -1.
</event>
<event>
 5   0  0.2257667E-03  0.1103596E+04  0.7818609E-02  0.9201694E-01
       -1   -1    0    0    0  501  0.00000000000E+00  0.00000000000E+00  0.36188641035E+03  0.36188641039E+03  0.50400001928E-02 0. -1.
        1   -1    0    0  501    0  0.00000000000E+00  0.00000000000E+00 -0.84137128032E+03  0.84137128034E+03  0.50400001928E-02 0.  1.
    10030    2    1    2    0    0  0.00000000000E+00  0.00000000000E+00 -0.47948486997E+03  0.12032576907E+04  0.11035956369E+04 0.  0.
        4    1    3    3  502    0 -0.70123359510E+02 -0.27002748032E+03  0.27932495889E+03  0.39478623486E+03  0.12699999809E+01 0. -1.
       -4    1    3    3    0  502  0.70123359510E+02  0.27002748032E+03 -0.75880982886E+03  0.80847145587E+03  0.12699999809E+01 0.  1.
</event>
<event>
 5   0  0.2298958E-03  0.1097784E+04  0.7818609E-02  0.9207355E-01
        1   -1    0    0  501    0  0.00000000000E+00  0.00000000000E+00  0.68680242318E+03  0.68680242320E+03  0.50400001928E-02 0. -1.
       -1   -1    0    0    0  501  0.00000000000E+00  0.00000000000E+00 -0.43867376213E+03  0.43867376216E+03  0.50400001928E-02 0.  1.
    10030    2    1    2    0    0  0.00000000000E+00  0.00000000000E+00  0.24812866104E+03  0.11254761854E+04  0.10977835904E+04 0.  0.
        1    1    3    3  502    0  0.32774011676E+03  0.79774833130E+02  0.56800561308E+03  0.66061182600E+03  0.50400001928E-02 0. -1.
       -1    1    3    3    0  502 -0.32774011676E+03 -0.79774833130E+02 -0.31987695203E+03  0.46486435936E+03  0.50400001928E-02 0.  1.
</event>
<event>
 5   0  0.2255788E-03  0.1103286E+04  0.7818609E-02  0.9201995E-01
       -1   -1    0    0    0  501  0.00000000000E+00  0.00000000000E+00  0.19695392925E+03  0.19695392932E+03  0.50400001928E-02 0.  1.
        1   -1    0    0  501    0  0.00000000000E+00  0.00000000000E+00 -0.15450809747E+04  0.15450809747E+04  0.50400001928E-02 0. -1.
    10030    2    1    2    0    0  0.00000000000E+00  0.00000000000E+00 -0.13481270455E+04  0.17420349040E+04  0.11032855823E+04 0.  0.
        3    1    3    3  502    0  0.17052002988E+03  0.36533102857E+03 -0.79559460451E+02  0.41094228180E+03  0.10100000352E+00 0.  1.
       -3    1    3    3    0  502 -0.17052002988E+03 -0.36533102857E+03 -0.12685675850E+04  0.13310926222E+04  0.10100000352E+00 0. -1.
</event>
<event>
 5   0  0.3713158E-03  0.1102652E+04  0.7818609E-02  0.9202611E-01
       -2   -1    0    0    0  501  0.00000000000E+00  0.00000000000E+00  0.49158354638E+03  0.49158354639E+03  0.25500000920E-02 0.  1.
        2   -1    0    0  501    0  0.00000000000E+00  0.00000000000E+00 -0.61832865520E+03  0.61832865520E+03  0.25500000920E-02 0. -1.
    10030    2    1    2    0    0  0.00000000000E+00  0.00000000000E+00 -0.12674510882E+03  0.11099122016E+04  0.11026517005E+04 0.  0.
        4    1    3    3  502    0  0.81683214157E+02 -0.54038561509E+03  0.96989680318E+01  0.54661178487E+03  0.12699999809E+01 0. -1.
       -4    1    3    3    0  502 -0.81683214157E+02  0.54038561509E+03 -0.13644407685E+03  0.56330041672E+03  0.12699999809E+01 0.  1.
</event>
<event>
 5   0  0.3713158E-03  0.1108276E+04  0.7818609E-02  0.9197163E-01
       -2   -1    0    0    0  501  0.00000000000E+00  0.00000000000E+00  0.25780261030E+03  0.25780261032E+03  0.25500000920E-02 0.  1.
        2   -1    0    0  501    0  0.00000000000E+00  0.00000000000E+00 -0.11911015621E+04  0.11911015621E+04  0.25500000920E-02 0. -1.
    10030    2    1    2    0    0  0.00000000000E+00  0.00000000000E+00 -0.93329895179E+03  0.14489041724E+04  0.11082763046E+04 0.  0.
        4    1    3    3  502    0 -0.42547470667E+03 -0.20421403374E+03 -0.86988008739E+02  0.47989647233E+03  0.12699999809E+01 0.  1.
       -4    1    3    3    0  502  0.42547470667E+03  0.20421403374E+03 -0.84631094305E+03  0.96900770008E+03  0.12699999809E+01 0. -1.
</event>
<event>
 5   0  0.1508625E-03  0.1090033E+04  0.7818609E-02  0.9214961E-01
       -4   -1    0    0    0  501  0.00000000000E+00  0.00000000000E+00  0.51746767530E+03  0.51746923376E+03  0.12699999809E+01 0. -1.
        4   -1    0    0  501    0  0.00000000000E+00  0.00000000000E+00 -0.57402911207E+03  0.57403051696E+03  0.12699999809E+01 0.  1.
    10030    2    1    2    0    0  0.00000000000E+00  0.00000000000E+00 -0.56561436767E+02  0.10914997507E+04  0.10900332608E+04 0.  0.
        2    1    3    3  502    0 -0.40406532122E+03  0.23923596745E+03  0.24875101888E+03  0.53139411112E+03  0.25500000920E-02 0. -1.
       -2    1    3    3    0  502  0.40406532122E+03 -0.23923596745E+03 -0.30531245565E+03  0.56010563960E+03  0.25500000920E-02 0.  1.
</event>
<event>
 5   0  0.2255788E-03  0.1110259E+04  0.7818609E-02  0.9195250E-01
       -1   -1    0    0    0  501  0.00000000000E+00  0.00000000000E+00  0.56483310397E+03  0.56483310400E+03  0.50400001928E-02 0.  1.
        1   -1    0    0  501    0  0.00000000000E+00  0.00000000000E+00 -0.54559308551E+03  0.54559308554E+03  0.50400001928E-02 0. -1.
    10030    2    1    2    0    0  0.00000000000E+00  0.00000000000E+00  0.19240018461E+02  0.11104261895E+04  0.11102594940E+04 0.  0.
        3    1    3    3  502    0 -0.36250797547E+03 -0.84337260115E+02 -0.40232072078E+03  0.54807552243E+03  0.10100000352E+00 0. -1.
       -3    1    3    3    0  502  0.36250797547E+03  0.84337260115E+02  0.42156073924E+03  0.56235066710E+03  0.10100000352E+00 0.  1.
</event>
<event>
 5   0  0.2300702E-03  0.1105625E+04  0.7818609E-02  0.9199727E-01
       -1   -1    0    0    0  501  0.00000000000E+00  0.00000000000E+00  0.35296050099E+03  0.35296050103E+03  0.50400001928E-02 0.  1.
        1   -1    0    0  501    0  0.00000000000E+00  0.00000000000E+00 -0.86582382793E+03  0.86582382794E+03  0.50400001928E-02 0. -1.
    10030    2    1    2    0    0  0.00000000000E+00  0.00000000000E+00 -0.51286332694E+03  0.12187843290E+04  0.11056249131E+04 0.  0.
        5    1    3    3  502    0  0.36843740074E+03 -0.38055813002E+03 -0.43075938651E+03  0.68274911033E+03  0.46999998093E+01 0. -1.
       -5    1    3    3    0  502 -0.36843740074E+03  0.38055813002E+03 -0.82103940429E+02  0.53603521864E+03  0.46999998093E+01 0.  1.
</event>
<event>
 5   0  0.3744875E-03  0.1011650E+04  0.7818609E-02  0.9295858E-01
       -2   -1    0    0    0  501  0.00000000000E+00  0.00000000000E+00  0.18569875467E+03  0.18569875469E+03  0.25500000920E-02 0.  1.
        2   -1    0    0  501    0  0.00000000000E+00  0.00000000000E+00 -0.13778178909E+04  0.13778178909E+04  0.25500000920E-02 0. -1.
    10030    2    1    2    0    0  0.00000000000E+00  0.00000000000E+00 -0.11921191362E+04  0.15635166456E+04  0.10116502686E+04 0.  0.
        2    1    3    3  502    0 -0.38009416770E+03 -0.13913071035E+03 -0.10649130429E+04  0.11392404135E+04  0.25500000920E-02 0. -1.
       -2    1    3    3    0  502  0.38009416770E+03  0.13913071035E+03 -0.12720609331E+03  0.42427623203E+03  0.25500000920E-02 0.  1.
</event>
<event>
 5   0  0.3962999E-03  0.1080509E+04  0.7818609E-02  0.9224400E-01
       -2   -1    0    0    0  501  0.00000000000E+00  0.00000000000E+00  0.28627968439E+03  0.28627968440E+03  0.25500000920E-02 0.  1.
        2   -1    0    0  501    0  0.00000000000E+00  0.00000000000E+00 -0.10195449464E+04  0.10195449464E+04  0.25500000920E-02 0. -1.
    10030    2    1    2    0    0  0.00000000000E+00  0.00000000000E+00 -0.73326526205E+03  0.13058246308E+04  0.10805091494E+04 0.  0.
        3    1    3    3  502    0  0.50581965975E+03 -0.14910463633E+03 -0.22471801827E+03  0.57322239899E+03  0.10100000352E+00 0.  1.
       -3    1    3    3    0  502 -0.50581965975E+03  0.14910463633E+03 -0.50854724379E+03  0.73260223186E+03  0.10100000352E+00 0. -1.
</event>
<event>
 5   0  0.3992414E-03  0.1116913E+04  0.7818609E-02  0.9188863E-01
        2   -1    0    0  501    0  0.00000000000E+00  0.00000000000E+00  0.14894877190E+04  0.14894877190E+04  0.25500000920E-02 0. -1.
       -2   -1    0    0    0  501  0.00000000000E+00  0.00000000000E+00 -0.20938302680E+03  0.20938302682E+03  0.25500000920E-02 0.  1.
    10030    2    1    2    0    0  0.00000000000E+00  0.00000000000E+00  0.12801046922E+04  0.16988707458E+04  0.11169126143E+04 0.  0.
        1    1    3    3  502    0 -0.95308431466E+02  0.40332196413E+03  0.12094202451E+04  0.12784559566E+04  0.50400001928E-02 0. -1.
       -1    1    3    3    0  502  0.95308431466E+02 -0.40332196413E+03  0.70684447110E+02  0.42041478916E+03  0.50400001928E-02 0.  1.
</event>
<event>
 5   0  0.3744875E-03  0.1074692E+04  0.7818609E-02  0.9230216E-01
        2   -1    0    0  501    0  0.00000000000E+00  0.00000000000E+00  0.62974944436E+03  0.62974944437E+03  0.25500000920E-02 0. -1.
       -2   -1    0    0    0  501  0.00000000000E+00  0.00000000000E+00 -0.45850083756E+03  0.45850083757E+03  0.25500000920E-02 0.  1.
    10030    2    1    2    0    0  0.00000000000E+00  0.00000000000E+00  0.17124860680E+03  0.10882502819E+04  0.10746918585E+04 0.  0.
        2    1    3    3  502    0  0.39451407582E+03  0.63470311202E+02  0.44942108226E+03  0.60137271772E+03  0.25500000920E-02 0. -1.
       -2    1    3    3    0  502 -0.39451407582E+03 -0.63470311202E+02 -0.27817247546E+03  0.48687756422E+03  0.25500000920E-02 0.  1.
</event>
<event>
 5   0  0.3962999E-03  0.1105428E+04  0.7818609E-02  0.9199917E-01
       -2   -1    0    0    0  501  0.00000000000E+00  0.00000000000E+00  0.17212885791E+03  0.17212885793E+03  0.25500000920E-02 0.  1.
        2   -1    0    0  501    0  0.00000000000E+00  0.00000000000E+00 -0.17747925812E+04  0.17747925812E+04  0.25500000920E-02 0. -1.
    10030    2    1    2    0    0  0.00000000000E+00  0.00000000000E+00 -0.16026637233E+04  0.19469214392E+04  0.11054284600E+04 0.  0.
        3    1    3    3  502    0  0.46228056210E+03  0.23863205806E+03 -0.11300960348E+04  0.12440922937E+04  0.10100000352E+00 0. -1.
       -3    1    3    3    0  502 -0.46228056210E+03 -0.23863205806E+03 -0.47256768853E+03  0.70282914544E+03  0.10100000352E+00 0.  1.
</event>
<event>
 5   0  0.2255788E-03  0.1104786E+04  0.7818609E-02  0.9200540E-01
       -1   -1    0    0    0  501  0.00000000000E+00  0.00000000000E+00  0.13677076280E+03  0.13677076289E+03  0.50400001928E-02 0.  1.
        1   -1    0    0  501    0  0.00000000000E+00  0.00000000000E+00 -0.22310184430E+04  0.22310184430E+04  0.50400001928E-02 0. -1.
    10030    2    1    2    0    0  0.00000000000E+00  0.00000000000E+00 -0.20942476802E+04  0.23677892059E+04  0.11047861230E+04 0.  0.
        3    1    3    3  502    0 -0.31732311222E+03  0.14416316518E+03 -0.12863596745E+03  0.37151608049E+03  0.10100000352E+00 0.  1.
       -3    1    3    3    0  502  0.31732311222E+03 -0.14416316518E+03 -0.19656117128E+04  0.19962731254E+04  0.10100000352E+00 0. -1.
</event>
<event>
 5   0  0.3748901E-03  0.1090502E+04  0.7818609E-02  0.9214499E-01
       -2   -1    0    0    0  501  0.00000000000E+00  0.00000000000E+00  0.40858361805E+03  0.40858361806E+03  0.25500000920E-02 0. -1.
        2   -1    0    0  501    0  0.00000000000E+00  0.00000000000E+00 -0.72763283016E+03  0.72763283017E+03  0.25500000920E-02 0.  1.
    10030    2    1    2    0    0  0.00000000000E+00  0.00000000000E+00 -0.31904921211E+03  0.11362164482E+04  0.10905023693E+04 0.  0.
        5    1    3    3  502    0  0.20534661716E+03 -0.32861152953E+03 -0.55917128780E+03  0.68032888342E+03  0.46999998093E+01 0.  1.
       -5    1    3    3    0  502 -0.20534661716E+03  0.32861152953E+03  0.24012207568E+03  0.45588756481E+03  0.46999998093E+01 0. -1.
</event>
<event>
 5   0  0.2300702E-03  0.1109950E+04  0.7818609E-02  0.9195548E-01
        1   -1    0    0  501    0  0.00000000000E+00  0.00000000000E+00  0.15560836657E+04  0.15560836657E+04  0.50400001928E-02 0. -1.
       -1   -1    0    0    0  501  0.00000000000E+00  0.00000000000E+00 -0.19793099459E+03  0.19793099465E+03  0.50400001928E-02 0.  1.
    10030    2    1    2    0    0  0.00000000000E+00  0.00000000000E+00  0.13581526711E+04  0.17540146604E+04  0.11099498866E+04 0.  0.
        5    1    3    3  502    0 -0.16036028184E+03 -0.24246984637E+03 -0.67952848613E+02  0.29857448991E+03  0.46999998093E+01 0.  1.
       -5    1    3    3    0  502  0.16036028184E+03  0.24246984637E+03  0.14261055197E+04  0.14554401705E+04  0.46999998093E+01 0. -1.
</event>
<event>
 5   0  0.2255788E-03  0.1081888E+04  0.7818609E-02  0.9223027E-01
        1   -1    0    0  501    0  0.00000000000E+00  0.00000000000E+00  0.90235249637E+03  0.90235249638E+03  0.50400001928E-02 0. -1.
       -1   -1    0    0    0  501  0.00000000000E+00  0.00000000000E+00 -0.32428601709E+03  0.32428601713E+03  0.50400001928E-02 0.  1.
    10030    2    1    2    0    0  0.00000000000E+00  0.00000000000E+00  0.57806647928E+03  0.12266385135E+04  0.10818877892E+04 0.  0.
        3    1    3    3  502    0  0.13755995714E+03 -0.38184211875E+03  0.69450415048E+03  0.80440174707E+03  0.10100000352E+00 0. -1.
       -3    1    3    3    0  502 -0.13755995714E+03  0.38184211875E+03 -0.11643767120E+03  0.42223676644E+03  0.10100000352E+00 0.  1.
</event>
<event>
 5   0  0.3962999E-03  0.1111419E+04  0.7818609E-02  0.9194133E-01
        2   -1    0    0  501    0  0.00000000000E+00  0.00000000000E+00  0.85328449287E+03  0.85328449287E+03  0.25500000920E-02 0. -1.
       -2   -1    0    0    0  501  0.00000000000E+00  0.00000000000E+00 -0.36191129068E+03  0.36191129069E+03  0.25500000920E-02 0.  1.
    10030    2    1    2    0    0  0.00000000000E+00  0.00000000000E+00  0.49137320219E+03  0.12151957836E+04  0.11114194386E+04 0.  0.
        3    1    3    3  502    0  0.47779967692E+02  0.19214780361E+03  0.81340886266E+03  0.83716049345E+03  0.10100000352E+00 0. -1.
       -3    1    3    3    0  502 -0.47779967692E+02 -0.19214780361E+03 -0.32203566047E+03  0.37803529010E+03  0.10100000352E+00 0.  1.
</event>
<event>
 5   0  0.2298958E-03  0.1111302E+04  0.7818609E-02  0.9194245E-01
        1   -1    0    0  501    0  0.00000000000E+00  0.00000000000E+00  0.41686324208E+03  0.41686324211E+03  0.50400001928E-02 0.  1.
       -1   -1    0    0    0  501  0.00000000000E+00  0.00000000000E+00 -0.74064624690E+03  0.74064624692E+03  0.50400001928E-02 0. -1.
    10030    2    1    2    0    0  0.00000000000E+00  0.00000000000E+00 -0.32378300482E+03  0.11575094890E+04  0.11113022915E+04 0.  0.
        1    1    3    3  502    0  0.12581287312E+03  0.70708969845E+02  0.39700054988E+03  0.42241931075E+03  0.50400001928E-02 0.  1.
       -1    1    3    3    0  502 -0.12581287312E+03 -0.70708969845E+02 -0.72078355470E+03  0.73509017829E+03  0.50400001928E-02 0. -1.
</event>
<event>
 5   0  0.2255788E-03  0.1098521E+04  0.7818609E-02  0.9206635E-01
        1   -1    0    0  501    0  0.00000000000E+00  0.00000000000E+00  0.97001519929E+03  0.97001519930E+03  0.50400001928E-02 0. -1.
       -1   -1    0    0    0  501  0.00000000000E+00  0.00000000000E+00 -0.31101264873E+03  0.31101264877E+03  0.50400001928E-02 0.  1.
    10030    2    1    2    0    0  0.00000000000E+00  0.00000000000E+00  0.65900255056E+03  0.12810278481E+04  0.10985208172E+04 0.  0.
        3    1    3    3  502    0  0.13139134462E+03  0.81867950451E+02 -0.28504500240E+03  0.32437125388E+03  0.10100000352E+00 0.  1.
       -3    1    3    3    0  502 -0.13139134462E+03 -0.81867950451E+02  0.94404755296E+03  0.95665659418E+03  0.10100000352E+00 0. -1.
</event>
<event>
 5   0  0.2374100E-03  0.9844576E+03  0.7818609E-02  0.9325758E-01
        1   -1    0    0  501    0  0.00000000000E+00  0.00000000000E+00  0.10004644531E+04  0.10004644531E+04  0.50400001928E-02 0.  1.
       -1   -1    0    0    0  501  0.00000000000E+00  0.00000000000E+00 -0.24217670533E+03  0.24217670538E+03  0.50400001928E-02 0. -1.
    10030    2    1    2    0    0  0.00000000000E+00  0.00000000000E+00  0.75828774774E+03  0.12426411585E+04  0.98445758686E+03 0.  0.
        2    1    3    3  502    0 -0.14004198057E+03  0.34716557393E+03 -0.24292762783E+02  0.37513441641E+03  0.25500000920E-02 0. -1.
       -2    1    3    3    0  502  0.14004198057E+03 -0.34716557393E+03  0.78258051052E+03  0.86750674205E+03  0.25500000920E-02 0.  1.
</event>
<event>
 5   0  0.2300702E-03  0.1102452E+04  0.7818609E-02  0.9202806E-01
        1   -1    0    0  501    0  0.00000000000E+00  0.00000000000E+00  0.68824800828E+03  0.68824800829E+03  0.50400001928E-02 0.  1.
       -1   -1    0    0    0  501  0.00000000000E+00  0.00000000000E+00 -0.44148321887E+03  0.44148321890E+03  0.50400001928E-02 0. -1.
    10030    2    1    2    0    0  0.00000000000E+00  0.00000000000E+00  0.24676478941E+03  0.11297312272E+04  0.11024517152E+04 0.  0.
        5    1    3    3  502    0  0.10972955735E+02 -0.24571569244E+03  0.62887464103E+03  0.67527920995E+03  0.46999998093E+01 0.  1.
       -5    1    3    3    0  502 -0.10972955735E+02  0.24571569244E+03 -0.38210985162E+03  0.45445201724E+03  0.46999998093E+01 0. -1.
</event>
<event>
 5   0  0.3713158E-03  0.1101346E+04  0.7818609E-02  0.9203881E-01
        2   -1    0    0  501    0  0.00000000000E+00  0.00000000000E+00  0.18711745972E+04  0.18711745972E+04  0.25500000920E-02 0.  1.
       -2   -1    0    0    0  501  0.00000000000E+00  0.00000000000E+00 -0.16205912297E+03  0.16205912299E+03  0.25500000920E-02 0. -1.
    10030    2    1    2    0    0  0.00000000000E+00  0.00000000000E+00  0.17091154742E+04  0.20332337202E+04  0.11013462928E+04 0.  0.
        4    1    3    3  502    0  0.14163622512E+03 -0.30614075875E+02  0.18353423867E+04  0.18410544074E+04  0.12699999809E+01 0.  1.
       -4    1    3    3    0  502 -0.14163622512E+03  0.30614075875E+02 -0.12622691247E+03  0.19217931273E+03  0.12699999809E+01 0. -1.
</event>
<event>
 5   0  0.3992414E-03  0.9426869E+03  0.7818609E-02  0.9373740E-01
       -2   -1    0    0    0  501  0.00000000000E+00  0.00000000000E+00  0.30762030725E+03  0.30762030726E+03  0.25500000920E-02 0. -1.
        2   -1    0    0  501    0  0.00000000000E+00  0.00000000000E+00 -0.72220408192E+03  0.72220408193E+03  0.25500000920E-02 0.  1.
    10030    2    1    2    0    0  0.00000000000E+00  0.00000000000E+00 -0.41458377467E+03  0.10298243892E+04  0.94268688669E+03 0.  0.
        1    1    3    3  502    0  0.13213171547E+03 -0.31153980274E+03  0.15113477565E+03  0.37061780766E+03  0.50400001928E-02 0. -1.
       -1    1    3    3    0  502 -0.13213171547E+03  0.31153980274E+03 -0.56571855032E+03  0.65920658152E+03  0.50400001928E-02 0.  1.
</event>
<event>
 5   0  0.2257667E-03  0.1105147E+04  0.7818609E-02  0.9200190E-01
        1   -1    0    0  501    0  0.00000000000E+00  0.00000000000E+00  0.47911461699E+03  0.47911461702E+03  0.50400001928E-02 0. -1.
       -1   -1    0    0    0  501  0.00000000000E+00  0.00000000000E+00 -0.63729493517E+03  0.63729493519E+03  0.50400001928E-02 0.  1.
    10030    2    1    2    0    0  0.00000000000E+00  0.00000000000E+00 -0.15818031818E+03  0.11164095522E+04  0.11051467211E+04 0.  0.
        4    1    3    3  502    0 -0.44158105035E+03 -0.26610811253E+03 -0.27993374700E+03  0.58666162922E+03  0.12699999809E+01 0.  1.
       -4    1    3    3    0  502  0.44158105035E+03  0.26610811253E+03  0.12175342882E+03  0.52974792299E+03  0.12699999809E+01 0. -1.
</event>
<event>
 5   0  0.3744875E-03  0.1097497E+04  0.7818609E-02  0.9207635E-01
        2   -1    0    0  501    0  0.00000000000E+00  0.00000000000E+00  0.99511440921E+03  0.99511440921E+03  0.25500000920E-02 0. -1.
       -2   -1    0    0    0  501  0.00000000000E+00  0.00000000000E+00 -0.30260311609E+03  0.30260311610E+03  0.25500000920E-02 0.  1.
    10030    2    1    2    0    0  0.00000000000E+00  0.00000000000E+00  0.69251129312E+03  0.12977175253E+04  0.10974966444E+04 0.  0.
        2    1    3    3  502    0 -0.27864926222E+03 -0.36071160685E+03  0.70755932531E+03  0.84166410966E+03  0.25500000920E-02 0. -1.
       -2    1    3    3    0  502  0.27864926222E+03  0.36071160685E+03 -0.15048032186E+02  0.45605341565E+03  0.25500000920E-02 0.  1.
</event>
<event>
 5   0  0.2300702E-03  0.1117439E+04  0.7818609E-02  0.9188360E-01
        1   -1    0    0  501    0  0.00000000000E+00  0.00000000000E+00  0.35658010344E+03  0.35658010347E+03  0.50400001928E-02 0.  1.
       -1   -1    0    0    0  501  0.00000000000E+00  0.00000000000E+00 -0.87544774284E+03  0.87544774286E+03  0.50400001928E-02 0. -1.
    10030    2    1    2    0    0  0.00000000000E+00  0.00000000000E+00 -0.51886763940E+03  0.12320278463E+04  0.11174385831E+04 0.  0.
        5    1    3    3  502    0 -0.35764868683E+03 -0.45746679121E+02  0.21110916903E+03  0.41784508264E+03  0.46999998093E+01 0.  1.
       -5    1    3    3    0  502  0.35764868683E+03  0.45746679121E+02 -0.72997680843E+03  0.81418276369E+03  0.46999998093E+01 0. -1.
</event>
<event>
 5   0  0.3744875E-03  0.1101877E+04  0.7818609E-02  0.9203364E-01
        2   -1    0    0  501    0  0.00000000000E+00  0.00000000000E+00  0.12315738393E+04  0.12315738393E+04  0.25500000920E-02 0.  1.
       -2   -1    0    0    0  501  0.00000000000E+00  0.00000000000E+00 -0.24645981351E+03  0.24645981353E+03  0.25500000920E-02 0. -1.
    10030    2    1    2    0    0  0.00000000000E+00  0.00000000000E+00  0.98511402574E+03  0.14780336528E+04  0.11018774138E+04 0.  0.
        2    1    3    3  502    0  0.91836710981E+02 -0.37439464083E+03  0.10205354440E+04  0.10909160926E+04  0.25500000920E-02 0.  1.
       -2    1    3    3    0  502 -0.91836710981E+02  0.37439464083E+03 -0.35421418232E+02  0.38711756023E+03  0.25500000920E-02 0. -1.
</event>
<event>
 5   0  0.2374100E-03  0.1126026E+04  0.7818609E-02  0.9180190E-01
       -1   -1    0    0    0  501  0.00000000000E+00  0.00000000000E+00  0.27745345465E+03  0.27745345470E+03  0.50400001928E-02 0. -1.
        1   -1    0    0  501    0  0.00000000000E+00  0.00000000000E+00 -0.11424753555E+04  0.11424753555E+04  0.50400001928E-02 0.  1.
    10030    2    1    2    0    0  0.00000000000E+00  0.00000000000E+00 -0.86502190081E+03  0.14199288102E+04  0.11260261707E+04 0.  0.
        2    1    3    3  502    0 -0.66587506711E+02  0.39959965996E+02 -0.11356892986E+04  0.11383412836E+04  0.25500000920E-02 0.  1.
       -2    1    3    3    0  502  0.66587506711E+02 -0.39959965996E+02  0.27066739776E+03  0.28158752662E+03  0.25500000920E-02 0. -1.
</event>
<event>
 5   0  0.2374100E-03  0.1106929E+04  0.7818609E-02  0.9198465E-01
       -1   -1    0    0    0  501  0.00000000000E+00  0.00000000000E+00  0.12275123416E+04  0.12275123416E+04  0.50400001928E-02 0. -1.
        1   -1    0    0  501    0  0.00000000000E+00  0.00000000000E+00 -0.24954777058E+03  0.24954777063E+03  0.50400001928E-02 0.  1.
    10030    2    1    2    0    0  0.00000000000E+00  0.00000000000E+00  0.97796457104E+03  0.14770601123E+04  0.11069290280E+04 0.  0.
        2    1    3    3  502    0 -0.43505321339E+02  0.10945011997E+02 -0.24711774449E+03  0.25115669595E+03  0.25500000920E-02 0.  1.
       -2    1    3    3    0  502  0.43505321339E+02 -0.10945011997E+02  0.12250823155E+04  0.12259034163E+04  0.25500000920E-02 0. -1.
</event>
<event>
 5   0  0.2374100E-03  0.1101332E+04  0.7818609E-02  0.9203895E-01
       -1   -1    0    0    0  501  0.00000000000E+00  0.00000000000E+00  0.35296111225E+03  0.35296111228E+03  0.50400001928E-02 0.  1.
        1   -1    0    0  501    0  0.00000000000E+00  0.00000000000E+00 -0.85911181493E+03  0.85911181494E+03  0.50400001928E-02 0. -1.
    10030    2    1    2    0    0  0.00000000000E+00  0.00000000000E+00 -0.50615070268E+03  0.12120729272E+04  0.11013320331E+04 0.  0.
        2    1    3    3  502    0  0.31596066171E+03 -0.41685711508E+02 -0.74730057770E+03  0.81242045255E+03  0.25500000920E-02 0. -1.
       -2    1    3    3    0  502 -0.31596066171E+03  0.41685711508E+02  0.24114987501E+03  0.39965247468E+03  0.25500000920E-02 0.  1.
</event>
<event>
 5   0  0.3744875E-03  0.1099315E+04  0.7818609E-02  0.9205859E-01
       -2   -1    0    0    0  501  0.00000000000E+00  0.00000000000E+00  0.85058983464E+02  0.85058983503E+02  0.25500000920E-02 0.  1.
        2   -1    0    0  501    0  0.00000000000E+00  0.00000000000E+00 -0.35519302763E+04  0.35519302763E+04  0.25500000920E-02 0. -1.
    10030    2    1    2    0    0  0.00000000000E+00  0.00000000000E+00 -0.34668712928E+04  0.36369892598E+04  0.10993153846E+04 0.  0.
        2    1    3    3  502    0 -0.10716025057E+03 -0.19914184685E+03 -0.75980902164E+02  0.23856632614E+03  0.25500000920E-02 0.  1.
       -2    1    3    3    0  502  0.10716025057E+03  0.19914184685E+03 -0.33908903906E+04  0.33984229336E+04  0.25500000920E-02 0. -1.
</event>
<event>
 5   0  0.2300702E-03  0.1095936E+04  0.7818609E-02  0.9209162E-01
       -1   -1    0    0    0  501  0.00000000000E+00  0.00000000000E+00  0.48497261710E+03  0.48497261713E+03  0.50400001928E-02 0. -1.
        1   -1    0    0  501    0  0.00000000000E+00  0.00000000000E+00 -0.61914625420E+03  0.61914625422E+03  0.50400001928E-02 0.  1.
    10030    2    1    2    0    0  0.00000000000E+00  0.00000000000E+00 -0.13417363710E+03  0.11041188714E+04  0.10959360917E+04 0.  0.
        5    1    3    3  502    0  0.45071767303E+02 -0.45025519241E+03 -0.37840159972E+03  0.58989072138E+03  0.46999998093E+01 0.  1.
       -5    1    3    3    0  502 -0.45071767303E+02  0.45025519241E+03  0.24422796261E+03  0.51422814997E+03  0.46999998093E+01 0. -1.
</event>
<event>
 5   0  0.3748901E-03  0.1095185E+04  0.7818609E-02  0.9209898E-01
       -2   -1    0    0    0  501  0.00000000000E+00  0.00000000000E+00  0.19831428359E+03  0.19831428361E+03  0.25500000920E-02 0. -1.
        2   -1    0    0  501    0  0.00000000000E+00  0.00000000000E+00 -0.15120312060E+04  0.15120312060E+04  0.25500000920E-02 0.  1.
    10030    2    1    2    0    0  0.00000000000E+00  0.00000000000E+00 -0.13137169224E+04  0.17103454896E+04  0.10951847066E+04 0.  0.
        5    1    3    3  502    0  0.12272242071E+03 -0.33658499391E+03 -0.13035684987E+04  0.13519109333E+04  0.46999998093E+01 0.  1.
       -5    1    3    3    0  502 -0.12272242071E+03  0.33658499391E+03 -0.10148423687E+02  0.35843455633E+03  0.46999998093E+01 0. -1.
</event>
<event>
 5   0  0.3748901E-03  0.1103085E+04  0.7818609E-02  0.9202190E-01
       -2   -1    0    0    0  501  0.00000000000E+00  0.00000000000E+00  0.24009649084E+03  0.24009649085E+03  0.25500000920E-02 0.  1.
        2   -1    0    0  501    0  0.00000000000E+00  0.00000000000E+00 -0.12669873181E+04  0.12669873181E+04  0.25500000920E-02 0. -1.
    10030    2    1    2    0    0  0.00000000000E+00  0.00000000000E+00 -0.10268908273E+04  0.15070838090E+04  0.11030851445E+04 0.  0.
        5    1    3    3  502    0  0.38478891097E+03 -0.25660318773E+03 -0.10295909465E+03  0.47384635392E+03  0.46999998093E+01 0.  1.
       -5    1    3    3    0  502 -0.38478891097E+03  0.25660318773E+03 -0.92393173261E+03  0.10332374550E+04  0.46999998093E+01 0. -1.
</event>
<event>
 5   0  0.3713158E-03  0.1039042E+04  0.7818609E-02  0.9266731E-01
       -2   -1    0    0    0  501  0.00000000000E+00  0.00000000000E+00  0.67456461302E+03  0.67456461303E+03  0.25500000920E-02 0.  1.
        2   -1    0    0  501    0  0.00000000000E+00  0.00000000000E+00 -0.40011321665E+03  0.40011321665E+03  0.25500000920E-02 0. -1.
    10030    2    1    2    0    0  0.00000000000E+00  0.00000000000E+00  0.27445139638E+03  0.10746778297E+04  0.10390422843E+04 0.  0.
        4    1    3    3  502    0 -0.30859783821E+03 -0.35681309081E+03 -0.87843493219E+02  0.47986070867E+03  0.12699999809E+01 0. -1.
       -4    1    3    3    0  502  0.30859783821E+03  0.35681309081E+03  0.36229488959E+03  0.59481712101E+03  0.12699999809E+01 0.  1.
</event>
<event>
 5   0  0.2257667E-03  0.1117196E+04  0.7818609E-02  0.9188591E-01
        1   -1    0    0  501    0  0.00000000000E+00  0.00000000000E+00  0.27785234307E+03  0.27785234312E+03  0.50400001928E-02 0. -1.
       -1   -1    0    0    0  501  0.00000000000E+00  0.00000000000E+00 -0.11230136104E+04  0.11230136104E+04  0.50400001928E-02 0.  1.
    10030    2    1    2    0    0  0.00000000000E+00  0.00000000000E+00 -0.84516126734E+03  0.14008659535E+04  0.11171964250E+04 0.  0.
        4    1    3    3  502    0  0.29044006608E+03 -0.42054452416E+03 -0.70524593522E+03  0.87096875422E+03  0.12699999809E+01 0.  1.
       -4    1    3    3    0  502 -0.29044006608E+03  0.42054452416E+03 -0.13991533212E+03  0.52989719932E+03  0.12699999809E+01 0. -1.
</event>
<event>
 5   0  0.1508625E-03  0.1102372E+04  0.7818609E-02  0.9202883E-01
        4   -1    0    0  501    0  0.00000000000E+00  0.00000000000E+00  0.11722896594E+04  0.11722903473E+04  0.12699999809E+01 0.  1.
       -4   -1    0    0    0  501  0.00000000000E+00  0.00000000000E+00 -0.25915356734E+03  0.25915667918E+03  0.12699999809E+01 0. -1.
    10030    2    1    2    0    0  0.00000000000E+00  0.00000000000E+00  0.91313609204E+03  0.14314470265E+04  0.11023715649E+04 0.  0.
        5    1    3    3  502    0 -0.27762240376E+03  0.18575741319E+03 -0.11271481157E+03  0.35257160176E+03  0.46999998093E+01 0. -1.
       -5    1    3    3    0  502  0.27762240376E+03 -0.18575741319E+03  0.10258509036E+04  0.10788754247E+04  0.46999998093E+01 0.  1.
</event>
<event>
 5   0  0.1508625E-03  0.1086562E+04  0.7818609E-02  0.9218389E-01
       -3   -1    0    0    0  501  0.00000000000E+00  0.00000000000E+00  0.14688944535E+04  0.14688944569E+04  0.10100000352E+00 0.  1.
        3   -1    0    0  501    0  0.00000000000E+00  0.00000000000E+00 -0.20093646541E+03  0.20093649079E+03  0.10100000352E+00 0. -1.
    10030    2    1    2    0    0  0.00000000000E+00  0.00000000000E+00  0.12679579880E+04  0.16698309477E+04  0.10865624393E+04 0.  0.
        5    1    3    3  502    0 -0.47862657685E+02 -0.22265384721E+03 -0.12400364784E+03  0.25935412924E+03  0.46999998093E+01 0. -1.
       -5    1    3    3    0  502  0.47862657685E+02  0.22265384721E+03  0.13919616359E+04  0.14104768185E+04  0.46999998093E+01 0.  1.
</event>
<event>
 5   0  0.3744875E-03  0.9845161E+03  0.7818609E-02  0.9325692E-01
        2   -1    0    0  501    0  0.00000000000E+00  0.00000000000E+00  0.97564727666E+03  0.97564727667E+03  0.25500000920E-02 0. -1.
       -2   -1    0    0    0  501  0.00000000000E+00  0.00000000000E+00 -0.24836639519E+03  0.24836639520E+03  0.25500000920E-02 0.  1.
    10030    2    1    2    0    0  0.00000000000E+00  0.00000000000E+00  0.72728088147E+03  0.12240136719E+04  0.98451611890E+03 0.  0.
        2    1    3    3  502    0  0.48520675391E+03 -0.38896072598E+02  0.27245314498E+03  0.55782543391E+03  0.25500000920E-02 0. -1.
       -2    1    3    3    0  502 -0.48520675391E+03  0.38896072598E+02  0.45482773650E+03  0.66618823796E+03  0.25500000920E-02 0.  1.
</event>
<event>
 5   0  0.2374100E-03  0.1094856E+04  0.7818609E-02  0.9210220E-01
       -1   -1    0    0    0  501  0.00000000000E+00  0.00000000000E+00  0.42072675115E+03  0.42072675118E+03  0.50400001928E-02 0.  1.
        1   -1    0    0  501    0  0.00000000000E+00  0.00000000000E+00 -0.71228566507E+03  0.71228566509E+03  0.50400001928E-02 0. -1.
    10030    2    1    2    0    0  0.00000000000E+00  0.00000000000E+00 -0.29155891392E+03  0.11330124163E+04  0.10948563993E+04 0.  0.
        2    1    3    3  502    0  0.24102434323E+03  0.15827260782E+03 -0.62732929447E+03  0.69042378009E+03  0.25500000920E-02 0. -1.
       -2    1    3    3    0  502 -0.24102434323E+03 -0.15827260782E+03  0.33577038054E+03  0.44258863618E+03  0.25500000920E-02 0.  1.
</event>
<event>
 5   0  0.3962999E-03  0.1097219E+04  0.7818609E-02  0.9207907E-01
       -2   -1    0    0    0  501  0.00000000000E+00  0.00000000000E+00  0.42209079365E+03  0.42209079366E+03  0.25500000920E-02 0.  1.
        2   -1    0    0  501    0  0.00000000000E+00  0.00000000000E+00 -0.71305077298E+03  0.71305077299E+03  0.25500000920E-02 0. -1.
    10030    2    1    2    0    0  0.00000000000E+00  0.00000000000E+00 -0.29095997933E+03  0.11351415666E+04  0.10972186048E+04 0.  0.
        3    1    3    3  502    0 -0.10325303417E+03 -0.30763841950E+03  0.31215424908E+03  0.45026977651E+03  0.10100000352E+00 0.  1.
       -3    1    3    3    0  502  0.10325303417E+03  0.30763841950E+03 -0.60311422841E+03  0.68487179014E+03  0.10100000352E+00 0. -1.
</event>
<event>
 5   0  0.3748901E-03  0.1101311E+04  0.7818609E-02  0.9203915E-01
       -2   -1    0    0    0  501  0.00000000000E+00  0.00000000000E+00  0.30551238043E+03  0.30551238044E+03  0.25500000920E-02 0.  1.
        2   -1    0    0  501    0  0.00000000000E+00  0.00000000000E+00 -0.99250204298E+03  0.99250204298E+03  0.25500000920E-02 0. -1.
    10030    2    1    2    0    0  0.00000000000E+00  0.00000000000E+00 -0.68698966256E+03  0.12980144234E+04  0.11013113306E+04 0.  0.
        5    1    3    3  502    0 -0.19516211013E+03  0.42986099624E+02 -0.94822933857E+03  0.96907018451E+03  0.46999998093E+01 0. -1.
       -5    1    3    3    0  502  0.19516211013E+03 -0.42986099624E+02  0.26123967601E+03  0.32894423891E+03  0.46999998093E+01 0.  1.
</event>
<event>
 5   0  0.2300702E-03  0.1101078E+04  0.7818609E-02  0.9204141E-01
        1   -1    0    0  501    0  0.00000000000E+00  0.00000000000E+00  0.38644622692E+03  0.38644622696E+03  0.50400001928E-02 0. -1.
       -1   -1    0    0    0  501  0.00000000000E+00  0.00000000000E+00 -0.78430953767E+03  0.78430953769E+03  0.50400001928E-02 0.  1.
    10030    2    1    2    0    0  0.00000000000E+00  0.00000000000E+00 -0.39786331075E+03  0.11707557646E+04  0.11010784924E+04 0.  0.
        5    1    3    3  502    0 -0.11097577251E+03  0.14548967194E+03  0.35314414455E+03  0.39776342662E+03  0.46999998093E+01 0. -1.
       -5    1    3    3    0  502  0.11097577251E+03 -0.14548967194E+03 -0.75100745530E+03  0.77299233802E+03  0.46999998093E+01 0.  1.
</event>
<event>
 5   0  0.2255788E-03  0.1095542E+04  0.7818609E-02  0.9209547E-01
       -1   -1    0    0    0  501  0.00000000000E+00  0.00000000000E+00  0.12203998748E+04  0.12203998748E+04  0.50400001928E-02 0. -1.
        1   -1    0    0  501    0  0.00000000000E+00  0.00000000000E+00 -0.24586475183E+03  0.24586475188E+03  0.50400001928E-02 0.  1.
    10030    2    1    2    0    0  0.00000000000E+00  0.00000000000E+00  0.97453512293E+03  0.14662646266E+04  0.10955424453E+04 0.  0.
        3    1    3    3  502    0  0.27568201229E+03  0.47220388248E+03  0.44336049576E+03  0.70395001096E+03  0.10100000352E+00 0.  1.
       -3    1    3    3    0  502 -0.27568201229E+03 -0.47220388248E+03  0.53117462717E+03  0.76231461568E+03  0.10100000352E+00 0. -1.
</event>
<event>
 5   0  0.3962999E-03  0.1087836E+04  0.7818609E-02  0.9217130E-01
       -2   -1    0    0    0  501  0.00000000000E+00  0.00000000000E+00  0.92785709147E+03  0.92785709147E+03  0.25500000920E-02 0.  1.
        2   -1    0    0  501    0  0.00000000000E+00  0.00000000000E+00 -0.31884948896E+03  0.31884948897E+03  0.25500000920E-02 0. -1.
    10030    2    1    2    0    0  0.00000000000E+00  0.00000000000E+00  0.60900760251E+03  0.12467065804E+04  0.10878359425E+04 0.  0.
        3    1    3    3  502    0  0.64093794281E+02  0.12406055379E+03 -0.29795698721E+03  0.32905533258E+03  0.10100000352E+00 0. -1.
       -3    1    3    3    0  502 -0.64093794281E+02 -0.12406055379E+03  0.90696458972E+03  0.91765124785E+03  0.10100000352E+00 0.  1.
</event>
<event>
 5   0  0.3713158E-03  0.1079244E+04  0.7818609E-02  0.9225661E-01
        2   -1    0    0  501    0  0.00000000000E+00  0.00000000000E+00  0.73398694733E+03  0.73398694733E+03  0.25500000920E-02 0.  1.
       -2   -1    0    0    0  501  0.00000000000E+00  0.00000000000E+00 -0.39672633953E+03  0.39672633954E+03  0.25500000920E-02 0. -1.
    10030    2    1    2    0    0  0.00000000000E+00  0.00000000000E+00  0.33726060780E+03  0.11307132869E+04  0.10792440964E+04 0.  0.
        4    1    3    3  502    0 -0.43227770154E+02  0.40533721249E+03  0.53907940603E+03  0.67585139997E+03  0.12699999809E+01 0. -1.
       -4    1    3    3    0  502  0.43227770154E+02 -0.40533721249E+03 -0.20181879823E+03  0.45486188690E+03  0.12699999809E+01 0.  1.
</event>
<event>
 5   0  0.3992414E-03  0.1096677E+04  0.7818609E-02  0.9208436E-01
       -2   -1    0    0    0  501  0.00000000000E+00  0.00000000000E+00  0.22465932577E+03  0.22465932579E+03  0.25500000920E-02 0. -1.
        2   -1    0    0  501    0  0.00000000000E+00  0.00000000000E+00 -0.13383613009E+04  0.13383613009E+04  0.25500000920E-02 0.  1.
    10030    2    1    2    0    0  0.00000000000E+00  0.00000000000E+00 -0.11137019751E+04  0.15630206267E+04  0.10966774321E+04 0.  0.
        1    1    3    3  502    0 -0.14881694351E+03 -0.10630965332E+03  0.17990906533E+03  0.25654531155E+03  0.50400001928E-02 0. -1.
       -1    1    3    3    0  502  0.14881694351E+03  0.10630965332E+03 -0.12936110405E+04  0.13064753152E+04  0.50400001928E-02 0.  1.
</event>
<event>
 5   0  0.3744875E-03  0.1104155E+04  0.7818609E-02  0.9201151E-01
        2   -1    0    0  501    0  0.00000000000E+00  0.00000000000E+00  0.49087644479E+03  0.49087644480E+03  0.25500000920E-02 0. -1.
       -2   -1    0    0    0  501  0.00000000000E+00  0.00000000000E+00 -0.62090906064E+03  0.62090906064E+03  0.25500000920E-02 0.  1.
    10030    2    1    2    0    0  0.00000000000E+00  0.00000000000E+00 -0.13003261585E+03  0.11117855054E+04  0.11041551200E+04 0.  0.
        2    1    3    3  502    0 -0.37678468511E+03  0.11541986713E+03 -0.45434215608E+03  0.60142766769E+03  0.25500000920E-02 0.  1.
       -2    1    3    3    0  502  0.37678468511E+03 -0.11541986713E+03  0.32430954024E+03  0.51035783775E+03  0.25500000920E-02 0. -1.
</event>
<event>
 5   0  0.2298958E-03  0.1098158E+04  0.7818609E-02  0.9206989E-01
        1   -1    0    0  501    0  0.00000000000E+00  0.00000000000E+00  0.13604006006E+04  0.13604006006E+04  0.50400001928E-02 0. -1.
       -1   -1    0    0    0  501  0.00000000000E+00  0.00000000000E+00 -0.22161680074E+03  0.22161680079E+03  0.50400001928E-02 0.  1.
    10030    2    1    2    0    0  0.00000000000E+00  0.00000000000E+00  0.11387837999E+04  0.15820174014E+04  0.10981577826E+04 0.  0.
        1    1    3    3  502    0  0.30671018047E+02 -0.54151038368E+03  0.44619300123E+03  0.70232642080E+03  0.50400001928E-02 0.  1.
       -1    1    3    3    0  502 -0.30671018047E+02  0.54151038368E+03  0.69259079865E+03  0.87969098062E+03  0.50400001928E-02 0. -1.
</event>
<event>
 5   0  0.3713158E-03  0.1112910E+04  0.7818609E-02  0.9192700E-01
       -2   -1    0    0    0  501  0.00000000000E+00  0.00000000000E+00  0.81406211544E+03  0.81406211544E+03  0.25500000920E-02 0. -1.
        2   -1    0    0  501    0  0.00000000000E+00  0.00000000000E+00 -0.38036642277E+03  0.38036642278E+03  0.25500000920E-02 0.  1.
    10030    2    1    2    0    0  0.00000000000E+00  0.00000000000E+00  0.43369569266E+03  0.11944285382E+04  0.11129095107E+04 0.  0.
        4    1    3    3  502    0 -0.50234070304E+03 -0.22823806536E+03  0.13944373805E+03  0.56910892226E+03  0.12699999809E+01 0. -1.
       -4    1    3    3    0  502  0.50234070304E+03  0.22823806536E+03  0.29425195462E+03  0.62531961596E+03  0.12699999809E+01 0.  1.
</event>
<event>
 5   0  0.3713158E-03  0.9786482E+03  0.7818609E-02  0.9332278E-01
        2   -1    0    0  501    0  0.00000000000E+00  0.00000000000E+00  0.14900272680E+04  0.14900272680E+04  0.25500000920E-02 0.  1.
       -2   -1    0    0    0  501  0.00000000000E+00  0.00000000000E+00 -0.16069374925E+03  0.16069374927E+03  0.25500000920E-02 0. -1.
    10030    2    1    2    0    0  0.00000000000E+00  0.00000000000E+00  0.13293335187E+04  0.16507210172E+04  0.97864818640E+03 0.  0.
        4    1    3    3  502    0  0.32929392305E+03  0.36002071453E+03  0.60184739225E+03  0.77477177227E+03  0.12699999809E+01 0. -1.
       -4    1    3    3    0  502 -0.32929392305E+03 -0.36002071453E+03  0.72748612646E+03  0.87594924496E+03  0.12699999809E+01 0.  1.
</event>
<event>
 5   0  0.3962999E-03  0.1100855E+04  0.7818609E-02  0.9204359E-01
       -2   -1    0    0    0  501  0.00000000000E+00  0.00000000000E+00  0.49988162101E+03  0.49988162102E+03  0.25500000920E-02 0.  1.
        2   -1    0    0  501    0  0.00000000000E+00  0.00000000000E+00 -0.60608482031E+03  0.60608482032E+03  0.25500000920E-02 0. -1.
    10030    2    1    2    0    0  0.00000000000E+00  0.00000000000E+00 -0.10620319930E+03  0.11059664413E+04  0.11008554173E+04 0.  0.
        3    1    3    3  502    0  0.21596171562E+02 -0.50919445028E+03  0.15577054203E+03  0.53292574979E+03  0.10100000352E+00 0. -1.
       -3    1    3    3    0  502 -0.21596171562E+02  0.50919445028E+03 -0.26197374133E+03  0.57304069155E+03  0.10100000352E+00 0.  1.
</event>
<event>
 5   0  0.2255788E-03  0.1093289E+04  0.7818609E-02  0.9211758E-01
        1   -1    0    0  501    0  0.00000000000E+00  0.00000000000E+00  0.24870112906E+03  0.24870112911E+03  0.50400001928E-02 0.  1.
       -1   -1    0    0    0  501  0.00000000000E+00  0.00000000000E+00 -0.12015233503E+04  0.12015233503E+04  0.50400001928E-02 0. -1.
    10030    2    1    2    0    0  0.00000000000E+00  0.00000000000E+00 -0.95282222123E+03  0.14502244794E+04  0.10932890082E+04 0.  0.
        3    1    3    3  502    0 -0.32665433006E+03  0.27515816881E+03 -0.92898169024E+03  0.10224588306E+04  0.10100000352E+00 0. -1.
       -3    1    3    3    0  502  0.32665433006E+03 -0.27515816881E+03 -0.23840530993E+02  0.42776564884E+03  0.10100000352E+00 0.  1.
</event>
<event>
 5   0  0.1508625E-03  0.1087485E+04  0.7818609E-02  0.9217476E-01
        4   -1    0    0  501    0  0.00000000000E+00  0.00000000000E+00  0.79770361982E+03  0.79770463078E+03  0.12699999809E+01 0.  1.
       -4   -1    0    0    0  501  0.00000000000E+00  0.00000000000E+00 -0.37063176383E+03  0.37063393970E+03  0.12699999809E+01 0. -1.
    10030    2    1    2    0    0  0.00000000000E+00  0.00000000000E+00  0.42707185599E+03  0.11683385705E+04  0.10874854689E+04 0.  0.
        4    1    3    3  502    0 -0.35780437672E+03 -0.51066767414E+02 -0.22289666568E+03  0.42463669554E+03  0.12699999809E+01 0.  1.
       -4    1    3    3    0  502  0.35780437672E+03  0.51066767414E+02  0.64996852167E+03  0.74370187494E+03  0.12699999809E+01 0. -1.
</event>
<event>
 5   0  0.3992414E-03  0.1108827E+04  0.7818609E-02  0.9196631E-01
        2   -1    0    0  501    0  0.00000000000E+00  0.00000000000E+00  0.23660384358E+04  0.23660384358E+04  0.25500000920E-02 0.  1.
       -2   -1    0    0    0  501  0.00000000000E+00  0.00000000000E+00 -0.12991085091E+03  0.12991085094E+03  0.25500000920E-02 0. -1.
    10030    2    1    2    0    0  0.00000000000E+00  0.00000000000E+00  0.22361275849E+04  0.24959492868E+04  0.11088265266E+04 0.  0.
        1    1    3    3  502    0  0.18960859076E+02  0.67923005134E+02  0.23559016879E+04  0.23569568965E+04  0.50400001928E-02 0.  1.
       -1    1    3    3    0  502 -0.18960859076E+02 -0.67923005134E+02 -0.11977410295E+03  0.13899239032E+03  0.50400001928E-02 0. -1.
</event>
<event>
 5   0  0.3713158E-03  0.1093604E+04  0.7818609E-02  0.9211448E-01
        2   -1    0    0  501    0  0.00000000000E+00  0.00000000000E+00  0.42948148387E+03  0.42948148388E+03  0.25500000920E-02 0.  1.
       -2   -1    0    0    0  501  0.00000000000E+00  0.00000000000E+00 -0.69617077410E+03  0.69617077410E+03  0.25500000920E-02 0. -1.
    10030    2    1    2    0    0  0.00000000000E+00  0.00000000000E+00 -0.26668929023E+03  0.11256522580E+04  0.10936040547E+04 0.  0.
        4    1    3    3  502    0  0.78909109210E+02 -0.34185232914E+03  0.29835184102E+03  0.46054869059E+03  0.12699999809E+01 0.  1.
       -4    1    3    3    0  502 -0.78909109210E+02  0.34185232914E+03 -0.56504113125E+03  0.66510356740E+03  0.12699999809E+01 0. -1.
</event>
<event>
 5   0  0.3962999E-03  0.1099179E+04  0.7818609E-02  0.9205993E-01
        2   -1    0    0  501    0  0.00000000000E+00  0.00000000000E+00  0.10245874567E+04  0.10245874567E+04  0.25500000920E-02 0.  1.
       -2   -1    0    0    0  501  0.00000000000E+00  0.00000000000E+00 -0.29480000662E+03  0.29480000663E+03  0.25500000920E-02 0. -1.
    10030    2    1    2    0    0  0.00000000000E+00  0.00000000000E+00  0.72978745007E+03  0.13193874633E+04  0.10991785824E+04 0.  0.
        3    1    3    3  502    0  0.46319983859E+03 -0.28910540631E+03  0.28981392999E+03  0.61816514836E+03  0.10100000352E+00 0. -1.
       -3    1    3    3    0  502 -0.46319983859E+03  0.28910540631E+03  0.43997352008E+03  0.70122231496E+03  0.10100000352E+00 0.  1.
</event>
<event>
 5   0  0.2298958E-03  0.1101336E+04  0.7818609E-02  0.9203890E-01
        1   -1    0    0  501    0  0.00000000000E+00  0.00000000000E+00  0.29348614133E+03  0.29348614138E+03  0.50400001928E-02 0. -1.
       -1   -1    0    0    0  501  0.00000000000E+00  0.00000000000E+00 -0.10332190220E+04  0.10332190220E+04  0.50400001928E-02 0.  1.
    10030    2    1    2    0    0  0.00000000000E+00  0.00000000000E+00 -0.73973288062E+03  0.13267051633E+04  0.11013363954E+04 0.  0.
        1    1    3    3  502    0  0.84343073005E+02  0.32197592441E+03 -0.89833239272E+03  0.95801009269E+03  0.50400001928E-02 0.  1.
       -1    1    3    3    0  502 -0.84343073005E+02 -0.32197592441E+03  0.15859951210E+03  0.36869507066E+03  0.50400001928E-02 0. -1.
</event>
<event>
 5   0  0.3744875E-03  0.1087274E+04  0.7818609E-02  0.9217684E-01
        2   -1    0    0  501    0  0.00000000000E+00  0.00000000000E+00  0.21771634367E+04  0.21771634367E+04  0.25500000920E-02 0. -1.
       -2   -1    0    0    0  501  0.00000000000E+00  0.00000000000E+00 -0.13574610622E+03  0.13574610625E+03  0.25500000920E-02 0.  1.
    10030    2    1    2    0    0  0.00000000000E+00  0.00000000000E+00  0.20414173305E+04  0.23129095430E+04  0.10872744992E+04 0.  0.
        2    1    3    3  502    0 -0.28848542275E+03 -0.22102152166E+03  0.18807803183E+04  0.19155701391E+04  0.25500000920E-02 0. -1.
       -2    1    3    3    0  502  0.28848542275E+03  0.22102152166E+03  0.16063701224E+03  0.39733940389E+03  0.25500000920E-02 0.  1.
</event>
<event>
 5   0  0.2257667E-03  0.1159315E+04  0.7818609E-02  0.9149232E-01
        1   -1    0    0  501    0  0.00000000000E+00  0.00000000000E+00  0.63414934672E+03  0.63414934674E+03  0.50400001928E-02 0. -1.
       -1   -1    0    0    0  501  0.00000000000E+00  0.00000000000E+00 -0.52984852247E+03  0.52984852249E+03  0.50400001928E-02 0.  1.
    10030    2    1    2    0    0  0.00000000000E+00  0.00000000000E+00  0.10430082426E+03  0.11639978692E+04  0.11593154780E+04 0.  0.
        4    1    3    3  502    0  0.42441820945E+03 -0.29143160951E+03  0.31956856474E+03  0.60596112087E+03  0.12699999809E+01 0. -1.
       -4    1    3    3    0  502 -0.42441820945E+03  0.29143160951E+03 -0.21526774048E+03  0.55803674837E+03  0.12699999809E+01 0.  1.
</event>
<event>
 5   0  0.2374100E-03  0.1088829E+04  0.7818609E-02  0.9216149E-01
        1   -1    0    0  501    0  0.00000000000E+00  0.00000000000E+00  0.39112910056E+03  0.39112910060E+03  0.50400001928E-02 0.  1.
       -1   -1    0    0    0  501  0.00000000000E+00  0.00000000000E+00 -0.75777272574E+03  0.75777272576E+03  0.50400001928E-02 0. -1.
    10030    2    1    2    0    0  0.00000000000E+00  0.00000000000E+00 -0.36664362518E+03  0.11489018264E+04  0.10888286636E+04 0.  0.
        2    1    3    3  502    0 -0.12913549797E+03  0.52887384757E+03 -0.18136441980E+03  0.57382625964E+03  0.25500000920E-02 0.  1.
       -2    1    3    3    0  502  0.12913549797E+03 -0.52887384757E+03 -0.18527920538E+03  0.57507556672E+03  0.25500000920E-02 0. -1.
</event>
<event>
 5   0  0.3748901E-03  0.1092591E+04  0.7818609E-02  0.9212443E-01
        2   -1    0    0  501    0  0.00000000000E+00  0.00000000000E+00  0.13808448188E+04  0.13808448188E+04  0.25500000920E-02 0.  1.
       -2   -1    0    0    0  501  0.00000000000E+00  0.00000000000E+00 -0.21612779645E+03  0.21612779646E+03  0.25500000920E-02 0. -1.
    10030    2    1    2    0    0  0.00000000000E+00  0.00000000000E+00  0.11647170224E+04  0.15969726153E+04  0.10925913197E+04 0.  0.
        5    1    3    3  502    0 -0.27595014827E+03  0.34819400099E+03  0.10469416238E+04  0.11373198320E+04  0.46999998093E+01 0.  1.
       -5    1    3    3    0  502  0.27595014827E+03 -0.34819400099E+03  0.11777539857E+03  0.45965278327E+03  0.46999998093E+01 0. -1.
</event>
<event>
 5   0  0.2298958E-03  0.1100359E+04  0.7818609E-02  0.9204842E-01
       -1   -1    0    0    0  501  0.00000000000E+00  0.00000000000E+00  0.14087446718E+03  0.14087446727E+03  0.50400001928E-02 0.  1.
        1   -1    0    0  501    0  0.00000000000E+00  0.00000000000E+00 -0.21487036873E+04  0.21487036873E+04  0.50400001928E-02 0. -1.
    10030    2    1    2    0    0  0.00000000000E+00  0.00000000000E+00 -0.20078292201E+04  0.22895781546E+04  0.11003590090E+04 0.  0.
        1    1    3    3  502    0  0.49574191580E+03 -0.10776103476E+02 -0.50792027998E+03  0.70983038983E+03  0.50400001928E-02 0.  1.
       -1    1    3    3    0  502 -0.49574191580E+03  0.10776103476E+02 -0.14999089401E+04  0.15797477647E+04  0.50400001928E-02 0. -1.
</event>
<event>
 5   0  0.3713158E-03  0.1062016E+04  0.7818609E-02  0.9243026E-01
       -2   -1    0    0    0  501  0.00000000000E+00  0.00000000000E+00  0.26539010671E+03  0.26539010672E+03  0.25500000920E-02 0. -1.
        2   -1    0    0  501    0  0.00000000000E+00  0.00000000000E+00 -0.10624713040E+04  0.10624713040E+04  0.25500000920E-02 0.  1.
    10030    2    1    2    0    0  0.00000000000E+00  0.00000000000E+00 -0.79708119727E+03  0.13278614107E+04  0.10620157678E+04 0.  0.
        4    1    3    3  502    0  0.15125121593E+02  0.19617217452E+03 -0.10152109821E+04  0.10341021431E+04  0.12699999809E+01 0.  1.
       -4    1    3    3    0  502 -0.15125121593E+02 -0.19617217452E+03  0.21812978482E+03  0.29375926757E+03  0.12699999809E+01 0. -1.
</event>
<event>
 5   0  0.2300702E-03  0.1093471E+04  0.7818609E-02  0.9211579E-01
        1   -1    0    0  501    0  0.00000000000E+00  0.00000000000E+00  0.52151859800E+03  0.52151859803E+03  0.50400001928E-02 0.  1.
       -1   -1    0    0    0  501  0.00000000000E+00  0.00000000000E+00 -0.57317186132E+03  0.57317186134E+03  0.50400001928E-02 0. -1.
    10030    2    1    2    0    0  0.00000000000E+00  0.00000000000E+00 -0.51653263314E+02  0.10946904594E+04  0.10934711438E+04 0.  0.
        5    1    3    3  502    0 -0.29054545131E+03  0.83464445752E+02 -0.48187243484E+03  0.56886387338E+03  0.46999998093E+01 0. -1.
       -5    1    3    3    0  502  0.29054545131E+03 -0.83464445752E+02  0.43021917153E+03  0.52582658599E+03  0.46999998093E+01 0.  1.
</event>
<event>
 5   0  0.3962999E-03  0.1098998E+04  0.7818609E-02  0.9206169E-01
        2   -1    0    0  501    0  0.00000000000E+00  0.00000000000E+00  0.15345372625E+04  0.15345372625E+04  0.25500000920E-02 0. -1.
       -2   -1    0    0    0  501  0.00000000000E+00  0.00000000000E+00 -0.19676895322E+03  0.19676895323E+03  0.25500000920E-02 0.  1.
    10030    2    1    2    0    0  0.00000000000E+00  0.00000000000E+00  0.13377683093E+04  0.17313062157E+04  0.10989982545E+04 0.  0.
        3    1    3    3  502    0 -0.25526001432E+03  0.12108138493E+03  0.14113583725E+04  0.14393577883E+04  0.10100000352E+00 0. -1.
       -3    1    3    3    0  502  0.25526001432E+03 -0.12108138493E+03 -0.73590063265E+02  0.29194842747E+03  0.10100000352E+00 0.  1.
</event>
<event>
 5   0  0.3962999E-03  0.1070446E+04  0.7818609E-02  0.9234486E-01
       -2   -1    0    0    0  501  0.00000000000E+00  0.00000000000E+00  0.18306967480E+03  0.18306967481E+03  0.25500000920E-02 0.  1.
        2   -1    0    0  501    0  0.00000000000E+00  0.00000000000E+00 -0.15647782263E+04  0.15647782263E+04  0.25500000920E-02 0. -1.
    10030    2    1    2    0    0  0.00000000000E+00  0.00000000000E+00 -0.13817085515E+04  0.17478479011E+04  0.10704455914E+04 0.  0.
        3    1    3    3  502    0 -0.21806171385E+03  0.48866510522E+03 -0.67304716838E+03  0.85984707778E+03  0.10100000352E+00 0.  1.
       -3    1    3    3    0  502  0.21806171385E+03 -0.48866510522E+03 -0.70866138314E+03  0.88800082335E+03  0.10100000352E+00 0. -1.
</event>
<event>
 5   0  0.2255788E-03  0.1095497E+04  0.7818609E-02  0.9209592E-01
       -1   -1    0    0    0  501  0.00000000000E+00  0.00000000000E+00  0.40877021545E+03  0.40877021548E+03  0.50400001928E-02 0. -1.
        1   -1    0    0  501    0  0.00000000000E+00  0.00000000000E+00 -0.73397826942E+03  0.73397826944E+03  0.50400001928E-02 0.  1.
    10030    2    1    2    0    0  0.00000000000E+00  0.00000000000E+00 -0.32520805397E+03  0.11427484849E+04  0.10954970659E+04 0.  0.
        3    1    3    3  502    0 -0.32401615595E+03 -0.37695565387E+03  0.77421647157E+02  0.50306675099E+03  0.10100000352E+00 0. -1.
       -3    1    3    3    0  502  0.32401615595E+03  0.37695565387E+03 -0.40262970113E+03  0.63968173394E+03  0.10100000352E+00 0.  1.
</event>
<event>
 5   0  0.3744875E-03  0.1049730E+04  0.7818609E-02  0.9255623E-01
       -2   -1    0    0    0  501  0.00000000000E+00  0.00000000000E+00  0.11115042884E+04  0.11115042884E+04  0.25500000920E-02 0.  1.
        2   -1    0    0  501    0  0.00000000000E+00  0.00000000000E+00 -0.24784721838E+03  0.24784721840E+03  0.25500000920E-02 0. -1.
    10030    2    1    2    0    0  0.00000000000E+00  0.00000000000E+00  0.86365707003E+03  0.13593515068E+04  0.10497299579E+04 0.  0.
        2    1    3    3  502    0  0.41311552090E+03  0.31970415291E+03  0.36569624483E+03  0.63765893900E+03  0.25500000920E-02 0. -1.
       -2    1    3    3    0  502 -0.41311552090E+03 -0.31970415291E+03  0.49796082520E+03  0.72169256781E+03  0.25500000920E-02 0.  1.
</event>
<event>
 5   0  0.3713158E-03  0.1099829E+04  0.7818609E-02  0.9205358E-01
        2   -1    0    0  501    0  0.00000000000E+00  0.00000000000E+00  0.98473039809E+03  0.98473039809E+03  0.25500000920E-02 0.  1.
       -2   -1    0    0    0  501  0.00000000000E+00  0.00000000000E+00 -0.30709525118E+03  0.30709525119E+03  0.25500000920E-02 0. -1.
    10030    2    1    2    0    0  0.00000000000E+00  0.00000000000E+00  0.67763514690E+03  0.12918256493E+04  0.10998291303E+04 0.  0.
        4    1    3    3  502    0  0.11618865128E+03 -0.77634461715E+02 -0.28589161014E+03  0.31821775246E+03  0.12699999809E+01 0. -1.
       -4    1    3    3    0  502 -0.11618865128E+03  0.77634461715E+02  0.96352675704E+03  0.97360789683E+03  0.12699999809E+01 0.  1.
</event>
<event>
 5   0  0.3713158E-03  0.1098299E+04  0.7818609E-02  0.9206852E-01
        2   -1    0    0  501    0  0.00000000000E+00  0.00000000000E+00  0.13787653199E+04  0.13787653199E+04  0.25500000920E-02 0. -1.
       -2   -1    0    0    0  501  0.00000000000E+00  0.00000000000E+00 -0.21872104056E+03  0.21872104058E+03  0.25500000920E-02 0.  1.
    10030    2    1    2    0    0  0.00000000000E+00  0.00000000000E+00  0.11600442793E+04  0.15974863604E+04  0.10982986579E+04 0.  0.
        4    1    3    3  502    0  0.73728056007E+02  0.25444148642E+03  0.12796808661E+04  0.13068133103E+04  0.12699999809E+01 0. -1.
       -4    1    3    3    0  502 -0.73728056007E+02 -0.25444148642E+03 -0.11963658676E+03  0.29067305008E+03  0.12699999809E+01 0.  1.
</event>
<event>
 5   0  0.2257667E-03  0.1077256E+04  0.7818609E-02  0.9227648E-01
       -1   -1    0    0    0  501  0.00000000000E+00  0.00000000000E+00  0.17746508283E+03  0.17746508290E+03  0.50400001928E-02 0.  1.
        1   -1    0    0  501    0  0.00000000000E+00  0.00000000000E+00 -0.16348011671E+04  0.16348011671E+04  0.50400001928E-02 0. -1.
    10030    2    1    2    0    0  0.00000000000E+00  0.00000000000E+00 -0.14573360842E+04  0.18122662500E+04  0.10772560041E+04 0.  0.
        4    1    3    3  502    0  0.34977560306E+03  0.17232589138E+03 -0.13537938216E+04  0.14088287723E+04  0.12699999809E+01 0. -1.
       -4    1    3    3    0  502 -0.34977560306E+03 -0.17232589138E+03 -0.10354226262E+03  0.40343747766E+03  0.12699999809E+01 0.  1.
</event>
<event>
 5   0  0.2255788E-03  0.1068799E+04  0.7818609E-02  0.9236148E-01
        1   -1    0    0  501    0  0.00000000000E+00  0.00000000000E+00  0.23988954638E+03  0.23988954644E+03  0.50400001928E-02 0.  1.
       -1   -1    0    0    0  501  0.00000000000E+00  0.00000000000E+00 -0.11904755253E+04  0.11904755253E+04  0.50400001928E-02 0. -1.
    10030    2    1    2    0    0  0.00000000000E+00  0.00000000000E+00 -0.95058597887E+03  0.14303650717E+04  0.10687986411E+04 0.  0.
        3    1    3    3  502    0 -0.34085901351E+03 -0.82382705795E+02 -0.10149598605E+04  0.10738320660E+04  0.10100000352E+00 0. -1.
       -3    1    3    3    0  502  0.34085901351E+03  0.82382705795E+02  0.64373881654E+02  0.35653300569E+03  0.10100000352E+00 0.  1.
</event>
<event>
 5   0  0.2298958E-03  0.1190926E+04  0.7818609E-02  0.9120836E-01
       -1   -1    0    0    0  501  0.00000000000E+00  0.00000000000E+00  0.44240011528E+03  0.44240011531E+03  0.50400001928E-02 0. -1.
        1   -1    0    0  501    0  0.00000000000E+00  0.00000000000E+00 -0.80148338009E+03  0.80148338010E+03  0.50400001928E-02 0.  1.
    10030    2    1    2    0    0  0.00000000000E+00  0.00000000000E+00 -0.35908326481E+03  0.12438834954E+04  0.11909262610E+04 0.  0.
        1    1    3    3  502    0 -0.69656780963E+02  0.14783167466E+03  0.41851969331E+03  0.44929389589E+03  0.50400001928E-02 0. -1.
       -1    1    3    3    0  502  0.69656780963E+02 -0.14783167466E+03 -0.77760295812E+03  0.79458959952E+03  0.50400001928E-02 0.  1.
</event>
<event>
 5   0  0.2374100E-03  0.1145975E+04  0.7818609E-02  0.9161505E-01
       -1   -1    0    0    0  501  0.00000000000E+00  0.00000000000E+00  0.24740411482E+03  0.24740411487E+03  0.50400001928E-02 0. -1.
        1   -1    0    0  501    0  0.00000000000E+00  0.00000000000E+00 -0.13270382596E+04  0.13270382596E+04  0.50400001928E-02 0.  1.
    10030    2    1    2    0    0  0.00000000000E+00  0.00000000000E+00 -0.10796341448E+04  0.15744423745E+04  0.11459750887E+04 0.  0.
        2    1    3    3  502    0  0.77032965065E+02 -0.56586365315E+03 -0.47568464920E+03  0.74324399570E+03  0.25500000920E-02 0.  1.
       -2    1    3    3    0  502 -0.77032965065E+02  0.56586365315E+03 -0.60394949557E+03  0.83119837877E+03  0.25500000920E-02 0. -1.
</event>
<event>
 5   0  0.2298958E-03  0.1108642E+04  0.7818609E-02  0.9196809E-01
        1   -1    0    0  501    0  0.00000000000E+00  0.00000000000E+00  0.59580469497E+03  0.59580469499E+03  0.50400001928E-02 0. -1.
       -1   -1    0    0    0  501  0.00000000000E+00  0.00000000000E+00 -0.51572576267E+03  0.51572576269E+03  0.50400001928E-02 0.  1.
    10030    2    1    2    0    0  0.00000000000E+00  0.00000000000E+00  0.80078932308E+02  0.11115304577E+04  0.11086421077E+04 0.  0.
        1    1    3    3  502    0  0.50600256150E+03  0.20328976942E+03  0.13983021870E+03  0.56295453874E+03  0.50400001928E-02 0. -1.
       -1    1    3    3    0  502 -0.50600256150E+03 -0.20328976942E+03 -0.59751286390E+02  0.54857591895E+03  0.50400001928E-02 0.  1.
</event>
<event>
 5   0  0.3744875E-03  0.1080441E+04  0.7818609E-02  0.9224468E-01
        2   -1    0    0  501    0  0.00000000000E+00  0.00000000000E+00  0.20794149603E+04  0.20794149603E+04  0.25500000920E-02 0. -1.
       -2   -1    0    0    0  501  0.00000000000E+00  0.00000000000E+00 -0.14034619294E+03  0.14034619296E+03  0.25500000920E-02 0.  1.
    10030    2    1    2    0    0  0.00000000000E+00  0.00000000000E+00  0.19390687674E+04  0.22197611533E+04  0.10804406013E+04 0.  0.
        2    1    3    3  502    0 -0.31067964666E+03 -0.42252494609E+03  0.70333001226E+03  0.87733817828E+03  0.25500000920E-02 0.  1.
       -2    1    3    3    0  502  0.31067964666E+03  0.42252494609E+03  0.12357387551E+04  0.13424229750E+04  0.25500000920E-02 0. -1.
</event>
<event>
 5   0  0.2257667E-03  0.1101493E+04  0.7818609E-02  0.9203738E-01
        1   -1    0    0  501    0  0.00000000000E+00  0.00000000000E+00  0.87934375090E+03  0.87934375091E+03  0.50400001928E-02 0.  1.
       -1   -1    0    0    0  501  0.00000000000E+00  0.00000000000E+00 -0.34494094840E+03  0.34494094844E+03  0.50400001928E-02 0. -1.
    10030    2    1    2    0    0  0.00000000000E+00  0.00000000000E+00  0.53440280250E+03  0.12242846993E+04  0.11014929277E+04 0.  0.
        4    1    3    3  502    0 -0.44856102882E+03 -0.81746283914E+02  0.61055732377E+03  0.76201791975E+03  0.12699999809E+01 0.  1.
       -4    1    3    3    0  502  0.44856102882E+03  0.81746283914E+02 -0.76154521274E+02  0.46226677960E+03  0.12699999809E+01 0. -1.
</event>
<event>
 5   0  0.3744875E-03  0.1063441E+04  0.7818609E-02  0.9241576E-01
        2   -1    0    0  501    0  0.00000000000E+00  0.00000000000E+00  0.15587319647E+04  0.15587319647E+04  0.25500000920E-02 0.  1.
       -2   -1    0    0    0  501  0.00000000000E+00  0.00000000000E+00 -0.18138256386E+03  0.18138256388E+03  0.25500000920E-02 0. -1.
    10030    2    1    2    0    0  0.00000000000E+00  0.00000000000E+00  0.13773494008E+04  0.17401145286E+04  0.10634412069E+04 0.  0.
        2    1    3    3  502    0 -0.14177162534E+03 -0.49979009254E+03  0.50327711840E+03  0.72330988398E+03  0.25500000920E-02 0.  1.
       -2    1    3    3    0  502  0.14177162534E+03  0.49979009254E+03  0.87407228244E+03  0.10168046446E+04  0.25500000920E-02 0. -1.
</event>
<event>
 5   0  0.2298958E-03  0.1101473E+04  0.7818609E-02  0.9203757E-01
        1   -1    0    0  501    0  0.00000000000E+00  0.00000000000E+00  0.10932472680E+04  0.10932472680E+04  0.50400001928E-02 0. -1.
       -1   -1    0    0    0  501  0.00000000000E+00  0.00000000000E+00 -0.27744019952E+03  0.27744019956E+03  0.50400001928E-02 0.  1.
    10030    2    1    2    0    0  0.00000000000E+00  0.00000000000E+00  0.81580706844E+03  0.13706874675E+04  0.11014730867E+04 0.  0.
        1    1    3    3  502    0 -0.90309970874E+02  0.48918893127E+03  0.70198821592E+03  0.86037733387E+03  0.50400001928E-02 0. -1.
       -1    1    3    3    0  502  0.90309970874E+02 -0.48918893127E+03  0.11381885253E+03  0.51031013367E+03  0.50400001928E-02 0.  1.
</event>
<event>
 5   0  0.2255788E-03  0.1119537E+04  0.7818609E-02  0.9186356E-01
        1   -1    0    0  501    0  0.00000000000E+00  0.00000000000E+00  0.14487670248E+04  0.14487670248E+04  0.50400001928E-02 0.  1.
       -1   -1    0    0    0  501  0.00000000000E+00  0.00000000000E+00 -0.21628106692E+03  0.21628106698E+03  0.50400001928E-02 0. -1.
    10030    2    1    2    0    0  0.00000000000E+00  0.00000000000E+00  0.12324859578E+04  0.16650480917E+04  0.11195371863E+04 0.  0.
        3    1    3    3  502    0  0.42712158014E+02 -0.21332832996E+03  0.13833134248E+04  0.14003175876E+04  0.10100000352E+00 0.  1.
       -3    1    3    3    0  502 -0.42712158014E+02  0.21332832996E+03 -0.15082746697E+03  0.26473050410E+03  0.10100000352E+00 0. -1.
</event>
<event>
 5   0  0.3744875E-03  0.1105408E+04  0.7818609E-02  0.9199937E-01
       -2   -1    0    0    0  501  0.00000000000E+00  0.00000000000E+00  0.21298821807E+03  0.21298821808E+03  0.25500000920E-02 0. -1.
        2   -1    0    0  501    0  0.00000000000E+00  0.00000000000E+00 -0.14342653174E+04  0.14342653174E+04  0.25500000920E-02 0.  1.
    10030    2    1    2    0    0  0.00000000000E+00  0.00000000000E+00 -0.12212770993E+04  0.16472535355E+04  0.11054078237E+04 0.  0.
        2    1    3    3  502    0  0.23419355402E+03 -0.31597818647E+03 -0.11893048443E+04  0.12526511277E+04  0.25500000920E-02 0.  1.
       -2    1    3    3    0  502 -0.23419355402E+03  0.31597818647E+03 -0.31972254960E+02  0.39460240770E+03  0.25500000920E-02 0. -1.
</event>
<event>
 5   0  0.3992414E-03  0.1099065E+04  0.7818609E-02  0.9206103E-01
        2   -1    0    0  501    0  0.00000000000E+00  0.00000000000E+00  0.92790628038E+03  0.92790628038E+03  0.25500000920E-02 0.  1.
       -2   -1    0    0    0  501  0.00000000000E+00  0.00000000000E+00 -0.32544904378E+03  0.32544904379E+03  0.25500000920E-02 0. -1.
    10030    2    1    2    0    0  0.00000000000E+00  0.00000000000E+00  0.60245723660E+03  0.12533553242E+04  0.10990654424E+04 0.  0.
        1    1    3    3  502    0 -0.13295754904E+02 -0.54921764599E+03  0.31607164931E+03  0.63381234391E+03  0.50400001928E-02 0. -1.
       -1    1    3    3    0  502  0.13295754904E+02  0.54921764599E+03  0.28638558729E+03  0.61954298026E+03  0.50400001928E-02 0.  1.
</event>
<event>
 5   0  0.3748901E-03  0.1089718E+04  0.7818609E-02  0.9215272E-01
       -2   -1    0    0    0  501  0.00000000000E+00  0.00000000000E+00  0.41414129875E+03  0.41414129876E+03  0.25500000920E-02 0.  1.
        2   -1    0    0  501    0  0.00000000000E+00  0.00000000000E+00 -0.71683571109E+03  0.71683571110E+03  0.25500000920E-02 0. -1.
    10030    2    1    2    0    0  0.00000000000E+00  0.00000000000E+00 -0.30269441234E+03  0.11309770099E+04  0.10897178945E+04 0.  0.
        5    1    3    3  502    0 -0.21248680113E+03 -0.20490795710E+03  0.32393393295E+03  0.43828437624E+03  0.46999998093E+01 0.  1.
       -5    1    3    3    0  502  0.21248680113E+03  0.20490795710E+03 -0.62662834530E+03  0.69269263362E+03  0.46999998093E+01 0. -1.
</event>
<event>
 5   0  0.2257667E-03  0.1093177E+04  0.7818609E-02  0.9211867E-01
       -1   -1    0    0    0  501  0.00000000000E+00  0.00000000000E+00  0.20371536688E+03  0.20371536694E+03  0.50400001928E-02 0. -1.
        1   -1    0    0  501    0  0.00000000000E+00  0.00000000000E+00 -0.14665523642E+04  0.14665523642E+04  0.50400001928E-02 0.  1.
    10030    2    1    2    0    0  0.00000000000E+00  0.00000000000E+00 -0.12628369973E+04  0.16702677312E+04  0.10931774842E+04 0.  0.
        4    1    3    3  502    0  0.19294057650E+02 -0.26869584491E+03 -0.13580765978E+04  0.13845372426E+04  0.12699999809E+01 0.  1.
       -4    1    3    3    0  502 -0.19294057650E+02  0.26869584491E+03  0.95239600420E+02  0.28573048861E+03  0.12699999809E+01 0. -1.
</event>
<event>
 5   0  0.2298958E-03  0.1148237E+04  0.7818609E-02  0.9159411E-01
       -1   -1    0    0    0  501  0.00000000000E+00  0.00000000000E+00  0.59983563753E+03  0.59983563755E+03  0.50400001928E-02 0.  1.
        1   -1    0    0  501    0  0.00000000000E+00  0.00000000000E+00 -0.54950417091E+03  0.54950417094E+03  0.50400001928E-02 0. -1.
    10030    2    1    2    0    0  0.00000000000E+00  0.00000000000E+00  0.50331466619E+02  0.11493398085E+04  0.11482372311E+04 0.  0.
        1    1    3    3  502    0 -0.30460281087E+03 -0.48191667127E+03  0.92948069141E+02  0.57763820339E+03  0.50400001928E-02 0.  1.
       -1    1    3    3    0  502  0.30460281087E+03  0.48191667127E+03 -0.42616602521E+02  0.57170160510E+03  0.50400001928E-02 0. -1.
</event>
<event>
 5   0  0.2255788E-03  0.1149953E+04  0.7818609E-02  0.9157827E-01
        1   -1    0    0  501    0  0.00000000000E+00  0.00000000000E+00  0.54866368883E+03  0.54866368886E+03  0.50400001928E-02 0.  1.
       -1   -1    0    0    0  501  0.00000000000E+00  0.00000000000E+00 -0.60255080276E+03  0.60255080278E+03  0.50400001928E-02 0. -1.
    10030    2    1    2    0    0  0.00000000000E+00  0.00000000000E+00 -0.53887113930E+02  0.11512144916E+04  0.11499526011E+04 0.  0.
        3    1    3    3  502    0  0.21573778123E+02 -0.43424024078E+03  0.34972418530E+03  0.55797583335E+03  0.10100000352E+00 0.  1.
       -3    1    3    3    0  502 -0.21573778123E+02  0.43424024078E+03 -0.40361129923E+03  0.59323865829E+03  0.10100000352E+00 0. -1.
</event>
<event>
 5   0  0.3962999E-03  0.1096999E+04  0.7818609E-02  0.9208122E-01
        2   -1    0    0  501    0  0.00000000000E+00  0.00000000000E+00  0.14536476737E+04  0.14536476737E+04  0.25500000920E-02 0. -1.
       -2   -1    0    0    0  501  0.00000000000E+00  0.00000000000E+00 -0.20696316456E+03  0.20696316457E+03  0.25500000920E-02 0.  1.
    10030    2    1    2    0    0  0.00000000000E+00  0.00000000000E+00  0.12466845092E+04  0.16606108383E+04  0.10969986741E+04 0.  0.
        3    1    3    3  502    0  0.12148911324E+02 -0.20330411343E+03  0.13942861431E+04  0.14090826866E+04  0.10100000352E+00 0. -1.
       -3    1    3    3    0  502 -0.12148911324E+02  0.20330411343E+03 -0.14760163391E+03  0.25152815174E+03  0.10100000352E+00 0.  1.
</event>
<event>
 5   0  0.3744875E-03  0.1094838E+04  0.7818609E-02  0.9210237E-01
        2   -1    0    0  501    0  0.00000000000E+00  0.00000000000E+00  0.23530650637E+03  0.23530650638E+03  0.25500000920E-02 0.  1.
       -2   -1    0    0    0  501  0.00000000000E+00  0.00000000000E+00 -0.12735210841E+04  0.12735210841E+04  0.25500000920E-02 0. -1.
    10030    2    1    2    0    0  0.00000000000E+00  0.00000000000E+00 -0.10382145777E+04  0.15088275905E+04  0.10948384303E+04 0.  0.
        2    1    3    3  502    0 -0.42550873707E+03 -0.21664955180E+03 -0.88805738517E+03  0.10082859877E+04  0.25500000920E-02 0. -1.
       -2    1    3    3    0  502  0.42550873707E+03  0.21664955180E+03 -0.15015719253E+03  0.50054160276E+03  0.25500000920E-02 0.  1.
</event>
<event>
 5   0  0.1508625E-03  0.1135164E+04  0.7818609E-02  0.9171581E-01
       -4   -1    0    0    0  501  0.00000000000E+00  0.00000000000E+00  0.60636351486E+03  0.60636484483E+03  0.12699999809E+01 0. -1.
        4   -1    0    0  501    0  0.00000000000E+00  0.00000000000E+00 -0.53127802096E+03  0.53127953890E+03  0.12699999809E+01 0.  1.
    10030    2    1    2    0    0  0.00000000000E+00  0.00000000000E+00  0.75085493896E+02  0.11376443837E+04  0.11351638263E+04 0.  0.
        4    1    3    3  502    0  0.42249572119E+03  0.22389893596E+03  0.34401197551E+03  0.58904942080E+03  0.12699999809E+01 0. -1.
       -4    1    3    3    0  502 -0.42249572119E+03 -0.22389893596E+03 -0.26892648162E+03  0.54859496294E+03  0.12699999809E+01 0.  1.
</event>
<event>
 5   0  0.2374100E-03  0.1100790E+04  0.7818609E-02  0.9204423E-01
        1   -1    0    0  501    0  0.00000000000E+00  0.00000000000E+00  0.68077514567E+03  0.68077514569E+03  0.50400001928E-02 0.  1.
       -1   -1    0    0    0  501  0.00000000000E+00  0.00000000000E+00 -0.44498461037E+03  0.44498461040E+03  0.50400001928E-02 0. -1.
    10030    2    1    2    0    0  0.00000000000E+00  0.00000000000E+00  0.23579053530E+03  0.11257597561E+04  0.11007896493E+04 0.  0.
        2    1    3    3  502    0 -0.38838072105E+03  0.13666561108E+02 -0.28069973838E+03  0.47939409937E+03  0.25500000920E-02 0. -1.
       -2    1    3    3    0  502  0.38838072105E+03 -0.13666561108E+02  0.51649027369E+03  0.64636565672E+03  0.25500000920E-02 0.  1.
</event>
<event>
 5   0  0.3713158E-03  0.1103359E+04  0.7818609E-02  0.9201924E-01
       -2   -1    0    0    0  501  0.00000000000E+00  0.00000000000E+00  0.36997140065E+03  0.36997140066E+03  0.25500000920E-02 0.  1.
        2   -1    0    0  501    0  0.00000000000E+00  0.00000000000E+00 -0.82263190261E+03  0.82263190261E+03  0.25500000920E-02 0. -1.
    10030    2    1    2    0    0  0.00000000000E+00  0.00000000000E+00 -0.45266050196E+03  0.11926033033E+04  0.11033590118E+04 0.  0.
        4    1    3    3  502    0 -0.52041258388E+03  0.44197759877E+00 -0.28439243974E+02  0.52119080605E+03  0.12699999809E+01 0. -1.
       -4    1    3    3    0  502  0.52041258388E+03 -0.44197759877E+00 -0.42422125799E+03  0.67141249723E+03  0.12699999809E+01 0.  1.
</event>
<event>
 5   0  0.2255788E-03  0.1102305E+04  0.7818609E-02  0.9202948E-01
       -1   -1    0    0    0  501  0.00000000000E+00  0.00000000000E+00  0.28447727925E+03  0.28447727930E+03  0.50400001928E-02 0. -1.
        1   -1    0    0  501    0  0.00000000000E+00  0.00000000000E+00 -0.10678146239E+04  0.10678146240E+04  0.50400001928E-02 0.  1.
    10030    2    1    2    0    0  0.00000000000E+00  0.00000000000E+00 -0.78333734469E+03  0.13522919032E+04  0.11023048562E+04 0.  0.
        3    1    3    3  502    0 -0.21611573343E+02  0.17898355230E+03 -0.10306189490E+04  0.10462684170E+04  0.10100000352E+00 0.  1.
       -3    1    3    3    0  502  0.21611573343E+02 -0.17898355230E+03  0.24728160434E+03  0.30602348626E+03  0.10100000352E+00 0. -1.
</event>
<event>
 5   0  0.3992414E-03  0.1110209E+04  0.7818609E-02  0.9195298E-01
        2   -1    0    0  501    0  0.00000000000E+00  0.00000000000E+00  0.15619139484E+04  0.15619139484E+04  0.25500000920E-02 0.  1.
       -2   -1    0    0    0  501  0.00000000000E+00  0.00000000000E+00 -0.19728415310E+03  0.19728415311E+03  0.25500000920E-02 0. -1.
    10030    2    1    2    0    0  0.00000000000E+00  0.00000000000E+00  0.13646297953E+04  0.17591981015E+04  0.11102087561E+04 0.  0.
        1    1    3    3  502    0 -0.47175257028E+03  0.28254281508E+03  0.56205547863E+03  0.78631246397E+03  0.50400001928E-02 0. -1.
       -1    1    3    3    0  502  0.47175257028E+03 -0.28254281508E+03  0.80257431663E+03  0.97288563750E+03  0.50400001928E-02 0.  1.
</event>
<event>
 5   0  0.1508625E-03  0.1099691E+04  0.7818609E-02  0.9205493E-01
       -4   -1    0    0    0  501  0.00000000000E+00  0.00000000000E+00  0.83442474324E+03  0.83442570971E+03  0.12699999809E+01 0. -1.
        4   -1    0    0  501    0  0.00000000000E+00  0.00000000000E+00 -0.36231927975E+03  0.36232150554E+03  0.12699999809E+01 0.  1.
    10030    2    1    2    0    0  0.00000000000E+00  0.00000000000E+00  0.47210546349E+03  0.11967472153E+04  0.10996910150E+04 0.  0.
        4    1    3    3  502    0  0.50588727847E+02 -0.53311446874E+03  0.10031155605E+03  0.54482499699E+03  0.12699999809E+01 0. -1.
       -4    1    3    3    0  502 -0.50588727847E+02  0.53311446874E+03  0.37179390744E+03  0.65192221827E+03  0.12699999809E+01 0.  1.
</event>
<event>
 5   0  0.2257667E-03  0.1140225E+04  0.7818609E-02  0.9166849E-01
       -1   -1    0    0    0  501  0.00000000000E+00  0.00000000000E+00  0.88091932169E+03  0.88091932170E+03  0.50400001928E-02 0. -1.
        1   -1    0    0  501    0  0.00000000000E+00  0.00000000000E+00 -0.36896473774E+03  0.36896473778E+03  0.50400001928E-02 0.  1.
    10030    2    1    2    0    0  0.00000000000E+00  0.00000000000E+00  0.51195458395E+03  0.12498840595E+04  0.11402248314E+04 0.  0.
        4    1    3    3  502    0  0.34924356359E+03 -0.23984901033E+03 -0.16219227612E+03  0.45365908103E+03  0.12699999809E+01 0.  1.
       -4    1    3    3    0  502 -0.34924356359E+03  0.23984901033E+03  0.67414686007E+03  0.79622497845E+03  0.12699999809E+01 0. -1.
</event>
<event>
 5   0  0.3713158E-03  0.1091450E+04  0.7818609E-02  0.9213566E-01
        2   -1    0    0  501    0  0.00000000000E+00  0.00000000000E+00  0.12826194065E+04  0.12826194065E+04  0.25500000920E-02 0. -1.
       -2   -1    0    0    0  501  0.00000000000E+00  0.00000000000E+00 -0.23219337460E+03  0.23219337462E+03  0.25500000920E-02 0.  1.
    10030    2    1    2    0    0  0.00000000000E+00  0.00000000000E+00  0.10504260319E+04  0.15148127811E+04  0.10914499133E+04 0.  0.
        4    1    3    3  502    0  0.23921004197E+03 -0.37902223010E+03  0.93102281701E+02  0.45776516124E+03  0.12699999809E+01 0.  1.
       -4    1    3    3    0  502 -0.23921004197E+03  0.37902223010E+03  0.95732375020E+03  0.10570476199E+04  0.12699999809E+01 0. -1.
</event>
<event>
 5   0  0.3744875E-03  0.1104249E+04  0.7818609E-02  0.9201060E-01
        2   -1    0    0  501    0  0.00000000000E+00  0.00000000000E+00  0.62950111652E+03  0.62950111652E+03  0.25500000920E-02 0.  1.
       -2   -1    0    0    0  501  0.00000000000E+00  0.00000000000E+00 -0.48425901398E+03  0.48425901399E+03  0.25500000920E-02 0. -1.
    10030    2    1    2    0    0  0.00000000000E+00  0.00000000000E+00  0.14524210253E+03  0.11137601305E+04  0.11042492291E+04 0.  0.
        2    1    3    3  502    0  0.13982264085E+03  0.14530502843E+03 -0.44578804526E+03  0.48927589710E+03  0.25500000920E-02 0. -1.
       -2    1    3    3    0  502 -0.13982264085E+03 -0.14530502843E+03  0.59103014779E+03  0.62448423342E+03  0.25500000920E-02 0.  1.
</event>
<event>
 5   0  0.2300702E-03  0.1111057E+04  0.7818609E-02  0.9194482E-01
       -1   -1    0    0    0  501  0.00000000000E+00  0.00000000000E+00  0.26330132865E+03  0.26330132870E+03  0.50400001928E-02 0.  1.
        1   -1    0    0  501    0  0.00000000000E+00  0.00000000000E+00 -0.11720862986E+04  0.11720862987E+04  0.50400001928E-02 0. -1.
    10030    2    1    2    0    0  0.00000000000E+00  0.00000000000E+00 -0.90878497000E+03  0.14353876274E+04  0.11110569378E+04 0.  0.
        5    1    3    3  502    0  0.23746270611E+02  0.10989639645E+03  0.24842262702E+03  0.27272146035E+03  0.46999998093E+01 0.  1.
       -5    1    3    3    0  502 -0.23746270611E+02 -0.10989639645E+03 -0.11572075970E+04  0.11626661670E+04  0.46999998093E+01 0. -1.
</event>
<event>
 5   0  0.3748901E-03  0.1094120E+04  0.7818609E-02  0.9210942E-01
       -2   -1    0    0    0  501  0.00000000000E+00  0.00000000000E+00  0.61557835304E+03  0.61557835304E+03  0.25500000920E-02 0.  1.
        2   -1    0    0  501    0  0.00000000000E+00  0.00000000000E+00 -0.48616836187E+03  0.48616836187E+03  0.25500000920E-02 0. -1.
    10030    2    1    2    0    0  0.00000000000E+00  0.00000000000E+00  0.12940999117E+03  0.11017467149E+04  0.10941201387E+04 0.  0.
        5    1    3    3  502    0 -0.13379785981E+03 -0.41488941242E+03 -0.26807939164E+03  0.51178485914E+03  0.46999998093E+01 0. -1.
       -5    1    3    3    0  502  0.13379785981E+03  0.41488941242E+03  0.39748938281E+03  0.58996185578E+03  0.46999998093E+01 0.  1.
</event>
<event>
 5   0  0.3744875E-03  0.1102003E+04  0.7818609E-02  0.9203241E-01
       -2   -1    0    0    0  501  0.00000000000E+00  0.00000000000E+00  0.50823094068E+03  0.50823094069E+03  0.25500000920E-02 0.  1.
        2   -1    0    0  501    0  0.00000000000E+00  0.00000000000E+00 -0.59737183732E+03  0.59737183733E+03  0.25500000920E-02 0. -1.
    10030    2    1    2    0    0  0.00000000000E+00  0.00000000000E+00 -0.89140896644E+02  0.11056027780E+04  0.11020033590E+04 0.  0.
        2    1    3    3  502    0 -0.26872305359E+03  0.46682798149E+03  0.71836139982E+02  0.54341593171E+03  0.25500000920E-02 0.  1.
       -2    1    3    3    0  502  0.26872305359E+03 -0.46682798149E+03 -0.16097703663E+03  0.56218684630E+03  0.25500000920E-02 0. -1.
</event>
<event>
 5   0  0.3748901E-03  0.1096835E+04  0.7818609E-02  0.9208283E-01
       -2   -1    0    0    0  501  0.00000000000E+00  0.00000000000E+00  0.60583254955E+03  0.60583254955E+03  0.25500000920E-02 0.  1.
        2   -1    0    0  501    0  0.00000000000E+00  0.00000000000E+00 -0.49644328566E+03  0.49644328566E+03  0.25500000920E-02 0. -1.
    10030    2    1    2    0    0  0.00000000000E+00  0.00000000000E+00  0.10938926389E+03  0.11022758352E+04  0.10968345390E+04 0.  0.
        5    1    3    3  502    0  0.11620800018E+01  0.54697081794E+03  0.94399941182E+02  0.55507825125E+03  0.46999998093E+01 0.  1.
       -5    1    3    3    0  502 -0.11620800018E+01 -0.54697081794E+03  0.14989322709E+02  0.54719758397E+03  0.46999998093E+01 0. -1.
</event>
<event>
 5   0  0.2255788E-03  0.1099775E+04  0.7818609E-02  0.9205411E-01
        1   -1    0    0  501    0  0.00000000000E+00  0.00000000000E+00  0.75118850712E+03  0.75118850714E+03  0.50400001928E-02 0.  1.
       -1   -1    0    0    0  501  0.00000000000E+00  0.00000000000E+00 -0.40253059046E+03  0.40253059050E+03  0.50400001928E-02 0. -1.
    10030    2    1    2    0    0  0.00000000000E+00  0.00000000000E+00  0.34865791665E+03  0.11537190976E+04  0.10997751649E+04 0.  0.
        3    1    3    3  502    0 -0.33314794010E+03 -0.78590061658E+02 -0.27714343339E+03  0.44042302467E+03  0.10100000352E+00 0. -1.
       -3    1    3    3    0  502  0.33314794010E+03  0.78590061658E+02  0.62580135005E+03  0.71329607296E+03  0.10100000352E+00 0.  1.
</event>
<event>
 5   0  0.3992414E-03  0.1080943E+04  0.7818609E-02  0.9223968E-01
       -2   -1    0    0    0  501  0.00000000000E+00  0.00000000000E+00  0.24257042139E+03  0.24257042141E+03  0.25500000920E-02 0.  1.
        2   -1    0    0  501    0  0.00000000000E+00  0.00000000000E+00 -0.12042250495E+04  0.12042250495E+04  0.25500000920E-02 0. -1.
    10030    2    1    2    0    0  0.00000000000E+00  0.00000000000E+00 -0.96165462812E+03  0.14467954709E+04  0.10809428805E+04 0.  0.
        1    1    3    3  502    0  0.28200541193E+03 -0.40291540288E+03 -0.18081732946E+03  0.52398738619E+03  0.50400001928E-02 0.  1.
       -1    1    3    3    0  502 -0.28200541193E+03  0.40291540288E+03 -0.78083729866E+03  0.92280808473E+03  0.50400001928E-02 0. -1.
</event>
<event>
 5   0  0.2255788E-03  0.1085908E+04  0.7818609E-02  0.9219037E-01
        1   -1    0    0  501    0  0.00000000000E+00  0.00000000000E+00  0.35797735470E+03  0.35797735473E+03  0.50400001928E-02 0. -1.
       -1   -1    0    0    0  501  0.00000000000E+00  0.00000000000E+00 -0.82351314318E+03  0.82351314320E+03  0.50400001928E-02 0.  1.
    10030    2    1    2    0    0  0.00000000000E+00  0.00000000000E+00 -0.46553578848E+03  0.11814904979E+04  0.10859080193E+04 0.  0.
        3    1    3    3  502    0 -0.32839834825E+02  0.54164710919E+03 -0.25280050318E+03  0.59863858066E+03  0.10100000352E+00 0. -1.
       -3    1    3    3    0  502  0.32839834825E+02 -0.54164710919E+03 -0.21273528531E+03  0.58285191727E+03  0.10100000352E+00 0.  1.
</event>
<event>
 5   0  0.3744875E-03  0.1106534E+04  0.7818609E-02  0.9198847E-01
        2   -1    0    0  501    0  0.00000000000E+00  0.00000000000E+00  0.47102391648E+03  0.47102391648E+03  0.25500000920E-02 0.  1.
       -2   -1    0    0    0  501  0.00000000000E+00  0.00000000000E+00 -0.64986968848E+03  0.64986968848E+03  0.25500000920E-02 0. -1.
    10030    2    1    2    0    0  0.00000000000E+00  0.00000000000E+00 -0.17884577200E+03  0.11208936050E+04  0.11065336251E+04 0.  0.
        2    1    3    3  502    0 -0.46871166065E+03  0.28333215140E+03 -0.16877489313E+03  0.57310792474E+03  0.25500000920E-02 0. -1.
       -2    1    3    3    0  502  0.46871166065E+03 -0.28333215140E+03 -0.10070878873E+02  0.54778568022E+03  0.25500000920E-02 0.  1.
</event>
<event>
 5   0  0.3962999E-03  0.1091622E+04  0.7818609E-02  0.9213397E-01
        2   -1    0    0  501    0  0.00000000000E+00  0.00000000000E+00  0.75799722727E+03  0.75799722728E+03  0.25500000920E-02 0. -1.
       -2   -1    0    0    0  501  0.00000000000E+00  0.00000000000E+00 -0.39302189421E+03  0.39302189422E+03  0.25500000920E-02 0.  1.
    10030    2    1    2    0    0  0.00000000000E+00  0.00000000000E+00  0.36497533306E+03  0.11510191215E+04  0.10916217405E+04 0.  0.
        3    1    3    3  502    0 -0.28450777573E+03  0.18653333253E+03 -0.26755009400E+03  0.43280760344E+03  0.10100000352E+00 0.  1.
       -3    1    3    3    0  502  0.28450777573E+03 -0.18653333253E+03  0.63252542706E+03  0.71821151806E+03  0.10100000352E+00 0. -1.
</event>
<event>
 5   0  0.3992414E-03  0.1083072E+04  0.7818609E-02  0.9221850E-01
       -2   -1    0    0    0  501  0.00000000000E+00  0.00000000000E+00  0.49616812569E+03  0.49616812570E+03  0.25500000920E-02 0.  1.
        2   -1    0    0  501    0  0.00000000000E+00  0.00000000000E+00 -0.59105206706E+03  0.59105206707E+03  0.25500000920E-02 0. -1.
    10030    2    1    2    0    0  0.00000000000E+00  0.00000000000E+00 -0.94883941369E+02  0.10872201928E+04  0.10830719206E+04 0.  0.
        1    1    3    3  502    0  0.47469217645E+02 -0.22852269611E+03  0.44308620583E+03  0.50080069397E+03  0.50400001928E-02 0.  1.
       -1    1    3    3    0  502 -0.47469217645E+02  0.22852269611E+03 -0.53797014720E+03  0.58641949879E+03  0.50400001928E-02 0. -1.
</event>
<event>
 5   0  0.3748901E-03  0.1099686E+04  0.7818609E-02  0.9205498E-01
        2   -1    0    0  501    0  0.00000000000E+00  0.00000000000E+00  0.86943866255E+03  0.86943866256E+03  0.25500000920E-02 0.  1.
       -2   -1    0    0    0  501  0.00000000000E+00  0.00000000000E+00 -0.34772714341E+03  0.34772714342E+03  0.25500000920E-02 0. -1.
    10030    2    1    2    0    0  0.00000000000E+00  0.00000000000E+00  0.52171151915E+03  0.12171658060E+04  0.10996861780E+04 0.  0.
        5    1    3    3  502    0 -0.30393554300E+03  0.77514424956E+02  0.76067264303E+03  0.82281848558E+03  0.46999998093E+01 0.  1.
       -5    1    3    3    0  502  0.30393554300E+03 -0.77514424956E+02 -0.23896112388E+03  0.39434732039E+03  0.46999998093E+01 0. -1.
</event>
<event>
 5   0  0.2257667E-03  0.1109183E+04  0.7818609E-02  0.9196288E-01
       -1   -1    0    0    0  501  0.00000000000E+00  0.00000000000E+00  0.45785755631E+03  0.45785755634E+03  0.50400001928E-02 0. -1.
        1   -1    0    0  501    0  0.00000000000E+00  0.00000000000E+00 -0.67176272970E+03  0.67176272972E+03  0.50400001928E-02 0.  1.
    10030    2    1    2    0    0  0.00000000000E+00  0.00000000000E+00 -0.21390517339E+03  0.11296202861E+04  0.11091828377E+04 0.  0.
        4    1    3    3  502    0 -0.41497556698E+02 -0.19295450366E+03 -0.63478458946E+03  0.66476054005E+03  0.12699999809E+01 0.  1.
       -4    1    3    3    0  502  0.41497556698E+02  0.19295450366E+03  0.42087941606E+03  0.46485974601E+03  0.12699999809E+01 0. -1.
</event>
<event>
 5   0  0.2300702E-03  0.1117678E+04  0.7818609E-02  0.9188131E-01
       -1   -1    0    0    0  501  0.00000000000E+00  0.00000000000E+00  0.65057041946E+03  0.65057041948E+03  0.50400001928E-02 0. -1.
        1   -1    0    0  501    0  0.00000000000E+00  0.00000000000E+00 -0.48004162511E+03  0.48004162513E+03  0.50400001928E-02 0.  1.
    10030    2    1    2    0    0  0.00000000000E+00  0.00000000000E+00  0.17052879436E+03  0.11306120446E+04  0.11176777379E+04 0.  0.
        5    1    3    3  502    0  0.40696613090E+03 -0.89856193883E+02 -0.29131134233E+03  0.50850757659E+03  0.46999998093E+01 0.  1.
       -5    1    3    3    0  502 -0.40696613090E+03  0.89856193883E+02  0.46184013669E+03  0.62210446803E+03  0.46999998093E+01 0. -1.
</event>
<event>
 5   0  0.1508625E-03  0.1096606E+04  0.7818609E-02  0.9208506E-01
       -3   -1    0    0    0  501  0.00000000000E+00  0.00000000000E+00  0.34470768095E+03  0.34470769575E+03  0.10100000352E+00 0.  1.
        3   -1    0    0  501    0  0.00000000000E+00  0.00000000000E+00 -0.87214795450E+03  0.87214796035E+03  0.10100000352E+00 0. -1.
    10030    2    1    2    0    0  0.00000000000E+00  0.00000000000E+00 -0.52744027355E+03  0.12168556561E+04  0.10966058752E+04 0.  0.
        3    1    3    3  502    0  0.36608799512E+02  0.33236362379E+02 -0.86966894846E+03  0.87107344702E+03  0.10100000352E+00 0. -1.
       -3    1    3    3    0  502 -0.36608799512E+02 -0.33236362379E+02  0.34222867491E+03  0.34578220908E+03  0.10100000352E+00 0.  1.
</event>
<event>
 5   0  0.3713158E-03  0.1114024E+04  0.7818609E-02  0.9191630E-01
        2   -1    0    0  501    0  0.00000000000E+00  0.00000000000E+00  0.89181656885E+03  0.89181656885E+03  0.25500000920E-02 0.  1.
       -2   -1    0    0    0  501  0.00000000000E+00  0.00000000000E+00 -0.34789929403E+03  0.34789929404E+03  0.25500000920E-02 0. -1.
    10030    2    1    2    0    0  0.00000000000E+00  0.00000000000E+00  0.54391727482E+03  0.12397158629E+04  0.11140239759E+04 0.  0.
        4    1    3    3  502    0 -0.35054282545E+03 -0.30460361479E+03  0.61422683545E+03  0.77002587807E+03  0.12699999809E+01 0.  1.
       -4    1    3    3    0  502  0.35054282545E+03  0.30460361479E+03 -0.70309560630E+02  0.46968998482E+03  0.12699999809E+01 0. -1.
</event>
<event>
 5   0  0.2257667E-03  0.1077035E+04  0.7818609E-02  0.9227868E-01
        1   -1    0    0  501    0  0.00000000000E+00  0.00000000000E+00  0.12669639409E+04  0.12669639409E+04  0.50400001928E-02 0.  1.
       -1   -1    0    0    0  501  0.00000000000E+00  0.00000000000E+00 -0.22889469685E+03  0.22889469690E+03  0.50400001928E-02 0. -1.
    10030    2    1    2    0    0  0.00000000000E+00  0.00000000000E+00  0.10380692441E+04  0.14958586378E+04  0.10770354260E+04 0.  0.
        4    1    3    3  502    0  0.14826848789E+03  0.34876694815E+03 -0.12336748732E+02  0.37917771150E+03  0.12699999809E+01 0. -1.
       -4    1    3    3    0  502 -0.14826848789E+03 -0.34876694815E+03  0.10504059928E+04  0.11166809263E+04  0.12699999809E+01 0.  1.
</event>
<event>
 5   0  0.1508625E-03  0.1103100E+04  0.7818609E-02  0.9202176E-01
       -3   -1    0    0    0  501  0.00000000000E+00  0.00000000000E+00  0.34637121127E+03  0.34637122600E+03  0.10100000352E+00 0.  1.
        3   -1    0    0  501    0  0.00000000000E+00  0.00000000000E+00 -0.87826958056E+03  0.87826958637E+03  0.10100000352E+00 0. -1.
    10030    2    1    2    0    0  0.00000000000E+00  0.00000000000E+00 -0.53189836929E+03  0.12246408124E+04  0.11030998341E+04 0.  0.
        3    1    3    3  502    0  0.78972648569E+02  0.54164461113E+03 -0.19072068440E+03  0.57964640398E+03  0.10100000352E+00 0. -1.
       -3    1    3    3    0  502 -0.78972648569E+02 -0.54164461113E+03 -0.34117768489E+03  0.64499440839E+03  0.10100000352E+00 0.  1.
</event>
<event>
 5   0  0.2298958E-03  0.1097995E+04  0.7818609E-02  0.9207148E-01
        1   -1    0    0  501    0  0.00000000000E+00  0.00000000000E+00  0.11661551091E+04  0.11661551091E+04  0.50400001928E-02 0. -1.
       -1   -1    0    0    0  501  0.00000000000E+00  0.00000000000E+00 -0.25845482313E+03  0.25845482318E+03  0.50400001928E-02 0.  1.
    10030    2    1    2    0    0  0.00000000000E+00  0.00000000000E+00  0.90770028592E+03  0.14246099322E+04  0.10979952869E+04 0.  0.
        1    1    3    3  502    0 -0.12966905133E+03 -0.82639158441E+02  0.11376460987E+04  0.11479903917E+04  0.50400001928E-02 0. -1.
       -1    1    3    3    0  502  0.12966905133E+03  0.82639158441E+02 -0.22994581280E+03  0.27661954058E+03  0.50400001928E-02 0.  1.
</event>
<event>
 5   0  0.3992414E-03  0.1097245E+04  0.7818609E-02  0.9207881E-01
       -2   -1    0    0    0  501  0.00000000000E+00  0.00000000000E+00  0.17938998111E+03  0.17938998112E+03  0.25500000920E-02 0. -1.
        2   -1    0    0  501    0  0.00000000000E+00  0.00000000000E+00 -0.16778339197E+04  0.16778339197E+04  0.25500000920E-02 0.  1.
    10030    2    1    2    0    0  0.00000000000E+00  0.00000000000E+00 -0.14984439386E+04  0.18572239008E+04  0.10972449046E+04 0.  0.
        1    1    3    3  502    0  0.52611436858E+03  0.96061813804E+02 -0.95626529656E+03  0.10956584862E+04  0.50400001928E-02 0.  1.
       -1    1    3    3    0  502 -0.52611436858E+03 -0.96061813804E+02 -0.54217864205E+03  0.76156541467E+03  0.50400001928E-02 0. -1.
</event>
<event>
 5   0  0.2300702E-03  0.1089884E+04  0.7818609E-02  0.9215108E-01
        1   -1    0    0  501    0  0.00000000000E+00  0.00000000000E+00  0.88802193150E+03  0.88802193151E+03  0.50400001928E-02 0.  1.
       -1   -1    0    0    0  501  0.00000000000E+00  0.00000000000E+00 -0.33440829953E+03  0.33440829956E+03  0.50400001928E-02 0. -1.
    10030    2    1    2    0    0  0.00000000000E+00  0.00000000000E+00  0.55361363197E+03  0.12224302311E+04  0.10898842215E+04 0.  0.
        5    1    3    3  502    0 -0.77549217449E+02  0.48278434529E+03  0.70469027618E+01  0.48904637206E+03  0.46999998093E+01 0. -1.
       -5    1    3    3    0  502  0.77549217449E+02 -0.48278434529E+03  0.54656672921E+03  0.73338385902E+03  0.46999998093E+01 0.  1.
</event>
<event>
 5   0  0.3713158E-03  0.1096028E+04  0.7818609E-02  0.9209072E-01
        2   -1    0    0  501    0  0.00000000000E+00  0.00000000000E+00  0.11986918238E+04  0.11986918238E+04  0.25500000920E-02 0. -1.
       -2   -1    0    0    0  501  0.00000000000E+00  0.00000000000E+00 -0.25053911754E+03  0.25053911755E+03  0.25500000920E-02 0.  1.
    10030    2    1    2    0    0  0.00000000000E+00  0.00000000000E+00  0.94815270628E+03  0.14492309414E+04  0.10960277218E+04 0.  0.
        4    1    3    3  502    0 -0.10854950824E+03 -0.13171257873E+03  0.11626493629E+04  0.11751112089E+04  0.12699999809E+01 0. -1.
       -4    1    3    3    0  502  0.10854950824E+03  0.13171257873E+03 -0.21449665666E+03  0.27411973252E+03  0.12699999809E+01 0.  1.
</event>
<event>
 5   0  0.3992414E-03  0.1106483E+04  0.7818609E-02  0.9198896E-01
       -2   -1    0    0    0  501  0.00000000000E+00  0.00000000000E+00  0.54410349957E+03  0.54410349958E+03  0.25500000920E-02 0.  1.
        2   -1    0    0  501    0  0.00000000000E+00  0.00000000000E+00 -0.56253296411E+03  0.56253296411E+03  0.25500000920E-02 0. -1.
    10030    2    1    2    0    0  0.00000000000E+00  0.00000000000E+00 -0.18429464538E+02  0.11066364637E+04  0.11064829947E+04 0.  0.
        1    1    3    3  502    0  0.45712409575E+03 -0.12175594838E+03  0.27768600504E+03  0.54854030600E+03  0.50400001928E-02 0.  1.
       -1    1    3    3    0  502 -0.45712409575E+03  0.12175594838E+03 -0.29611546958E+03  0.55809615769E+03  0.50400001928E-02 0. -1.
</event>
<event>
 5   0  0.3962999E-03  0.1088534E+04  0.7818609E-02  0.9216440E-01
        2   -1    0    0  501    0  0.00000000000E+00  0.00000000000E+00  0.49392768267E+03  0.49392768267E+03  0.25500000920E-02 0.  1.
       -2   -1    0    0    0  501  0.00000000000E+00  0.00000000000E+00 -0.59973631121E+03  0.59973631122E+03  0.25500000920E-02 0. -1.
    10030    2    1    2    0    0  0.00000000000E+00  0.00000000000E+00 -0.10580862855E+03  0.10936639939E+04  0.10885336309E+04 0.  0.
        3    1    3    3  502    0  0.28103142038E+03 -0.25455034986E+03 -0.44519533221E+03  0.58478494669E+03  0.10100000352E+00 0. -1.
       -3    1    3    3    0  502 -0.28103142038E+03  0.25455034986E+03  0.33938670366E+03  0.50887904720E+03  0.10100000352E+00 0.  1.
</event>
<event>
 5   0  0.3744875E-03  0.1105059E+04  0.7818609E-02  0.9200275E-01
       -2   -1    0    0    0  501  0.00000000000E+00  0.00000000000E+00  0.51324704699E+03  0.51324704700E+03  0.25500000920E-02 0.  1.
        2   -1    0    0  501    0  0.00000000000E+00  0.00000000000E+00 -0.59481886907E+03  0.59481886908E+03  0.25500000920E-02 0. -1.
    10030    2    1    2    0    0  0.00000000000E+00  0.00000000000E+00 -0.81571822077E+02  0.11080659161E+04  0.11050593252E+04 0.  0.
        2    1    3    3  502    0  0.53122591674E+03  0.10434427888E+02  0.11121536352E+03  0.54284317163E+03  0.25500000920E-02 0.  1.
       -2    1    3    3    0  502 -0.53122591674E+03 -0.10434427888E+02 -0.19278718560E+03  0.56522274444E+03  0.25500000920E-02 0. -1.
</event>
<event>
 5   0  0.3992414E-03  0.1079194E+04  0.7818609E-02  0.9225711E-01
       -2   -1    0    0    0  501  0.00000000000E+00  0.00000000000E+00  0.12014841462E+03  0.12014841465E+03  0.25500000920E-02 0.  1.
        2   -1    0    0  501    0  0.00000000000E+00  0.00000000000E+00 -0.24233777428E+04  0.24233777428E+04  0.25500000920E-02 0. -1.
    10030    2    1    2    0    0  0.00000000000E+00  0.00000000000E+00 -0.23032293282E+04  0.25435261575E+04  0.10791941324E+04 0.  0.
        1    1    3    3  502    0 -0.36230603624E+03  0.38142996692E+03 -0.14345429136E+04  0.15279619938E+04  0.50400001928E-02 0. -1.
       -1    1    3    3    0  502  0.36230603624E+03 -0.38142996692E+03 -0.86868641459E+03  0.10155641636E+04  0.50400001928E-02 0.  1.
</event>
<event>
 5   0  0.3962999E-03  0.1052867E+04  0.7818609E-02  0.9252389E-01
        2   -1    0    0  501    0  0.00000000000E+00  0.00000000000E+00  0.72365844015E+03  0.72365844015E+03  0.25500000920E-02 0. -1.
       -2   -1    0    0    0  501  0.00000000000E+00  0.00000000000E+00 -0.38295968302E+03  0.38295968303E+03  0.25500000920E-02 0.  1.
    10030    2    1    2    0    0  0.00000000000E+00  0.00000000000E+00  0.34069875713E+03  0.11066181232E+04  0.10528665763E+04 0.  0.
        3    1    3    3  502    0 -0.12794153071E+03  0.29101624369E+03 -0.27068273514E+03  0.41752681671E+03  0.10100000352E+00 0.  1.
       -3    1    3    3    0  502  0.12794153071E+03 -0.29101624369E+03  0.61138149226E+03  0.68909130647E+03  0.10100000352E+00 0. -1.
</event>
<event>
 5   0  0.3744875E-03  0.1087381E+04  0.7818609E-02  0.9217579E-01
        2   -1    0    0  501    0  0.00000000000E+00  0.00000000000E+00  0.54092869280E+03  0.54092869281E+03  0.25500000920E-02 0.  1.
       -2   -1    0    0    0  501  0.00000000000E+00  0.00000000000E+00 -0.54646622291E+03  0.54646622292E+03  0.25500000920E-02 0. -1.
    10030    2    1    2    0    0  0.00000000000E+00  0.00000000000E+00 -0.55375301106E+01  0.10873949157E+04  0.10873808158E+04 0.  0.
        2    1    3    3  502    0  0.31921195209E+03  0.34302044914E+03 -0.27852578265E+03  0.54510174325E+03  0.25500000920E-02 0. -1.
       -2    1    3    3    0  502 -0.31921195209E+03 -0.34302044914E+03  0.27298825254E+03  0.54229317248E+03  0.25500000920E-02 0.  1.
</event>
<event>
 5   0  0.2255788E-03  0.1094414E+04  0.7818609E-02  0.9210653E-01
        1   -1    0    0  501    0  0.00000000000E+00  0.00000000000E+00  0.15813975817E+04  0.15813975817E+04  0.50400001928E-02 0. -1.
       -1   -1    0    0    0  501  0.00000000000E+00  0.00000000000E+00 -0.18934880559E+03  0.18934880566E+03  0.50400001928E-02 0.  1.
    10030    2    1    2    0    0  0.00000000000E+00  0.00000000000E+00  0.13920487761E+04  0.17707463874E+04  0.10944144431E+04 0.  0.
        3    1    3    3  502    0 -0.35332311135E+01 -0.40318613277E+02  0.15789725121E+04  0.15794911454E+04  0.10100000352E+00 0. -1.
       -3    1    3    3    0  502  0.35332311135E+01  0.40318613277E+02 -0.18692373598E+03  0.19125524195E+03  0.10100000352E+00 0.  1.
</event>
<event>
 5   0  0.2298958E-03  0.1097475E+04  0.7818609E-02  0.9207657E-01
        1   -1    0    0  501    0  0.00000000000E+00  0.00000000000E+00  0.43827085334E+03  0.43827085337E+03  0.50400001928E-02 0.  1.
       -1   -1    0    0    0  501  0.00000000000E+00  0.00000000000E+00 -0.68704676955E+03  0.68704676957E+03  0.50400001928E-02 0. -1.
    10030    2    1    2    0    0  0.00000000000E+00  0.00000000000E+00 -0.24877591620E+03  0.11253176229E+04  0.10974745081E+04 0.  0.
        1    1    3    3  502    0  0.50247141584E+03  0.14457464916E+03  0.46369953833E+02  0.52490906409E+03  0.50400001928E-02 0. -1.
       -1    1    3    3    0  502 -0.50247141584E+03 -0.14457464916E+03 -0.29514587004E+03  0.60040855885E+03  0.50400001928E-02 0.  1.
</event>
<event>
 5   0  0.3744875E-03  0.1118905E+04  0.7818609E-02  0.9186959E-01
        2   -1    0    0  501    0  0.00000000000E+00  0.00000000000E+00  0.86849409785E+03  0.86849409785E+03  0.25500000920E-02 0. -1.
       -2   -1    0    0    0  501  0.00000000000E+00  0.00000000000E+00 -0.36037894433E+03  0.36037894434E+03  0.25500000920E-02 0.  1.
    10030    2    1    2    0    0  0.00000000000E+00  0.00000000000E+00  0.50811515351E+03  0.12288730422E+04  0.11189047969E+04 0.  0.
        2    1    3    3  502    0 -0.12455242223E+02  0.12557889158E+03  0.85265836169E+03  0.86194632828E+03  0.25500000920E-02 0. -1.
       -2    1    3    3    0  502  0.12455242223E+02 -0.12557889158E+03 -0.34454320818E+03  0.36692671391E+03  0.25500000920E-02 0.  1.
</event>
<event>
 5   0  0.3748901E-03  0.1118680E+04  0.7818609E-02  0.9187174E-01
        2   -1    0    0  501    0  0.00000000000E+00  0.00000000000E+00  0.17192693131E+04  0.17192693131E+04  0.25500000920E-02 0.  1.
       -2   -1    0    0    0  501  0.00000000000E+00  0.00000000000E+00 -0.18197327909E+03  0.18197327910E+03  0.25500000920E-02 0. -1.
    10030    2    1    2    0    0  0.00000000000E+00  0.00000000000E+00  0.15372960340E+04  0.19012425922E+04  0.11186797121E+04 0.  0.
        5    1    3    3  502    0  0.20505363712E+03 -0.19751715406E+03  0.15868655509E+04  0.16122110243E+04  0.46999998093E+01 0.  1.
       -5    1    3    3    0  502 -0.20505363712E+03  0.19751715406E+03 -0.49569516884E+02  0.28903156791E+03  0.46999998093E+01 0. -1.
</event>
<event>
 5   0  0.3748901E-03  0.1045656E+04  0.7818609E-02  0.9259840E-01
       -2   -1    0    0    0  501  0.00000000000E+00  0.00000000000E+00  0.32182805180E+03  0.32182805181E+03  0.25500000920E-02 0.  1.
        2   -1    0    0  501    0  0.00000000000E+00  0.00000000000E+00 -0.84936458118E+03  0.84936458119E+03  0.25500000920E-02 0. -1.
    10030    2    1    2    0    0  0.00000000000E+00  0.00000000000E+00 -0.52753652939E+03  0.11711926330E+04  0.10456564415E+04 0.  0.
        5    1    3    3  502    0 -0.25511824876E+03  0.72694274770E+02  0.24082546061E+03  0.35831378834E+03  0.46999998093E+01 0.  1.
       -5    1    3    3    0  502  0.25511824876E+03 -0.72694274770E+02 -0.76836198999E+03  0.81287884466E+03  0.46999998093E+01 0. -1.
</event>
<event>
 5   0  0.2257667E-03  0.1100674E+04  0.7818609E-02  0.9204536E-01
        1   -1    0    0  501    0  0.00000000000E+00  0.00000000000E+00  0.15751054812E+04  0.15751054812E+04  0.50400001928E-02 0. -1.
       -1   -1    0    0    0  501  0.00000000000E+00  0.00000000000E+00 -0.19228592601E+03  0.19228592607E+03  0.50400001928E-02 0.  1.
    10030    2    1    2    0    0  0.00000000000E+00  0.00000000000E+00  0.13828195552E+04  0.17673914073E+04  0.11006736411E+04 0.  0.
        4    1    3    3  502    0  0.22967822394E+03 -0.47891875914E+03  0.46008489736E+03  0.70270547891E+03  0.12699999809E+01 0.  1.
       -4    1    3    3    0  502 -0.22967822394E+03  0.47891875914E+03  0.92273465786E+03  0.10646859284E+04  0.12699999809E+01 0. -1.
</event>
<event>
 5   0  0.2300702E-03  0.1124301E+04  0.7818609E-02  0.9181825E-01
       -1   -1    0    0    0  501  0.00000000000E+00  0.00000000000E+00  0.44252833867E+03  0.44252833870E+03  0.50400001928E-02 0. -1.
        1   -1    0    0  501    0  0.00000000000E+00  0.00000000000E+00 -0.71410785002E+03  0.71410785004E+03  0.50400001928E-02 0.  1.
    10030    2    1    2    0    0  0.00000000000E+00  0.00000000000E+00 -0.27157951135E+03  0.11566361887E+04  0.11243006013E+04 0.  0.
        5    1    3    3  502    0  0.31159022161E+03  0.75132460314E+02  0.33928998235E+03  0.46676882385E+03  0.46999998093E+01 0. -1.
       -5    1    3    3    0  502 -0.31159022161E+03 -0.75132460314E+02 -0.61086949371E+03  0.68986736489E+03  0.46999998093E+01 0.  1.
</event>
<event>
 5   0  0.3992414E-03  0.1097363E+04  0.7818609E-02  0.9207766E-01
        2   -1    0    0  501    0  0.00000000000E+00  0.00000000000E+00  0.39299738300E+03  0.39299738300E+03  0.25500000920E-02 0.  1.
       -2   -1    0    0    0  501  0.00000000000E+00  0.00000000000E+00 -0.76603908825E+03  0.76603908826E+03  0.25500000920E-02 0. -1.
    10030    2    1    2    0    0  0.00000000000E+00  0.00000000000E+00 -0.37304170526E+03  0.11590364713E+04  0.10973629426E+04 0.  0.
        1    1    3    3  502    0 -0.96938245378E+02  0.30539692031E+03 -0.65696002434E+03  0.73093144409E+03  0.50400001928E-02 0. -1.
       -1    1    3    3    0  502  0.96938245378E+02 -0.30539692031E+03  0.28391831908E+03  0.42810502717E+03  0.50400001928E-02 0.  1.
</event>
<event>
 5   0  0.3713158E-03  0.1079961E+04  0.7818609E-02  0.9224947E-01
       -2   -1    0    0    0  501  0.00000000000E+00  0.00000000000E+00  0.24881346976E+03  0.24881346977E+03  0.25500000920E-02 0. -1.
        2   -1    0    0  501    0  0.00000000000E+00  0.00000000000E+00 -0.11718770025E+04  0.11718770025E+04  0.25500000920E-02 0.  1.
    10030    2    1    2    0    0  0.00000000000E+00  0.00000000000E+00 -0.92306353274E+03  0.14206904723E+04  0.10799607088E+04 0.  0.
        4    1    3    3  502    0  0.16698391617E+03 -0.27332257424E+03  0.11035360308E+03  0.33877483446E+03  0.12699999809E+01 0. -1.
       -4    1    3    3    0  502 -0.16698391617E+03  0.27332257424E+03 -0.10334171358E+04  0.10819156378E+04  0.12699999809E+01 0.  1.
</event>
<event>
 5   0  0.3744875E-03  0.1099181E+04  0.7818609E-02  0.9205990E-01
        2   -1    0    0  501    0  0.00000000000E+00  0.00000000000E+00  0.94338188691E+03  0.94338188691E+03  0.25500000920E-02 0.  1.
       -2   -1    0    0    0  501  0.00000000000E+00  0.00000000000E+00 -0.32017782380E+03  0.32017782381E+03  0.25500000920E-02 0. -1.
    10030    2    1    2    0    0  0.00000000000E+00  0.00000000000E+00  0.62320406311E+03  0.12635597107E+04  0.10991814401E+04 0.  0.
        2    1    3    3  502    0 -0.12725094458E+03  0.29495908542E+03  0.82422263137E+03  0.88461099419E+03  0.25500000920E-02 0.  1.
       -2    1    3    3    0  502  0.12725094458E+03 -0.29495908542E+03 -0.20101856826E+03  0.37894871653E+03  0.25500000920E-02 0. -1.
</event>
<event>
 5   0  0.3744875E-03  0.1102480E+04  0.7818609E-02  0.9202778E-01
        2   -1    0    0  501    0  0.00000000000E+00  0.00000000000E+00  0.43934249728E+03  0.43934249729E+03  0.25500000920E-02 0. -1.
       -2   -1    0    0    0  501  0.00000000000E+00  0.00000000000E+00 -0.69163683919E+03  0.69163683919E+03  0.25500000920E-02 0.  1.
    10030    2    1    2    0    0  0.00000000000E+00  0.00000000000E+00 -0.25229434190E+03  0.11309793365E+04  0.11024798522E+04 0.  0.
        2    1    3    3  502    0 -0.24739739109E+03 -0.41676384872E+03 -0.39555328738E+03  0.62558770598E+03  0.25500000920E-02 0.  1.
       -2    1    3    3    0  502  0.24739739109E+03  0.41676384872E+03  0.14325894547E+03  0.50539163050E+03  0.25500000920E-02 0. -1.
</event>
<event>
 5   0  0.1508625E-03  0.1100089E+04  0.7818609E-02  0.9205105E-01
       -4   -1    0    0    0  501  0.00000000000E+00  0.00000000000E+00  0.49949498135E+03  0.49949659588E+03  0.12699999809E+01 0. -1.
        4   -1    0    0  501    0  0.00000000000E+00  0.00000000000E+00 -0.60570690359E+03  0.60570823501E+03  0.12699999809E+01 0.  1.
    10030    2    1    2    0    0  0.00000000000E+00  0.00000000000E+00 -0.10621192224E+03  0.11052048309E+04  0.11000894263E+04 0.  0.
        2    1    3    3  502    0 -0.36177605734E+03  0.35382763275E+03 -0.26968500551E+03  0.57341600219E+03  0.25500000920E-02 0.  1.
       -2    1    3    3    0  502  0.36177605734E+03 -0.35382763275E+03  0.16347308328E+03  0.53178882870E+03  0.25500000920E-02 0. -1.
</event>
<event>
 5   0  0.2298958E-03  0.1094421E+04  0.7818609E-02  0.9210647E-01
       -1   -1    0    0    0  501  0.00000000000E+00  0.00000000000E+00  0.13976650404E+03  0.13976650413E+03  0.50400001928E-02 0. -1.
        1   -1    0    0  501    0  0.00000000000E+00  0.00000000000E+00 -0.21424254832E+04  0.21424254833E+04  0.50400001928E-02 0.  1.
    10030    2    1    2    0    0  0.00000000000E+00  0.00000000000E+00 -0.20026589792E+04  0.22821919874E+04  0.10944209795E+04 0.  0.
        1    1    3    3  502    0  0.56936440033E+02 -0.40731391056E+03 -0.24861858334E+03  0.48058046147E+03  0.50400001928E-02 0. -1.
       -1    1    3    3    0  502 -0.56936440033E+02  0.40731391056E+03 -0.17540403959E+04  0.18016115259E+04  0.50400001928E-02 0.  1.
</event>
<event>
 5   0  0.3748901E-03  0.1099215E+04  0.7818609E-02  0.9205957E-01
        2   -1    0    0  501    0  0.00000000000E+00  0.00000000000E+00  0.17426543984E+04  0.17426543984E+04  0.25500000920E-02 0.  1.
       -2   -1    0    0    0  501  0.00000000000E+00  0.00000000000E+00 -0.17333812603E+03  0.17333812605E+03  0.25500000920E-02 0. -1.
    10030    2    1    2    0    0  0.00000000000E+00  0.00000000000E+00  0.15693162723E+04  0.19159925244E+04  0.10992150795E+04 0.  0.
        5    1    3    3  502    0 -0.36322610808E+03  0.36818983729E+03  0.11086479540E+04  0.12233639433E+04  0.46999998093E+01 0. -1.
       -5    1    3    3    0  502  0.36322610808E+03 -0.36818983729E+03  0.46066831837E+03  0.69262858115E+03  0.46999998093E+01 0.  1.
</event>
<event>
 5   0  0.3992414E-03  0.1103341E+04  0.7818609E-02  0.9201942E-01
       -2   -1    0    0    0  501  0.00000000000E+00  0.00000000000E+00  0.83677203274E+03  0.83677203274E+03  0.25500000920E-02 0. -1.
        2   -1    0    0  501    0  0.00000000000E+00  0.00000000000E+00 -0.36370740676E+03  0.36370740677E+03  0.25500000920E-02 0.  1.
    10030    2    1    2    0    0  0.00000000000E+00  0.00000000000E+00  0.47306462598E+03  0.12004794395E+04  0.11033407200E+04 0.  0.
        1    1    3    3  502    0 -0.18187910935E+03 -0.11329516985E+03 -0.31657808306E+03  0.38227933325E+03  0.50400001928E-02 0.  1.
       -1    1    3    3    0  502  0.18187910935E+03  0.11329516985E+03  0.78964270904E+03  0.81820010626E+03  0.50400001928E-02 0. -1.
</event>
<event>
 5   0  0.2257667E-03  0.1088954E+04  0.7818609E-02  0.9216025E-01
        1   -1    0    0  501    0  0.00000000000E+00  0.00000000000E+00  0.30746542349E+03  0.30746542353E+03  0.50400001928E-02 0. -1.
       -1   -1    0    0    0  501  0.00000000000E+00  0.00000000000E+00 -0.96419075737E+03  0.96419075738E+03  0.50400001928E-02 0.  1.
    10030    2    1    2    0    0  0.00000000000E+00  0.00000000000E+00 -0.65672533387E+03  0.12716561809E+04  0.10889542131E+04 0.  0.
        4    1    3    3  502    0 -0.45960838636E+03 -0.29138652668E+03 -0.34884809113E+03  0.64640744142E+03  0.12699999809E+01 0. -1.
       -4    1    3    3    0  502  0.45960838636E+03  0.29138652668E+03 -0.30787724274E+03  0.62524873949E+03  0.12699999809E+01 0.  1.
</event>
<event>
 5   0  0.2255788E-03  0.1110668E+04  0.7818609E-02  0.9194856E-01
        1   -1    0    0  501    0  0.00000000000E+00  0.00000000000E+00  0.10106071727E+04  0.10106071727E+04  0.50400001928E-02 0. -1.
       -1   -1    0    0    0  501  0.00000000000E+00  0.00000000000E+00 -0.30515895983E+03  0.30515895987E+03  0.50400001928E-02 0.  1.
    10030    2    1    2    0    0  0.00000000000E+00  0.00000000000E+00  0.70544821288E+03  0.13157661326E+04  0.11106679678E+04 0.  0.
        3    1    3    3  502    0  0.39182988208E+03  0.19917006973E+02 -0.11287741744E+03  0.40825073819E+03  0.10100000352E+00 0.  1.
       -3    1    3    3    0  502 -0.39182988208E+03 -0.19917006973E+02  0.81832563032E+03  0.90751539442E+03  0.10100000352E+00 0. -1.
</event>
<event>
 5   0  0.3748901E-03  0.1095429E+04  0.7818609E-02  0.9209658E-01
        2   -1    0    0  501    0  0.00000000000E+00  0.00000000000E+00  0.22539168744E+03  0.22539168745E+03  0.25500000920E-02 0.  1.
       -2   -1    0    0    0  501  0.00000000000E+00  0.00000000000E+00 -0.13309773018E+04  0.13309773018E+04  0.25500000920E-02 0. -1.
    10030    2    1    2    0    0  0.00000000000E+00  0.00000000000E+00 -0.11055856144E+04  0.15563689893E+04  0.10954290849E+04 0.  0.
        5    1    3    3  502    0 -0.16868180401E+03  0.38072931236E+02  0.18555889767E+03  0.25368739345E+03  0.46999998093E+01 0.  1.
       -5    1    3    3    0  502  0.16868180401E+03 -0.38072931236E+02 -0.12911445121E+04  0.13026815958E+04  0.46999998093E+01 0. -1.
</event>
<event>
 5   0  0.3748901E-03  0.1104549E+04  0.7818609E-02  0.9200770E-01
       -2   -1    0    0    0  501  0.00000000000E+00  0.00000000000E+00  0.32612765142E+03  0.32612765143E+03  0.25500000920E-02 0.  1.
        2   -1    0    0  501    0  0.00000000000E+00  0.00000000000E+00 -0.93523810889E+03  0.93523810890E+03  0.25500000920E-02 0. -1.
    10030    2    1    2    0    0  0.00000000000E+00  0.00000000000E+00 -0.60911045747E+03  0.12613657603E+04  0.11045487911E+04 0.  0.
        5    1    3    3  502    0  0.53363301459E+03  0.85011755678E+02 -0.43472884528E+03  0.69354340295E+03  0.46999998093E+01 0.  1.
       -5    1    3    3    0  502 -0.53363301459E+03 -0.85011755678E+02 -0.17438161219E+03  0.56782235737E+03  0.46999998093E+01 0. -1.
</event>
<event>
 5   0  0.3744875E-03  0.1100088E+04  0.7818609E-02  0.9205106E-01
       -2   -1    0    0    0  501  0.00000000000E+00  0.00000000000E+00  0.59979958862E+03  0.59979958862E+03  0.25500000920E-02 0. -1.
        2   -1    0    0  501    0  0.00000000000E+00  0.00000000000E+00 -0.50441572942E+03  0.50441572943E+03  0.25500000920E-02 0.  1.
    10030    2    1    2    0    0  0.00000000000E+00  0.00000000000E+00  0.95383859193E+02  0.11042153181E+04  0.11000879001E+04 0.  0.
        2    1    3    3  502    0 -0.29813409838E+03  0.28793629404E+03 -0.31526827793E+03  0.52075458435E+03  0.25500000920E-02 0.  1.
       -2    1    3    3    0  502  0.29813409838E+03 -0.28793629404E+03  0.41065213713E+03  0.58346073371E+03  0.25500000920E-02 0. -1.
</event>
<event>
 5   0  0.3713158E-03  0.1093343E+04  0.7818609E-02  0.9211705E-01
       -2   -1    0    0    0  501  0.00000000000E+00  0.00000000000E+00  0.12455954874E+04  0.12455954874E+04  0.25500000920E-02 0.  1.
        2   -1    0    0  501    0  0.00000000000E+00  0.00000000000E+00 -0.23992498297E+03  0.23992498298E+03  0.25500000920E-02 0. -1.
    10030    2    1    2    0    0  0.00000000000E+00  0.00000000000E+00  0.10056705044E+04  0.14855204704E+04  0.10933425376E+04 0.  0.
        4    1    3    3  502    0 -0.38468679211E+03  0.71027963722E+02  0.10216704120E+04  0.10940022593E+04  0.12699999809E+01 0.  1.
       -4    1    3    3    0  502  0.38468679211E+03 -0.71027963722E+02 -0.15999907606E+02  0.39151821107E+03  0.12699999809E+01 0. -1.
</event>
<event>
 5   0  0.2298958E-03  0.1081319E+04  0.7818609E-02  0.9223594E-01
       -1   -1    0    0    0  501  0.00000000000E+00  0.00000000000E+00  0.81890267897E+03  0.81890267898E+03  0.50400001928E-02 0. -1.
        1   -1    0    0  501    0  0.00000000000E+00  0.00000000000E+00 -0.35695644992E+03  0.35695644996E+03  0.50400001928E-02 0.  1.
    10030    2    1    2    0    0  0.00000000000E+00  0.00000000000E+00  0.46194622904E+03  0.11758591289E+04  0.10813188117E+04 0.  0.
        1    1    3    3  502    0 -0.23337697077E+03  0.42378184111E+03  0.49344005128E+03  0.69104192606E+03  0.50400001928E-02 0. -1.
       -1    1    3    3    0  502  0.23337697077E+03 -0.42378184111E+03 -0.31493822237E+02  0.48481720288E+03  0.50400001928E-02 0.  1.
</event>
<event>
 5   0  0.2298958E-03  0.1106499E+04  0.7818609E-02  0.9198880E-01
        1   -1    0    0  501    0  0.00000000000E+00  0.00000000000E+00  0.42938549699E+03  0.42938549702E+03  0.50400001928E-02 0.  1.
       -1   -1    0    0    0  501  0.00000000000E+00  0.00000000000E+00 -0.71284460417E+03  0.71284460419E+03  0.50400001928E-02 0. -1.
    10030    2    1    2    0    0  0.00000000000E+00  0.00000000000E+00 -0.28345910718E+03  0.11422301012E+04  0.11064992267E+04 0.  0.
        1    1    3    3  502    0  0.55151436380E+03 -0.43661590931E+02 -0.13835179013E+03  0.57027681511E+03  0.50400001928E-02 0. -1.
       -1    1    3    3    0  502 -0.55151436380E+03  0.43661590931E+02 -0.14510731706E+03  0.57195328610E+03  0.50400001928E-02 0.  1.
</event>
<event>
 5   0  0.2255788E-03  0.1088558E+04  0.7818609E-02  0.9216416E-01
       -1   -1    0    0    0  501  0.00000000000E+00  0.00000000000E+00  0.63630228995E+03  0.63630228997E+03  0.50400001928E-02 0. -1.
        1   -1    0    0  501    0  0.00000000000E+00  0.00000000000E+00 -0.46556433439E+03  0.46556433442E+03  0.50400001928E-02 0.  1.
    10030    2    1    2    0    0  0.00000000000E+00  0.00000000000E+00  0.17073795556E+03  0.11018666244E+04  0.10885580409E+04 0.  0.
        3    1    3    3  502    0 -0.77455798039E+02 -0.29712867717E+02  0.62986501714E+03  0.63530481280E+03  0.10100000352E+00 0. -1.
       -3    1    3    3    0  502  0.77455798039E+02  0.29712867717E+02 -0.45912706157E+03  0.46656181158E+03  0.10100000352E+00 0.  1.
</event>
<event>
 5   0  0.3992414E-03  0.1067525E+04  0.7818609E-02  0.9237435E-01
        2   -1    0    0  501    0  0.00000000000E+00  0.00000000000E+00  0.85276851801E+03  0.85276851801E+03  0.25500000920E-02 0. -1.
       -2   -1    0    0    0  501  0.00000000000E+00  0.00000000000E+00 -0.33409112590E+03  0.33409112591E+03  0.25500000920E-02 0.  1.
    10030    2    1    2    0    0  0.00000000000E+00  0.00000000000E+00  0.51867739211E+03  0.11868596439E+04  0.10675249774E+04 0.  0.
        1    1    3    3  502    0  0.25723047943E+03  0.46716134649E+03  0.28407815473E+03  0.60424137662E+03  0.50400001928E-02 0. -1.
       -1    1    3    3    0  502 -0.25723047943E+03 -0.46716134649E+03  0.23459923737E+03  0.58261826731E+03  0.50400001928E-02 0.  1.
</event>
<event>
 5   0  0.1508625E-03  0.1106398E+04  0.7818609E-02  0.9198978E-01
        3   -1    0    0  501    0  0.00000000000E+00  0.00000000000E+00  0.12164150423E+04  0.12164150465E+04  0.10100000352E+00 0. -1.
       -3   -1    0    0    0  501  0.00000000000E+00  0.00000000000E+00 -0.25158281764E+03  0.25158283791E+03  0.10100000352E+00 0.  1.
    10030    2    1    2    0    0  0.00000000000E+00  0.00000000000E+00  0.96483222467E+03  0.14679978844E+04  0.11063980147E+04 0.  0.
        4    1    3    3  502    0 -0.33586596893E+03  0.36678748048E+03  0.16098298393E+03  0.52273907347E+03  0.12699999809E+01 0. -1.
       -4    1    3    3    0  502  0.33586596893E+03 -0.36678748048E+03  0.80384924074E+03  0.94525881094E+03  0.12699999809E+01 0.  1.
</event>
<event>
 5   0  0.3744875E-03  0.1104183E+04  0.7818609E-02  0.9201125E-01
        2   -1    0    0  501    0  0.00000000000E+00  0.00000000000E+00  0.14011445227E+04  0.14011445227E+04  0.25500000920E-02 0. -1.
       -2   -1    0    0    0  501  0.00000000000E+00  0.00000000000E+00 -0.21753995206E+03  0.21753995207E+03  0.25500000920E-02 0.  1.
    10030    2    1    2    0    0  0.00000000000E+00  0.00000000000E+00  0.11836045707E+04  0.16186844748E+04  0.11041827970E+04 0.  0.
        2    1    3    3  502    0 -0.16433947941E+03  0.23145816720E+02 -0.18010684948E+03  0.24491155661E+03  0.25500000920E-02 0.  1.
       -2    1    3    3    0  502  0.16433947941E+03 -0.23145816720E+02  0.13637114201E+04  0.13737729182E+04  0.25500000920E-02 0. -1.
</event>
<event>
 5   0  0.2257667E-03  0.1107871E+04  0.7818609E-02  0.9197554E-01
       -1   -1    0    0    0  501  0.00000000000E+00  0.00000000000E+00  0.10152084252E+04  0.10152084252E+04  0.50400001928E-02 0.  1.
        1   -1    0    0  501    0  0.00000000000E+00  0.00000000000E+00 -0.30224794023E+03  0.30224794028E+03  0.50400001928E-02 0. -1.
    10030    2    1    2    0    0  0.00000000000E+00  0.00000000000E+00  0.71296048500E+03  0.13174563655E+04  0.11078712118E+04 0.  0.
        4    1    3    3  502    0  0.30750099896E+03  0.28139136722E+03  0.79033490879E+03  0.89351488340E+03  0.12699999809E+01 0.  1.
       -4    1    3    3    0  502 -0.30750099896E+03 -0.28139136722E+03 -0.77374423786E+02  0.42394148212E+03  0.12699999809E+01 0. -1.
</event>
<event>
 5   0  0.2300702E-03  0.1111913E+04  0.7818609E-02  0.9193658E-01
        1   -1    0    0  501    0  0.00000000000E+00  0.00000000000E+00  0.59653460248E+03  0.59653460250E+03  0.50400001928E-02 0.  1.
       -1   -1    0    0    0  501  0.00000000000E+00  0.00000000000E+00 -0.51813828581E+03  0.51813828583E+03  0.50400001928E-02 0. -1.
    10030    2    1    2    0    0  0.00000000000E+00  0.00000000000E+00  0.78396316674E+02  0.11146728883E+04  0.11119126160E+04 0.  0.
        5    1    3    3  502    0 -0.27188091527E+03  0.20229261452E+03 -0.40260416482E+03  0.52626394281E+03  0.46999998093E+01 0. -1.
       -5    1    3    3    0  502  0.27188091527E+03 -0.20229261452E+03  0.48100048149E+03  0.58840894552E+03  0.46999998093E+01 0.  1.
</event>
<event>
 5   0  0.3992414E-03  0.1104239E+04  0.7818609E-02  0.9201070E-01
       -2   -1    0    0    0  501  0.00000000000E+00  0.00000000000E+00  0.41571262598E+03  0.41571262599E+03  0.25500000920E-02 0.  1.
        2   -1    0    0  501    0  0.00000000000E+00  0.00000000000E+00 -0.73328517620E+03  0.73328517620E+03  0.25500000920E-02 0. -1.
    10030    2    1    2    0    0  0.00000000000E+00  0.00000000000E+00 -0.31757255022E+03  0.11489978022E+04  0.11042389346E+04 0.  0.
        1    1    3    3  502    0 -0.47749472259E+03 -0.20515428956E+03 -0.35274581005E+03  0.62810755381E+03  0.50400001928E-02 0.  1.
       -1    1    3    3    0  502  0.47749472259E+03  0.20515428956E+03  0.35173259833E+02  0.52089024838E+03  0.50400001928E-02 0. -1.
</event>
<event>
 5   0  0.2255788E-03  0.1108837E+04  0.7818609E-02  0.9196621E-01
       -1   -1    0    0    0  501  0.00000000000E+00  0.00000000000E+00  0.29856593790E+03  0.29856593795E+03  0.50400001928E-02 0. -1.
        1   -1    0    0  501    0  0.00000000000E+00  0.00000000000E+00 -0.10295210300E+04  0.10295210300E+04  0.50400001928E-02 0.  1.
    10030    2    1    2    0    0  0.00000000000E+00  0.00000000000E+00 -0.73095509205E+03  0.13280869679E+04  0.11088370700E+04 0.  0.
        3    1    3    3  502    0  0.34031620108E+03  0.22550262215E+03  0.83812124044E+02  0.41676256028E+03  0.10100000352E+00 0. -1.
       -3    1    3    3    0  502 -0.34031620108E+03 -0.22550262215E+03 -0.81476721610E+03  0.91132440763E+03  0.10100000352E+00 0.  1.
</event>
<event>
 5   0  0.3744875E-03  0.1090445E+04  0.7818609E-02  0.9214555E-01
       -2   -1    0    0    0  501  0.00000000000E+00  0.00000000000E+00  0.50037293108E+03  0.50037293109E+03  0.25500000920E-02 0.  1.
        2   -1    0    0  501    0  0.00000000000E+00  0.00000000000E+00 -0.59409210919E+03  0.59409210920E+03  0.25500000920E-02 0. -1.
    10030    2    1    2    0    0  0.00000000000E+00  0.00000000000E+00 -0.93719178110E+02  0.10944650403E+04  0.10904450651E+04 0.  0.
        2    1    3    3  502    0  0.27188057084E+03 -0.78610221495E+02 -0.51459151704E+03  0.58728446356E+03  0.25500000920E-02 0. -1.
       -2    1    3    3    0  502 -0.27188057084E+03  0.78610221495E+02  0.42087233893E+03  0.50718057672E+03  0.25500000920E-02 0.  1.
</event>
<event>
 5   0  0.3744875E-03  0.1248795E+04  0.7818609E-02  0.9071187E-01
        2   -1    0    0  501    0  0.00000000000E+00  0.00000000000E+00  0.73492072035E+03  0.73492072036E+03  0.25500000920E-02 0. -1.
       -2   -1    0    0    0  501  0.00000000000E+00  0.00000000000E+00 -0.53049545915E+03  0.53049545915E+03  0.25500000920E-02 0.  1.
    10030    2    1    2    0    0  0.00000000000E+00  0.00000000000E+00  0.20442526120E+03  0.12654161795E+04  0.12487947870E+04 0.  0.
        2    1    3    3  502    0 -0.56157486653E+03 -0.24414309465E+03 -0.21477294516E+02  0.61272624848E+03  0.25500000920E-02 0.  1.
       -2    1    3    3    0  502  0.56157486653E+03  0.24414309465E+03  0.22590255572E+03  0.65268993103E+03  0.25500000920E-02 0. -1.
</event>
<event>
 5   0  0.3713158E-03  0.1089947E+04  0.7818609E-02  0.9215046E-01
       -2   -1    0    0    0  501  0.00000000000E+00  0.00000000000E+00  0.17670764889E+03  0.17670764891E+03  0.25500000920E-02 0.  1.
        2   -1    0    0  501    0  0.00000000000E+00  0.00000000000E+00 -0.16807211113E+04  0.16807211113E+04  0.25500000920E-02 0. -1.
    10030    2    1    2    0    0  0.00000000000E+00  0.00000000000E+00 -0.15040134624E+04  0.18574287602E+04  0.10899472942E+04 0.  0.
        4    1    3    3  502    0  0.12557978356E+03 -0.38129202575E+03 -0.12391693344E+03  0.42013201525E+03  0.12699999809E+01 0.  1.
       -4    1    3    3    0  502 -0.12557978356E+03  0.38129202575E+03 -0.13800965290E+04  0.14372967450E+04  0.12699999809E+01 0. -1.
</event>
<event>
 5   0  0.3962999E-03  0.1099597E+04  0.7818609E-02  0.9205585E-01
       -2   -1    0    0    0  501  0.00000000000E+00  0.00000000000E+00  0.23214131414E+03  0.23214131415E+03  0.25500000920E-02 0. -1.
        2   -1    0    0  501    0  0.00000000000E+00  0.00000000000E+00 -0.13021315031E+04  0.13021315031E+04  0.25500000920E-02 0.  1.
    10030    2    1    2    0    0  0.00000000000E+00  0.00000000000E+00 -0.10699901889E+04  0.15342728172E+04  0.10995972323E+04 0.  0.
        3    1    3    3  502    0 -0.28872470090E+03  0.43374278786E+01 -0.11878092957E+04  0.12224040655E+04  0.10100000352E+00 0.  1.
       -3    1    3    3    0  502  0.28872470090E+03 -0.43374278786E+01  0.11781910676E+03  0.31186875174E+03  0.10100000352E+00 0. -1.
</event>
<event>
 5   0  0.3992414E-03  0.1076448E+04  0.7818609E-02  0.9228456E-01
       -2   -1    0    0    0  501  0.00000000000E+00  0.00000000000E+00  0.21475655095E+03  0.21475655096E+03  0.25500000920E-02 0.  1.
        2   -1    0    0  501    0  0.00000000000E+00  0.00000000000E+00 -0.13488995741E+04  0.13488995741E+04  0.25500000920E-02 0. -1.
    10030    2    1    2    0    0  0.00000000000E+00  0.00000000000E+00 -0.11341430232E+04  0.15636561251E+04  0.10764478996E+04 0.  0.
        1    1    3    3  502    0  0.38288223123E+03 -0.16680916169E+03 -0.10602331399E+04  0.11395255198E+04  0.50400001928E-02 0. -1.
       -1    1    3    3    0  502 -0.38288223123E+03  0.16680916169E+03 -0.73909883258E+02  0.42413060522E+03  0.50400001928E-02 0.  1.
</event>
<event>
 5   0  0.3748901E-03  0.1099369E+04  0.7818609E-02  0.9205807E-01
       -2   -1    0    0    0  501  0.00000000000E+00  0.00000000000E+00  0.93108574586E+03  0.93108574587E+03  0.25500000920E-02 0. -1.
        2   -1    0    0  501    0  0.00000000000E+00  0.00000000000E+00 -0.32451666773E+03  0.32451666774E+03  0.25500000920E-02 0.  1.
    10030    2    1    2    0    0  0.00000000000E+00  0.00000000000E+00  0.60656907814E+03  0.12556024136E+04  0.10993686254E+04 0.  0.
        5    1    3    3  502    0  0.29743622850E+02  0.21061729483E+03  0.88215232440E+03  0.90744649508E+03  0.46999998093E+01 0. -1.
       -5    1    3    3    0  502 -0.29743622850E+02 -0.21061729483E+03 -0.27558324627E+03  0.34815591853E+03  0.46999998093E+01 0.  1.
</event>
<event>
 5   0  0.2257667E-03  0.1090091E+04  0.7818609E-02  0.9214904E-01
       -1   -1    0    0    0  501  0.00000000000E+00  0.00000000000E+00  0.16850898308E+03  0.16850898316E+03  0.50400001928E-02 0. -1.
        1   -1    0    0  501    0  0.00000000000E+00  0.00000000000E+00 -0.17629590691E+04  0.17629590691E+04  0.50400001928E-02 0.  1.
    10030    2    1    2    0    0  0.00000000000E+00  0.00000000000E+00 -0.15944500860E+04  0.19314680523E+04  0.10900907119E+04 0.  0.
        4    1    3    3  502    0 -0.50466982180E+02  0.58357802014E+02 -0.17532321443E+04  0.17549293758E+04  0.12699999809E+01 0.  1.
       -4    1    3    3    0  502  0.50466982180E+02 -0.58357802014E+02  0.15878205829E+03  0.17653867645E+03  0.12699999809E+01 0. -1.
</event>
<event>
 5   0  0.2300702E-03  0.1100580E+04  0.7818609E-02  0.9204626E-01
       -1   -1    0    0    0  501  0.00000000000E+00  0.00000000000E+00  0.12499456804E+04  0.12499456805E+04  0.50400001928E-02 0.  1.
        1   -1    0    0  501    0  0.00000000000E+00  0.00000000000E+00 -0.24226598562E+03  0.24226598568E+03  0.50400001928E-02 0. -1.
    10030    2    1    2    0    0  0.00000000000E+00  0.00000000000E+00  0.10076796948E+04  0.14922116661E+04  0.11005804329E+04 0.  0.
        5    1    3    3  502    0 -0.41021239982E+03  0.12937695918E+03  0.38518540100E+02  0.43187773555E+03  0.46999998093E+01 0. -1.
       -5    1    3    3    0  502  0.41021239982E+03 -0.12937695918E+03  0.96916115472E+03  0.10603339306E+04  0.46999998093E+01 0.  1.
</event>
<event>
 5   0  0.3713158E-03  0.1043489E+04  0.7818609E-02  0.9262092E-01
        2   -1    0    0  501    0  0.00000000000E+00  0.00000000000E+00  0.14212337722E+04  0.14212337722E+04  0.25500000920E-02 0. -1.
       -2   -1    0    0    0  501  0.00000000000E+00  0.00000000000E+00 -0.19153592023E+03  0.19153592025E+03  0.25500000920E-02 0.  1.
    10030    2    1    2    0    0  0.00000000000E+00  0.00000000000E+00  0.12296978520E+04  0.16127696925E+04  0.10434889907E+04 0.  0.
        4    1    3    3  502    0  0.25780142104E+03 -0.11054848444E+03  0.12947757611E+04  0.13248125998E+04  0.12699999809E+01 0. -1.
       -4    1    3    3    0  502 -0.25780142104E+03  0.11054848444E+03 -0.65077909075E+02  0.28795709273E+03  0.12699999809E+01 0.  1.
</event>
<event>
 5   0  0.3744875E-03  0.1104063E+04  0.7818609E-02  0.9201241E-01
       -2   -1    0    0    0  501  0.00000000000E+00  0.00000000000E+00  0.10586999147E+04  0.10586999147E+04  0.25500000920E-02 0. -1.
        2   -1    0    0  501    0  0.00000000000E+00  0.00000000000E+00 -0.28784240840E+03  0.28784240841E+03  0.25500000920E-02 0.  1.
    10030    2    1    2    0    0  0.00000000000E+00  0.00000000000E+00  0.77085750628E+03  0.13465423231E+04  0.11040629207E+04 0.  0.
        2    1    3    3  502    0 -0.53714481882E+03 -0.48720023133E+02  0.52891247758E+03  0.75541154743E+03  0.25500000920E-02 0.  1.
       -2    1    3    3    0  502  0.53714481882E+03  0.48720023133E+02  0.24194502870E+03  0.59113077568E+03  0.25500000920E-02 0. -1.
</event>
<event>
 5   0  0.2300702E-03  0.1105119E+04  0.7818609E-02  0.9200217E-01
       -1   -1    0    0    0  501  0.00000000000E+00  0.00000000000E+00  0.85636317641E+03  0.85636317642E+03  0.50400001928E-02 0.  1.
        1   -1    0    0  501    0  0.00000000000E+00  0.00000000000E+00 -0.35653343124E+03  0.35653343127E+03  0.50400001928E-02 0. -1.
    10030    2    1    2    0    0  0.00000000000E+00  0.00000000000E+00  0.49982974517E+03  0.12128966077E+04  0.11051191822E+04 0.  0.
        5    1    3    3  502    0  0.53466588126E+03 -0.13348423192E+03  0.20581718746E+03  0.58827582766E+03  0.46999998093E+01 0. -1.
       -5    1    3    3    0  502 -0.53466588126E+03  0.13348423192E+03  0.29401255770E+03  0.62462078003E+03  0.46999998093E+01 0.  1.
</event>
<event>
 5   0  0.2374100E-03  0.1099156E+04  0.7818609E-02  0.9206015E-01
       -1   -1    0    0    0  501  0.00000000000E+00  0.00000000000E+00  0.22885409704E+03  0.22885409709E+03  0.50400001928E-02 0. -1.
        1   -1    0    0  501    0  0.00000000000E+00  0.00000000000E+00 -0.13197741898E+04  0.13197741898E+04  0.50400001928E-02 0.  1.
    10030    2    1    2    0    0  0.00000000000E+00  0.00000000000E+00 -0.10909200927E+04  0.15486282869E+04  0.10991555496E+04 0.  0.
        2    1    3    3  502    0 -0.33865512094E+03 -0.49744228488E+02  0.60335243771E+02  0.34756599496E+03  0.25500000920E-02 0. -1.
       -2    1    3    3    0  502  0.33865512094E+03  0.49744228488E+02 -0.11512553365E+04  0.12010622919E+04  0.25500000920E-02 0.  1.
</event>
<event>
 5   0  0.3748901E-03  0.1093048E+04  0.7818609E-02  0.9211994E-01
        2   -1    0    0  501    0  0.00000000000E+00  0.00000000000E+00  0.12917330747E+04  0.12917330747E+04  0.25500000920E-02 0. -1.
       -2   -1    0    0    0  501  0.00000000000E+00  0.00000000000E+00 -0.23123076227E+03  0.23123076229E+03  0.25500000920E-02 0.  1.
    10030    2    1    2    0    0  0.00000000000E+00  0.00000000000E+00  0.10605023124E+04  0.15229638370E+04  0.10930478920E+04 0.  0.
        5    1    3    3  502    0  0.37670006299E+03 -0.34825779039E+02  0.10797745572E+04  0.11441376476E+04  0.46999998093E+01 0. -1.
       -5    1    3    3    0  502 -0.37670006299E+03  0.34825779039E+02 -0.19272244761E+02  0.37882618938E+03  0.46999998093E+01 0.  1.
</event>
<event>
 5   0  0.2374100E-03  0.1009877E+04  0.7818609E-02  0.9297778E-01
       -1   -1    0    0    0  501  0.00000000000E+00  0.00000000000E+00  0.28442029129E+03  0.28442029133E+03  0.50400001928E-02 0. -1.
        1   -1    0    0  501    0  0.00000000000E+00  0.00000000000E+00 -0.89642953700E+03  0.89642953702E+03  0.50400001928E-02 0.  1.
    10030    2    1    2    0    0  0.00000000000E+00  0.00000000000E+00 -0.61200924571E+03  0.11808498284E+04  0.10098767253E+04 0.  0.
        2    1    3    3  502    0  0.12459059837E+03  0.32438947532E+03 -0.73437656065E+03  0.81244094047E+03  0.25500000920E-02 0.  1.
       -2    1    3    3    0  502 -0.12459059837E+03 -0.32438947532E+03  0.12236731494E+03  0.36840888788E+03  0.25500000920E-02 0. -1.
</event>
<event>
 5   0  0.2255788E-03  0.1093899E+04  0.7818609E-02  0.9211159E-01
        1   -1    0    0  501    0  0.00000000000E+00  0.00000000000E+00  0.21147761973E+03  0.21147761979E+03  0.50400001928E-02 0.  1.
       -1   -1    0    0    0  501  0.00000000000E+00  0.00000000000E+00 -0.14145881016E+04  0.14145881016E+04  0.50400001928E-02 0. -1.
    10030    2    1    2    0    0  0.00000000000E+00  0.00000000000E+00 -0.12031104818E+04  0.16260657214E+04  0.10938989436E+04 0.  0.
        3    1    3    3  502    0  0.35771889765E+03  0.83706114290E+01 -0.12164663518E+04  0.12679997130E+04  0.10100000352E+00 0. -1.
       -3    1    3    3    0  502 -0.35771889765E+03 -0.83706114290E+01  0.13355869998E+02  0.35806600835E+03  0.10100000352E+00 0.  1.
</event>
<event>
 5   0  0.2298958E-03  0.1094199E+04  0.7818609E-02  0.9210865E-01
       -1   -1    0    0    0  501  0.00000000000E+00  0.00000000000E+00  0.42048250806E+03  0.42048250809E+03  0.50400001928E-02 0.  1.
        1   -1    0    0  501    0  0.00000000000E+00  0.00000000000E+00 -0.71184337357E+03  0.71184337359E+03  0.50400001928E-02 0. -1.
    10030    2    1    2    0    0  0.00000000000E+00  0.00000000000E+00 -0.29136086552E+03  0.11323258817E+04  0.10941986787E+04 0.  0.
        1    1    3    3  502    0 -0.52136242949E+03 -0.16530616235E+03 -0.15928291117E+03  0.56966301970E+03  0.50400001928E-02 0.  1.
       -1    1    3    3    0  502  0.52136242949E+03  0.16530616235E+03 -0.13207795435E+03  0.56266286198E+03  0.50400001928E-02 0. -1.
</event>
<event>
 5   0  0.3992414E-03  0.1108293E+04  0.7818609E-02  0.9197147E-01
       -2   -1    0    0    0  501  0.00000000000E+00  0.00000000000E+00  0.32516671291E+03  0.32516671292E+03  0.25500000920E-02 0. -1.
        2   -1    0    0  501    0  0.00000000000E+00  0.00000000000E+00 -0.94437172168E+03  0.94437172168E+03  0.25500000920E-02 0.  1.
    10030    2    1    2    0    0  0.00000000000E+00  0.00000000000E+00 -0.61920500877E+03  0.12695384346E+04  0.11082928286E+04 0.  0.
        1    1    3    3  502    0  0.85517333345E+02  0.35569535353E+03  0.16718267815E+03  0.40222188743E+03  0.50400001928E-02 0. -1.
       -1    1    3    3    0  502 -0.85517333345E+02 -0.35569535353E+03 -0.78638768692E+03  0.86731654717E+03  0.50400001928E-02 0.  1.
</event>
<event>
 5   0  0.1508625E-03  0.1101361E+04  0.7818609E-02  0.9203866E-01
        3   -1    0    0  501    0  0.00000000000E+00  0.00000000000E+00  0.56112622049E+03  0.56112622958E+03  0.10100000352E+00 0.  1.
       -3   -1    0    0    0  501  0.00000000000E+00  0.00000000000E+00 -0.54042942361E+03  0.54042943305E+03  0.10100000352E+00 0. -1.
    10030    2    1    2    0    0  0.00000000000E+00  0.00000000000E+00  0.20696796881E+02  0.11015556626E+04  0.11013612125E+04 0.  0.
        1    1    3    3  502    0  0.54731734361E+03  0.54456938338E+02  0.37321610806E+02  0.55128462286E+03  0.50400001928E-02 0. -1.
       -1    1    3    3    0  502 -0.54731734361E+03 -0.54456938338E+02 -0.16624813925E+02  0.55027103977E+03  0.50400001928E-02 0.  1.
</event>
<event>
 5   0  0.3962999E-03  0.1095934E+04  0.7818609E-02  0.9209164E-01
        2   -1    0    0  501    0  0.00000000000E+00  0.00000000000E+00  0.14130662836E+04  0.14130662836E+04  0.25500000920E-02 0. -1.
       -2   -1    0    0    0  501  0.00000000000E+00  0.00000000000E+00 -0.21249390555E+03  0.21249390556E+03  0.25500000920E-02 0.  1.
    10030    2    1    2    0    0  0.00000000000E+00  0.00000000000E+00  0.12005723781E+04  0.16255601892E+04  0.10959342561E+04 0.  0.
        3    1    3    3  502    0  0.23157601228E+03  0.23094701148E+03 -0.51850994674E+02  0.33113819988E+03  0.10100000352E+00 0.  1.
       -3    1    3    3    0  502 -0.23157601228E+03 -0.23094701148E+03  0.12524233728E+04  0.12944219893E+04  0.10100000352E+00 0. -1.
</event>
<event>
 5   0  0.3748901E-03  0.1123559E+04  0.7818609E-02  0.9182529E-01
        2   -1    0    0  501    0  0.00000000000E+00  0.00000000000E+00  0.85779213975E+03  0.85779213976E+03  0.25500000920E-02 0.  1.
       -2   -1    0    0    0  501  0.00000000000E+00  0.00000000000E+00 -0.36791671150E+03  0.36791671151E+03  0.25500000920E-02 0. -1.
    10030    2    1    2    0    0  0.00000000000E+00  0.00000000000E+00  0.48987542826E+03  0.12257088513E+04  0.11235587447E+04 0.  0.
        5    1    3    3  502    0 -0.55771119282E+03  0.38824886537E+02  0.30493640779E+03  0.63683392592E+03  0.46999998093E+01 0. -1.
       -5    1    3    3    0  502  0.55771119282E+03 -0.38824886537E+02  0.18493902047E+03  0.58887492534E+03  0.46999998093E+01 0.  1.
</event>
<event>
 5   0  0.3713158E-03  0.1102847E+04  0.7818609E-02  0.9202422E-01
       -2   -1    0    0    0  501  0.00000000000E+00  0.00000000000E+00  0.19989654756E+03  0.19989654758E+03  0.25500000920E-02 0.  1.
        2   -1    0    0  501    0  0.00000000000E+00  0.00000000000E+00 -0.15211258859E+04  0.15211258859E+04  0.25500000920E-02 0. -1.
    10030    2    1    2    0    0  0.00000000000E+00  0.00000000000E+00 -0.13212293383E+04  0.17210224334E+04  0.11028468851E+04 0.  0.
        4    1    3    3  502    0  0.40143930430E+03  0.37204396989E+03 -0.76525111759E+03  0.94084064349E+03  0.12699999809E+01 0. -1.
       -4    1    3    3    0  502 -0.40143930430E+03 -0.37204396989E+03 -0.55597822070E+03  0.78018178994E+03  0.12699999809E+01 0.  1.
</event>
<event>
 5   0  0.3992414E-03  0.1100701E+04  0.7818609E-02  0.9204509E-01
       -2   -1    0    0    0  501  0.00000000000E+00  0.00000000000E+00  0.19768998579E+03  0.19768998581E+03  0.25500000920E-02 0.  1.
        2   -1    0    0  501    0  0.00000000000E+00  0.00000000000E+00 -0.15321233366E+04  0.15321233366E+04  0.25500000920E-02 0. -1.
    10030    2    1    2    0    0  0.00000000000E+00  0.00000000000E+00 -0.13344333508E+04  0.17298133224E+04  0.11007005781E+04 0.  0.
        1    1    3    3  502    0  0.19763170629E+03 -0.40661501134E+03 -0.11604235920E+04  0.12453822593E+04  0.50400001928E-02 0. -1.
       -1    1    3    3    0  502 -0.19763170629E+03  0.40661501134E+03 -0.17400975883E+03  0.48443106318E+03  0.50400001928E-02 0.  1.
</event>
<event>
 5   0  0.2374100E-03  0.1103699E+04  0.7818609E-02  0.9201594E-01
       -1   -1    0    0    0  501  0.00000000000E+00  0.00000000000E+00  0.33358691066E+03  0.33358691070E+03  0.50400001928E-02 0.  1.
        1   -1    0    0  501    0  0.00000000000E+00  0.00000000000E+00 -0.91291943312E+03  0.91291943314E+03  0.50400001928E-02 0. -1.
    10030    2    1    2    0    0  0.00000000000E+00  0.00000000000E+00 -0.57933252246E+03  0.12465063438E+04  0.11036991862E+04 0.  0.
        2    1    3    3  502    0  0.54341069767E+02 -0.21119531188E+03  0.28285913086E+03  0.35716340734E+03  0.25500000920E-02 0.  1.
       -2    1    3    3    0  502 -0.54341069767E+02  0.21119531188E+03 -0.86219165333E+03  0.88934293650E+03  0.25500000920E-02 0. -1.
</event>
<event>
 5   0  0.2255788E-03  0.1096450E+04  0.7818609E-02  0.9208659E-01
        1   -1    0    0  501    0  0.00000000000E+00  0.00000000000E+00  0.25086832715E+04  0.25086832715E+04  0.50400001928E-02 0.  1.
       -1   -1    0    0    0  501  0.00000000000E+00  0.00000000000E+00 -0.11980407124E+03  0.11980407135E+03  0.50400001928E-02 0. -1.
    10030    2    1    2    0    0  0.00000000000E+00  0.00000000000E+00  0.23888792003E+04  0.26284873429E+04  0.10964496697E+04 0.  0.
        3    1    3    3  502    0 -0.27140410455E+03  0.39429658664E+03  0.18351009884E+04  0.18965035286E+04  0.10100000352E+00 0.  1.
       -3    1    3    3    0  502  0.27140410455E+03 -0.39429658664E+03  0.55377821190E+03  0.73198381429E+03  0.10100000352E+00 0. -1.
</event>
<event>
 5   0  0.1508625E-03  0.1093300E+04  0.7818609E-02  0.9211747E-01
       -3   -1    0    0    0  501  0.00000000000E+00  0.00000000000E+00  0.24697027134E+03  0.24697029200E+03  0.10100000352E+00 0.  1.
        3   -1    0    0  501    0  0.00000000000E+00  0.00000000000E+00 -0.12099680512E+04  0.12099680554E+04  0.10100000352E+00 0. -1.
    10030    2    1    2    0    0  0.00000000000E+00  0.00000000000E+00 -0.96299777981E+03  0.14569383474E+04  0.10932998784E+04 0.  0.
        5    1    3    3  502    0 -0.44650396564E+03  0.22790403236E+03 -0.77192767509E+03  0.92043493245E+03  0.46999998093E+01 0. -1.
       -5    1    3    3    0  502  0.44650396564E+03 -0.22790403236E+03 -0.19107010472E+03  0.53650341492E+03  0.46999998093E+01 0.  1.
</event>
<event>
 5   0  0.3962999E-03  0.1083838E+04  0.7818609E-02  0.9221090E-01
        2   -1    0    0  501    0  0.00000000000E+00  0.00000000000E+00  0.16251720410E+03  0.16251720412E+03  0.25500000920E-02 0.  1.
       -2   -1    0    0    0  501  0.00000000000E+00  0.00000000000E+00 -0.18070454779E+04  0.18070454779E+04  0.25500000920E-02 0. -1.
    10030    2    1    2    0    0  0.00000000000E+00  0.00000000000E+00 -0.16445282738E+04  0.19695626820E+04  0.10838375870E+04 0.  0.
        3    1    3    3  502    0  0.52229262322E+03  0.13898630266E+03 -0.89424940693E+03  0.10448869741E+04  0.10100000352E+00 0.  1.
       -3    1    3    3    0  502 -0.52229262322E+03 -0.13898630266E+03 -0.75027886689E+03  0.92467570796E+03  0.10100000352E+00 0. -1.
</event>
<event>
 5   0  0.3962999E-03  0.1117300E+04  0.7818609E-02  0.9188493E-01
        2   -1    0    0  501    0  0.00000000000E+00  0.00000000000E+00  0.29567476174E+03  0.29567476175E+03  0.25500000920E-02 0. -1.
       -2   -1    0    0    0  501  0.00000000000E+00  0.00000000000E+00 -0.10555167164E+04  0.10555167164E+04  0.25500000920E-02 0.  1.
    10030    2    1    2    0    0  0.00000000000E+00  0.00000000000E+00 -0.75984195464E+03  0.13511914781E+04  0.11172996977E+04 0.  0.
        3    1    3    3  502    0 -0.22372184525E+02  0.15967665552E+01 -0.10549719818E+04  0.10552103851E+04  0.10100000352E+00 0.  1.
       -3    1    3    3    0  502  0.22372184525E+02 -0.15967665552E+01  0.29513002714E+03  0.29598109302E+03  0.10100000352E+00 0. -1.
</event>
<event>
 5   0  0.2374100E-03  0.1098492E+04  0.7818609E-02  0.9206663E-01
       -1   -1    0    0    0  501  0.00000000000E+00  0.00000000000E+00  0.48614992084E+03  0.48614992086E+03  0.50400001928E-02 0.  1.
        1   -1    0    0  501    0  0.00000000000E+00  0.00000000000E+00 -0.62053139671E+03  0.62053139673E+03  0.50400001928E-02 0. -1.
    10030    2    1    2    0    0  0.00000000000E+00  0.00000000000E+00 -0.13438147587E+03  0.11066813176E+04  0.10984922201E+04 0.  0.
        2    1    3    3  502    0 -0.58011808223E+02  0.45365553506E+03  0.23921895829E+03  0.51613411474E+03  0.25500000920E-02 0.  1.
       -2    1    3    3    0  502  0.58011808223E+02 -0.45365553506E+03 -0.37360043416E+03  0.59054720285E+03  0.25500000920E-02 0. -1.
</event>
<event>
 5   0  0.2298958E-03  0.1098257E+04  0.7818609E-02  0.9206892E-01
       -1   -1    0    0    0  501  0.00000000000E+00  0.00000000000E+00  0.66120886697E+03  0.66120886699E+03  0.50400001928E-02 0. -1.
        1   -1    0    0  501    0  0.00000000000E+00  0.00000000000E+00 -0.45604658220E+03  0.45604658223E+03  0.50400001928E-02 0.  1.
    10030    2    1    2    0    0  0.00000000000E+00  0.00000000000E+00  0.20516228476E+03  0.11172554492E+04  0.10982568806E+04 0.  0.
        1    1    3    3  502    0 -0.39841447776E+03 -0.37697843193E+03  0.12940408690E+03  0.56355323791E+03  0.50400001928E-02 0.  1.
       -1    1    3    3    0  502  0.39841447776E+03  0.37697843193E+03  0.75758197865E+02  0.55370221130E+03  0.50400001928E-02 0. -1.
</event>
<event>
 5   0  0.3748901E-03  0.1105385E+04  0.7818609E-02  0.9199959E-01
        2   -1    0    0  501    0  0.00000000000E+00  0.00000000000E+00  0.12084713975E+04  0.12084713975E+04  0.25500000920E-02 0.  1.
       -2   -1    0    0    0  501  0.00000000000E+00  0.00000000000E+00 -0.25277298309E+03  0.25277298311E+03  0.25500000920E-02 0. -1.
    10030    2    1    2    0    0  0.00000000000E+00  0.00000000000E+00  0.95569841442E+03  0.14612443806E+04  0.11053848563E+04 0.  0.
        5    1    3    3  502    0  0.27071470647E+03 -0.44250439337E+03  0.72988544205E+03  0.89546157872E+03  0.46999998093E+01 0.  1.
       -5    1    3    3    0  502 -0.27071470647E+03  0.44250439337E+03  0.22581297237E+03  0.56578280191E+03  0.46999998093E+01 0. -1.
</event>
<event>
 5   0  0.2257667E-03  0.1005636E+04  0.7818609E-02  0.9302385E-01
        1   -1    0    0  501    0  0.00000000000E+00  0.00000000000E+00  0.90494452755E+03  0.90494452757E+03  0.50400001928E-02 0.  1.
       -1   -1    0    0    0  501  0.00000000000E+00  0.00000000000E+00 -0.27938267230E+03  0.27938267235E+03  0.50400001928E-02 0. -1.
    10030    2    1    2    0    0  0.00000000000E+00  0.00000000000E+00  0.62556185525E+03  0.11843271999E+04  0.10056357600E+04 0.  0.
        4    1    3    3  502    0  0.20503999055E+03 -0.29154872900E+03  0.73045786869E+03  0.81278064073E+03  0.12699999809E+01 0.  1.
       -4    1    3    3    0  502 -0.20503999055E+03  0.29154872900E+03 -0.10489601344E+03  0.37154655919E+03  0.12699999809E+01 0. -1.
</event>
<event>
 5   0  0.2298958E-03  0.1096344E+04  0.7818609E-02  0.9208763E-01
       -1   -1    0    0    0  501  0.00000000000E+00  0.00000000000E+00  0.21844261398E+03  0.21844261404E+03  0.50400001928E-02 0. -1.
        1   -1    0    0  501    0  0.00000000000E+00  0.00000000000E+00 -0.13756132830E+04  0.13756132831E+04  0.50400001928E-02 0.  1.
    10030    2    1    2    0    0  0.00000000000E+00  0.00000000000E+00 -0.11571706691E+04  0.15940558971E+04  0.10963440362E+04 0.  0.
        1    1    3    3  502    0 -0.23527518877E+03 -0.11116588472E+03 -0.12800887551E+04  0.13062693020E+04  0.50400001928E-02 0.  1.
       -1    1    3    3    0  502  0.23527518877E+03  0.11116588472E+03  0.12291808608E+03  0.28778659505E+03  0.50400001928E-02 0. -1.
</event>
<event>
 5   0  0.3713158E-03  0.1093483E+04  0.7818609E-02  0.9211567E-01
       -2   -1    0    0    0  501  0.00000000000E+00  0.00000000000E+00  0.45707854903E+03  0.45707854903E+03  0.25500000920E-02 0. -1.
        2   -1    0    0  501    0  0.00000000000E+00  0.00000000000E+00 -0.65399314928E+03  0.65399314928E+03  0.25500000920E-02 0.  1.
    10030    2    1    2    0    0  0.00000000000E+00  0.00000000000E+00 -0.19691460025E+03  0.11110716983E+04  0.10934829487E+04 0.  0.
        4    1    3    3  502    0 -0.42889647456E+03  0.24116466461E+03  0.14372939624E+03  0.51261323978E+03  0.12699999809E+01 0. -1.
       -4    1    3    3    0  502  0.42889647456E+03 -0.24116466461E+03 -0.34064399649E+03  0.59845845854E+03  0.12699999809E+01 0.  1.
</event>
<event>
 5   0  0.2298958E-03  0.1094651E+04  0.7818609E-02  0.9210421E-01
        1   -1    0    0  501    0  0.00000000000E+00  0.00000000000E+00  0.13158450637E+04  0.13158450638E+04  0.50400001928E-02 0. -1.
       -1   -1    0    0    0  501  0.00000000000E+00  0.00000000000E+00 -0.22766010527E+03  0.22766010533E+03  0.50400001928E-02 0.  1.
    10030    2    1    2    0    0  0.00000000000E+00  0.00000000000E+00  0.10881849585E+04  0.15435051691E+04  0.10946514071E+04 0.  0.
        1    1    3    3  502    0 -0.48671288684E+03  0.21223811640E+03  0.73132030538E+03  0.90374987765E+03  0.50400001928E-02 0. -1.
       -1    1    3    3    0  502  0.48671288684E+03 -0.21223811640E+03  0.35686465309E+03  0.63975529144E+03  0.50400001928E-02 0.  1.
</event>
<event>
 5   0  0.2298958E-03  0.1099097E+04  0.7818609E-02  0.9206073E-01
       -1   -1    0    0    0  501  0.00000000000E+00  0.00000000000E+00  0.38966560565E+03  0.38966560569E+03  0.50400001928E-02 0. -1.
        1   -1    0    0  501    0  0.00000000000E+00  0.00000000000E+00 -0.77503221607E+03  0.77503221608E+03  0.50400001928E-02 0.  1.
    10030    2    1    2    0    0  0.00000000000E+00  0.00000000000E+00 -0.38536661041E+03  0.11646978218E+04  0.10990967162E+04 0.  0.
        1    1    3    3  502    0 -0.29887615995E+03  0.25812957454E+03  0.21228546622E+03  0.44835583573E+03  0.50400001928E-02 0.  1.
       -1    1    3    3    0  502  0.29887615995E+03 -0.25812957454E+03 -0.59765207663E+03  0.71634198604E+03  0.50400001928E-02 0. -1.
</event>
<event>
 5   0  0.2298958E-03  0.1082130E+04  0.7818609E-02  0.9222786E-01
        1   -1    0    0  501    0  0.00000000000E+00  0.00000000000E+00  0.63659218211E+03  0.63659218213E+03  0.50400001928E-02 0.  1.
       -1   -1    0    0    0  501  0.00000000000E+00  0.00000000000E+00 -0.45987293403E+03  0.45987293406E+03  0.50400001928E-02 0. -1.
    10030    2    1    2    0    0  0.00000000000E+00  0.00000000000E+00  0.17671924809E+03  0.10964651162E+04  0.10821303334E+04 0.  0.
        1    1    3    3  502    0 -0.23747261554E+03  0.78103954963E+02  0.57456824325E+03  0.62659567274E+03  0.50400001928E-02 0.  1.
       -1    1    3    3    0  502  0.23747261554E+03 -0.78103954963E+02 -0.39784899517E+03  0.46986944345E+03  0.50400001928E-02 0. -1.
</event>
<event>
 5   0  0.2300702E-03  0.1101254E+04  0.7818609E-02  0.9203970E-01
       -1   -1    0    0    0  501  0.00000000000E+00  0.00000000000E+00  0.62632170295E+03  0.62632170297E+03  0.50400001928E-02 0. -1.
        1   -1    0    0  501    0  0.00000000000E+00  0.00000000000E+00 -0.48408075502E+03  0.48408075504E+03  0.50400001928E-02 0.  1.
    10030    2    1    2    0    0  0.00000000000E+00  0.00000000000E+00  0.14224094793E+03  0.11104024580E+04  0.11012543446E+04 0.  0.
        5    1    3    3  502    0 -0.28009672773E+03  0.21139443242E+03  0.49894028362E+03  0.61000432749E+03  0.46999998093E+01 0. -1.
       -5    1    3    3    0  502  0.28009672773E+03 -0.21139443242E+03 -0.35669933569E+03  0.50039813052E+03  0.46999998093E+01 0.  1.
</event>
<event>
 5   0  0.2300702E-03  0.1093581E+04  0.7818609E-02  0.9211471E-01
       -1   -1    0    0    0  501  0.00000000000E+00  0.00000000000E+00  0.97310802871E+03  0.97310802872E+03  0.50400001928E-02 0. -1.
        1   -1    0    0  501    0  0.00000000000E+00  0.00000000000E+00 -0.30724222077E+03  0.30724222081E+03  0.50400001928E-02 0.  1.
    10030    2    1    2    0    0  0.00000000000E+00  0.00000000000E+00  0.66586580793E+03  0.12803502495E+04  0.10935810383E+04 0.  0.
        5    1    3    3  502    0  0.43981819618E+03  0.30965004285E+03  0.44785257460E+03  0.69994086415E+03  0.46999998093E+01 0.  1.
       -5    1    3    3    0  502 -0.43981819618E+03 -0.30965004285E+03  0.21801323333E+03  0.58040938538E+03  0.46999998093E+01 0. -1.
</event>
<event>
 5   0  0.2374100E-03  0.1138009E+04  0.7818609E-02  0.9168917E-01
       -1   -1    0    0    0  501  0.00000000000E+00  0.00000000000E+00  0.19499894106E+04  0.19499894106E+04  0.50400001928E-02 0. -1.
        1   -1    0    0  501    0  0.00000000000E+00  0.00000000000E+00 -0.16603492358E+03  0.16603492366E+03  0.50400001928E-02 0.  1.
    10030    2    1    2    0    0  0.00000000000E+00  0.00000000000E+00  0.17839544870E+04  0.21160243342E+04  0.11380093899E+04 0.  0.
        2    1    3    3  502    0 -0.49792505571E+03 -0.17877449984E+03  0.12814630109E+04  0.13863755376E+04  0.25500000920E-02 0. -1.
       -2    1    3    3    0  502  0.49792505571E+03  0.17877449984E+03  0.50249147607E+03  0.72964879664E+03  0.25500000920E-02 0.  1.
</event>
<event>
 5   0  0.2374100E-03  0.1095617E+04  0.7818609E-02  0.9209474E-01
        1   -1    0    0  501    0  0.00000000000E+00  0.00000000000E+00  0.78990155146E+03  0.78990155147E+03  0.50400001928E-02 0.  1.
       -1   -1    0    0    0  501  0.00000000000E+00  0.00000000000E+00 -0.37991334578E+03  0.37991334581E+03  0.50400001928E-02 0. -1.
    10030    2    1    2    0    0  0.00000000000E+00  0.00000000000E+00  0.40998820568E+03  0.11698148973E+04  0.10956169792E+04 0.  0.
        2    1    3    3  502    0  0.37460439107E+02  0.54462874405E+03  0.25357709474E+03  0.60193446182E+03  0.25500000920E-02 0. -1.
       -2    1    3    3    0  502 -0.37460439107E+02 -0.54462874405E+03  0.15641111094E+03  0.56788043546E+03  0.25500000920E-02 0.  1.
</event>
<event>
 5   0  0.2374100E-03  0.1104274E+04  0.7818609E-02  0.9201037E-01
       -1   -1    0    0    0  501  0.00000000000E+00  0.00000000000E+00  0.28258096123E+03  0.28258096128E+03  0.50400001928E-02 0.  1.
        1   -1    0    0  501    0  0.00000000000E+00  0.00000000000E+00 -0.10788236349E+04  0.10788236350E+04  0.50400001928E-02 0. -1.
    10030    2    1    2    0    0  0.00000000000E+00  0.00000000000E+00 -0.79624267371E+03  0.13614045962E+04  0.11042735527E+04 0.  0.
        2    1    3    3  502    0 -0.76136678233E+02 -0.14624503172E+03  0.25152277119E+03  0.30074591852E+03  0.25500000920E-02 0.  1.
       -2    1    3    3    0  502  0.76136678233E+02  0.14624503172E+03 -0.10477654449E+04  0.10606586777E+04  0.25500000920E-02 0. -1.
</event>
<event>
 5   0  0.3748901E-03  0.1124087E+04  0.7818609E-02  0.9182028E-01
        2   -1    0    0  501    0  0.00000000000E+00  0.00000000000E+00  0.12272874304E+04  0.12272874304E+04  0.25500000920E-02 0.  1.
       -2   -1    0    0    0  501  0.00000000000E+00  0.00000000000E+00 -0.25739102170E+03  0.25739102172E+03  0.25500000920E-02 0. -1.
    10030    2    1    2    0    0  0.00000000000E+00  0.00000000000E+00  0.96989640872E+03  0.14846784521E+04  0.11240867683E+04 0.  0.
        5    1    3    3  502    0  0.57565782587E+02 -0.13490017990E+03 -0.23164235118E+03  0.27421186466E+03  0.46999998093E+01 0. -1.
       -5    1    3    3    0  502 -0.57565782587E+02  0.13490017990E+03  0.12015387599E+04  0.12104665875E+04  0.46999998093E+01 0.  1.
</event>
<event>
 5   0  0.2298958E-03  0.1106408E+04  0.7818609E-02  0.9198968E-01
        1   -1    0    0  501    0  0.00000000000E+00  0.00000000000E+00  0.11436853236E+04  0.11436853236E+04  0.50400001928E-02 0.  1.
       -1   -1    0    0    0  501  0.00000000000E+00  0.00000000000E+00 -0.26758663868E+03  0.26758663873E+03  0.50400001928E-02 0. -1.
    10030    2    1    2    0    0  0.00000000000E+00  0.00000000000E+00  0.87609868492E+03  0.14112719623E+04  0.11064084445E+04 0.  0.
        1    1    3    3  502    0  0.75801820034E+02  0.15764567806E+03 -0.23138230830E+03  0.29006180091E+03  0.50400001928E-02 0. -1.
       -1    1    3    3    0  502 -0.75801820034E+02 -0.15764567806E+03  0.11074809932E+04  0.11212101614E+04  0.50400001928E-02 0.  1.
</event>
<event>
 5   0  0.2300702E-03  0.1075575E+04  0.7818609E-02  0.9229330E-01
        1   -1    0    0  501    0  0.00000000000E+00  0.00000000000E+00  0.79729288038E+03  0.79729288039E+03  0.50400001928E-02 0. -1.
       -1   -1    0    0    0  501  0.00000000000E+00  0.00000000000E+00 -0.36274701644E+03  0.36274701648E+03  0.50400001928E-02 0.  1.
    10030    2    1    2    0    0  0.00000000000E+00  0.00000000000E+00  0.43454586394E+03  0.11600398969E+04  0.10755754062E+04 0.  0.
        5    1    3    3  502    0 -0.16583313435E+03  0.72369804681E+02  0.76345580436E+03  0.78461765993E+03  0.46999998093E+01 0. -1.
       -5    1    3    3    0  502  0.16583313435E+03 -0.72369804681E+02 -0.32890994042E+03  0.37542223693E+03  0.46999998093E+01 0.  1.
</event>
<event>
 5   0  0.3962999E-03  0.9381302E+03  0.7818609E-02  0.9379133E-01
       -2   -1    0    0    0  501  0.00000000000E+00  0.00000000000E+00  0.47413780322E+03  0.47413780322E+03  0.25500000920E-02 0. -1.
        2   -1    0    0  501    0  0.00000000000E+00  0.00000000000E+00 -0.46404662216E+03  0.46404662217E+03  0.25500000920E-02 0.  1.
    10030    2    1    2    0    0  0.00000000000E+00  0.00000000000E+00  0.10091181057E+02  0.93818442539E+03  0.93813015308E+03 0.  0.
        3    1    3    3  502    0  0.42017790599E+03  0.18935157186E+03 -0.82243738106E+02  0.46815332222E+03  0.10100000352E+00 0.  1.
       -3    1    3    3    0  502 -0.42017790599E+03 -0.18935157186E+03  0.92334919163E+02  0.47003110317E+03  0.10100000352E+00 0. -1.
</event>
<event>
 5   0  0.2257667E-03  0.1192443E+04  0.7818609E-02  0.9119497E-01
        1   -1    0    0  501    0  0.00000000000E+00  0.00000000000E+00  0.60382886760E+03  0.60382886762E+03  0.50400001928E-02 0.  1.
       -1   -1    0    0    0  501  0.00000000000E+00  0.00000000000E+00 -0.58870996108E+03  0.58870996110E+03  0.50400001928E-02 0. -1.
    10030    2    1    2    0    0  0.00000000000E+00  0.00000000000E+00  0.15118906524E+02  0.11925388287E+04  0.11924429868E+04 0.  0.
        4    1    3    3  502    0  0.42393476272E+03  0.24588772656E+03 -0.33202195638E+03  0.59196422994E+03  0.12699999809E+01 0. -1.
       -4    1    3    3    0  502 -0.42393476272E+03 -0.24588772656E+03  0.34714086290E+03  0.60057459878E+03  0.12699999809E+01 0.  1.
</event>
<event>
 5   0  0.3713158E-03  0.1127446E+04  0.7818609E-02  0.9178847E-01
        2   -1    0    0  501    0  0.00000000000E+00  0.00000000000E+00  0.35973535826E+03  0.35973535827E+03  0.25500000920E-02 0. -1.
       -2   -1    0    0    0  501  0.00000000000E+00  0.00000000000E+00 -0.88338089469E+03  0.88338089469E+03  0.25500000920E-02 0.  1.
    10030    2    1    2    0    0  0.00000000000E+00  0.00000000000E+00 -0.52364553643E+03  0.12431162530E+04  0.11274455067E+04 0.  0.
        4    1    3    3  502    0 -0.73423108192E+02 -0.55891713697E+03 -0.26353478583E+03  0.62227929023E+03  0.12699999809E+01 0. -1.
       -4    1    3    3    0  502  0.73423108192E+02  0.55891713697E+03 -0.26011075060E+03  0.62083696273E+03  0.12699999809E+01 0.  1.
</event>
<event>
 5   0  0.3992414E-03  0.1072583E+04  0.7818609E-02  0.9232334E-01
        2   -1    0    0  501    0  0.00000000000E+00  0.00000000000E+00  0.13875630886E+04  0.13875630886E+04  0.25500000920E-02 0.  1.
       -2   -1    0    0    0  501  0.00000000000E+00  0.00000000000E+00 -0.20727621262E+03  0.20727621263E+03  0.25500000920E-02 0. -1.
    10030    2    1    2    0    0  0.00000000000E+00  0.00000000000E+00  0.11802868760E+04  0.15948393012E+04  0.10725834640E+04 0.  0.
        1    1    3    3  502    0 -0.85557092881E+02  0.27207864503E+03 -0.85154559475E+02  0.29765433685E+03  0.50400001928E-02 0. -1.
       -1    1    3    3    0  502  0.85557092881E+02 -0.27207864503E+03  0.12654414355E+04  0.12971849644E+04  0.50400001928E-02 0.  1.
</event>
<event>
 5   0  0.2255788E-03  0.1103989E+04  0.7818609E-02  0.9201312E-01
       -1   -1    0    0    0  501  0.00000000000E+00  0.00000000000E+00  0.85635131865E+03  0.85635131866E+03  0.50400001928E-02 0. -1.
        1   -1    0    0  501    0  0.00000000000E+00  0.00000000000E+00 -0.35580977511E+03  0.35580977515E+03  0.50400001928E-02 0.  1.
    10030    2    1    2    0    0  0.00000000000E+00  0.00000000000E+00  0.50054154353E+03  0.12121610938E+04  0.11039894386E+04 0.  0.
        3    1    3    3  502    0 -0.42793159447E+03 -0.33485375633E+03  0.14355911613E+03  0.56201576286E+03  0.10100000352E+00 0. -1.
       -3    1    3    3    0  502  0.42793159447E+03  0.33485375633E+03  0.35698242740E+03  0.65014533095E+03  0.10100000352E+00 0.  1.
</event>
<event>
 5   0  0.3962999E-03  0.1109282E+04  0.7818609E-02  0.9196192E-01
        2   -1    0    0  501    0  0.00000000000E+00  0.00000000000E+00  0.10097052305E+04  0.10097052305E+04  0.25500000920E-02 0.  1.
       -2   -1    0    0    0  501  0.00000000000E+00  0.00000000000E+00 -0.30466986853E+03  0.30466986854E+03  0.25500000920E-02 0. -1.
    10030    2    1    2    0    0  0.00000000000E+00  0.00000000000E+00  0.70503536197E+03  0.13143750990E+04  0.11092822181E+04 0.  0.
        3    1    3    3  502    0 -0.37081352266E+03  0.33127841541E+03  0.64366924253E+03  0.81336225698E+03  0.10100000352E+00 0.  1.
       -3    1    3    3    0  502  0.37081352266E+03 -0.33127841541E+03  0.61366119447E+02  0.50101284207E+03  0.10100000352E+00 0. -1.
</event>
<event>
 5   0  0.2257667E-03  0.1126019E+04  0.7818609E-02  0.9180196E-01
        1   -1    0    0  501    0  0.00000000000E+00  0.00000000000E+00  0.15689248924E+04  0.15689248924E+04  0.50400001928E-02 0.  1.
       -1   -1    0    0    0  501  0.00000000000E+00  0.00000000000E+00 -0.20203635476E+03  0.20203635483E+03  0.50400001928E-02 0. -1.
    10030    2    1    2    0    0  0.00000000000E+00  0.00000000000E+00  0.13668885376E+04  0.17709612472E+04  0.11260193004E+04 0.  0.
        4    1    3    3  502    0 -0.17514817573E+03  0.28711355282E+03 -0.26684126285E+02  0.33737920975E+03  0.12699999809E+01 0. -1.
       -4    1    3    3    0  502  0.17514817573E+03 -0.28711355282E+03  0.13935726639E+04  0.14335820375E+04  0.12699999809E+01 0.  1.
</event>
<event>
 5   0  0.3744875E-03  0.1091589E+04  0.7818609E-02  0.9213429E-01
       -2   -1    0    0    0  501  0.00000000000E+00  0.00000000000E+00  0.27712222737E+03  0.27712222738E+03  0.25500000920E-02 0. -1.
        2   -1    0    0  501    0  0.00000000000E+00  0.00000000000E+00 -0.10749470609E+04  0.10749470609E+04  0.25500000920E-02 0.  1.
    10030    2    1    2    0    0  0.00000000000E+00  0.00000000000E+00 -0.79782483357E+03  0.13520692883E+04  0.10915891605E+04 0.  0.
        2    1    3    3  502    0  0.36533117004E+03  0.18916482716E+03 -0.84316537556E+03  0.93817804610E+03  0.25500000920E-02 0.  1.
       -2    1    3    3    0  502 -0.36533117004E+03 -0.18916482716E+03  0.45340541996E+02  0.41389124222E+03  0.25500000920E-02 0. -1.
</event>
<event>
 5   0  0.2257667E-03  0.1148458E+04  0.7818609E-02  0.9159208E-01
       -1   -1    0    0    0  501  0.00000000000E+00  0.00000000000E+00  0.48738628114E+03  0.48738628117E+03  0.50400001928E-02 0.  1.
        1   -1    0    0  501    0  0.00000000000E+00  0.00000000000E+00 -0.67654484235E+03  0.67654484237E+03  0.50400001928E-02 0. -1.
    10030    2    1    2    0    0  0.00000000000E+00  0.00000000000E+00 -0.18915856121E+03  0.11639311235E+04  0.11484575304E+04 0.  0.
        4    1    3    3  502    0  0.11279631996E+03 -0.25679778067E+03  0.41323960308E+03  0.49943637473E+03  0.12699999809E+01 0.  1.
       -4    1    3    3    0  502 -0.11279631996E+03  0.25679778067E+03 -0.60239816429E+03  0.66449474881E+03  0.12699999809E+01 0. -1.
</event>
<event>
 5   0  0.2257667E-03  0.1099468E+04  0.7818609E-02  0.9205710E-01
        1   -1    0    0  501    0  0.00000000000E+00  0.00000000000E+00  0.79963859340E+03  0.79963859341E+03  0.50400001928E-02 0. -1.
       -1   -1    0    0    0  501  0.00000000000E+00  0.00000000000E+00 -0.37793023001E+03  0.37793023005E+03  0.50400001928E-02 0.  1.
    10030    2    1    2    0    0  0.00000000000E+00  0.00000000000E+00  0.42170836338E+03  0.11775688235E+04  0.10994682307E+04 0.  0.
        4    1    3    3  502    0  0.30266615966E+03 -0.44932586135E+03  0.11092340884E+03  0.55299742261E+03  0.12699999809E+01 0. -1.
       -4    1    3    3    0  502 -0.30266615966E+03  0.44932586135E+03  0.31078495455E+03  0.62457140085E+03  0.12699999809E+01 0.  1.
</event>
<event>
 5   0  0.2374100E-03  0.1110886E+04  0.7818609E-02  0.9194647E-01
        1   -1    0    0  501    0  0.00000000000E+00  0.00000000000E+00  0.97632655125E+03  0.97632655126E+03  0.50400001928E-02 0. -1.
       -1   -1    0    0    0  501  0.00000000000E+00  0.00000000000E+00 -0.31599741339E+03  0.31599741343E+03  0.50400001928E-02 0.  1.
    10030    2    1    2    0    0  0.00000000000E+00  0.00000000000E+00  0.66032913785E+03  0.12923239647E+04  0.11108855294E+04 0.  0.
        2    1    3    3  502    0 -0.11552306539E+03  0.51893364214E+03  0.51730839689E+03  0.74178546837E+03  0.25500000920E-02 0.  1.
       -2    1    3    3    0  502  0.11552306539E+03 -0.51893364214E+03  0.14302074096E+03  0.55053849632E+03  0.25500000920E-02 0. -1.
</event>
<event>
 5   0  0.3744875E-03  0.1098505E+04  0.7818609E-02  0.9206650E-01
       -2   -1    0    0    0  501  0.00000000000E+00  0.00000000000E+00  0.42592417823E+03  0.42592417824E+03  0.25500000920E-02 0.  1.
        2   -1    0    0  501    0  0.00000000000E+00  0.00000000000E+00 -0.70829165998E+03  0.70829165998E+03  0.25500000920E-02 0. -1.
    10030    2    1    2    0    0  0.00000000000E+00  0.00000000000E+00 -0.28236748175E+03  0.11342158382E+04  0.10985054269E+04 0.  0.
        2    1    3    3  502    0 -0.44424113350E+03 -0.30289587903E+03 -0.25365751560E+02  0.53827457639E+03  0.25500000920E-02 0.  1.
       -2    1    3    3    0  502  0.44424113350E+03  0.30289587903E+03 -0.25700173019E+03  0.59594126183E+03  0.25500000920E-02 0. -1.
</event>
<event>
 5   0  0.3992414E-03  0.1111252E+04  0.7818609E-02  0.9194293E-01
       -2   -1    0    0    0  501  0.00000000000E+00  0.00000000000E+00  0.64555853309E+03  0.64555853309E+03  0.25500000920E-02 0.  1.
        2   -1    0    0  501    0  0.00000000000E+00  0.00000000000E+00 -0.47822229466E+03  0.47822229467E+03  0.25500000920E-02 0. -1.
    10030    2    1    2    0    0  0.00000000000E+00  0.00000000000E+00  0.16733623843E+03  0.11237808278E+04  0.11112524160E+04 0.  0.
        1    1    3    3  502    0  0.43017877195E+03  0.15136506770E+03  0.40466654393E+03  0.60968858556E+03  0.50400001928E-02 0.  1.
       -1    1    3    3    0  502 -0.43017877195E+03 -0.15136506770E+03 -0.23733030551E+03  0.51409224220E+03  0.50400001928E-02 0. -1.
</event>
<event>
 5   0  0.3748901E-03  0.1084324E+04  0.7818609E-02  0.9220607E-01
       -2   -1    0    0    0  501  0.00000000000E+00  0.00000000000E+00  0.45697251186E+03  0.45697251187E+03  0.25500000920E-02 0. -1.
        2   -1    0    0  501    0  0.00000000000E+00  0.00000000000E+00 -0.64323303424E+03  0.64323303425E+03  0.25500000920E-02 0.  1.
    10030    2    1    2    0    0  0.00000000000E+00  0.00000000000E+00 -0.18626052238E+03  0.11002055461E+04  0.10843243341E+04 0.  0.
        5    1    3    3  502    0  0.25923607769E+03 -0.44507452733E+03  0.78531100799E+02  0.52104117174E+03  0.46999998093E+01 0. -1.
       -5    1    3    3    0  502 -0.25923607769E+03  0.44507452733E+03 -0.26479162318E+03  0.57916437439E+03  0.46999998093E+01 0.  1.
</event>
<event>
 5   0  0.3992414E-03  0.1100889E+04  0.7818609E-02  0.9204326E-01
        2   -1    0    0  501    0  0.00000000000E+00  0.00000000000E+00  0.76648274147E+03  0.76648274148E+03  0.25500000920E-02 0.  1.
       -2   -1    0    0    0  501  0.00000000000E+00  0.00000000000E+00 -0.39529813421E+03  0.39529813422E+03  0.25500000920E-02 0. -1.
    10030    2    1    2    0    0  0.00000000000E+00  0.00000000000E+00  0.37118460726E+03  0.11617808757E+04  0.11008890909E+04 0.  0.
        1    1    3    3  502    0 -0.16144837443E+03  0.24792873280E+03 -0.30425295273E+03  0.42438672626E+03  0.50400001928E-02 0. -1.
       -1    1    3    3    0  502  0.16144837443E+03 -0.24792873280E+03  0.67543755999E+03  0.73739414944E+03  0.50400001928E-02 0.  1.
</event>
<event>
 5   0  0.2298958E-03  0.1105937E+04  0.7818609E-02  0.9199425E-01
       -1   -1    0    0    0  501  0.00000000000E+00  0.00000000000E+00  0.34631098516E+03  0.34631098520E+03  0.50400001928E-02 0.  1.
        1   -1    0    0  501    0  0.00000000000E+00  0.00000000000E+00 -0.88294628109E+03  0.88294628111E+03  0.50400001928E-02 0. -1.
    10030    2    1    2    0    0  0.00000000000E+00  0.00000000000E+00 -0.53663529593E+03  0.12292572663E+04  0.11059367007E+04 0.  0.
        1    1    3    3  502    0  0.53581689546E+03 -0.93499788971E+02 -0.37909009607E+03  0.66298661899E+03  0.50400001928E-02 0. -1.
       -1    1    3    3    0  502 -0.53581689546E+03  0.93499788971E+02 -0.15754519986E+03  0.56627064732E+03  0.50400001928E-02 0.  1.
</event>
<event>
 5   0  0.3748901E-03  0.1091760E+04  0.7818609E-02  0.9213261E-01
       -2   -1    0    0    0  501  0.00000000000E+00  0.00000000000E+00  0.11350792711E+04  0.11350792711E+04  0.25500000920E-02 0. -1.
        2   -1    0    0  501    0  0.00000000000E+00  0.00000000000E+00 -0.26252326540E+03  0.26252326541E+03  0.25500000920E-02 0.  1.
    10030    2    1    2    0    0  0.00000000000E+00  0.00000000000E+00  0.87255600573E+03  0.13976025365E+04  0.10917595280E+04 0.  0.
        5    1    3    3  502    0 -0.19280131746E+03 -0.23726077183E+03 -0.14261833516E+03  0.33738272242E+03  0.46999998093E+01 0.  1.
       -5    1    3    3    0  502  0.19280131746E+03  0.23726077183E+03  0.10151743409E+04  0.10602198141E+04  0.46999998093E+01 0. -1.
</event>
<event>
 5   0  0.1508625E-03  0.1083679E+04  0.7818609E-02  0.9221247E-01
       -3   -1    0    0    0  501  0.00000000000E+00  0.00000000000E+00  0.61214458621E+03  0.61214459454E+03  0.10100000352E+00 0. -1.
        3   -1    0    0  501    0  0.00000000000E+00  0.00000000000E+00 -0.47960914946E+03  0.47960916009E+03  0.10100000352E+00 0.  1.
    10030    2    1    2    0    0  0.00000000000E+00  0.00000000000E+00  0.13253543675E+03  0.10917537546E+04  0.10836792047E+04 0.  0.
        4    1    3    3  502    0 -0.12090313787E+03  0.38830111015E+02 -0.46440485965E+03  0.48145491256E+03  0.12699999809E+01 0.  1.
       -4    1    3    3    0  502  0.12090313787E+03 -0.38830111015E+02  0.59694029640E+03  0.61029884207E+03  0.12699999809E+01 0. -1.
</event>
<event>
 5   0  0.3713158E-03  0.1087350E+04  0.7818609E-02  0.9217610E-01
        2   -1    0    0  501    0  0.00000000000E+00  0.00000000000E+00  0.29850550371E+04  0.29850550371E+04  0.25500000920E-02 0.  1.
       -2   -1    0    0    0  501  0.00000000000E+00  0.00000000000E+00 -0.99020699105E+02  0.99020699138E+02  0.25500000920E-02 0. -1.
    10030    2    1    2    0    0  0.00000000000E+00  0.00000000000E+00  0.28860343380E+04  0.30840757363E+04  0.10873495054E+04 0.  0.
        4    1    3    3  502    0 -0.25506265695E+03 -0.11910970255E+03  0.12378626431E+03  0.30752029583E+03  0.12699999809E+01 0. -1.
       -4    1    3    3    0  502  0.25506265695E+03  0.11910970255E+03  0.27622480737E+04  0.27765554405E+04  0.12699999809E+01 0.  1.
</event>
<event>
 5   0  0.3713158E-03  0.1095814E+04  0.7818609E-02  0.9209281E-01
        2   -1    0    0  501    0  0.00000000000E+00  0.00000000000E+00  0.11983668959E+04  0.11983668959E+04  0.25500000920E-02 0.  1.
       -2   -1    0    0    0  501  0.00000000000E+00  0.00000000000E+00 -0.25050946141E+03  0.25050946142E+03  0.25500000920E-02 0. -1.
    10030    2    1    2    0    0  0.00000000000E+00  0.00000000000E+00  0.94785743450E+03  0.14488763573E+04  0.10958143012E+04 0.  0.
        4    1    3    3  502    0 -0.17466398005E+03  0.21887690785E+03 -0.14874631420E+03  0.31708308943E+03  0.12699999809E+01 0. -1.
       -4    1    3    3    0  502  0.17466398005E+03 -0.21887690785E+03  0.10966037487E+04  0.11317932679E+04  0.12699999809E+01 0.  1.
</event>
<event>
 5   0  0.1508625E-03  0.1102720E+04  0.7818609E-02  0.9202545E-01
        4   -1    0    0  501    0  0.00000000000E+00  0.00000000000E+00  0.10023500361E+04  0.10023508406E+04  0.12699999809E+01 0.  1.
       -4   -1    0    0    0  501  0.00000000000E+00  0.00000000000E+00 -0.30328258926E+03  0.30328524832E+03  0.12699999809E+01 0. -1.
    10030    2    1    2    0    0  0.00000000000E+00  0.00000000000E+00  0.69906744683E+03  0.13056360890E+04  0.11027195027E+04 0.  0.
        5    1    3    3  502    0 -0.11346189663E+03  0.25138398117E+03  0.91477888533E+03  0.95546324211E+03  0.46999998093E+01 0.  1.
       -5    1    3    3    0  502  0.11346189663E+03 -0.25138398117E+03 -0.21571143850E+03  0.35017284686E+03  0.46999998093E+01 0. -1.
</event>
<event>
 5   0  0.2298958E-03  0.1093035E+04  0.7818609E-02  0.9212007E-01
       -1   -1    0    0    0  501  0.00000000000E+00  0.00000000000E+00  0.31694012082E+03  0.31694012086E+03  0.50400001928E-02 0.  1.
        1   -1    0    0  501    0  0.00000000000E+00  0.00000000000E+00 -0.94239070294E+03  0.94239070296E+03  0.50400001928E-02 0. -1.
    10030    2    1    2    0    0  0.00000000000E+00  0.00000000000E+00 -0.62545058212E+03  0.12593308238E+04  0.10930350832E+04 0.  0.
        1    1    3    3  502    0  0.34953810871E+03  0.21070551096E+03 -0.73148976667E+03  0.83764609505E+03  0.50400001928E-02 0.  1.
       -1    1    3    3    0  502 -0.34953810871E+03 -0.21070551096E+03  0.10603918455E+03  0.42168472877E+03  0.50400001928E-02 0. -1.
</event>
<event>
 5   0  0.2300702E-03  0.1114821E+04  0.7818609E-02  0.9190865E-01
       -1   -1    0    0    0  501  0.00000000000E+00  0.00000000000E+00  0.76064064817E+03  0.76064064819E+03  0.50400001928E-02 0.  1.
        1   -1    0    0  501    0  0.00000000000E+00  0.00000000000E+00 -0.40848025972E+03  0.40848025976E+03  0.50400001928E-02 0. -1.
    10030    2    1    2    0    0  0.00000000000E+00  0.00000000000E+00  0.35216038845E+03  0.11691209079E+04  0.11148214019E+04 0.  0.
        5    1    3    3  502    0 -0.45060930331E+03 -0.31868081845E+03  0.25784161996E+03  0.60918847598E+03  0.46999998093E+01 0.  1.
       -5    1    3    3    0  502  0.45060930331E+03  0.31868081845E+03  0.94318768487E+02  0.55993243197E+03  0.46999998093E+01 0. -1.
</event>
<event>
 5   0  0.3713158E-03  0.9062348E+03  0.7818609E-02  0.9417821E-01
        2   -1    0    0  501    0  0.00000000000E+00  0.00000000000E+00  0.78862814558E+03  0.78862814559E+03  0.25500000920E-02 0. -1.
       -2   -1    0    0    0  501  0.00000000000E+00  0.00000000000E+00 -0.26034498985E+03  0.26034498986E+03  0.25500000920E-02 0.  1.
    10030    2    1    2    0    0  0.00000000000E+00  0.00000000000E+00  0.52828315574E+03  0.10489731354E+04  0.90623481850E+03 0.  0.
        4    1    3    3  502    0  0.44531862867E+03  0.50816188011E+02  0.18716250992E+03  0.48571842051E+03  0.12699999809E+01 0.  1.
       -4    1    3    3    0  502 -0.44531862867E+03 -0.50816188011E+02  0.34112064581E+03  0.56325471494E+03  0.12699999809E+01 0. -1.
</event>
<event>
 5   0  0.3748901E-03  0.1084734E+04  0.7818609E-02  0.9220200E-01
       -2   -1    0    0    0  501  0.00000000000E+00  0.00000000000E+00  0.41392984066E+03  0.41392984067E+03  0.25500000920E-02 0.  1.
        2   -1    0    0  501    0  0.00000000000E+00  0.00000000000E+00 -0.71065700191E+03  0.71065700191E+03  0.25500000920E-02 0. -1.
    10030    2    1    2    0    0  0.00000000000E+00  0.00000000000E+00 -0.29672716125E+03  0.11245868426E+04  0.10847343261E+04 0.  0.
        5    1    3    3  502    0 -0.39353996851E+03  0.35573133560E+03 -0.31429853212E+02  0.53143994544E+03  0.46999998093E+01 0. -1.
       -5    1    3    3    0  502  0.39353996851E+03 -0.35573133560E+03 -0.26529730804E+03  0.59314689714E+03  0.46999998093E+01 0.  1.
</event>
<event>
 5   0  0.3992414E-03  0.1094334E+04  0.7818609E-02  0.9210732E-01
       -2   -1    0    0    0  501  0.00000000000E+00  0.00000000000E+00  0.22975690835E+03  0.22975690836E+03  0.25500000920E-02 0. -1.
        2   -1    0    0  501    0  0.00000000000E+00  0.00000000000E+00 -0.13030794476E+04  0.13030794476E+04  0.25500000920E-02 0.  1.
    10030    2    1    2    0    0  0.00000000000E+00  0.00000000000E+00 -0.10733225393E+04  0.15328363560E+04  0.10943335967E+04 0.  0.
        1    1    3    3  502    0  0.21728658468E+03  0.48537558859E+03 -0.35625538098E+03  0.64009438240E+03  0.50400001928E-02 0. -1.
       -1    1    3    3    0  502 -0.21728658468E+03 -0.48537558859E+03 -0.71706715831E+03  0.89274197360E+03  0.50400001928E-02 0.  1.
</event>
<event>
 5   0  0.3992414E-03  0.1102847E+04  0.7818609E-02  0.9202421E-01
        2   -1    0    0  501    0  0.00000000000E+00  0.00000000000E+00  0.88016629553E+03  0.88016629553E+03  0.25500000920E-02 0.  1.
       -2   -1    0    0    0  501  0.00000000000E+00  0.00000000000E+00 -0.34546666509E+03  0.34546666510E+03  0.25500000920E-02 0. -1.
    10030    2    1    2    0    0  0.00000000000E+00  0.00000000000E+00  0.53469963044E+03  0.12256329606E+04  0.11028474325E+04 0.  0.
        1    1    3    3  502    0 -0.10040321896E+03 -0.98840411229E+02 -0.32512609165E+03  0.35434052657E+03  0.50400001928E-02 0. -1.
       -1    1    3    3    0  502  0.10040321896E+03  0.98840411229E+02  0.85982572209E+03  0.87129243407E+03  0.50400001928E-02 0.  1.
</event>
<event>
 5   0  0.2300702E-03  0.1097683E+04  0.7818609E-02  0.9207453E-01
       -1   -1    0    0    0  501  0.00000000000E+00  0.00000000000E+00  0.70285180096E+03  0.70285180098E+03  0.50400001928E-02 0.  1.
        1   -1    0    0  501    0  0.00000000000E+00  0.00000000000E+00 -0.42857847017E+03  0.42857847020E+03  0.50400001928E-02 0. -1.
    10030    2    1    2    0    0  0.00000000000E+00  0.00000000000E+00  0.27427333079E+03  0.11314302712E+04  0.10976832870E+04 0.  0.
        5    1    3    3  502    0 -0.10795058525E+02  0.78839008491E+02 -0.42257995092E+03  0.43003258884E+03  0.46999998093E+01 0. -1.
       -5    1    3    3    0  502  0.10795058525E+02 -0.78839008491E+02  0.69685328171E+03  0.70139768233E+03  0.46999998093E+01 0.  1.
</event>
<event>
 5   0  0.2300702E-03  0.1111805E+04  0.7818609E-02  0.9193761E-01
        1   -1    0    0  501    0  0.00000000000E+00  0.00000000000E+00  0.18674294639E+04  0.18674294639E+04  0.50400001928E-02 0.  1.
       -1   -1    0    0    0  501  0.00000000000E+00  0.00000000000E+00 -0.16548295737E+03  0.16548295745E+03  0.50400001928E-02 0. -1.
    10030    2    1    2    0    0  0.00000000000E+00  0.00000000000E+00  0.17019465065E+04  0.20329124214E+04  0.11118052895E+04 0.  0.
        5    1    3    3  502    0 -0.40773433037E+03  0.35273407753E+03  0.60337097819E+03  0.80916453267E+03  0.46999998093E+01 0. -1.
       -5    1    3    3    0  502  0.40773433037E+03 -0.35273407753E+03  0.10985755283E+04  0.12237478887E+04  0.46999998093E+01 0.  1.
</event>
<event>
 5   0  0.3713158E-03  0.1111715E+04  0.7818609E-02  0.9193848E-01
       -2   -1    0    0    0  501  0.00000000000E+00  0.00000000000E+00  0.20027197038E+03  0.20027197040E+03  0.25500000920E-02 0.  1.
        2   -1    0    0  501    0  0.00000000000E+00  0.00000000000E+00 -0.15427904592E+04  0.15427904592E+04  0.25500000920E-02 0. -1.
    10030    2    1    2    0    0  0.00000000000E+00  0.00000000000E+00 -0.13425184888E+04  0.17430624296E+04  0.11117152246E+04 0.  0.
        4    1    3    3  502    0 -0.21602743037E+03 -0.50766146893E+03 -0.77746148412E+03  0.95332889912E+03  0.12699999809E+01 0. -1.
       -4    1    3    3    0  502  0.21602743037E+03  0.50766146893E+03 -0.56505700470E+03  0.78973353048E+03  0.12699999809E+01 0.  1.
</event>
<event>
 5   0  0.2257667E-03  0.1100159E+04  0.7818609E-02  0.9205037E-01
        1   -1    0    0  501    0  0.00000000000E+00  0.00000000000E+00  0.99360665970E+03  0.99360665971E+03  0.50400001928E-02 0.  1.
       -1   -1    0    0    0  501  0.00000000000E+00  0.00000000000E+00 -0.30453422278E+03  0.30453422282E+03  0.50400001928E-02 0. -1.
    10030    2    1    2    0    0  0.00000000000E+00  0.00000000000E+00  0.68907243692E+03  0.12981408825E+04  0.11001585920E+04 0.  0.
        4    1    3    3  502    0 -0.90071165979E+02 -0.20705102329E+03  0.93640326731E+03  0.96324225048E+03  0.12699999809E+01 0.  1.
       -4    1    3    3    0  502  0.90071165979E+02  0.20705102329E+03 -0.24733083039E+03  0.33489863205E+03  0.12699999809E+01 0. -1.
</event>
<event>
 5   0  0.3713158E-03  0.1112711E+04  0.7818609E-02  0.9192891E-01
        2   -1    0    0  501    0  0.00000000000E+00  0.00000000000E+00  0.20365425926E+04  0.20365425926E+04  0.25500000920E-02 0.  1.
       -2   -1    0    0    0  501  0.00000000000E+00  0.00000000000E+00 -0.15198869162E+03  0.15198869164E+03  0.25500000920E-02 0. -1.
    10030    2    1    2    0    0  0.00000000000E+00  0.00000000000E+00  0.18845539010E+04  0.21885312843E+04  0.11127110031E+04 0.  0.
        4    1    3    3  502    0  0.38619470878E+03 -0.84831695243E+02  0.17247072436E+03  0.43138211979E+03  0.12699999809E+01 0. -1.
       -4    1    3    3    0  502 -0.38619470878E+03  0.84831695243E+02  0.17120831767E+04  0.17571491645E+04  0.12699999809E+01 0.  1.
</event>
<event>
 5   0  0.2255788E-03  0.1092224E+04  0.7818609E-02  0.9212804E-01
        1   -1    0    0  501    0  0.00000000000E+00  0.00000000000E+00  0.13119545366E+04  0.13119545366E+04  0.50400001928E-02 0. -1.
       -1   -1    0    0    0  501  0.00000000000E+00  0.00000000000E+00 -0.22732384848E+03  0.22732384854E+03  0.50400001928E-02 0.  1.
    10030    2    1    2    0    0  0.00000000000E+00  0.00000000000E+00  0.10846306881E+04  0.15392783851E+04  0.10922244354E+04 0.  0.
        3    1    3    3  502    0  0.50433827044E+03 -0.13853724425E+03  0.32087537023E+03  0.61360465489E+03  0.10100000352E+00 0.  1.
       -3    1    3    3    0  502 -0.50433827044E+03  0.13853724425E+03  0.76375531784E+03  0.92567373021E+03  0.10100000352E+00 0. -1.
</event>
<event>
 5   0  0.2257667E-03  0.1088074E+04  0.7818609E-02  0.9216895E-01
       -1   -1    0    0    0  501  0.00000000000E+00  0.00000000000E+00  0.24888435316E+03  0.24888435321E+03  0.50400001928E-02 0.  1.
        1   -1    0    0  501    0  0.00000000000E+00  0.00000000000E+00 -0.11892112467E+04  0.11892112467E+04  0.50400001928E-02 0. -1.
    10030    2    1    2    0    0  0.00000000000E+00  0.00000000000E+00 -0.94032689356E+03  0.14380955999E+04  0.10880736592E+04 0.  0.
        4    1    3    3  502    0  0.32867049444E+03  0.15476539711E+03 -0.10054033960E+04  0.10690248938E+04  0.12699999809E+01 0. -1.
       -4    1    3    3    0  502 -0.32867049444E+03 -0.15476539711E+03  0.65076502406E+02  0.36907070613E+03  0.12699999809E+01 0.  1.
</event>
<event>
 5   0  0.2374100E-03  0.1103346E+04  0.7818609E-02  0.9201937E-01
        1   -1    0    0  501    0  0.00000000000E+00  0.00000000000E+00  0.37392848704E+03  0.37392848708E+03  0.50400001928E-02 0. -1.
       -1   -1    0    0    0  501  0.00000000000E+00  0.00000000000E+00 -0.81390718936E+03  0.81390718938E+03  0.50400001928E-02 0.  1.
    10030    2    1    2    0    0  0.00000000000E+00  0.00000000000E+00 -0.43997870232E+03  0.11878356765E+04  0.11033459728E+04 0.  0.
        2    1    3    3  502    0  0.39674573874E+03  0.12222897437E+03 -0.61112284214E+03  0.73879512151E+03  0.25500000920E-02 0.  1.
       -2    1    3    3    0  502 -0.39674573874E+03 -0.12222897437E+03  0.17114413982E+03  0.44904055494E+03  0.25500000920E-02 0. -1.
</event>
<event>
 5   0  0.3992414E-03  0.1103151E+04  0.7818609E-02  0.9202126E-01
        2   -1    0    0  501    0  0.00000000000E+00  0.00000000000E+00  0.11210112413E+04  0.11210112413E+04  0.25500000920E-02 0. -1.
       -2   -1    0    0    0  501  0.00000000000E+00  0.00000000000E+00 -0.27139397029E+03  0.27139397030E+03  0.25500000920E-02 0.  1.
    10030    2    1    2    0    0  0.00000000000E+00  0.00000000000E+00  0.84961727097E+03  0.13924052116E+04  0.11031512888E+04 0.  0.
        1    1    3    3  502    0  0.30813223249E+03 -0.99564223860E+02  0.98840514192E+03  0.10400977031E+04  0.50400001928E-02 0. -1.
       -1    1    3    3    0  502 -0.30813223249E+03  0.99564223860E+02 -0.13878787095E+03  0.35230750847E+03  0.50400001928E-02 0.  1.
</event>
<event>
 5   0  0.2298958E-03  0.1083893E+04  0.7818609E-02  0.9221035E-01
        1   -1    0    0  501    0  0.00000000000E+00  0.00000000000E+00  0.67374210131E+03  0.67374210133E+03  0.50400001928E-02 0. -1.
       -1   -1    0    0    0  501  0.00000000000E+00  0.00000000000E+00 -0.43593244024E+03  0.43593244027E+03  0.50400001928E-02 0.  1.
    10030    2    1    2    0    0  0.00000000000E+00  0.00000000000E+00  0.23780966107E+03  0.11096745416E+04  0.10838930544E+04 0.  0.
        1    1    3    3  502    0  0.29117548398E+03 -0.45463040671E+03  0.70514621948E+02  0.54446696971E+03  0.50400001928E-02 0. -1.
       -1    1    3    3    0  502 -0.29117548398E+03  0.45463040671E+03  0.16729503912E+03  0.56520757188E+03  0.50400001928E-02 0.  1.
</event>
<event>
 5   0  0.3992414E-03  0.1095734E+04  0.7818609E-02  0.9209360E-01
       -2   -1    0    0    0  501  0.00000000000E+00  0.00000000000E+00  0.16252341658E+03  0.16252341660E+03  0.25500000920E-02 0.  1.
        2   -1    0    0  501    0  0.00000000000E+00  0.00000000000E+00 -0.18468621667E+04  0.18468621667E+04  0.25500000920E-02 0. -1.
    10030    2    1    2    0    0  0.00000000000E+00  0.00000000000E+00 -0.16843387501E+04  0.20093855833E+04  0.10957341818E+04 0.  0.
        1    1    3    3  502    0  0.39467457656E+03 -0.11868312999E+02 -0.14567889153E+03  0.42086959702E+03  0.50400001928E-02 0.  1.
       -1    1    3    3    0  502 -0.39467457656E+03  0.11868312999E+02 -0.15386598586E+04  0.15885159863E+04  0.50400001928E-02 0. -1.
</event>
<event>
 5   0  0.3744875E-03  0.1097413E+04  0.7818609E-02  0.9207717E-01
       -2   -1    0    0    0  501  0.00000000000E+00  0.00000000000E+00  0.65320647074E+03  0.65320647074E+03  0.25500000920E-02 0.  1.
        2   -1    0    0  501    0  0.00000000000E+00  0.00000000000E+00 -0.46092410467E+03  0.46092410467E+03  0.25500000920E-02 0. -1.
    10030    2    1    2    0    0  0.00000000000E+00  0.00000000000E+00  0.19228236607E+03  0.11141305754E+04  0.10974126074E+04 0.  0.
        2    1    3    3  502    0  0.32433652917E+03 -0.36280782010E+03 -0.16120593250E+03  0.51265100327E+03  0.25500000920E-02 0. -1.
       -2    1    3    3    0  502 -0.32433652917E+03  0.36280782010E+03  0.35348829857E+03  0.60147957215E+03  0.25500000920E-02 0.  1.
</event>
<event>
 5   0  0.3713158E-03  0.1106954E+04  0.7818609E-02  0.9198441E-01
       -2   -1    0    0    0  501  0.00000000000E+00  0.00000000000E+00  0.21900401610E+03  0.21900401612E+03  0.25500000920E-02 0.  1.
        2   -1    0    0  501    0  0.00000000000E+00  0.00000000000E+00 -0.13987722681E+04  0.13987722681E+04  0.25500000920E-02 0. -1.
    10030    2    1    2    0    0  0.00000000000E+00  0.00000000000E+00 -0.11797682520E+04  0.16177762842E+04  0.11069539183E+04 0.  0.
        4    1    3    3  502    0  0.14222838032E+03  0.13740965293E+02  0.19158031222E+03  0.23900283518E+03  0.12699999809E+01 0.  1.
       -4    1    3    3    0  502 -0.14222838032E+03 -0.13740965293E+02 -0.13713485642E+04  0.13787734490E+04  0.12699999809E+01 0. -1.
</event>
<event>
 5   0  0.2374100E-03  0.1072728E+04  0.7818609E-02  0.9232188E-01
       -1   -1    0    0    0  501  0.00000000000E+00  0.00000000000E+00  0.22734522328E+03  0.22734522334E+03  0.50400001928E-02 0. -1.
        1   -1    0    0  501    0  0.00000000000E+00  0.00000000000E+00 -0.12654166739E+04  0.12654166739E+04  0.50400001928E-02 0.  1.
    10030    2    1    2    0    0  0.00000000000E+00  0.00000000000E+00 -0.10380714506E+04  0.14927618972E+04  0.10727281787E+04 0.  0.
        2    1    3    3  502    0 -0.43799414252E+03 -0.20774308153E+03 -0.83845896899E+03  0.96850890522E+03  0.25500000920E-02 0.  1.
       -2    1    3    3    0  502  0.43799414252E+03  0.20774308153E+03 -0.19961248160E+03  0.52425299200E+03  0.25500000920E-02 0. -1.
</event>
<event>
 5   0  0.2298958E-03  0.1046838E+04  0.7818609E-02  0.9258615E-01
        1   -1    0    0  501    0  0.00000000000E+00  0.00000000000E+00  0.59527387087E+03  0.59527387089E+03  0.50400001928E-02 0.  1.
       -1   -1    0    0    0  501  0.00000000000E+00  0.00000000000E+00 -0.46023726466E+03  0.46023726469E+03  0.50400001928E-02 0. -1.
    10030    2    1    2    0    0  0.00000000000E+00  0.00000000000E+00  0.13503660621E+03  0.10555111356E+04  0.10468375577E+04 0.  0.
        1    1    3    3  502    0  0.19227473949E+03 -0.48412288730E+03  0.15881949822E+02  0.52114948125E+03  0.50400001928E-02 0. -1.
       -1    1    3    3    0  502 -0.19227473949E+03  0.48412288730E+03  0.11915465639E+03  0.53436165433E+03  0.50400001928E-02 0.  1.
</event>
<event>
 5   0  0.3713158E-03  0.1101720E+04  0.7818609E-02  0.9203517E-01
       -2   -1    0    0    0  501  0.00000000000E+00  0.00000000000E+00  0.31444102810E+03  0.31444102811E+03  0.25500000920E-02 0. -1.
        2   -1    0    0  501    0  0.00000000000E+00  0.00000000000E+00 -0.96503581839E+03  0.96503581839E+03  0.25500000920E-02 0.  1.
    10030    2    1    2    0    0  0.00000000000E+00  0.00000000000E+00 -0.65059479029E+03  0.12794768465E+04  0.11017202093E+04 0.  0.
        4    1    3    3  502    0 -0.51165208123E+03 -0.32380197767E+02 -0.91267253586E+02  0.52073760563E+03  0.12699999809E+01 0. -1.
       -4    1    3    3    0  502  0.51165208123E+03  0.32380197767E+02 -0.55932753670E+03  0.75873924088E+03  0.12699999809E+01 0.  1.
</event>
<event>
 5   0  0.3962999E-03  0.1078977E+04  0.7818609E-02  0.9225928E-01
        2   -1    0    0  501    0  0.00000000000E+00  0.00000000000E+00  0.37104319338E+03  0.37104319339E+03  0.25500000920E-02 0.  1.
       -2   -1    0    0    0  501  0.00000000000E+00  0.00000000000E+00 -0.78440437602E+03  0.78440437602E+03  0.25500000920E-02 0. -1.
    10030    2    1    2    0    0  0.00000000000E+00  0.00000000000E+00 -0.41336118263E+03  0.11554475694E+04  0.10789771167E+04 0.  0.
        3    1    3    3  502    0  0.26225882572E+03 -0.40919354643E+03  0.44070340187E+02  0.48801767918E+03  0.10100000352E+00 0.  1.
       -3    1    3    3    0  502 -0.26225882572E+03  0.40919354643E+03 -0.45743152282E+03  0.66742989023E+03  0.10100000352E+00 0. -1.
</event>
<event>
 5   0  0.1508625E-03  0.1099667E+04  0.7818609E-02  0.9205517E-01
        4   -1    0    0  501    0  0.00000000000E+00  0.00000000000E+00  0.75574099596E+03  0.75574206305E+03  0.12699999809E+01 0.  1.
       -4   -1    0    0    0  501  0.00000000000E+00  0.00000000000E+00 -0.40002465387E+03  0.40002666987E+03  0.12699999809E+01 0. -1.
    10030    2    1    2    0    0  0.00000000000E+00  0.00000000000E+00  0.35571634209E+03  0.11557687329E+04  0.10996668805E+04 0.  0.
        3    1    3    3  502    0  0.38448246100E+03 -0.36435366207E+03  0.33281263193E+03  0.62557542476E+03  0.10100000352E+00 0.  1.
       -3    1    3    3    0  502 -0.38448246100E+03  0.36435366207E+03  0.22903710155E+02  0.53019330817E+03  0.10100000352E+00 0. -1.
</event>
<event>
 5   0  0.1508625E-03  0.1096359E+04  0.7818609E-02  0.9208748E-01
       -3   -1    0    0    0  501  0.00000000000E+00  0.00000000000E+00  0.48007662098E+03  0.48007663160E+03  0.10100000352E+00 0. -1.
        3   -1    0    0  501    0  0.00000000000E+00  0.00000000000E+00 -0.62594360108E+03  0.62594360923E+03  0.10100000352E+00 0.  1.
    10030    2    1    2    0    0  0.00000000000E+00  0.00000000000E+00 -0.14586698010E+03  0.11060202408E+04  0.10963592464E+04 0.  0.
        1    1    3    3  502    0 -0.33067170333E+03 -0.42655902675E+03  0.23852116960E+02  0.54024559433E+03  0.50400001928E-02 0. -1.
       -1    1    3    3    0  502  0.33067170333E+03  0.42655902675E+03 -0.16971909706E+03  0.56577464650E+03  0.50400001928E-02 0.  1.
</event>
<event>
 5   0  0.2255788E-03  0.1106686E+04  0.7818609E-02  0.9198700E-01
        1   -1    0    0  501    0  0.00000000000E+00  0.00000000000E+00  0.13059181615E+04  0.13059181615E+04  0.50400001928E-02 0. -1.
       -1   -1    0    0    0  501  0.00000000000E+00  0.00000000000E+00 -0.23446216340E+03  0.23446216346E+03  0.50400001928E-02 0.  1.
    10030    2    1    2    0    0  0.00000000000E+00  0.00000000000E+00  0.10714559981E+04  0.15403803249E+04  0.11066858586E+04 0.  0.
        3    1    3    3  502    0  0.35095688579E+03  0.55834136971E+02  0.11260914003E+04  0.11808344671E+04  0.10100000352E+00 0. -1.
       -3    1    3    3    0  502 -0.35095688579E+03 -0.55834136971E+02 -0.54635402247E+02  0.35954585787E+03  0.10100000352E+00 0.  1.
</event>
<event>
 5   0  0.3744875E-03  0.1089494E+04  0.7818609E-02  0.9215493E-01
       -2   -1    0    0    0  501  0.00000000000E+00  0.00000000000E+00  0.13811850497E+03  0.13811850500E+03  0.25500000920E-02 0.  1.
        2   -1    0    0  501    0  0.00000000000E+00  0.00000000000E+00 -0.21485102794E+04  0.21485102794E+04  0.25500000920E-02 0. -1.
    10030    2    1    2    0    0  0.00000000000E+00  0.00000000000E+00 -0.20103917744E+04  0.22866287844E+04  0.10894935112E+04 0.  0.
        2    1    3    3  502    0 -0.51844541073E+03 -0.15987978374E+03 -0.11080550362E+04  0.12337476049E+04  0.25500000920E-02 0. -1.
       -2    1    3    3    0  502  0.51844541073E+03  0.15987978374E+03 -0.90233673820E+03  0.10528811796E+04  0.25500000920E-02 0.  1.
</event>
<event>
 5   0  0.3713158E-03  0.1101954E+04  0.7818609E-02  0.9203290E-01
        2   -1    0    0  501    0  0.00000000000E+00  0.00000000000E+00  0.10571987829E+04  0.10571987829E+04  0.25500000920E-02 0.  1.
       -2   -1    0    0    0  501  0.00000000000E+00  0.00000000000E+00 -0.28715074112E+03  0.28715074114E+03  0.25500000920E-02 0. -1.
    10030    2    1    2    0    0  0.00000000000E+00  0.00000000000E+00  0.77004804179E+03  0.13443495241E+04  0.11019535635E+04 0.  0.
        4    1    3    3  502    0 -0.19387190894E+03 -0.92728150151E+02  0.10039573555E+04  0.10267019098E+04  0.12699999809E+01 0.  1.
       -4    1    3    3    0  502  0.19387190894E+03  0.92728150151E+02 -0.23390931374E+03  0.31764761428E+03  0.12699999809E+01 0. -1.
</event>
<event>
 5   0  0.2298958E-03  0.1007097E+04  0.7818609E-02  0.9300795E-01
        1   -1    0    0  501    0  0.00000000000E+00  0.00000000000E+00  0.36936469926E+03  0.36936469929E+03  0.50400001928E-02 0. -1.
       -1   -1    0    0    0  501  0.00000000000E+00  0.00000000000E+00 -0.68647845896E+03  0.68647845898E+03  0.50400001928E-02 0.  1.
    10030    2    1    2    0    0  0.00000000000E+00  0.00000000000E+00 -0.31711375970E+03  0.10558431583E+04  0.10070966380E+04 0.  0.
        1    1    3    3  502    0 -0.94920166908E+02 -0.12517408730E+03 -0.66013037231E+03  0.67856502908E+03  0.50400001928E-02 0.  1.
       -1    1    3    3    0  502  0.94920166908E+02  0.12517408730E+03  0.34301661261E+03  0.37727812920E+03  0.50400001928E-02 0. -1.
</event>
<event>
 5   0  0.2298958E-03  0.1102403E+04  0.7818609E-02  0.9202853E-01
       -1   -1    0    0    0  501  0.00000000000E+00  0.00000000000E+00  0.22915119237E+03  0.22915119243E+03  0.50400001928E-02 0. -1.
        1   -1    0    0  501    0  0.00000000000E+00  0.00000000000E+00 -0.13258639540E+04  0.13258639540E+04  0.50400001928E-02 0.  1.
    10030    2    1    2    0    0  0.00000000000E+00  0.00000000000E+00 -0.10967127616E+04  0.15550151464E+04  0.11024033854E+04 0.  0.
        1    1    3    3  502    0 -0.10590079873E+03  0.24065357378E+03 -0.12317096072E+04  0.12594592801E+04  0.50400001928E-02 0.  1.
       -1    1    3    3    0  502  0.10590079873E+03 -0.24065357378E+03  0.13499684562E+03  0.29555586629E+03  0.50400001928E-02 0. -1.
</event>
<event>
 5   0  0.3962999E-03  0.1106301E+04  0.7818609E-02  0.9199072E-01
       -2   -1    0    0    0  501  0.00000000000E+00  0.00000000000E+00  0.18762596893E+03  0.18762596895E+03  0.25500000920E-02 0. -1.
        2   -1    0    0  501    0  0.00000000000E+00  0.00000000000E+00 -0.16307735591E+04  0.16307735591E+04  0.25500000920E-02 0.  1.
    10030    2    1    2    0    0  0.00000000000E+00  0.00000000000E+00 -0.14431475901E+04  0.18183995280E+04  0.11063009882E+04 0.  0.
        3    1    3    3  502    0  0.46188701968E+03  0.70925266103E+02 -0.12080723602E+04  0.12953026094E+04  0.10100000352E+00 0.  1.
       -3    1    3    3    0  502 -0.46188701968E+03 -0.70925266103E+02 -0.23507522999E+03  0.52309691863E+03  0.10100000352E+00 0. -1.
</event>
<event>
 5   0  0.2257667E-03  0.1097477E+04  0.7818609E-02  0.9207655E-01
       -1   -1    0    0    0  501  0.00000000000E+00  0.00000000000E+00  0.24813232952E+03  0.24813232957E+03  0.50400001928E-02 0.  1.
        1   -1    0    0  501    0  0.00000000000E+00  0.00000000000E+00 -0.12135206041E+04  0.12135206041E+04  0.50400001928E-02 0. -1.
    10030    2    1    2    0    0  0.00000000000E+00  0.00000000000E+00 -0.96538827460E+03  0.14616529337E+04  0.10974765500E+04 0.  0.
        4    1    3    3  502    0 -0.17753503232E+03  0.29177420883E+03 -0.10547013879E+04  0.11086241505E+04  0.12699999809E+01 0. -1.
       -4    1    3    3    0  502  0.17753503232E+03 -0.29177420883E+03  0.89313113288E+02  0.35302878317E+03  0.12699999809E+01 0.  1.
</event>
<event>
 5   0  0.2298958E-03  0.1088440E+04  0.7818609E-02  0.9216533E-01
        1   -1    0    0  501    0  0.00000000000E+00  0.00000000000E+00  0.15834826561E+04  0.15834826561E+04  0.50400001928E-02 0.  1.
       -1   -1    0    0    0  501  0.00000000000E+00  0.00000000000E+00 -0.18704058597E+03  0.18704058604E+03  0.50400001928E-02 0. -1.
    10030    2    1    2    0    0  0.00000000000E+00  0.00000000000E+00  0.13964420701E+04  0.17705232421E+04  0.10884402123E+04 0.  0.
        1    1    3    3  502    0 -0.17823788185E+03  0.90429194151E+02 -0.12518014433E+03  0.23583097812E+03  0.50400001928E-02 0. -1.
       -1    1    3    3    0  502  0.17823788185E+03 -0.90429194151E+02  0.15216222144E+04  0.15346922640E+04  0.50400001928E-02 0.  1.
</event>
<event>
 5   0  0.1508625E-03  0.1105035E+04  0.7818609E-02  0.9200299E-01
       -3   -1    0    0    0  501  0.00000000000E+00  0.00000000000E+00  0.51591444801E+03  0.51591445789E+03  0.10100000352E+00 0. -1.
        3   -1    0    0  501    0  0.00000000000E+00  0.00000000000E+00 -0.59171698486E+03  0.59171699348E+03  0.10100000352E+00 0.  1.
    10030    2    1    2    0    0  0.00000000000E+00  0.00000000000E+00 -0.75802536857E+02  0.11076314514E+04  0.11050345730E+04 0.  0.
        3    1    3    3  502    0  0.50025649327E+02  0.39750090662E+03  0.34347389653E+03  0.52771570391E+03  0.10100000352E+00 0. -1.
       -3    1    3    3    0  502 -0.50025649327E+02 -0.39750090662E+03 -0.41927643339E+03  0.57991574746E+03  0.10100000352E+00 0.  1.
</event>
<event>
 5   0  0.2298958E-03  0.1103036E+04  0.7818609E-02  0.9202238E-01
        1   -1    0    0  501    0  0.00000000000E+00  0.00000000000E+00  0.17384254111E+04  0.17384254111E+04  0.50400001928E-02 0. -1.
       -1   -1    0    0    0  501  0.00000000000E+00  0.00000000000E+00 -0.17496975024E+03  0.17496975031E+03  0.50400001928E-02 0.  1.
    10030    2    1    2    0    0  0.00000000000E+00  0.00000000000E+00  0.15634556609E+04  0.19133951615E+04  0.11030355571E+04 0.  0.
        1    1    3    3  502    0 -0.41476595978E+03 -0.28730481859E+03  0.11680439787E+04  0.12723606393E+04  0.50400001928E-02 0. -1.
       -1    1    3    3    0  502  0.41476595978E+03  0.28730481859E+03  0.39541168215E+03  0.64103452214E+03  0.50400001928E-02 0.  1.
</event>
<event>
 5   0  0.2255788E-03  0.1097007E+04  0.7818609E-02  0.9208114E-01
        1   -1    0    0  501    0  0.00000000000E+00  0.00000000000E+00  0.59844844924E+03  0.59844844927E+03  0.50400001928E-02 0. -1.
       -1   -1    0    0    0  501  0.00000000000E+00  0.00000000000E+00 -0.50272661666E+03  0.50272661669E+03  0.50400001928E-02 0.  1.
    10030    2    1    2    0    0  0.00000000000E+00  0.00000000000E+00  0.95721832582E+02  0.11011750660E+04  0.10970067715E+04 0.  0.
        3    1    3    3  502    0  0.12361075370E+02  0.28416589864E+03 -0.42291247362E+03  0.50966461980E+03  0.10100000352E+00 0.  1.
       -3    1    3    3    0  502 -0.12361075370E+02 -0.28416589864E+03  0.51863430620E+03  0.59151044615E+03  0.10100000352E+00 0. -1.
</event>
<event>
 5   0  0.3748901E-03  0.1102028E+04  0.7818609E-02  0.9203218E-01
       -2   -1    0    0    0  501  0.00000000000E+00  0.00000000000E+00  0.89734644630E+03  0.89734644630E+03  0.25500000920E-02 0. -1.
        2   -1    0    0  501    0  0.00000000000E+00  0.00000000000E+00 -0.33834887418E+03  0.33834887419E+03  0.25500000920E-02 0.  1.
    10030    2    1    2    0    0  0.00000000000E+00  0.00000000000E+00  0.55899757212E+03  0.12356953205E+04  0.11020275130E+04 0.  0.
        5    1    3    3  502    0  0.20170795384E+03  0.49634390559E+03  0.42375254206E+03  0.68310444162E+03  0.46999998093E+01 0. -1.
       -5    1    3    3    0  502 -0.20170795384E+03 -0.49634390559E+03  0.13524503006E+03  0.55259087887E+03  0.46999998093E+01 0.  1.
</event>
<event>
 5   0  0.2257667E-03  0.1103203E+04  0.7818609E-02  0.9202076E-01
       -1   -1    0    0    0  501  0.00000000000E+00  0.00000000000E+00  0.15094425851E+04  0.15094425851E+04  0.50400001928E-02 0. -1.
        1   -1    0    0  501    0  0.00000000000E+00  0.00000000000E+00 -0.20157378793E+03  0.20157378799E+03  0.50400001928E-02 0.  1.
    10030    2    1    2    0    0  0.00000000000E+00  0.00000000000E+00  0.13078687972E+04  0.17110163731E+04  0.11032027186E+04 0.  0.
        4    1    3    3  502    0 -0.31954919969E+03 -0.31216760040E+02  0.13495786769E+04  0.13872456145E+04  0.12699999809E+01 0. -1.
       -4    1    3    3    0  502  0.31954919969E+03  0.31216760040E+02 -0.41709879695E+02  0.32377075855E+03  0.12699999809E+01 0.  1.
</event>
<event>
 5   0  0.2298958E-03  0.1101930E+04  0.7818609E-02  0.9203313E-01
        1   -1    0    0  501    0  0.00000000000E+00  0.00000000000E+00  0.57848700708E+03  0.57848700711E+03  0.50400001928E-02 0. -1.
       -1   -1    0    0    0  501  0.00000000000E+00  0.00000000000E+00 -0.52475195795E+03  0.52475195797E+03  0.50400001928E-02 0.  1.
    10030    2    1    2    0    0  0.00000000000E+00  0.00000000000E+00  0.53735049135E+02  0.11032389651E+04  0.11019295615E+04 0.  0.
        1    1    3    3  502    0 -0.54675302982E+02 -0.46302304204E+03 -0.26704981638E+03  0.53730376015E+03  0.50400001928E-02 0.  1.
       -1    1    3    3    0  502  0.54675302982E+02  0.46302304204E+03  0.32078486552E+03  0.56593520493E+03  0.50400001928E-02 0. -1.
</event>
<event>
 5   0  0.2298958E-03  0.1107893E+04  0.7818609E-02  0.9197532E-01
       -1   -1    0    0    0  501  0.00000000000E+00  0.00000000000E+00  0.20557058195E+03  0.20557058201E+03  0.50400001928E-02 0.  1.
        1   -1    0    0  501    0  0.00000000000E+00  0.00000000000E+00 -0.14927087019E+04  0.14927087019E+04  0.50400001928E-02 0. -1.
    10030    2    1    2    0    0  0.00000000000E+00  0.00000000000E+00 -0.12871381200E+04  0.16982792839E+04  0.11078934905E+04 0.  0.
        1    1    3    3  502    0  0.40234538149E+03  0.30798932151E+03 -0.30040091766E+03  0.58905003143E+03  0.50400001928E-02 0. -1.
       -1    1    3    3    0  502 -0.40234538149E+03 -0.30798932151E+03 -0.98673720232E+03  0.11092292525E+04  0.50400001928E-02 0.  1.
</event>
<event>
 5   0  0.3748901E-03  0.1088433E+04  0.7818609E-02  0.9216540E-01
       -2   -1    0    0    0  501  0.00000000000E+00  0.00000000000E+00  0.37163657211E+03  0.37163657212E+03  0.25500000920E-02 0.  1.
        2   -1    0    0  501    0  0.00000000000E+00  0.00000000000E+00 -0.79693846389E+03  0.79693846389E+03  0.25500000920E-02 0. -1.
    10030    2    1    2    0    0  0.00000000000E+00  0.00000000000E+00 -0.42530189178E+03  0.11685750360E+04  0.10884327796E+04 0.  0.
        5    1    3    3  502    0 -0.19381981389E+02  0.10034589126E+03 -0.78652088891E+03  0.79314699633E+03  0.46999998093E+01 0. -1.
       -5    1    3    3    0  502  0.19381981389E+02 -0.10034589126E+03  0.36121899713E+03  0.37542803969E+03  0.46999998093E+01 0.  1.
</event>
<event>
 5   0  0.3713158E-03  0.1104996E+04  0.7818609E-02  0.9200336E-01
        2   -1    0    0  501    0  0.00000000000E+00  0.00000000000E+00  0.80273348379E+03  0.80273348379E+03  0.25500000920E-02 0.  1.
       -2   -1    0    0    0  501  0.00000000000E+00  0.00000000000E+00 -0.38026855810E+03  0.38026855811E+03  0.25500000920E-02 0. -1.
    10030    2    1    2    0    0  0.00000000000E+00  0.00000000000E+00  0.42246492568E+03  0.11830020419E+04  0.11049964786E+04 0.  0.
        4    1    3    3  502    0  0.27175188523E+03 -0.54019689227E+02 -0.30051288242E+03  0.40875031419E+03  0.12699999809E+01 0. -1.
       -4    1    3    3    0  502 -0.27175188523E+03  0.54019689227E+02  0.72297780811E+03  0.77425172771E+03  0.12699999809E+01 0.  1.
</event>
<event>
 5   0  0.2300702E-03  0.1100478E+04  0.7818609E-02  0.9204726E-01
       -1   -1    0    0    0  501  0.00000000000E+00  0.00000000000E+00  0.17988901827E+03  0.17988901834E+03  0.50400001928E-02 0. -1.
        1   -1    0    0  501    0  0.00000000000E+00  0.00000000000E+00 -0.16830551968E+04  0.16830551968E+04  0.50400001928E-02 0.  1.
    10030    2    1    2    0    0  0.00000000000E+00  0.00000000000E+00 -0.15031661786E+04  0.18629442152E+04  0.11004783453E+04 0.  0.
        5    1    3    3  502    0  0.97052698239E+02  0.28235535840E+03 -0.15339603343E+04  0.15627540343E+04  0.46999998093E+01 0.  1.
       -5    1    3    3    0  502 -0.97052698239E+02 -0.28235535840E+03  0.30794155723E+02  0.30019018084E+03  0.46999998093E+01 0. -1.
</event>
<event>
 5   0  0.3713158E-03  0.1049865E+04  0.7818609E-02  0.9255484E-01
       -2   -1    0    0    0  501  0.00000000000E+00  0.00000000000E+00  0.41981787867E+03  0.41981787868E+03  0.25500000920E-02 0.  1.
        2   -1    0    0  501    0  0.00000000000E+00  0.00000000000E+00 -0.65636569972E+03  0.65636569972E+03  0.25500000920E-02 0. -1.
    10030    2    1    2    0    0  0.00000000000E+00  0.00000000000E+00 -0.23654782105E+03  0.10761835784E+04  0.10498648593E+04 0.  0.
        4    1    3    3  502    0 -0.12178063131E+03  0.56646767331E+02 -0.63845264635E+03  0.65242836614E+03  0.12699999809E+01 0. -1.
       -4    1    3    3    0  502  0.12178063131E+03 -0.56646767331E+02  0.40190482531E+03  0.42375521226E+03  0.12699999809E+01 0.  1.
</event>
<event>
 5   0  0.2255788E-03  0.1118892E+04  0.7818609E-02  0.9186971E-01
       -1   -1    0    0    0  501  0.00000000000E+00  0.00000000000E+00  0.68747775805E+03  0.68747775807E+03  0.50400001928E-02 0. -1.
        1   -1    0    0  501    0  0.00000000000E+00  0.00000000000E+00 -0.45525823445E+03  0.45525823447E+03  0.50400001928E-02 0.  1.
    10030    2    1    2    0    0  0.00000000000E+00  0.00000000000E+00  0.23221952360E+03  0.11427359925E+04  0.11188921492E+04 0.  0.
        3    1    3    3  502    0  0.45099100786E+03  0.24561194256E+03 -0.11057000162E+03  0.52530357980E+03  0.10100000352E+00 0.  1.
       -3    1    3    3    0  502 -0.45099100786E+03 -0.24561194256E+03  0.34278952523E+03  0.61743241274E+03  0.10100000352E+00 0. -1.
</event>
<event>
 5   0  0.3744875E-03  0.1098946E+04  0.7818609E-02  0.9206220E-01
        2   -1    0    0  501    0  0.00000000000E+00  0.00000000000E+00  0.14328288457E+04  0.14328288457E+04  0.25500000920E-02 0. -1.
       -2   -1    0    0    0  501  0.00000000000E+00  0.00000000000E+00 -0.21071631123E+03  0.21071631124E+03  0.25500000920E-02 0.  1.
    10030    2    1    2    0    0  0.00000000000E+00  0.00000000000E+00  0.12221125344E+04  0.16435451569E+04  0.10989456929E+04 0.  0.
        2    1    3    3  502    0  0.40884139765E+03  0.91260149517E+02  0.79255615504E+02  0.42633455867E+03  0.25500000920E-02 0.  1.
       -2    1    3    3    0  502 -0.40884139765E+03 -0.91260149517E+02  0.11428569189E+04  0.12172105982E+04  0.25500000920E-02 0. -1.
</event>
<event>
 5   0  0.3992414E-03  0.1071385E+04  0.7818609E-02  0.9233540E-01
        2   -1    0    0  501    0  0.00000000000E+00  0.00000000000E+00  0.15278014077E+04  0.15278014077E+04  0.25500000920E-02 0. -1.
       -2   -1    0    0    0  501  0.00000000000E+00  0.00000000000E+00 -0.18782968135E+03  0.18782968137E+03  0.25500000920E-02 0.  1.
    10030    2    1    2    0    0  0.00000000000E+00  0.00000000000E+00  0.13399717263E+04  0.17156310891E+04  0.10713849945E+04 0.  0.
        1    1    3    3  502    0 -0.72193826390E+02  0.52875843525E+03  0.74456376157E+03  0.91606365853E+03  0.50400001928E-02 0. -1.
       -1    1    3    3    0  502  0.72193826390E+02 -0.52875843525E+03  0.59540796476E+03  0.79956743052E+03  0.50400001928E-02 0.  1.
</event>
<event>
 5   0  0.2257667E-03  0.1082967E+04  0.7818609E-02  0.9221954E-01
        1   -1    0    0  501    0  0.00000000000E+00  0.00000000000E+00  0.38526825609E+03  0.38526825612E+03  0.50400001928E-02 0.  1.
       -1   -1    0    0    0  501  0.00000000000E+00  0.00000000000E+00 -0.76103952847E+03  0.76103952849E+03  0.50400001928E-02 0. -1.
    10030    2    1    2    0    0  0.00000000000E+00  0.00000000000E+00 -0.37577127238E+03  0.11463077846E+04  0.10829669838E+04 0.  0.
        4    1    3    3  502    0 -0.20233257035E+03  0.85866997280E+01 -0.71944336483E+03  0.74740388582E+03  0.12699999809E+01 0. -1.
       -4    1    3    3    0  502  0.20233257035E+03 -0.85866997280E+01  0.34367209245E+03  0.39890389878E+03  0.12699999809E+01 0.  1.
</event>
<event>
 5   0  0.3992414E-03  0.1095916E+04  0.7818609E-02  0.9209182E-01
       -2   -1    0    0    0  501  0.00000000000E+00  0.00000000000E+00  0.26686701058E+03  0.26686701059E+03  0.25500000920E-02 0. -1.
        2   -1    0    0  501    0  0.00000000000E+00  0.00000000000E+00 -0.11251210855E+04  0.11251210855E+04  0.25500000920E-02 0.  1.
    10030    2    1    2    0    0  0.00000000000E+00  0.00000000000E+00 -0.85825407487E+03  0.13919880960E+04  0.10959155088E+04 0.  0.
        1    1    3    3  502    0 -0.53930540246E+03  0.96004041401E+02 -0.41159112152E+03  0.68518197906E+03  0.50400001928E-02 0.  1.
       -1    1    3    3    0  502  0.53930540246E+03 -0.96004041401E+02 -0.44666295336E+03  0.70680611699E+03  0.50400001928E-02 0. -1.
</event>
<event>
 5   0  0.1508625E-03  0.1098892E+04  0.7818609E-02  0.9206272E-01
        4   -1    0    0  501    0  0.00000000000E+00  0.00000000000E+00  0.30163201597E+03  0.30163468958E+03  0.12699999809E+01 0. -1.
       -4   -1    0    0    0  501  0.00000000000E+00  0.00000000000E+00 -0.10008509850E+04  0.10008517908E+04  0.12699999809E+01 0.  1.
    10030    2    1    2    0    0  0.00000000000E+00  0.00000000000E+00 -0.69921896907E+03  0.13024864804E+04  0.10988921079E+04 0.  0.
        4    1    3    3  502    0  0.29870599227E+03 -0.13913803584E+03  0.17151246486E+03  0.37148728287E+03  0.12699999809E+01 0. -1.
       -4    1    3    3    0  502 -0.29870599227E+03  0.13913803584E+03 -0.87073143393E+03  0.93099919751E+03  0.12699999809E+01 0.  1.
</event>
<event>
 5   0  0.3713158E-03  0.1079248E+04  0.7818609E-02  0.9225658E-01
        2   -1    0    0  501    0  0.00000000000E+00  0.00000000000E+00  0.66109292233E+03  0.66109292233E+03  0.25500000920E-02 0.  1.
       -2   -1    0    0    0  501  0.00000000000E+00  0.00000000000E+00 -0.44047344226E+03  0.44047344227E+03  0.25500000920E-02 0. -1.
    10030    2    1    2    0    0  0.00000000000E+00  0.00000000000E+00  0.22061948006E+03  0.11015663646E+04  0.10792476549E+04 0.  0.
        4    1    3    3  502    0 -0.43878640686E+03  0.21502101722E+03  0.34400913397E+03  0.59758802352E+03  0.12699999809E+01 0.  1.
       -4    1    3    3    0  502  0.43878640686E+03 -0.21502101722E+03 -0.12338965391E+03  0.50397834109E+03  0.12699999809E+01 0. -1.
</event>
<event>
 5   0  0.3962999E-03  0.1097997E+04  0.7818609E-02  0.9207146E-01
       -2   -1    0    0    0  501  0.00000000000E+00  0.00000000000E+00  0.92583389161E+02  0.92583389197E+02  0.25500000920E-02 0. -1.
        2   -1    0    0  501    0  0.00000000000E+00  0.00000000000E+00 -0.32554356431E+04  0.32554356431E+04  0.25500000920E-02 0.  1.
    10030    2    1    2    0    0  0.00000000000E+00  0.00000000000E+00 -0.31628522539E+04  0.33480190323E+04  0.10979968399E+04 0.  0.
        3    1    3    3  502    0  0.41967210897E+03  0.28358105201E+03 -0.22272273390E+04  0.22840938076E+04  0.10100000352E+00 0.  1.
       -3    1    3    3    0  502 -0.41967210897E+03 -0.28358105201E+03 -0.93562491497E+03  0.10639252247E+04  0.10100000352E+00 0. -1.
</event>
<event>
 5   0  0.2374100E-03  0.1102271E+04  0.7818609E-02  0.9202981E-01
       -1   -1    0    0    0  501  0.00000000000E+00  0.00000000000E+00  0.38031389005E+03  0.38031389008E+03  0.50400001928E-02 0. -1.
        1   -1    0    0  501    0  0.00000000000E+00  0.00000000000E+00 -0.79868346390E+03  0.79868346392E+03  0.50400001928E-02 0.  1.
    10030    2    1    2    0    0  0.00000000000E+00  0.00000000000E+00 -0.41836957385E+03  0.11789973540E+04  0.11022711374E+04 0.  0.
        2    1    3    3  502    0  0.46882226919E+03  0.10127555838E+03  0.81188220066E+02  0.48645923354E+03  0.25500000920E-02 0. -1.
       -2    1    3    3    0  502 -0.46882226919E+03 -0.10127555838E+03 -0.49955779392E+03  0.69253812046E+03  0.25500000920E-02 0.  1.
</event>
<event>
 5   0  0.2257667E-03  0.1109480E+04  0.7818609E-02  0.9196001E-01
       -1   -1    0    0    0  501  0.00000000000E+00  0.00000000000E+00  0.17765950628E+03  0.17765950635E+03  0.50400001928E-02 0.  1.
        1   -1    0    0  501    0  0.00000000000E+00  0.00000000000E+00 -0.17321707387E+04  0.17321707387E+04  0.50400001928E-02 0. -1.
    10030    2    1    2    0    0  0.00000000000E+00  0.00000000000E+00 -0.15545112324E+04  0.19098302450E+04  0.11094802356E+04 0.  0.
        4    1    3    3  502    0  0.16865338161E+03 -0.14591502952E+03 -0.16516047892E+04  0.16665938772E+04  0.12699999809E+01 0. -1.
       -4    1    3    3    0  502 -0.16865338161E+03  0.14591502952E+03  0.97093556789E+02  0.24323636784E+03  0.12699999809E+01 0.  1.
</event>
<event>
 5   0  0.2255788E-03  0.1104130E+04  0.7818609E-02  0.9201176E-01
        1   -1    0    0  501    0  0.00000000000E+00  0.00000000000E+00  0.62267485715E+03  0.62267485717E+03  0.50400001928E-02 0.  1.
       -1   -1    0    0    0  501  0.00000000000E+00  0.00000000000E+00 -0.48946216230E+03  0.48946216233E+03  0.50400001928E-02 0. -1.
    10030    2    1    2    0    0  0.00000000000E+00  0.00000000000E+00  0.13321269485E+03  0.11121370195E+04  0.11041300322E+04 0.  0.
        3    1    3    3  502    0  0.34300245394E+03  0.42085473507E+03  0.16736366072E+03  0.56813730432E+03  0.10100000352E+00 0.  1.
       -3    1    3    3    0  502 -0.34300245394E+03 -0.42085473507E+03 -0.34150965872E+02  0.54399971517E+03  0.10100000352E+00 0. -1.
</event>
<event>
 5   0  0.2255788E-03  0.1105240E+04  0.7818609E-02  0.9200100E-01
       -1   -1    0    0    0  501  0.00000000000E+00  0.00000000000E+00  0.34714042213E+03  0.34714042217E+03  0.50400001928E-02 0. -1.
        1   -1    0    0  501    0  0.00000000000E+00  0.00000000000E+00 -0.87972684142E+03  0.87972684143E+03  0.50400001928E-02 0.  1.
    10030    2    1    2    0    0  0.00000000000E+00  0.00000000000E+00 -0.53258641928E+03  0.12268672636E+04  0.11052397878E+04 0.  0.
        3    1    3    3  502    0 -0.13279450905E+03  0.45969604163E+03 -0.57318416597E+03  0.74665583146E+03  0.10100000352E+00 0.  1.
       -3    1    3    3    0  502  0.13279450905E+03 -0.45969604163E+03  0.40597746688E+02  0.48021143214E+03  0.10100000352E+00 0. -1.
</event>
<event>
 5   0  0.3992414E-03  0.1110019E+04  0.7818609E-02  0.9195481E-01
        2   -1    0    0  501    0  0.00000000000E+00  0.00000000000E+00  0.50654161072E+03  0.50654161073E+03  0.25500000920E-02 0. -1.
       -2   -1    0    0    0  501  0.00000000000E+00  0.00000000000E+00 -0.60811494999E+03  0.60811495000E+03  0.25500000920E-02 0.  1.
    10030    2    1    2    0    0  0.00000000000E+00  0.00000000000E+00 -0.10157333927E+03  0.11146565607E+04  0.11100189661E+04 0.  0.
        1    1    3    3  502    0 -0.45414332643E+03  0.27207490021E+03 -0.21810999888E+03  0.57257565779E+03  0.50400001928E-02 0.  1.
       -1    1    3    3    0  502  0.45414332643E+03 -0.27207490021E+03  0.11653665960E+03  0.54208090293E+03  0.50400001928E-02 0. -1.
</event>
<event>
 5   0  0.3748901E-03  0.1098231E+04  0.7818609E-02  0.9206918E-01
        2   -1    0    0  501    0  0.00000000000E+00  0.00000000000E+00  0.12682656780E+04  0.12682656780E+04  0.25500000920E-02 0. -1.
       -2   -1    0    0    0  501  0.00000000000E+00  0.00000000000E+00 -0.23774799278E+03  0.23774799280E+03  0.25500000920E-02 0.  1.
    10030    2    1    2    0    0  0.00000000000E+00  0.00000000000E+00  0.10305176852E+04  0.15060136708E+04  0.10982306120E+04 0.  0.
        5    1    3    3  502    0 -0.43541080466E+02 -0.21314177695E+03 -0.17610442501E+03  0.27992874321E+03  0.46999998093E+01 0.  1.
       -5    1    3    3    0  502  0.43541080466E+02  0.21314177695E+03  0.12066221102E+04  0.12260849276E+04  0.46999998093E+01 0. -1.
</event>
<event>
 5   0  0.3744875E-03  0.1092080E+04  0.7818609E-02  0.9212945E-01
       -2   -1    0    0    0  501  0.00000000000E+00  0.00000000000E+00  0.35977634482E+03  0.35977634483E+03  0.25500000920E-02 0. -1.
        2   -1    0    0  501    0  0.00000000000E+00  0.00000000000E+00 -0.82873673584E+03  0.82873673585E+03  0.25500000920E-02 0.  1.
    10030    2    1    2    0    0  0.00000000000E+00  0.00000000000E+00 -0.46896039103E+03  0.11885130807E+04  0.10920803517E+04 0.  0.
        2    1    3    3  502    0  0.52189294825E+03  0.15002360015E+03 -0.29681380555E+03  0.61885197358E+03  0.25500000920E-02 0.  1.
       -2    1    3    3    0  502 -0.52189294825E+03 -0.15002360015E+03 -0.17214658547E+03  0.56966110709E+03  0.25500000920E-02 0. -1.
</event>
<event>
 5   0  0.2298958E-03  0.1064269E+04  0.7818609E-02  0.9240735E-01
       -1   -1    0    0    0  501  0.00000000000E+00  0.00000000000E+00  0.49181056590E+03  0.49181056593E+03  0.50400001928E-02 0. -1.
        1   -1    0    0  501    0  0.00000000000E+00  0.00000000000E+00 -0.57576464713E+03  0.57576464715E+03  0.50400001928E-02 0.  1.
    10030    2    1    2    0    0  0.00000000000E+00  0.00000000000E+00 -0.83954081229E+02  0.10675752131E+04  0.10642690204E+04 0.  0.
        1    1    3    3  502    0  0.11875507842E+03  0.32266221378E+03 -0.44938337898E+03  0.56582602820E+03  0.50400001928E-02 0.  1.
       -1    1    3    3    0  502 -0.11875507842E+03 -0.32266221378E+03  0.36542929775E+03  0.50174918489E+03  0.50400001928E-02 0. -1.
</event>
<event>
 5   0  0.3744875E-03  0.1151893E+04  0.7818609E-02  0.9156039E-01
       -2   -1    0    0    0  501  0.00000000000E+00  0.00000000000E+00  0.70139348476E+03  0.70139348476E+03  0.25500000920E-02 0.  1.
        2   -1    0    0  501    0  0.00000000000E+00  0.00000000000E+00 -0.47293596463E+03  0.47293596463E+03  0.25500000920E-02 0. -1.
    10030    2    1    2    0    0  0.00000000000E+00  0.00000000000E+00  0.22845752014E+03  0.11743294494E+04  0.11518927108E+04 0.  0.
        2    1    3    3  502    0 -0.39639960595E+02  0.46025766741E+01  0.69998234413E+03  0.70111895730E+03  0.25500000920E-02 0.  1.
       -2    1    3    3    0  502  0.39639960595E+02 -0.46025766741E+01 -0.47152482399E+03  0.47321049210E+03  0.25500000920E-02 0. -1.
</event>
<event>
 5   0  0.2298958E-03  0.1097700E+04  0.7818609E-02  0.9207437E-01
        1   -1    0    0  501    0  0.00000000000E+00  0.00000000000E+00  0.52330945162E+03  0.52330945165E+03  0.50400001928E-02 0. -1.
       -1   -1    0    0    0  501  0.00000000000E+00  0.00000000000E+00 -0.57563664694E+03  0.57563664696E+03  0.50400001928E-02 0.  1.
    10030    2    1    2    0    0  0.00000000000E+00  0.00000000000E+00 -0.52327195321E+02  0.10989460986E+04  0.10976995911E+04 0.  0.
        1    1    3    3  502    0 -0.44580379051E+03 -0.40404357428E+02 -0.34411291447E+03  0.56461245971E+03  0.50400001928E-02 0.  1.
       -1    1    3    3    0  502  0.44580379051E+03  0.40404357428E+02  0.29178571915E+03  0.53433363890E+03  0.50400001928E-02 0. -1.
</event>
<event>
 5   0  0.2300702E-03  0.1259707E+04  0.7818609E-02  0.9062143E-01
       -1   -1    0    0    0  501  0.00000000000E+00  0.00000000000E+00  0.31615415860E+03  0.31615415864E+03  0.50400001928E-02 0. -1.
        1   -1    0    0  501    0  0.00000000000E+00  0.00000000000E+00 -0.12548165217E+04  0.12548165217E+04  0.50400001928E-02 0.  1.
    10030    2    1    2    0    0  0.00000000000E+00  0.00000000000E+00 -0.93866236313E+03  0.15709706804E+04  0.12597070479E+04 0.  0.
        5    1    3    3  502    0 -0.38194298245E+03  0.10111318872E+03 -0.10810283241E+04  0.11509772571E+04  0.46999998093E+01 0.  1.
       -5    1    3    3    0  502  0.38194298245E+03 -0.10111318872E+03  0.14236596097E+03  0.41999342331E+03  0.46999998093E+01 0. -1.
</event>
<event>
 5   0  0.3713158E-03  0.1097892E+04  0.7818609E-02  0.9207249E-01
        2   -1    0    0  501    0  0.00000000000E+00  0.00000000000E+00  0.14547466373E+04  0.14547466373E+04  0.25500000920E-02 0. -1.
       -2   -1    0    0    0  501  0.00000000000E+00  0.00000000000E+00 -0.20714385449E+03  0.20714385451E+03  0.25500000920E-02 0.  1.
    10030    2    1    2    0    0  0.00000000000E+00  0.00000000000E+00  0.12476027828E+04  0.16618904918E+04  0.10978922092E+04 0.  0.
        4    1    3    3  502    0  0.42081385882E+03  0.35036646957E+03  0.68241239559E+03  0.87494528819E+03  0.12699999809E+01 0.  1.
       -4    1    3    3    0  502 -0.42081385882E+03 -0.35036646957E+03  0.56519038719E+03  0.78694520359E+03  0.12699999809E+01 0. -1.
</event>
<event>
 5   0  0.2298958E-03  0.1119967E+04  0.7818609E-02  0.9185946E-01
       -1   -1    0    0    0  501  0.00000000000E+00  0.00000000000E+00  0.95923615944E+03  0.95923615945E+03  0.50400001928E-02 0.  1.
        1   -1    0    0  501    0  0.00000000000E+00  0.00000000000E+00 -0.32690754978E+03  0.32690754981E+03  0.50400001928E-02 0. -1.
    10030    2    1    2    0    0  0.00000000000E+00  0.00000000000E+00  0.63232860966E+03  0.12861437093E+04  0.11199670398E+04 0.  0.
        1    1    3    3  502    0 -0.41136547517E+03 -0.16292380413E+03  0.71033657241E+03  0.83686544094E+03  0.50400001928E-02 0.  1.
       -1    1    3    3    0  502  0.41136547517E+03  0.16292380413E+03 -0.78007962748E+02  0.44927826833E+03  0.50400001928E-02 0. -1.
</event>
<event>
 5   0  0.2300702E-03  0.1100984E+04  0.7818609E-02  0.9204233E-01
       -1   -1    0    0    0  501  0.00000000000E+00  0.00000000000E+00  0.48144442116E+03  0.48144442119E+03  0.50400001928E-02 0. -1.
        1   -1    0    0  501    0  0.00000000000E+00  0.00000000000E+00 -0.62944202855E+03  0.62944202857E+03  0.50400001928E-02 0.  1.
    10030    2    1    2    0    0  0.00000000000E+00  0.00000000000E+00 -0.14799760739E+03  0.11108864498E+04  0.11009838384E+04 0.  0.
        5    1    3    3  502    0 -0.35519466490E+03 -0.15090208880E+03  0.32206787337E+03  0.50267732735E+03  0.46999998093E+01 0.  1.
       -5    1    3    3    0  502  0.35519466490E+03  0.15090208880E+03 -0.47006548076E+03  0.60820912241E+03  0.46999998093E+01 0. -1.
</event>
<event>
 5   0  0.2298958E-03  0.1086336E+04  0.7818609E-02  0.9218613E-01
       -1   -1    0    0    0  501  0.00000000000E+00  0.00000000000E+00  0.41477138550E+03  0.41477138553E+03  0.50400001928E-02 0. -1.
        1   -1    0    0  501    0  0.00000000000E+00  0.00000000000E+00 -0.71131073273E+03  0.71131073275E+03  0.50400001928E-02 0.  1.
    10030    2    1    2    0    0  0.00000000000E+00  0.00000000000E+00 -0.29653934724E+03  0.11260821183E+04  0.10863357458E+04 0.  0.
        1    1    3    3  502    0 -0.74086350755E+02 -0.27124278974E+02 -0.70533960496E+03  0.70973831250E+03  0.50400001928E-02 0.  1.
       -1    1    3    3    0  502  0.74086350755E+02  0.27124278974E+02  0.40880025772E+03  0.41634380578E+03  0.50400001928E-02 0. -1.
</event>
<event>
 5   0  0.2374100E-03  0.1104463E+04  0.7818609E-02  0.9200853E-01
       -1   -1    0    0    0  501  0.00000000000E+00  0.00000000000E+00  0.13507216363E+04  0.13507216364E+04  0.50400001928E-02 0. -1.
        1   -1    0    0  501    0  0.00000000000E+00  0.00000000000E+00 -0.22577519090E+03  0.22577519096E+03  0.50400001928E-02 0.  1.
    10030    2    1    2    0    0  0.00000000000E+00  0.00000000000E+00  0.11249464454E+04  0.15764968273E+04  0.11044626483E+04 0.  0.
        2    1    3    3  502    0  0.13712441813E+03 -0.32294362807E+03  0.11711898010E+04  0.12226124664E+04  0.25500000920E-02 0. -1.
       -2    1    3    3    0  502 -0.13712441813E+03  0.32294362807E+03 -0.46243355580E+02  0.35388436091E+03  0.25500000920E-02 0.  1.
</event>
<event>
 5   0  0.2374100E-03  0.1088937E+04  0.7818609E-02  0.9216042E-01
       -1   -1    0    0    0  501  0.00000000000E+00  0.00000000000E+00  0.19871278131E+03  0.19871278137E+03  0.50400001928E-02 0.  1.
        1   -1    0    0  501    0  0.00000000000E+00  0.00000000000E+00 -0.14918310077E+04  0.14918310077E+04  0.50400001928E-02 0. -1.
    10030    2    1    2    0    0  0.00000000000E+00  0.00000000000E+00 -0.12931182264E+04  0.16905437891E+04  0.10889368923E+04 0.  0.
        2    1    3    3  502    0 -0.49015991203E+03  0.52621846253E+02 -0.10053786025E+04  0.11197374391E+04  0.25500000920E-02 0. -1.
       -2    1    3    3    0  502  0.49015991203E+03 -0.52621846253E+02 -0.28773962391E+03  0.57080635004E+03  0.25500000920E-02 0.  1.
</event>
<event>
 5   0  0.2300702E-03  0.1101079E+04  0.7818609E-02  0.9204141E-01
       -1   -1    0    0    0  501  0.00000000000E+00  0.00000000000E+00  0.42813031176E+03  0.42813031179E+03  0.50400001928E-02 0. -1.
        1   -1    0    0  501    0  0.00000000000E+00  0.00000000000E+00 -0.70794767913E+03  0.70794767915E+03  0.50400001928E-02 0.  1.
    10030    2    1    2    0    0  0.00000000000E+00  0.00000000000E+00 -0.27981736737E+03  0.11360779909E+04  0.11010792171E+04 0.  0.
        5    1    3    3  502    0 -0.12382936674E+03  0.53150076407E+03 -0.65184328624E+02  0.54963429748E+03  0.46999998093E+01 0. -1.
       -5    1    3    3    0  502  0.12382936674E+03 -0.53150076407E+03 -0.21463303875E+03  0.58644369346E+03  0.46999998093E+01 0.  1.
</event>
<event>
 5   0  0.3992414E-03  0.1095702E+04  0.7818609E-02  0.9209391E-01
        2   -1    0    0  501    0  0.00000000000E+00  0.00000000000E+00  0.14878473967E+04  0.14878473967E+04  0.25500000920E-02 0.  1.
       -2   -1    0    0    0  501  0.00000000000E+00  0.00000000000E+00 -0.20172810126E+03  0.20172810127E+03  0.25500000920E-02 0. -1.
    10030    2    1    2    0    0  0.00000000000E+00  0.00000000000E+00  0.12861192954E+04  0.16895754979E+04  0.10957018396E+04 0.  0.
        1    1    3    3  502    0  0.52759816666E+03 -0.14755394155E+03  0.63852732535E+03  0.84133770650E+03  0.50400001928E-02 0. -1.
       -1    1    3    3    0  502 -0.52759816666E+03  0.14755394155E+03  0.64759197004E+03  0.84823779143E+03  0.50400001928E-02 0.  1.
</event>
<event>
 5   0  0.2374100E-03  0.1071705E+04  0.7818609E-02  0.9233217E-01
        1   -1    0    0  501    0  0.00000000000E+00  0.00000000000E+00  0.14938602981E+04  0.14938602981E+04  0.50400001928E-02 0.  1.
       -1   -1    0    0    0  501  0.00000000000E+00  0.00000000000E+00 -0.19221213551E+03  0.19221213558E+03  0.50400001928E-02 0. -1.
    10030    2    1    2    0    0  0.00000000000E+00  0.00000000000E+00  0.13016481626E+04  0.16860724337E+04  0.10717053291E+04 0.  0.
        2    1    3    3  502    0  0.30930799116E+03  0.37928878120E+03  0.99409318653E+03  0.11080400157E+04  0.25500000920E-02 0.  1.
       -2    1    3    3    0  502 -0.30930799116E+03 -0.37928878120E+03  0.30755497609E+03  0.57803241800E+03  0.25500000920E-02 0. -1.
</event>
<event>
 5   0  0.3962999E-03  0.1112902E+04  0.7818609E-02  0.9192707E-01
        2   -1    0    0  501    0  0.00000000000E+00  0.00000000000E+00  0.15132650380E+04  0.15132650380E+04  0.25500000920E-02 0.  1.
       -2   -1    0    0    0  501  0.00000000000E+00  0.00000000000E+00 -0.20461577336E+03  0.20461577337E+03  0.25500000920E-02 0. -1.
    10030    2    1    2    0    0  0.00000000000E+00  0.00000000000E+00  0.13086492646E+04  0.17178808113E+04  0.11129023246E+04 0.  0.
        3    1    3    3  502    0  0.50658107203E+03 -0.10756590426E+03  0.34008425407E+03  0.61955800080E+03  0.10100000352E+00 0. -1.
       -3    1    3    3    0  502 -0.50658107203E+03  0.10756590426E+03  0.96856501054E+03  0.10983228105E+04  0.10100000352E+00 0.  1.
</event>
<event>
 5   0  0.2257667E-03  0.1080937E+04  0.7818609E-02  0.9223973E-01
        1   -1    0    0  501    0  0.00000000000E+00  0.00000000000E+00  0.49549377433E+03  0.49549377436E+03  0.50400001928E-02 0.  1.
       -1   -1    0    0    0  501  0.00000000000E+00  0.00000000000E+00 -0.58952597456E+03  0.58952597458E+03  0.50400001928E-02 0. -1.
    10030    2    1    2    0    0  0.00000000000E+00  0.00000000000E+00 -0.94032200226E+02  0.10850197489E+04  0.10809374639E+04 0.  0.
        4    1    3    3  502    0  0.50603053246E+03  0.18575436597E+03 -0.77114445317E+01  0.53910357403E+03  0.12699999809E+01 0. -1.
       -4    1    3    3    0  502 -0.50603053246E+03 -0.18575436597E+03 -0.86320755694E+02  0.54591617490E+03  0.12699999809E+01 0.  1.
</event>
<event>
 5   0  0.3992414E-03  0.1092249E+04  0.7818609E-02  0.9212780E-01
        2   -1    0    0  501    0  0.00000000000E+00  0.00000000000E+00  0.11106457868E+04  0.11106457869E+04  0.25500000920E-02 0. -1.
       -2   -1    0    0    0  501  0.00000000000E+00  0.00000000000E+00 -0.26853902556E+03  0.26853902558E+03  0.25500000920E-02 0.  1.
    10030    2    1    2    0    0  0.00000000000E+00  0.00000000000E+00  0.84210676129E+03  0.13791848124E+04  0.10922485749E+04 0.  0.
        1    1    3    3  502    0 -0.30742861134E+03  0.56956601737E+02  0.98644987567E+03  0.10348138783E+04  0.50400001928E-02 0. -1.
       -1    1    3    3    0  502  0.30742861134E+03 -0.56956601737E+02 -0.14434311439E+03  0.34437093410E+03  0.50400001928E-02 0.  1.
</event>
<event>
 5   0  0.2255788E-03  0.1126547E+04  0.7818609E-02  0.9179697E-01
       -1   -1    0    0    0  501  0.00000000000E+00  0.00000000000E+00  0.20761271203E+03  0.20761271209E+03  0.50400001928E-02 0. -1.
        1   -1    0    0  501    0  0.00000000000E+00  0.00000000000E+00 -0.15282165468E+04  0.15282165468E+04  0.50400001928E-02 0.  1.
    10030    2    1    2    0    0  0.00000000000E+00  0.00000000000E+00 -0.13206038348E+04  0.17358292589E+04  0.11265472594E+04 0.  0.
        3    1    3    3  502    0 -0.44580836655E+03 -0.46677548923E+02 -0.13471214991E+03  0.46805049598E+03  0.10100000352E+00 0. -1.
       -3    1    3    3    0  502  0.44580836655E+03  0.46677548923E+02 -0.11858916849E+04  0.12677787629E+04  0.10100000352E+00 0.  1.
</event>
<event>
 5   0  0.3713158E-03  0.1091570E+04  0.7818609E-02  0.9213448E-01
       -2   -1    0    0    0  501  0.00000000000E+00  0.00000000000E+00  0.28989986268E+03  0.28989986269E+03  0.25500000920E-02 0.  1.
        2   -1    0    0  501    0  0.00000000000E+00  0.00000000000E+00 -0.10275308533E+04  0.10275308533E+04  0.25500000920E-02 0. -1.
    10030    2    1    2    0    0  0.00000000000E+00  0.00000000000E+00 -0.73763099062E+03  0.13174307160E+04  0.10915696098E+04 0.  0.
        4    1    3    3  502    0 -0.44224890272E+02  0.44866815393E+03  0.24366214230E+01  0.45085086591E+03  0.12699999809E+01 0.  1.
       -4    1    3    3    0  502  0.44224890272E+02 -0.44866815393E+03 -0.74006761204E+03  0.86657985008E+03  0.12699999809E+01 0. -1.
</event>
<event>
 5   0  0.1508625E-03  0.1096433E+04  0.7818609E-02  0.9208676E-01
       -3   -1    0    0    0  501  0.00000000000E+00  0.00000000000E+00  0.64452470542E+03  0.64452471333E+03  0.10100000352E+00 0.  1.
        3   -1    0    0  501    0  0.00000000000E+00  0.00000000000E+00 -0.46629900622E+03  0.46629901715E+03  0.10100000352E+00 0. -1.
    10030    2    1    2    0    0  0.00000000000E+00  0.00000000000E+00  0.17822569920E+03  0.11108237305E+04  0.10964328344E+04 0.  0.
        1    1    3    3  502    0 -0.52303855776E+03 -0.10807302559E+03  0.21439727425E+03  0.57551307803E+03  0.50400001928E-02 0.  1.
       -1    1    3    3    0  502  0.52303855776E+03  0.10807302559E+03 -0.36171575046E+02  0.53531065245E+03  0.50400001928E-02 0. -1.
</event>
<event>
 5   0  0.3744875E-03  0.1118386E+04  0.7818609E-02  0.9187454E-01
       -2   -1    0    0    0  501  0.00000000000E+00  0.00000000000E+00  0.19518341592E+03  0.19518341594E+03  0.25500000920E-02 0.  1.
        2   -1    0    0  501    0  0.00000000000E+00  0.00000000000E+00 -0.16020669421E+04  0.16020669421E+04  0.25500000920E-02 0. -1.
    10030    2    1    2    0    0  0.00000000000E+00  0.00000000000E+00 -0.14068835262E+04  0.17972503581E+04  0.11183861557E+04 0.  0.
        2    1    3    3  502    0  0.28013714776E+03  0.46557400723E+03 -0.91579083373E+03  0.10648515525E+04  0.25500000920E-02 0.  1.
       -2    1    3    3    0  502 -0.28013714776E+03 -0.46557400723E+03 -0.49109269249E+03  0.73239880556E+03  0.25500000920E-02 0. -1.
</event>
<event>
 5   0  0.3748901E-03  0.1109844E+04  0.7818609E-02  0.9195650E-01
       -2   -1    0    0    0  501  0.00000000000E+00  0.00000000000E+00  0.23203394515E+03  0.23203394517E+03  0.25500000920E-02 0.  1.
        2   -1    0    0  501    0  0.00000000000E+00  0.00000000000E+00 -0.13271260200E+04  0.13271260200E+04  0.25500000920E-02 0. -1.
    10030    2    1    2    0    0  0.00000000000E+00  0.00000000000E+00 -0.10950920749E+04  0.15591599652E+04  0.11098437478E+04 0.  0.
        5    1    3    3  502    0 -0.16904887421E+02  0.79005718923E+02  0.22369865080E+03  0.23788832508E+03  0.46999998093E+01 0.  1.
       -5    1    3    3    0  502  0.16904887421E+02 -0.79005718923E+02 -0.13187907257E+04  0.13212716401E+04  0.46999998093E+01 0. -1.
</event>
<event>
 5   0  0.3744875E-03  0.1105946E+04  0.7818609E-02  0.9199416E-01
       -2   -1    0    0    0  501  0.00000000000E+00  0.00000000000E+00  0.33081902697E+03  0.33081902698E+03  0.25500000920E-02 0. -1.
        2   -1    0    0  501    0  0.00000000000E+00  0.00000000000E+00 -0.92430883896E+03  0.92430883896E+03  0.25500000920E-02 0.  1.
    10030    2    1    2    0    0  0.00000000000E+00  0.00000000000E+00 -0.59348981198E+03  0.12551278659E+04  0.11059456600E+04 0.  0.
        2    1    3    3  502    0 -0.39199125518E+02 -0.26433289477E+03  0.25267660171E+03  0.36776883467E+03  0.25500000920E-02 0. -1.
       -2    1    3    3    0  502  0.39199125518E+02  0.26433289477E+03 -0.84616641369E+03  0.88735903127E+03  0.25500000920E-02 0.  1.
</event>
<event>
 5   0  0.3962999E-03  0.1107999E+04  0.7818609E-02  0.9197430E-01
        2   -1    0    0  501    0  0.00000000000E+00  0.00000000000E+00  0.12423984489E+04  0.12423984489E+04  0.25500000920E-02 0. -1.
       -2   -1    0    0    0  501  0.00000000000E+00  0.00000000000E+00 -0.24703483273E+03  0.24703483274E+03  0.25500000920E-02 0.  1.
    10030    2    1    2    0    0  0.00000000000E+00  0.00000000000E+00  0.99536361621E+03  0.14894332817E+04  0.11079994459E+04 0.  0.
        3    1    3    3  502    0 -0.18451682717E+03 -0.39327488149E+03  0.35516051064E+02  0.43585891295E+03  0.10100000352E+00 0.  1.
       -3    1    3    3    0  502  0.18451682717E+03  0.39327488149E+03  0.95984756515E+03  0.10535743687E+04  0.10100000352E+00 0. -1.
</event>
<event>
 5   0  0.3962999E-03  0.1118305E+04  0.7818609E-02  0.9187532E-01
        2   -1    0    0  501    0  0.00000000000E+00  0.00000000000E+00  0.79885356414E+03  0.79885356414E+03  0.25500000920E-02 0. -1.
       -2   -1    0    0    0  501  0.00000000000E+00  0.00000000000E+00 -0.39137508483E+03  0.39137508484E+03  0.25500000920E-02 0.  1.
    10030    2    1    2    0    0  0.00000000000E+00  0.00000000000E+00  0.40747847930E+03  0.11902286490E+04  0.11183047553E+04 0.  0.
        3    1    3    3  502    0 -0.11416752716E+03 -0.10605845184E+03 -0.36779772858E+03  0.39944686608E+03  0.10100000352E+00 0.  1.
       -3    1    3    3    0  502  0.11416752716E+03  0.10605845184E+03  0.77527620789E+03  0.79078178291E+03  0.10100000352E+00 0. -1.
</event>
<event>
 5   0  0.3744875E-03  0.1117591E+04  0.7818609E-02  0.9188214E-01
        2   -1    0    0  501    0  0.00000000000E+00  0.00000000000E+00  0.62051353877E+03  0.62051353878E+03  0.25500000920E-02 0.  1.
       -2   -1    0    0    0  501  0.00000000000E+00  0.00000000000E+00 -0.50321592013E+03  0.50321592013E+03  0.25500000920E-02 0. -1.
    10030    2    1    2    0    0  0.00000000000E+00  0.00000000000E+00  0.11729761864E+03  0.11237294589E+04  0.11175907862E+04 0.  0.
        2    1    3    3  502    0 -0.46787853659E+03 -0.83638396847E+02  0.35411074336E+03  0.59270576596E+03  0.25500000920E-02 0.  1.
       -2    1    3    3    0  502  0.46787853659E+03  0.83638396847E+02 -0.23681312472E+03  0.53102369295E+03  0.25500000920E-02 0. -1.
</event>
<event>
 5   0  0.1508625E-03  0.1100259E+04  0.7818609E-02  0.9204940E-01
        3   -1    0    0  501    0  0.00000000000E+00  0.00000000000E+00  0.75114888910E+03  0.75114889589E+03  0.10100000352E+00 0. -1.
       -3   -1    0    0    0  501  0.00000000000E+00  0.00000000000E+00 -0.40290603980E+03  0.40290605246E+03  0.10100000352E+00 0.  1.
    10030    2    1    2    0    0  0.00000000000E+00  0.00000000000E+00  0.34824284930E+03  0.11540549483E+04  0.11002589430E+04 0.  0.
        2    1    3    3  502    0 -0.30328403121E+03  0.41159391297E+03 -0.38914288452E+02  0.51274269827E+03  0.25500000920E-02 0.  1.
       -2    1    3    3    0  502  0.30328403121E+03 -0.41159391297E+03  0.38715713775E+03  0.64131225008E+03  0.25500000920E-02 0. -1.
</event>
<event>
 5   0  0.3748901E-03  0.1100139E+04  0.7818609E-02  0.9205057E-01
       -2   -1    0    0    0  501  0.00000000000E+00  0.00000000000E+00  0.27310018483E+03  0.27310018484E+03  0.25500000920E-02 0. -1.
        2   -1    0    0  501    0  0.00000000000E+00  0.00000000000E+00 -0.11079317656E+04  0.11079317656E+04  0.25500000920E-02 0.  1.
    10030    2    1    2    0    0  0.00000000000E+00  0.00000000000E+00 -0.83483158074E+03  0.13810319504E+04  0.11001388457E+04 0.  0.
        5    1    3    3  502    0  0.39382685529E+03  0.14096350657E+03  0.30972534188E+02  0.41946595810E+03  0.46999998093E+01 0. -1.
       -5    1    3    3    0  502 -0.39382685529E+03 -0.14096350657E+03 -0.86580411493E+03  0.96156599231E+03  0.46999998093E+01 0.  1.
</event>
<event>
 5   0  0.3962999E-03  0.1074614E+04  0.7818609E-02  0.9230294E-01
        2   -1    0    0  501    0  0.00000000000E+00  0.00000000000E+00  0.41114527753E+03  0.41114527753E+03  0.25500000920E-02 0.  1.
       -2   -1    0    0    0  501  0.00000000000E+00  0.00000000000E+00 -0.70218199844E+03  0.70218199845E+03  0.25500000920E-02 0. -1.
    10030    2    1    2    0    0  0.00000000000E+00  0.00000000000E+00 -0.29103672092E+03  0.11133272760E+04  0.10746140007E+04 0.  0.
        3    1    3    3  502    0 -0.30027280862E+03  0.23657233764E+03 -0.53670341536E+03  0.65892396890E+03  0.10100000352E+00 0. -1.
       -3    1    3    3    0  502  0.30027280862E+03 -0.23657233764E+03  0.24566669444E+03  0.45440330708E+03  0.10100000352E+00 0.  1.
</event>
<event>
 5   0  0.2257667E-03  0.1100543E+04  0.7818609E-02  0.9204663E-01
       -1   -1    0    0    0  501  0.00000000000E+00  0.00000000000E+00  0.36041801367E+03  0.36041801371E+03  0.50400001928E-02 0.  1.
        1   -1    0    0  501    0  0.00000000000E+00  0.00000000000E+00 -0.84013129746E+03  0.84013129747E+03  0.50400001928E-02 0. -1.
    10030    2    1    2    0    0  0.00000000000E+00  0.00000000000E+00 -0.47971328379E+03  0.12005493112E+04  0.11005425089E+04 0.  0.
        4    1    3    3  502    0  0.36078411899E+03 -0.41542510511E+02 -0.69083082770E+03  0.78047409060E+03  0.12699999809E+01 0. -1.
       -4    1    3    3    0  502 -0.36078411899E+03  0.41542510511E+02  0.21111754392E+03  0.42007522058E+03  0.12699999809E+01 0.  1.
</event>
<event>
 5   0  0.3992414E-03  0.1096813E+04  0.7818609E-02  0.9208304E-01
        2   -1    0    0  501    0  0.00000000000E+00  0.00000000000E+00  0.65735558620E+03  0.65735558621E+03  0.25500000920E-02 0.  1.
       -2   -1    0    0    0  501  0.00000000000E+00  0.00000000000E+00 -0.45751428534E+03  0.45751428535E+03  0.25500000920E-02 0. -1.
    10030    2    1    2    0    0  0.00000000000E+00  0.00000000000E+00  0.19984130086E+03  0.11148698716E+04  0.10968127848E+04 0.  0.
        1    1    3    3  502    0 -0.21948747559E+03 -0.78152596725E+02 -0.40470701515E+03  0.46698003004E+03  0.50400001928E-02 0. -1.
       -1    1    3    3    0  502  0.21948747559E+03  0.78152596725E+02  0.60454831602E+03  0.64788984152E+03  0.50400001928E-02 0.  1.
</event>
<event>
 5   0  0.3744875E-03  0.1069430E+04  0.7818609E-02  0.9235510E-01
       -2   -1    0    0    0  501  0.00000000000E+00  0.00000000000E+00  0.31343914955E+03  0.31343914956E+03  0.25500000920E-02 0.  1.
        2   -1    0    0  501    0  0.00000000000E+00  0.00000000000E+00 -0.91220312147E+03  0.91220312147E+03  0.25500000920E-02 0. -1.
    10030    2    1    2    0    0  0.00000000000E+00  0.00000000000E+00 -0.59876397192E+03  0.12256422710E+04  0.10694300737E+04 0.  0.
        2    1    3    3  502    0 -0.23699812120E+03  0.47292521180E+03 -0.38884749174E+03  0.65652778863E+03  0.25500000920E-02 0.  1.
       -2    1    3    3    0  502  0.23699812120E+03 -0.47292521180E+03 -0.20991648018E+03  0.56911448239E+03  0.25500000920E-02 0. -1.
</event>
<event>
 5   0  0.2374100E-03  0.1113218E+04  0.7818609E-02  0.9192403E-01
       -1   -1    0    0    0  501  0.00000000000E+00  0.00000000000E+00  0.75366971136E+03  0.75366971138E+03  0.50400001928E-02 0. -1.
        1   -1    0    0  501    0  0.00000000000E+00  0.00000000000E+00 -0.41107374940E+03  0.41107374943E+03  0.50400001928E-02 0.  1.
    10030    2    1    2    0    0  0.00000000000E+00  0.00000000000E+00  0.34259596196E+03  0.11647434608E+04  0.11132184585E+04 0.  0.
        2    1    3    3  502    0  0.41068099519E+03 -0.15513961457E+03  0.52931492417E+03  0.68767831780E+03  0.25500000920E-02 0. -1.
       -2    1    3    3    0  502 -0.41068099519E+03  0.15513961457E+03 -0.18671896220E+03  0.47706514301E+03  0.25500000920E-02 0.  1.
</event>
<event>
 5   0  0.3748901E-03  0.1084992E+04  0.7818609E-02  0.9219945E-01
       -2   -1    0    0    0  501  0.00000000000E+00  0.00000000000E+00  0.30967628263E+03  0.30967628264E+03  0.25500000920E-02 0. -1.
        2   -1    0    0  501    0  0.00000000000E+00  0.00000000000E+00 -0.95035302874E+03  0.95035302874E+03  0.25500000920E-02 0.  1.
    10030    2    1    2    0    0  0.00000000000E+00  0.00000000000E+00 -0.64067674611E+03  0.12600293114E+04  0.10849917846E+04 0.  0.
        5    1    3    3  502    0  0.41845031061E+03  0.81298185215E+02 -0.70997955132E+03  0.82813230263E+03  0.46999998093E+01 0.  1.
       -5    1    3    3    0  502 -0.41845031061E+03 -0.81298185215E+02  0.69302805208E+02  0.43189700876E+03  0.46999998093E+01 0. -1.
</event>
<event>
 5   0  0.2255788E-03  0.1116413E+04  0.7818609E-02  0.9189340E-01
        1   -1    0    0  501    0  0.00000000000E+00  0.00000000000E+00  0.79728555982E+03  0.79728555984E+03  0.50400001928E-02 0.  1.
       -1   -1    0    0    0  501  0.00000000000E+00  0.00000000000E+00 -0.39081949237E+03  0.39081949240E+03  0.50400001928E-02 0. -1.
    10030    2    1    2    0    0  0.00000000000E+00  0.00000000000E+00  0.40646606746E+03  0.11881050522E+04  0.11164134320E+04 0.  0.
        3    1    3    3  502    0  0.46563574114E+03 -0.30722808974E+03  0.22422225073E+03  0.60123320806E+03  0.10100000352E+00 0. -1.
       -3    1    3    3    0  502 -0.46563574114E+03  0.30722808974E+03  0.18224381672E+03  0.58687184418E+03  0.10100000352E+00 0.  1.
</event>
<event>
 5   0  0.2255788E-03  0.1094522E+04  0.7818609E-02  0.9210548E-01
       -1   -1    0    0    0  501  0.00000000000E+00  0.00000000000E+00  0.12638167639E+03  0.12638167650E+03  0.50400001928E-02 0.  1.
        1   -1    0    0  501    0  0.00000000000E+00  0.00000000000E+00 -0.23697626501E+04  0.23697626501E+04  0.50400001928E-02 0. -1.
    10030    2    1    2    0    0  0.00000000000E+00  0.00000000000E+00 -0.22433809737E+04  0.24961443266E+04  0.10945219532E+04 0.  0.
        3    1    3    3  502    0  0.33062351998E+02 -0.46833110232E+03 -0.48041592060E+03  0.67173403032E+03  0.10100000352E+00 0.  1.
       -3    1    3    3    0  502 -0.33062351998E+02  0.46833110232E+03 -0.17629650531E+04  0.18244102963E+04  0.10100000352E+00 0. -1.
</event>
<event>
 5   0  0.2257667E-03  0.1095599E+04  0.7818609E-02  0.9209492E-01
       -1   -1    0    0    0  501  0.00000000000E+00  0.00000000000E+00  0.23893561484E+03  0.23893561489E+03  0.50400001928E-02 0. -1.
        1   -1    0    0  501    0  0.00000000000E+00  0.00000000000E+00 -0.12559209771E+04  0.12559209771E+04  0.50400001928E-02 0.  1.
    10030    2    1    2    0    0  0.00000000000E+00  0.00000000000E+00 -0.10169853622E+04  0.14948565920E+04  0.10955989246E+04 0.  0.
        4    1    3    3  502    0 -0.28094552733E+02 -0.93270539906E+02  0.22702177112E+03  0.24704087712E+03  0.12699999809E+01 0. -1.
       -4    1    3    3    0  502  0.28094552733E+02  0.93270539906E+02 -0.12440071333E+04  0.12478157148E+04  0.12699999809E+01 0.  1.
</event>
<event>
 5   0  0.3713158E-03  0.1109284E+04  0.7818609E-02  0.9196190E-01
        2   -1    0    0  501    0  0.00000000000E+00  0.00000000000E+00  0.52894764147E+03  0.52894764148E+03  0.25500000920E-02 0.  1.
       -2   -1    0    0    0  501  0.00000000000E+00  0.00000000000E+00 -0.58158473859E+03  0.58158473860E+03  0.25500000920E-02 0. -1.
    10030    2    1    2    0    0  0.00000000000E+00  0.00000000000E+00 -0.52637097122E+02  0.11105323801E+04  0.11092842301E+04 0.  0.
        4    1    3    3  502    0  0.48110113126E+03  0.22227613875E+03 -0.19009137664E+03  0.56302870684E+03  0.12699999809E+01 0. -1.
       -4    1    3    3    0  502 -0.48110113126E+03 -0.22227613875E+03  0.13745427952E+03  0.54750367324E+03  0.12699999809E+01 0.  1.
</event>
<event>
 5   0  0.3744875E-03  0.1099635E+04  0.7818609E-02  0.9205548E-01
       -2   -1    0    0    0  501  0.00000000000E+00  0.00000000000E+00  0.58172720433E+03  0.58172720434E+03  0.25500000920E-02 0. -1.
        2   -1    0    0  501    0  0.00000000000E+00  0.00000000000E+00 -0.51965829644E+03  0.51965829645E+03  0.25500000920E-02 0.  1.
    10030    2    1    2    0    0  0.00000000000E+00  0.00000000000E+00  0.62068907889E+02  0.11013855008E+04  0.10996351541E+04 0.  0.
        2    1    3    3  502    0 -0.12252871910E+03 -0.44740387758E+03  0.32665821102E+03  0.56735271526E+03  0.25500000920E-02 0. -1.
       -2    1    3    3    0  502  0.12252871910E+03  0.44740387758E+03 -0.26458930313E+03  0.53403278553E+03  0.25500000920E-02 0.  1.
</event>
<event>
 5   0  0.3713158E-03  0.1102254E+04  0.7818609E-02  0.9202998E-01
       -2   -1    0    0    0  501  0.00000000000E+00  0.00000000000E+00  0.15054483910E+03  0.15054483912E+03  0.25500000920E-02 0.  1.
        2   -1    0    0  501    0  0.00000000000E+00  0.00000000000E+00 -0.20176121746E+04  0.20176121746E+04  0.25500000920E-02 0. -1.
    10030    2    1    2    0    0  0.00000000000E+00  0.00000000000E+00 -0.18670673355E+04  0.21681570137E+04  0.11022542360E+04 0.  0.
        4    1    3    3  502    0 -0.19292263409E+03  0.31393266971E+03 -0.17396921895E+04  0.17782866448E+04  0.12699999809E+01 0. -1.
       -4    1    3    3    0  502  0.19292263409E+03 -0.31393266971E+03 -0.12737514599E+03  0.38987036893E+03  0.12699999809E+01 0.  1.
</event>
<event>
 5   0  0.3992414E-03  0.1093688E+04  0.7818609E-02  0.9211366E-01
       -2   -1    0    0    0  501  0.00000000000E+00  0.00000000000E+00  0.41347770991E+03  0.41347770992E+03  0.25500000920E-02 0. -1.
        2   -1    0    0  501    0  0.00000000000E+00  0.00000000000E+00 -0.72322753079E+03  0.72322753079E+03  0.25500000920E-02 0.  1.
    10030    2    1    2    0    0  0.00000000000E+00  0.00000000000E+00 -0.30974982088E+03  0.11367052407E+04  0.10936881881E+04 0.  0.
        1    1    3    3  502    0  0.10356529640E+03  0.37699104315E+03  0.24251225458E+03  0.46006544196E+03  0.50400001928E-02 0. -1.
       -1    1    3    3    0  502 -0.10356529640E+03 -0.37699104315E+03 -0.55226207546E+03  0.67663979875E+03  0.50400001928E-02 0.  1.
</event>
<event>
 5   0  0.3962999E-03  0.1102965E+04  0.7818609E-02  0.9202307E-01
        2   -1    0    0  501    0  0.00000000000E+00  0.00000000000E+00  0.13836729990E+04  0.13836729990E+04  0.25500000920E-02 0. -1.
       -2   -1    0    0    0  501  0.00000000000E+00  0.00000000000E+00 -0.21980113686E+03  0.21980113687E+03  0.25500000920E-02 0.  1.
    10030    2    1    2    0    0  0.00000000000E+00  0.00000000000E+00  0.11638718622E+04  0.16034741359E+04  0.11029649101E+04 0.  0.
        3    1    3    3  502    0  0.22063552524E+02  0.41872669593E+03  0.61176245932E+02  0.42374684601E+03  0.10100000352E+00 0.  1.
       -3    1    3    3    0  502 -0.22063552524E+02 -0.41872669593E+03  0.11026956162E+04  0.11797272899E+04  0.10100000352E+00 0. -1.
</event>
<event>
 5   0  0.2298958E-03  0.1097050E+04  0.7818609E-02  0.9208072E-01
       -1   -1    0    0    0  501  0.00000000000E+00  0.00000000000E+00  0.27522469856E+03  0.27522469861E+03  0.50400001928E-02 0.  1.
        1   -1    0    0  501    0  0.00000000000E+00  0.00000000000E+00 -0.10932143972E+04  0.10932143972E+04  0.50400001928E-02 0. -1.
    10030    2    1    2    0    0  0.00000000000E+00  0.00000000000E+00 -0.81798969861E+03  0.13684390958E+04  0.10970498675E+04 0.  0.
        1    1    3    3  502    0 -0.51132012573E+03 -0.20449393599E+02 -0.65537438730E+03  0.83149385820E+03  0.50400001928E-02 0. -1.
       -1    1    3    3    0  502  0.51132012573E+03  0.20449393599E+02 -0.16261531131E+03  0.53694523759E+03  0.50400001928E-02 0.  1.
</event>
<event>
 5   0  0.3744875E-03  0.9896221E+03  0.7818609E-02  0.9320001E-01
        2   -1    0    0  501    0  0.00000000000E+00  0.00000000000E+00  0.97109252649E+03  0.97109252649E+03  0.25500000920E-02 0.  1.
       -2   -1    0    0    0  501  0.00000000000E+00  0.00000000000E+00 -0.25212630680E+03  0.25212630681E+03  0.25500000920E-02 0. -1.
    10030    2    1    2    0    0  0.00000000000E+00  0.00000000000E+00  0.71896621970E+03  0.12232188333E+04  0.98962209408E+03 0.  0.
        2    1    3    3  502    0  0.30288883542E+03  0.29001786675E+02 -0.12282090244E+03  0.32812760374E+03  0.25500000920E-02 0. -1.
       -2    1    3    3    0  502 -0.30288883542E+03 -0.29001786675E+02  0.84178712213E+03  0.89509122957E+03  0.25500000920E-02 0.  1.
</event>
<event>
 5   0  0.2374100E-03  0.1096682E+04  0.7818609E-02  0.9208432E-01
       -1   -1    0    0    0  501  0.00000000000E+00  0.00000000000E+00  0.61629543135E+03  0.61629543137E+03  0.50400001928E-02 0.  1.
        1   -1    0    0  501    0  0.00000000000E+00  0.00000000000E+00 -0.48787907748E+03  0.48787907751E+03  0.50400001928E-02 0. -1.
    10030    2    1    2    0    0  0.00000000000E+00  0.00000000000E+00  0.12841635387E+03  0.11041745089E+04  0.10966816248E+04 0.  0.
        2    1    3    3  502    0 -0.16560697973E+03 -0.29254292279E+03 -0.37196131597E+03  0.50136040330E+03  0.25500000920E-02 0. -1.
       -2    1    3    3    0  502  0.16560697973E+03  0.29254292279E+03  0.50037766984E+03  0.60281410558E+03  0.25500000920E-02 0.  1.
</event>
<event>
 5   0  0.3744875E-03  0.1106075E+04  0.7818609E-02  0.9199291E-01
        2   -1    0    0  501    0  0.00000000000E+00  0.00000000000E+00  0.53608682361E+03  0.53608682361E+03  0.25500000920E-02 0.  1.
       -2   -1    0    0    0  501  0.00000000000E+00  0.00000000000E+00 -0.57052369143E+03  0.57052369144E+03  0.25500000920E-02 0. -1.
    10030    2    1    2    0    0  0.00000000000E+00  0.00000000000E+00 -0.34436867826E+02  0.11066105151E+04  0.11060745609E+04 0.  0.
        2    1    3    3  502    0  0.61039820317E+02  0.78375058923E+02  0.52708720861E+03  0.53636688471E+03  0.25500000920E-02 0.  1.
       -2    1    3    3    0  502 -0.61039820317E+02 -0.78375058923E+02 -0.56152407644E+03  0.57024363035E+03  0.25500000920E-02 0. -1.
</event>
<event>
 5   0  0.3713158E-03  0.1102035E+04  0.7818609E-02  0.9203211E-01
        2   -1    0    0  501    0  0.00000000000E+00  0.00000000000E+00  0.75468904708E+03  0.75468904709E+03  0.25500000920E-02 0.  1.
       -2   -1    0    0    0  501  0.00000000000E+00  0.00000000000E+00 -0.40231146380E+03  0.40231146381E+03  0.25500000920E-02 0. -1.
    10030    2    1    2    0    0  0.00000000000E+00  0.00000000000E+00  0.35237758328E+03  0.11570005109E+04  0.11020345825E+04 0.  0.
        4    1    3    3  502    0  0.36110196678E+03 -0.27613335846E+03  0.50312753288E+03  0.67807314451E+03  0.12699999809E+01 0.  1.
       -4    1    3    3    0  502 -0.36110196678E+03  0.27613335846E+03 -0.15074994960E+03  0.47892736638E+03  0.12699999809E+01 0. -1.
</event>
<event>
 5   0  0.2257667E-03  0.1100743E+04  0.7818609E-02  0.9204468E-01
       -1   -1    0    0    0  501  0.00000000000E+00  0.00000000000E+00  0.34835287677E+03  0.34835287681E+03  0.50400001928E-02 0. -1.
        1   -1    0    0  501    0  0.00000000000E+00  0.00000000000E+00 -0.86954641690E+03  0.86954641692E+03  0.50400001928E-02 0.  1.
    10030    2    1    2    0    0  0.00000000000E+00  0.00000000000E+00 -0.52119354013E+03  0.12178992937E+04  0.11007433776E+04 0.  0.
        4    1    3    3  502    0  0.15608668731E+03 -0.52618894563E+03 -0.21538813101E+03  0.58960284967E+03  0.12699999809E+01 0. -1.
       -4    1    3    3    0  502 -0.15608668731E+03  0.52618894563E+03 -0.30580540912E+03  0.62829644405E+03  0.12699999809E+01 0.  1.
</event>
<event>
 5   0  0.2255788E-03  0.1104872E+04  0.7818609E-02  0.9200457E-01
        1   -1    0    0  501    0  0.00000000000E+00  0.00000000000E+00  0.42689399664E+03  0.42689399667E+03  0.50400001928E-02 0.  1.
       -1   -1    0    0    0  501  0.00000000000E+00  0.00000000000E+00 -0.71489721833E+03  0.71489721835E+03  0.50400001928E-02 0. -1.
    10030    2    1    2    0    0  0.00000000000E+00  0.00000000000E+00 -0.28800322169E+03  0.11417912150E+04  0.11048716319E+04 0.  0.
        3    1    3    3  502    0  0.36837014161E+03 -0.19452626260E+03  0.23095627298E+03  0.47631695152E+03  0.10100000352E+00 0.  1.
       -3    1    3    3    0  502 -0.36837014161E+03  0.19452626260E+03 -0.51895949468E+03  0.66547426351E+03  0.10100000352E+00 0. -1.
</event>
<event>
 5   0  0.3962999E-03  0.1102669E+04  0.7818609E-02  0.9202594E-01
        2   -1    0    0  501    0  0.00000000000E+00  0.00000000000E+00  0.68395789427E+03  0.68395789428E+03  0.25500000920E-02 0. -1.
       -2   -1    0    0    0  501  0.00000000000E+00  0.00000000000E+00 -0.44442781045E+03  0.44442781046E+03  0.25500000920E-02 0.  1.
    10030    2    1    2    0    0  0.00000000000E+00  0.00000000000E+00  0.23953008382E+03  0.11283857047E+04  0.11026693238E+04 0.  0.
        3    1    3    3  502    0  0.46534466318E+03 -0.53277782238E+02 -0.17785406703E+03  0.50101522630E+03  0.10100000352E+00 0. -1.
       -3    1    3    3    0  502 -0.46534466318E+03  0.53277782238E+02  0.41738415085E+03  0.62737047843E+03  0.10100000352E+00 0.  1.
</event>
<event>
 5   0  0.2300702E-03  0.1099213E+04  0.7818609E-02  0.9205960E-01
       -1   -1    0    0    0  501  0.00000000000E+00  0.00000000000E+00  0.39235195400E+03  0.39235195403E+03  0.50400001928E-02 0. -1.
        1   -1    0    0  501    0  0.00000000000E+00  0.00000000000E+00 -0.76988822150E+03  0.76988822152E+03  0.50400001928E-02 0.  1.
    10030    2    1    2    0    0  0.00000000000E+00  0.00000000000E+00 -0.37753626750E+03  0.11622401755E+04  0.10992127148E+04 0.  0.
        5    1    3    3  502    0 -0.82221754064E+02  0.50696455316E+03 -0.39561662333E+03  0.64831171334E+03  0.46999998093E+01 0. -1.
       -5    1    3    3    0  502  0.82221754064E+02 -0.50696455316E+03  0.18080355826E+02  0.51392846221E+03  0.46999998093E+01 0.  1.
</event>
<event>
 5   0  0.2257667E-03  0.1103347E+04  0.7818609E-02  0.9201936E-01
       -1   -1    0    0    0  501  0.00000000000E+00  0.00000000000E+00  0.39502664724E+03  0.39502664727E+03  0.50400001928E-02 0.  1.
        1   -1    0    0  501    0  0.00000000000E+00  0.00000000000E+00 -0.77043843978E+03  0.77043843979E+03  0.50400001928E-02 0. -1.
    10030    2    1    2    0    0  0.00000000000E+00  0.00000000000E+00 -0.37541179254E+03  0.11654650871E+04  0.11033471145E+04 0.  0.
        4    1    3    3  502    0 -0.29215645516E+03 -0.45136775704E+02 -0.67970726322E+03  0.74121272209E+03  0.12699999809E+01 0. -1.
       -4    1    3    3    0  502  0.29215645516E+03  0.45136775704E+02  0.30429547067E+03  0.42425236498E+03  0.12699999809E+01 0.  1.
</event>
<event>
 5   0  0.3713158E-03  0.1122123E+04  0.7818609E-02  0.9183893E-01
       -2   -1    0    0    0  501  0.00000000000E+00  0.00000000000E+00  0.28513561771E+03  0.28513561773E+03  0.25500000920E-02 0. -1.
        2   -1    0    0  501    0  0.00000000000E+00  0.00000000000E+00 -0.11040014104E+04  0.11040014104E+04  0.25500000920E-02 0.  1.
    10030    2    1    2    0    0  0.00000000000E+00  0.00000000000E+00 -0.81886579269E+03  0.13891370281E+04  0.11221232091E+04 0.  0.
        4    1    3    3  502    0  0.58041980006E+01 -0.10072124334E+03  0.27381241371E+03  0.29181039799E+03  0.12699999809E+01 0. -1.
       -4    1    3    3    0  502 -0.58041980006E+01  0.10072124334E+03 -0.10926782064E+04  0.10973266301E+04  0.12699999809E+01 0.  1.
</event>
<event>
 5   0  0.3992414E-03  0.1105602E+04  0.7818609E-02  0.9199749E-01
       -2   -1    0    0    0  501  0.00000000000E+00  0.00000000000E+00  0.63062933804E+03  0.63062933805E+03  0.25500000920E-02 0.  1.
        2   -1    0    0  501    0  0.00000000000E+00  0.00000000000E+00 -0.48457741322E+03  0.48457741323E+03  0.25500000920E-02 0. -1.
    10030    2    1    2    0    0  0.00000000000E+00  0.00000000000E+00  0.14605192482E+03  0.11152067513E+04  0.11056016160E+04 0.  0.
        1    1    3    3  502    0 -0.20447799509E+03  0.11998326346E+02 -0.44488731122E+03  0.48977538732E+03  0.50400001928E-02 0. -1.
       -1    1    3    3    0  502  0.20447799509E+03 -0.11998326346E+02  0.59093923604E+03  0.62543136396E+03  0.50400001928E-02 0.  1.
</event>
<event>
 5   0  0.2374100E-03  0.1124029E+04  0.7818609E-02  0.9182083E-01
        1   -1    0    0  501    0  0.00000000000E+00  0.00000000000E+00  0.71258253496E+03  0.71258253497E+03  0.50400001928E-02 0. -1.
       -1   -1    0    0    0  501  0.00000000000E+00  0.00000000000E+00 -0.44326116218E+03  0.44326116221E+03  0.50400001928E-02 0.  1.
    10030    2    1    2    0    0  0.00000000000E+00  0.00000000000E+00  0.26932137277E+03  0.11558436972E+04  0.11240287587E+04 0.  0.
        2    1    3    3  502    0 -0.98878766631E+01 -0.37141219570E+03  0.56827772510E+03  0.67895829185E+03  0.25500000920E-02 0. -1.
       -2    1    3    3    0  502  0.98878766631E+01  0.37141219570E+03 -0.29895635233E+03  0.47688540534E+03  0.25500000920E-02 0.  1.
</event>
<event>
 5   0  0.3744875E-03  0.1111029E+04  0.7818609E-02  0.9194508E-01
        2   -1    0    0  501    0  0.00000000000E+00  0.00000000000E+00  0.35903489031E+03  0.35903489032E+03  0.25500000920E-02 0. -1.
       -2   -1    0    0    0  501  0.00000000000E+00  0.00000000000E+00 -0.85951680630E+03  0.85951680631E+03  0.25500000920E-02 0.  1.
    10030    2    1    2    0    0  0.00000000000E+00  0.00000000000E+00 -0.50048191600E+03  0.12185516966E+04  0.11110292926E+04 0.  0.
        2    1    3    3  502    0 -0.35932791478E+03 -0.34246406166E+03 -0.52377276892E+03  0.72162046627E+03  0.25500000920E-02 0.  1.
       -2    1    3    3    0  502  0.35932791478E+03  0.34246406166E+03  0.23290852923E+02  0.49693123036E+03  0.25500000920E-02 0. -1.
</event>
<event>
 5   0  0.1508625E-03  0.1069448E+04  0.7818609E-02  0.9235492E-01
       -3   -1    0    0    0  501  0.00000000000E+00  0.00000000000E+00  0.10262995010E+04  0.10262995060E+04  0.10100000352E+00 0.  1.
        3   -1    0    0  501    0  0.00000000000E+00  0.00000000000E+00 -0.27860261720E+03  0.27860263551E+03  0.10100000352E+00 0. -1.
    10030    2    1    2    0    0  0.00000000000E+00  0.00000000000E+00  0.74769688384E+03  0.13049021415E+04  0.10694479739E+04 0.  0.
        5    1    3    3  502    0 -0.48133355317E+03 -0.45288233591E+02  0.95141358220E+02  0.49275448405E+03  0.46999998093E+01 0. -1.
       -5    1    3    3    0  502  0.48133355317E+03  0.45288233591E+02  0.65255552562E+03  0.81214765747E+03  0.46999998093E+01 0.  1.
</event>
<event>
 5   0  0.3992414E-03  0.1104606E+04  0.7818609E-02  0.9200714E-01
        2   -1    0    0  501    0  0.00000000000E+00  0.00000000000E+00  0.52575129984E+03  0.52575129984E+03  0.25500000920E-02 0. -1.
       -2   -1    0    0    0  501  0.00000000000E+00  0.00000000000E+00 -0.58019546695E+03  0.58019546696E+03  0.25500000920E-02 0.  1.
    10030    2    1    2    0    0  0.00000000000E+00  0.00000000000E+00 -0.54444167113E+02  0.11059467668E+04  0.11046058499E+04 0.  0.
        1    1    3    3  502    0 -0.29179082741E+03  0.46496796776E+03  0.33691091468E+02  0.54997471549E+03  0.50400001928E-02 0.  1.
       -1    1    3    3    0  502  0.29179082741E+03 -0.46496796776E+03 -0.88135258581E+02  0.55597205131E+03  0.50400001928E-02 0. -1.
</event>
<event>
 5   0  0.3962999E-03  0.1095914E+04  0.7818609E-02  0.9209184E-01
        2   -1    0    0  501    0  0.00000000000E+00  0.00000000000E+00  0.49335774157E+03  0.49335774158E+03  0.25500000920E-02 0.  1.
       -2   -1    0    0    0  501  0.00000000000E+00  0.00000000000E+00 -0.60859826157E+03  0.60859826158E+03  0.25500000920E-02 0. -1.
    10030    2    1    2    0    0  0.00000000000E+00  0.00000000000E+00 -0.11524052000E+03  0.11019560032E+04  0.10959136168E+04 0.  0.
        3    1    3    3  502    0 -0.12585927603E+02 -0.46137833624E+03 -0.35459299857E+03  0.58203486112E+03  0.10100000352E+00 0. -1.
       -3    1    3    3    0  502  0.12585927603E+02  0.46137833624E+03  0.23935247857E+03  0.51992114203E+03  0.10100000352E+00 0.  1.
</event>
<event>
 5   0  0.3744875E-03  0.1121083E+04  0.7818609E-02  0.9184883E-01
        2   -1    0    0  501    0  0.00000000000E+00  0.00000000000E+00  0.83395315113E+03  0.83395315113E+03  0.25500000920E-02 0. -1.
       -2   -1    0    0    0  501  0.00000000000E+00  0.00000000000E+00 -0.37676781404E+03  0.37676781405E+03  0.25500000920E-02 0.  1.
    10030    2    1    2    0    0  0.00000000000E+00  0.00000000000E+00  0.45718533709E+03  0.12107209652E+04  0.11210828797E+04 0.  0.
        2    1    3    3  502    0  0.15115706171E+02 -0.37501339958E+03  0.67822725603E+03  0.77514885362E+03  0.25500000920E-02 0. -1.
       -2    1    3    3    0  502 -0.15115706171E+02  0.37501339958E+03 -0.22104191895E+03  0.43557211157E+03  0.25500000920E-02 0.  1.
</event>
<event>
 5   0  0.2300702E-03  0.1097275E+04  0.7818609E-02  0.9207852E-01
       -1   -1    0    0    0  501  0.00000000000E+00  0.00000000000E+00  0.14211927531E+03  0.14211927540E+03  0.50400001928E-02 0.  1.
        1   -1    0    0  501    0  0.00000000000E+00  0.00000000000E+00 -0.21179594005E+04  0.21179594005E+04  0.50400001928E-02 0. -1.
    10030    2    1    2    0    0  0.00000000000E+00  0.00000000000E+00 -0.19758401252E+04  0.22600786759E+04  0.10972745422E+04 0.  0.
        5    1    3    3  502    0 -0.11624239179E+03 -0.44883151801E+02 -0.20883852321E+04  0.20921046242E+04  0.46999998093E+01 0. -1.
       -5    1    3    3    0  502  0.11624239179E+03  0.44883151801E+02  0.11254510690E+03  0.16797405172E+03  0.46999998093E+01 0.  1.
</event>
<event>
 5   0  0.3713158E-03  0.1094237E+04  0.7818609E-02  0.9210827E-01
       -2   -1    0    0    0  501  0.00000000000E+00  0.00000000000E+00  0.39604828300E+03  0.39604828300E+03  0.25500000920E-02 0. -1.
        2   -1    0    0  501    0  0.00000000000E+00  0.00000000000E+00 -0.75581346015E+03  0.75581346016E+03  0.25500000920E-02 0.  1.
    10030    2    1    2    0    0  0.00000000000E+00  0.00000000000E+00 -0.35976517716E+03  0.11518617432E+04  0.10942369454E+04 0.  0.
        4    1    3    3  502    0 -0.16725610023E+03 -0.37220106713E+03  0.20376728585E+03  0.45610410777E+03  0.12699999809E+01 0.  1.
       -4    1    3    3    0  502  0.16725610023E+03  0.37220106713E+03 -0.56353246301E+03  0.69575763539E+03  0.12699999809E+01 0. -1.
</event>
<event>
 5   0  0.2255788E-03  0.1086645E+04  0.7818609E-02  0.9218307E-01
        1   -1    0    0  501    0  0.00000000000E+00  0.00000000000E+00  0.25956295577E+03  0.25956295582E+03  0.50400001928E-02 0.  1.
       -1   -1    0    0    0  501  0.00000000000E+00  0.00000000000E+00 -0.11372945490E+04  0.11372945490E+04  0.50400001928E-02 0. -1.
    10030    2    1    2    0    0  0.00000000000E+00  0.00000000000E+00 -0.87773159327E+03  0.13968575049E+04  0.10866453603E+04 0.  0.
        3    1    3    3  502    0 -0.78064477888E+02  0.30538821789E+03 -0.10077434242E+04  0.10558895992E+04  0.10100000352E+00 0. -1.
       -3    1    3    3    0  502  0.78064477888E+02 -0.30538821789E+03  0.13001183096E+03  0.34096790571E+03  0.10100000352E+00 0.  1.
</event>
<event>
 5   0  0.2298958E-03  0.1086746E+04  0.7818609E-02  0.9218207E-01
        1   -1    0    0  501    0  0.00000000000E+00  0.00000000000E+00  0.91557572286E+03  0.91557572288E+03  0.50400001928E-02 0.  1.
       -1   -1    0    0    0  501  0.00000000000E+00  0.00000000000E+00 -0.32247957929E+03  0.32247957933E+03  0.50400001928E-02 0. -1.
    10030    2    1    2    0    0  0.00000000000E+00  0.00000000000E+00  0.59309614357E+03  0.12380553022E+04  0.10867464726E+04 0.  0.
        1    1    3    3  502    0 -0.14428523334E+03 -0.26773686584E+02 -0.29947710722E+03  0.33349902043E+03  0.50400001928E-02 0. -1.
       -1    1    3    3    0  502  0.14428523334E+03  0.26773686584E+02  0.89257325079E+03  0.90455628178E+03  0.50400001928E-02 0.  1.
</event>
<event>
 5   0  0.3962999E-03  0.1105803E+04  0.7818609E-02  0.9199555E-01
       -2   -1    0    0    0  501  0.00000000000E+00  0.00000000000E+00  0.25391201417E+03  0.25391201418E+03  0.25500000920E-02 0. -1.
        2   -1    0    0  501    0  0.00000000000E+00  0.00000000000E+00 -0.12039596129E+04  0.12039596129E+04  0.25500000920E-02 0.  1.
    10030    2    1    2    0    0  0.00000000000E+00  0.00000000000E+00 -0.95004759878E+03  0.14578716271E+04  0.11058025327E+04 0.  0.
        3    1    3    3  502    0 -0.62288089753E+02 -0.49609303830E+03 -0.16384150743E+03  0.52614841873E+03  0.10100000352E+00 0. -1.
       -3    1    3    3    0  502  0.62288089753E+02  0.49609303830E+03 -0.78620609135E+03  0.93172320839E+03  0.10100000352E+00 0.  1.
</event>
<event>
 5   0  0.2300702E-03  0.1098029E+04  0.7818609E-02  0.9207115E-01
       -1   -1    0    0    0  501  0.00000000000E+00  0.00000000000E+00  0.16577090450E+03  0.16577090458E+03  0.50400001928E-02 0. -1.
        1   -1    0    0  501    0  0.00000000000E+00  0.00000000000E+00 -0.18182732355E+04  0.18182732355E+04  0.50400001928E-02 0.  1.
    10030    2    1    2    0    0  0.00000000000E+00  0.00000000000E+00 -0.16525023310E+04  0.19840441401E+04  0.10980287773E+04 0.  0.
        5    1    3    3  502    0  0.53344815123E+03 -0.10048654425E+03 -0.97448681767E+03  0.11154869445E+04  0.46999998093E+01 0. -1.
       -5    1    3    3    0  502 -0.53344815123E+03  0.10048654425E+03 -0.67801551334E+03  0.86855719555E+03  0.46999998093E+01 0.  1.
</event>
<event>
 5   0  0.2255788E-03  0.1108182E+04  0.7818609E-02  0.9197254E-01
       -1   -1    0    0    0  501  0.00000000000E+00  0.00000000000E+00  0.22249909809E+03  0.22249909815E+03  0.50400001928E-02 0. -1.
        1   -1    0    0  501    0  0.00000000000E+00  0.00000000000E+00 -0.13798557518E+04  0.13798557518E+04  0.50400001928E-02 0.  1.
    10030    2    1    2    0    0  0.00000000000E+00  0.00000000000E+00 -0.11573566537E+04  0.16023548500E+04  0.11081816824E+04 0.  0.
        3    1    3    3  502    0  0.26125303620E+02  0.54959289918E+03 -0.48406352477E+03  0.73283858559E+03  0.10100000352E+00 0.  1.
       -3    1    3    3    0  502 -0.26125303620E+02 -0.54959289918E+03 -0.67329312894E+03  0.86951626437E+03  0.10100000352E+00 0. -1.
</event>
<event>
 5   0  0.2257667E-03  0.1101747E+04  0.7818609E-02  0.9203491E-01
       -1   -1    0    0    0  501  0.00000000000E+00  0.00000000000E+00  0.68856031789E+03  0.68856031791E+03  0.50400001928E-02 0. -1.
        1   -1    0    0  501    0  0.00000000000E+00  0.00000000000E+00 -0.44071912014E+03  0.44071912017E+03  0.50400001928E-02 0.  1.
    10030    2    1    2    0    0  0.00000000000E+00  0.00000000000E+00  0.24784119775E+03  0.11292794381E+04  0.11017471534E+04 0.  0.
        4    1    3    3  502    0  0.25192058853E+03  0.34697611332E+03  0.47840061099E+03  0.64243689467E+03  0.12699999809E+01 0. -1.
       -4    1    3    3    0  502 -0.25192058853E+03 -0.34697611332E+03 -0.23055941323E+03  0.48684254341E+03  0.12699999809E+01 0.  1.
</event>
<event>
 5   0  0.2300702E-03  0.1107940E+04  0.7818609E-02  0.9197487E-01
        1   -1    0    0  501    0  0.00000000000E+00  0.00000000000E+00  0.11822757782E+04  0.11822757783E+04  0.50400001928E-02 0. -1.
       -1   -1    0    0    0  501  0.00000000000E+00  0.00000000000E+00 -0.25956950983E+03  0.25956950988E+03  0.50400001928E-02 0.  1.
    10030    2    1    2    0    0  0.00000000000E+00  0.00000000000E+00  0.92270626841E+03  0.14418452881E+04  0.11079399700E+04 0.  0.
        5    1    3    3  502    0  0.24550350491E+03 -0.19168422992E+03 -0.13479283752E+03  0.33942011427E+03  0.46999998093E+01 0.  1.
       -5    1    3    3    0  502 -0.24550350491E+03  0.19168422992E+03  0.10574991059E+04  0.11024251739E+04  0.46999998093E+01 0. -1.
</event>
<event>
 5   0  0.2257667E-03  0.1091442E+04  0.7818609E-02  0.9213573E-01
       -1   -1    0    0    0  501  0.00000000000E+00  0.00000000000E+00  0.50731633490E+03  0.50731633492E+03  0.50400001928E-02 0. -1.
        1   -1    0    0  501    0  0.00000000000E+00  0.00000000000E+00 -0.58703325991E+03  0.58703325994E+03  0.50400001928E-02 0.  1.
    10030    2    1    2    0    0  0.00000000000E+00  0.00000000000E+00 -0.79716925017E+02  0.10943495949E+04  0.10914422787E+04 0.  0.
        4    1    3    3  502    0  0.35215649618E+03 -0.41661841418E+03 -0.54893343360E+02  0.54826999998E+03  0.12699999809E+01 0. -1.
       -4    1    3    3    0  502 -0.35215649618E+03  0.41661841418E+03 -0.24823581658E+02  0.54607959488E+03  0.12699999809E+01 0.  1.
</event>
<event>
 5   0  0.3992414E-03  0.1102057E+04  0.7818609E-02  0.9203189E-01
       -2   -1    0    0    0  501  0.00000000000E+00  0.00000000000E+00  0.24780161761E+03  0.24780161762E+03  0.25500000920E-02 0. -1.
        2   -1    0    0  501    0  0.00000000000E+00  0.00000000000E+00 -0.12253042834E+04  0.12253042834E+04  0.25500000920E-02 0.  1.
    10030    2    1    2    0    0  0.00000000000E+00  0.00000000000E+00 -0.97750266581E+03  0.14731059010E+04  0.11020569559E+04 0.  0.
        1    1    3    3  502    0 -0.52831752025E+03 -0.13933062201E+03 -0.58420954006E+03  0.79989575018E+03  0.50400001928E-02 0.  1.
       -1    1    3    3    0  502  0.52831752025E+03  0.13933062201E+03 -0.39329312574E+03  0.67321015085E+03  0.50400001928E-02 0. -1.
</event>
<event>
 5   0  0.2257667E-03  0.1117464E+04  0.7818609E-02  0.9188335E-01
       -1   -1    0    0    0  501  0.00000000000E+00  0.00000000000E+00  0.21669943770E+03  0.21669943776E+03  0.50400001928E-02 0.  1.
        1   -1    0    0  501    0  0.00000000000E+00  0.00000000000E+00 -0.14406198517E+04  0.14406198517E+04  0.50400001928E-02 0. -1.
    10030    2    1    2    0    0  0.00000000000E+00  0.00000000000E+00 -0.12239204140E+04  0.16573192895E+04  0.11174641146E+04 0.  0.
        4    1    3    3  502    0  0.11126099117E+03  0.11985155136E+03  0.18040856401E+03  0.24350003160E+03  0.12699999809E+01 0.  1.
       -4    1    3    3    0  502 -0.11126099117E+03 -0.11985155136E+03 -0.14043289780E+04  0.14138192579E+04  0.12699999809E+01 0. -1.
</event>
<event>
 5   0  0.3962999E-03  0.1088958E+04  0.7818609E-02  0.9216021E-01
        2   -1    0    0  501    0  0.00000000000E+00  0.00000000000E+00  0.15748424488E+04  0.15748424488E+04  0.25500000920E-02 0. -1.
       -2   -1    0    0    0  501  0.00000000000E+00  0.00000000000E+00 -0.18824575616E+03  0.18824575618E+03  0.25500000920E-02 0.  1.
    10030    2    1    2    0    0  0.00000000000E+00  0.00000000000E+00  0.13865966926E+04  0.17630882050E+04  0.10889580481E+04 0.  0.
        3    1    3    3  502    0  0.97670488376E+02  0.26739413825E+03  0.14447553487E+04  0.14725342703E+04  0.10100000352E+00 0. -1.
       -3    1    3    3    0  502 -0.97670488376E+02 -0.26739413825E+03 -0.58158656065E+02  0.29055393466E+03  0.10100000352E+00 0.  1.
</event>
<event>
 5   0  0.3713158E-03  0.1104414E+04  0.7818609E-02  0.9200900E-01
       -2   -1    0    0    0  501  0.00000000000E+00  0.00000000000E+00  0.28956425222E+03  0.28956425223E+03  0.25500000920E-02 0. -1.
        2   -1    0    0  501    0  0.00000000000E+00  0.00000000000E+00 -0.10530745169E+04  0.10530745169E+04  0.25500000920E-02 0.  1.
    10030    2    1    2    0    0  0.00000000000E+00  0.00000000000E+00 -0.76351026471E+03  0.13426387692E+04  0.11044142973E+04 0.  0.
        4    1    3    3  502    0 -0.21271350517E+03  0.34276642578E+03  0.76671383258E+02  0.41062875183E+03  0.12699999809E+01 0. -1.
       -4    1    3    3    0  502  0.21271350517E+03 -0.34276642578E+03 -0.84018164797E+03  0.93201001733E+03  0.12699999809E+01 0.  1.
</event>
<event>
 5   0  0.2257667E-03  0.1096925E+04  0.7818609E-02  0.9208194E-01
       -1   -1    0    0    0  501  0.00000000000E+00  0.00000000000E+00  0.40052734633E+03  0.40052734636E+03  0.50400001928E-02 0. -1.
        1   -1    0    0  501    0  0.00000000000E+00  0.00000000000E+00 -0.75103830267E+03  0.75103830268E+03  0.50400001928E-02 0.  1.
    10030    2    1    2    0    0  0.00000000000E+00  0.00000000000E+00 -0.35051095634E+03  0.11515656490E+04  0.10969254822E+04 0.  0.
        4    1    3    3  502    0 -0.49800044195E+03  0.22624801618E+03 -0.21747255275E+03  0.58863276251E+03  0.12699999809E+01 0. -1.
       -4    1    3    3    0  502  0.49800044195E+03 -0.22624801618E+03 -0.13303840359E+03  0.56293288653E+03  0.12699999809E+01 0.  1.
</event>
<event>
 5   0  0.2298958E-03  0.1094548E+04  0.7818609E-02  0.9210522E-01
        1   -1    0    0  501    0  0.00000000000E+00  0.00000000000E+00  0.86286826103E+03  0.86286826105E+03  0.50400001928E-02 0.  1.
       -1   -1    0    0    0  501  0.00000000000E+00  0.00000000000E+00 -0.34710863144E+03  0.34710863148E+03  0.50400001928E-02 0. -1.
    10030    2    1    2    0    0  0.00000000000E+00  0.00000000000E+00  0.51575962959E+03  0.12099768925E+04  0.10945483475E+04 0.  0.
        1    1    3    3  502    0 -0.49699596859E+03 -0.10972328657E+03  0.48025226455E+03  0.69977598561E+03  0.50400001928E-02 0.  1.
       -1    1    3    3    0  502  0.49699596859E+03  0.10972328657E+03  0.35507365042E+02  0.51020090691E+03  0.50400001928E-02 0. -1.
</event>
<event>
 5   0  0.3744875E-03  0.1123225E+04  0.7818609E-02  0.9182846E-01
       -2   -1    0    0    0  501  0.00000000000E+00  0.00000000000E+00  0.29510462524E+03  0.29510462525E+03  0.25500000920E-02 0.  1.
        2   -1    0    0  501    0  0.00000000000E+00  0.00000000000E+00 -0.10688034075E+04  0.10688034075E+04  0.25500000920E-02 0. -1.
    10030    2    1    2    0    0  0.00000000000E+00  0.00000000000E+00 -0.77369878222E+03  0.13639080327E+04  0.11232254075E+04 0.  0.
        2    1    3    3  502    0 -0.30471931142E+02 -0.14602070544E+03  0.27061044068E+03  0.30899934565E+03  0.25500000920E-02 0.  1.
       -2    1    3    3    0  502  0.30471931142E+02  0.14602070544E+03 -0.10443092229E+04  0.10549086871E+04  0.25500000920E-02 0. -1.
</event>
<event>
 5   0  0.3962999E-03  0.1102146E+04  0.7818609E-02  0.9203103E-01
       -2   -1    0    0    0  501  0.00000000000E+00  0.00000000000E+00  0.17465825269E+03  0.17465825271E+03  0.25500000920E-02 0. -1.
        2   -1    0    0  501    0  0.00000000000E+00  0.00000000000E+00 -0.17387172890E+04  0.17387172890E+04  0.25500000920E-02 0.  1.
    10030    2    1    2    0    0  0.00000000000E+00  0.00000000000E+00 -0.15640590363E+04  0.19133755417E+04  0.11021457683E+04 0.  0.
        3    1    3    3  502    0 -0.44947693646E+03 -0.31383022184E+03 -0.68440277106E+03  0.87688430695E+03  0.10100000352E+00 0.  1.
       -3    1    3    3    0  502  0.44947693646E+03  0.31383022184E+03 -0.87965626527E+03  0.10364912348E+04  0.10100000352E+00 0. -1.
</event>
<event>
 5   0  0.2257667E-03  0.1163231E+04  0.7818609E-02  0.9145663E-01
        1   -1    0    0  501    0  0.00000000000E+00  0.00000000000E+00  0.44170034863E+03  0.44170034866E+03  0.50400001928E-02 0.  1.
       -1   -1    0    0    0  501  0.00000000000E+00  0.00000000000E+00 -0.76585111005E+03  0.76585111007E+03  0.50400001928E-02 0. -1.
    10030    2    1    2    0    0  0.00000000000E+00  0.00000000000E+00 -0.32415076142E+03  0.12075514587E+04  0.11632311934E+04 0.  0.
        4    1    3    3  502    0 -0.35714256215E+03  0.36799645171E+03  0.12279377784E+03  0.52730647914E+03  0.12699999809E+01 0.  1.
       -4    1    3    3    0  502  0.35714256215E+03 -0.36799645171E+03 -0.44694453926E+03  0.68024497958E+03  0.12699999809E+01 0. -1.
</event>
<event>
 5   0  0.2374100E-03  0.1097544E+04  0.7818609E-02  0.9207589E-01
        1   -1    0    0  501    0  0.00000000000E+00  0.00000000000E+00  0.51348905262E+03  0.51348905264E+03  0.50400001928E-02 0. -1.
       -1   -1    0    0    0  501  0.00000000000E+00  0.00000000000E+00 -0.58647972311E+03  0.58647972313E+03  0.50400001928E-02 0.  1.
    10030    2    1    2    0    0  0.00000000000E+00  0.00000000000E+00 -0.72990670490E+02  0.10999687758E+04  0.10975443817E+04 0.  0.
        2    1    3    3  502    0 -0.28296496476E+03  0.32309073946E+03  0.30586445637E+03  0.52726640599E+03  0.25500000920E-02 0. -1.
       -2    1    3    3    0  502  0.28296496476E+03 -0.32309073946E+03 -0.37885512686E+03  0.57270236979E+03  0.25500000920E-02 0.  1.
</event>
<event>
 5   0  0.2298958E-03  0.1088292E+04  0.7818609E-02  0.9216679E-01
       -1   -1    0    0    0  501  0.00000000000E+00  0.00000000000E+00  0.24094699137E+03  0.24094699142E+03  0.50400001928E-02 0. -1.
        1   -1    0    0  501    0  0.00000000000E+00  0.00000000000E+00 -0.12288804707E+04  0.12288804707E+04  0.50400001928E-02 0.  1.
    10030    2    1    2    0    0  0.00000000000E+00  0.00000000000E+00 -0.98793347930E+03  0.14698274621E+04  0.10882923361E+04 0.  0.
        1    1    3    3  502    0  0.33591516713E+02  0.15366624149E+03 -0.11975060668E+04  0.12077924010E+04  0.50400001928E-02 0.  1.
       -1    1    3    3    0  502 -0.33591516713E+02 -0.15366624149E+03  0.20957258754E+03  0.26203506110E+03  0.50400001928E-02 0. -1.
</event>
<event>
 5   0  0.3744875E-03  0.9417124E+03  0.7818609E-02  0.9374890E-01
       -2   -1    0    0    0  501  0.00000000000E+00  0.00000000000E+00  0.38285017997E+03  0.38285017998E+03  0.25500000920E-02 0. -1.
        2   -1    0    0  501    0  0.00000000000E+00  0.00000000000E+00 -0.57909226004E+03  0.57909226005E+03  0.25500000920E-02 0.  1.
    10030    2    1    2    0    0  0.00000000000E+00  0.00000000000E+00 -0.19624208007E+03  0.96194244003E+03  0.94171243166E+03 0.  0.
        2    1    3    3  502    0 -0.35844788444E+02 -0.10812187854E+03 -0.56480580218E+03  0.57617773617E+03  0.25500000920E-02 0.  1.
       -2    1    3    3    0  502  0.35844788444E+02  0.10812187854E+03  0.36856372211E+03  0.38576470386E+03  0.25500000920E-02 0. -1.
</event>
<event>
 5   0  0.2300702E-03  0.1091444E+04  0.7818609E-02  0.9213572E-01
       -1   -1    0    0    0  501  0.00000000000E+00  0.00000000000E+00  0.29410822839E+03  0.29410822843E+03  0.50400001928E-02 0.  1.
        1   -1    0    0  501    0  0.00000000000E+00  0.00000000000E+00 -0.10125948113E+04  0.10125948113E+04  0.50400001928E-02 0. -1.
    10030    2    1    2    0    0  0.00000000000E+00  0.00000000000E+00 -0.71848658287E+03  0.13067030397E+04  0.10914439354E+04 0.  0.
        5    1    3    3  502    0  0.24104961502E+03  0.40123497672E+03 -0.69509817507E+03  0.83802027805E+03  0.46999998093E+01 0.  1.
       -5    1    3    3    0  502 -0.24104961502E+03 -0.40123497672E+03 -0.23388407801E+02  0.46868276165E+03  0.46999998093E+01 0. -1.
</event>
<event>
 5   0  0.2255788E-03  0.1095988E+04  0.7818609E-02  0.9209111E-01
       -1   -1    0    0    0  501  0.00000000000E+00  0.00000000000E+00  0.31836162756E+03  0.31836162760E+03  0.50400001928E-02 0.  1.
        1   -1    0    0  501    0  0.00000000000E+00  0.00000000000E+00 -0.94325822650E+03  0.94325822651E+03  0.50400001928E-02 0. -1.
    10030    2    1    2    0    0  0.00000000000E+00  0.00000000000E+00 -0.62489659894E+03  0.12616198541E+04  0.10959876354E+04 0.  0.
        3    1    3    3  502    0 -0.80576815809E+02  0.37267426621E+03  0.14063126755E+03  0.40639376908E+03  0.10100000352E+00 0.  1.
       -3    1    3    3    0  502  0.80576815809E+02 -0.37267426621E+03 -0.76552786649E+03  0.85522608502E+03  0.10100000352E+00 0. -1.
</event>
<event>
 5   0  0.3962999E-03  0.1194535E+04  0.7818609E-02  0.9117654E-01
       -2   -1    0    0    0  501  0.00000000000E+00  0.00000000000E+00  0.32628520454E+03  0.32628520455E+03  0.25500000920E-02 0.  1.
        2   -1    0    0  501    0  0.00000000000E+00  0.00000000000E+00 -0.10933023954E+04  0.10933023954E+04  0.25500000920E-02 0. -1.
    10030    2    1    2    0    0  0.00000000000E+00  0.00000000000E+00 -0.76701719089E+03  0.14195876000E+04  0.11945348814E+04 0.  0.
        3    1    3    3  502    0 -0.34136008323E+03 -0.41777826706E+03 -0.78983058825E+02  0.54525564704E+03  0.10100000352E+00 0.  1.
       -3    1    3    3    0  502  0.34136008323E+03  0.41777826706E+03 -0.68803413207E+03  0.87433195294E+03  0.10100000352E+00 0. -1.
</event>
<event>
 5   0  0.3962999E-03  0.1124780E+04  0.7818609E-02  0.9181371E-01
        2   -1    0    0  501    0  0.00000000000E+00  0.00000000000E+00  0.12729594219E+04  0.12729594219E+04  0.25500000920E-02 0. -1.
       -2   -1    0    0    0  501  0.00000000000E+00  0.00000000000E+00 -0.24846228846E+03  0.24846228847E+03  0.25500000920E-02 0.  1.
    10030    2    1    2    0    0  0.00000000000E+00  0.00000000000E+00  0.10244971334E+04  0.15214217103E+04  0.11247798204E+04 0.  0.
        3    1    3    3  502    0  0.43069054879E+03  0.32179452844E+03  0.28901658477E+03  0.61039058300E+03  0.10100000352E+00 0.  1.
       -3    1    3    3    0  502 -0.43069054879E+03 -0.32179452844E+03  0.73548054864E+03  0.91103112734E+03  0.10100000352E+00 0. -1.
</event>
<event>
 5   0  0.2298958E-03  0.1104821E+04  0.7818609E-02  0.9200506E-01
       -1   -1    0    0    0  501  0.00000000000E+00  0.00000000000E+00  0.37606265742E+03  0.37606265745E+03  0.50400001928E-02 0. -1.
        1   -1    0    0  501    0  0.00000000000E+00  0.00000000000E+00 -0.81145347979E+03  0.81145347981E+03  0.50400001928E-02 0.  1.
    10030    2    1    2    0    0  0.00000000000E+00  0.00000000000E+00 -0.43539082237E+03  0.11875161373E+04  0.11048209846E+04 0.  0.
        1    1    3    3  502    0 -0.30016949992E+03  0.87646123801E+02  0.27177284091E+03  0.41429946751E+03  0.50400001928E-02 0. -1.
       -1    1    3    3    0  502  0.30016949992E+03 -0.87646123801E+02 -0.70716366328E+03  0.77321666976E+03  0.50400001928E-02 0.  1.
</event>
<event>
 5   0  0.3992414E-03  0.1150307E+04  0.7818609E-02  0.9157501E-01
        2   -1    0    0  501    0  0.00000000000E+00  0.00000000000E+00  0.29073756000E+03  0.29073756001E+03  0.25500000920E-02 0. -1.
       -2   -1    0    0    0  501  0.00000000000E+00  0.00000000000E+00 -0.11378007678E+04  0.11378007678E+04  0.25500000920E-02 0.  1.
    10030    2    1    2    0    0  0.00000000000E+00  0.00000000000E+00 -0.84706320776E+03  0.14285383278E+04  0.11503067747E+04 0.  0.
        1    1    3    3  502    0 -0.23045673655E+03  0.33928899154E+03  0.77198714137E+02  0.41735712369E+03  0.50400001928E-02 0. -1.
       -1    1    3    3    0  502  0.23045673655E+03 -0.33928899154E+03 -0.92426192190E+03  0.10111812041E+04  0.50400001928E-02 0.  1.
</event>
<event>
 5   0  0.2374100E-03  0.1107771E+04  0.7818609E-02  0.9197650E-01
        1   -1    0    0  501    0  0.00000000000E+00  0.00000000000E+00  0.54883544309E+03  0.54883544311E+03  0.50400001928E-02 0.  1.
       -1   -1    0    0    0  501  0.00000000000E+00  0.00000000000E+00 -0.55898225159E+03  0.55898225161E+03  0.50400001928E-02 0. -1.
    10030    2    1    2    0    0  0.00000000000E+00  0.00000000000E+00 -0.10146808501E+02  0.11078176947E+04  0.11077712250E+04 0.  0.
        2    1    3    3  502    0  0.11812394751E+03  0.18248243484E+03 -0.51454169637E+03  0.55857520828E+03  0.25500000920E-02 0. -1.
       -2    1    3    3    0  502 -0.11812394751E+03 -0.18248243484E+03  0.50439488787E+03  0.54924248644E+03  0.25500000920E-02 0.  1.
</event>
<event>
 5   0  0.2298958E-03  0.1094190E+04  0.7818609E-02  0.9210873E-01
        1   -1    0    0  501    0  0.00000000000E+00  0.00000000000E+00  0.13841184547E+04  0.13841184547E+04  0.50400001928E-02 0. -1.
       -1   -1    0    0    0  501  0.00000000000E+00  0.00000000000E+00 -0.21624823533E+03  0.21624823539E+03  0.50400001928E-02 0.  1.
    10030    2    1    2    0    0  0.00000000000E+00  0.00000000000E+00  0.11678702194E+04  0.16003666901E+04  0.10941904283E+04 0.  0.
        1    1    3    3  502    0  0.40922697055E+03 -0.20811292721E+03  0.10191314547E+04  0.11177685923E+04  0.50400001928E-02 0. -1.
       -1    1    3    3    0  502 -0.40922697055E+03  0.20811292721E+03  0.14873876471E+03  0.48259809785E+03  0.50400001928E-02 0.  1.
</event>
<event>
 5   0  0.3748901E-03  0.1106767E+04  0.7818609E-02  0.9198621E-01
        2   -1    0    0  501    0  0.00000000000E+00  0.00000000000E+00  0.27873525634E+03  0.27873525635E+03  0.25500000920E-02 0.  1.
       -2   -1    0    0    0  501  0.00000000000E+00  0.00000000000E+00 -0.10986528555E+04  0.10986528555E+04  0.25500000920E-02 0. -1.
    10030    2    1    2    0    0  0.00000000000E+00  0.00000000000E+00 -0.81991759920E+03  0.13773881119E+04  0.11067669770E+04 0.  0.
        5    1    3    3  502    0  0.27481185629E+03 -0.39477620190E+03 -0.69494908361E+02  0.48602617032E+03  0.46999998093E+01 0.  1.
       -5    1    3    3    0  502 -0.27481185629E+03  0.39477620190E+03 -0.75042269084E+03  0.89136194157E+03  0.46999998093E+01 0. -1.
</event>
<event>
 5   0  0.3992414E-03  0.1107139E+04  0.7818609E-02  0.9198261E-01
        2   -1    0    0  501    0  0.00000000000E+00  0.00000000000E+00  0.11504997397E+04  0.11504997397E+04  0.25500000920E-02 0. -1.
       -2   -1    0    0    0  501  0.00000000000E+00  0.00000000000E+00 -0.26635333948E+03  0.26635333949E+03  0.25500000920E-02 0.  1.
    10030    2    1    2    0    0  0.00000000000E+00  0.00000000000E+00  0.88414640026E+03  0.14168530792E+04  0.11071394632E+04 0.  0.
        1    1    3    3  502    0  0.18671274960E+03  0.51800108152E+03  0.51505976397E+03  0.75397170491E+03  0.50400001928E-02 0.  1.
       -1    1    3    3    0  502 -0.18671274960E+03 -0.51800108152E+03  0.36908663629E+03  0.66288137433E+03  0.50400001928E-02 0. -1.
</event>
<event>
 5   0  0.2374100E-03  0.9584618E+03  0.7818609E-02  0.9355314E-01
       -1   -1    0    0    0  501  0.00000000000E+00  0.00000000000E+00  0.27479740837E+03  0.27479740841E+03  0.50400001928E-02 0.  1.
        1   -1    0    0  501    0  0.00000000000E+00  0.00000000000E+00 -0.83575121635E+03  0.83575121637E+03  0.50400001928E-02 0. -1.
    10030    2    1    2    0    0  0.00000000000E+00  0.00000000000E+00 -0.56095380798E+03  0.11105486248E+04  0.95846182674E+03 0.  0.
        2    1    3    3  502    0 -0.48998145257E+02 -0.99472837418E+02  0.25972880410E+03  0.28240877342E+03  0.25500000920E-02 0.  1.
       -2    1    3    3    0  502  0.48998145257E+02  0.99472837418E+02 -0.82068261208E+03  0.82813985135E+03  0.25500000920E-02 0. -1.
</event>
<event>
 5   0  0.2374100E-03  0.1104987E+04  0.7818609E-02  0.9200345E-01
        1   -1    0    0  501    0  0.00000000000E+00  0.00000000000E+00  0.18223679235E+03  0.18223679242E+03  0.50400001928E-02 0.  1.
       -1   -1    0    0    0  501  0.00000000000E+00  0.00000000000E+00 -0.16750138081E+04  0.16750138081E+04  0.50400001928E-02 0. -1.
    10030    2    1    2    0    0  0.00000000000E+00  0.00000000000E+00 -0.14927770157E+04  0.18572506005E+04  0.11049871376E+04 0.  0.
        2    1    3    3  502    0 -0.37436356033E+03  0.22514049403E+03 -0.17786210102E+03  0.47166857468E+03  0.25500000920E-02 0. -1.
       -2    1    3    3    0  502  0.37436356033E+03 -0.22514049403E+03 -0.13149149147E+04  0.13855820258E+04  0.25500000920E-02 0.  1.
</event>
<event>
 5   0  0.3744875E-03  0.1109647E+04  0.7818609E-02  0.9195840E-01
        2   -1    0    0  501    0  0.00000000000E+00  0.00000000000E+00  0.11890071841E+04  0.11890071841E+04  0.25500000920E-02 0.  1.
       -2   -1    0    0    0  501  0.00000000000E+00  0.00000000000E+00 -0.25889569701E+03  0.25889569702E+03  0.25500000920E-02 0. -1.
    10030    2    1    2    0    0  0.00000000000E+00  0.00000000000E+00  0.93011148710E+03  0.14479028811E+04  0.11096465089E+04 0.  0.
        2    1    3    3  502    0 -0.47366951030E+03 -0.24805580652E+03  0.65830472811E+03  0.84809174220E+03  0.25500000920E-02 0.  1.
       -2    1    3    3    0  502  0.47366951030E+03  0.24805580652E+03  0.27180675899E+03  0.59981113892E+03  0.25500000920E-02 0. -1.
</event>
<event>
 5   0  0.1508625E-03  0.1099009E+04  0.7818609E-02  0.9206158E-01
        3   -1    0    0  501    0  0.00000000000E+00  0.00000000000E+00  0.12872688111E+04  0.12872688150E+04  0.10100000352E+00 0.  1.
       -3   -1    0    0    0  501  0.00000000000E+00  0.00000000000E+00 -0.23457048918E+03  0.23457051093E+03  0.10100000352E+00 0. -1.
    10030    2    1    2    0    0  0.00000000000E+00  0.00000000000E+00  0.10526983219E+04  0.15218393260E+04  0.10990091797E+04 0.  0.
        1    1    3    3  502    0  0.44933419997E+03 -0.17120696467E+03  0.89465355939E+03  0.10156859945E+04  0.50400001928E-02 0.  1.
       -1    1    3    3    0  502 -0.44933419997E+03  0.17120696467E+03  0.15804476251E+03  0.50615333151E+03  0.50400001928E-02 0. -1.
</event>
<event>
 5   0  0.2255788E-03  0.1087540E+04  0.7818609E-02  0.9217422E-01
        1   -1    0    0  501    0  0.00000000000E+00  0.00000000000E+00  0.73961689128E+03  0.73961689130E+03  0.50400001928E-02 0.  1.
       -1   -1    0    0    0  501  0.00000000000E+00  0.00000000000E+00 -0.39978242051E+03  0.39978242054E+03  0.50400001928E-02 0. -1.
    10030    2    1    2    0    0  0.00000000000E+00  0.00000000000E+00  0.33983447077E+03  0.11393993118E+04  0.10875400334E+04 0.  0.
        3    1    3    3  502    0 -0.50760885012E+02  0.51327912199E+03 -0.10496715899E+02  0.51588982910E+03  0.10100000352E+00 0. -1.
       -3    1    3    3    0  502  0.50760885012E+02 -0.51327912199E+03  0.35033118667E+03  0.62350948275E+03  0.10100000352E+00 0.  1.
</event>
<event>
 5   0  0.3748901E-03  0.1096518E+04  0.7818609E-02  0.9208593E-01
        2   -1    0    0  501    0  0.00000000000E+00  0.00000000000E+00  0.19538130540E+04  0.19538130540E+04  0.25500000920E-02 0.  1.
       -2   -1    0    0    0  501  0.00000000000E+00  0.00000000000E+00 -0.15384675703E+03  0.15384675705E+03  0.25500000920E-02 0. -1.
    10030    2    1    2    0    0  0.00000000000E+00  0.00000000000E+00  0.17999662970E+04  0.21076598110E+04  0.10965177650E+04 0.  0.
        5    1    3    3  502    0 -0.39644769013E+02 -0.16477022357E+03 -0.10219594727E+03  0.19795715678E+03  0.46999998093E+01 0. -1.
       -5    1    3    3    0  502  0.39644769013E+02  0.16477022357E+03  0.19021622442E+04  0.19097026543E+04  0.46999998093E+01 0.  1.
</event>
<event>
 5   0  0.2255788E-03  0.1106462E+04  0.7818609E-02  0.9198916E-01
       -1   -1    0    0    0  501  0.00000000000E+00  0.00000000000E+00  0.27001560072E+03  0.27001560077E+03  0.50400001928E-02 0.  1.
        1   -1    0    0  501    0  0.00000000000E+00  0.00000000000E+00 -0.11335071229E+04  0.11335071229E+04  0.50400001928E-02 0. -1.
    10030    2    1    2    0    0  0.00000000000E+00  0.00000000000E+00 -0.86349152222E+03  0.14035227237E+04  0.11064621218E+04 0.  0.
        3    1    3    3  502    0 -0.33041138395E+03 -0.38298074411E+03 -0.14748594364E+03  0.52687574131E+03  0.10100000352E+00 0.  1.
       -3    1    3    3    0  502  0.33041138395E+03  0.38298074411E+03 -0.71600557858E+03  0.87664698241E+03  0.10100000352E+00 0. -1.
</event>
<event>
 5   0  0.3744875E-03  0.1088487E+04  0.7818609E-02  0.9216486E-01
        2   -1    0    0  501    0  0.00000000000E+00  0.00000000000E+00  0.11577294169E+04  0.11577294169E+04  0.25500000920E-02 0.  1.
       -2   -1    0    0    0  501  0.00000000000E+00  0.00000000000E+00 -0.25584650859E+03  0.25584650860E+03  0.25500000920E-02 0. -1.
    10030    2    1    2    0    0  0.00000000000E+00  0.00000000000E+00  0.90188290835E+03  0.14135759256E+04  0.10884870771E+04 0.  0.
        2    1    3    3  502    0 -0.51453341260E+03 -0.17501511123E+03  0.41361522543E+03  0.68297326196E+03  0.25500000920E-02 0. -1.
       -2    1    3    3    0  502  0.51453341260E+03  0.17501511123E+03  0.48826768292E+03  0.73060266359E+03  0.25500000920E-02 0.  1.
</event>
<event>
 5   0  0.3744875E-03  0.1060764E+04  0.7818609E-02  0.9244301E-01
        2   -1    0    0  501    0  0.00000000000E+00  0.00000000000E+00  0.85879973860E+03  0.85879973861E+03  0.25500000920E-02 0.  1.
       -2   -1    0    0    0  501  0.00000000000E+00  0.00000000000E+00 -0.32755601125E+03  0.32755601126E+03  0.25500000920E-02 0. -1.
    10030    2    1    2    0    0  0.00000000000E+00  0.00000000000E+00  0.53124372736E+03  0.11863557499E+04  0.10607639075E+04 0.  0.
        2    1    3    3  502    0 -0.44475808174E+03  0.17794382390E+03  0.52024161693E+03  0.70719523169E+03  0.25500000920E-02 0. -1.
       -2    1    3    3    0  502  0.44475808174E+03 -0.17794382390E+03  0.11002110428E+02  0.47916051818E+03  0.25500000920E-02 0.  1.
</event>
<event>
 5   0  0.2298958E-03  0.1120461E+04  0.7818609E-02  0.9185475E-01
        1   -1    0    0  501    0  0.00000000000E+00  0.00000000000E+00  0.16018690670E+04  0.16018690670E+04  0.50400001928E-02 0. -1.
       -1   -1    0    0    0  501  0.00000000000E+00  0.00000000000E+00 -0.19593259310E+03  0.19593259317E+03  0.50400001928E-02 0.  1.
    10030    2    1    2    0    0  0.00000000000E+00  0.00000000000E+00  0.14059364739E+04  0.17978016602E+04  0.11204612625E+04 0.  0.
        1    1    3    3  502    0  0.30762211343E+03 -0.27601666747E+03  0.13098113200E+04  0.13734708804E+04  0.50400001928E-02 0. -1.
       -1    1    3    3    0  502 -0.30762211343E+03  0.27601666747E+03  0.96125153896E+02  0.42433077974E+03  0.50400001928E-02 0.  1.
</event>
<event>
 5   0  0.3962999E-03  0.1101193E+04  0.7818609E-02  0.9204029E-01
       -2   -1    0    0    0  501  0.00000000000E+00  0.00000000000E+00  0.29877516160E+03  0.29877516161E+03  0.25500000920E-02 0.  1.
        2   -1    0    0  501    0  0.00000000000E+00  0.00000000000E+00 -0.10146652455E+04  0.10146652455E+04  0.25500000920E-02 0. -1.
    10030    2    1    2    0    0  0.00000000000E+00  0.00000000000E+00 -0.71589008390E+03  0.13134404071E+04  0.11011934847E+04 0.  0.
        3    1    3    3  502    0  0.41997125686E+03  0.35419879116E+03 -0.40134714579E+03  0.68037650010E+03  0.10100000352E+00 0.  1.
       -3    1    3    3    0  502 -0.41997125686E+03 -0.35419879116E+03 -0.31454293811E+03  0.63306390701E+03  0.10100000352E+00 0. -1.
</event>
<event>
 5   0  0.3744875E-03  0.1132556E+04  0.7818609E-02  0.9174029E-01
       -2   -1    0    0    0  501  0.00000000000E+00  0.00000000000E+00  0.90792254812E+03  0.90792254813E+03  0.25500000920E-02 0. -1.
        2   -1    0    0  501    0  0.00000000000E+00  0.00000000000E+00 -0.35319160381E+03  0.35319160382E+03  0.25500000920E-02 0.  1.
    10030    2    1    2    0    0  0.00000000000E+00  0.00000000000E+00  0.55473094432E+03  0.12611141519E+04  0.11325557309E+04 0.  0.
        2    1    3    3  502    0 -0.33164495664E+02 -0.63831380497E+02 -0.34808359187E+03  0.35543848391E+03  0.25500000920E-02 0.  1.
       -2    1    3    3    0  502  0.33164495664E+02  0.63831380497E+02  0.90281453619E+03  0.90567566803E+03  0.25500000920E-02 0. -1.
</event>
<event>
 5   0  0.2255788E-03  0.1104672E+04  0.7818609E-02  0.9200650E-01
       -1   -1    0    0    0  501  0.00000000000E+00  0.00000000000E+00  0.30401382373E+03  0.30401382377E+03  0.50400001928E-02 0.  1.
        1   -1    0    0  501    0  0.00000000000E+00  0.00000000000E+00 -0.10034915264E+04  0.10034915264E+04  0.50400001928E-02 0. -1.
    10030    2    1    2    0    0  0.00000000000E+00  0.00000000000E+00 -0.69947770268E+03  0.13075053502E+04  0.11046724330E+04 0.  0.
        3    1    3    3  502    0 -0.41279662208E+02 -0.18513830368E+03  0.26425332898E+03  0.32528454326E+03  0.10100000352E+00 0.  1.
       -3    1    3    3    0  502  0.41279662208E+02  0.18513830368E+03 -0.96373103167E+03  0.98222080695E+03  0.10100000352E+00 0. -1.
</event>
<event>
 5   0  0.2255788E-03  0.1100927E+04  0.7818609E-02  0.9204289E-01
        1   -1    0    0  501    0  0.00000000000E+00  0.00000000000E+00  0.10534373830E+04  0.10534373830E+04  0.50400001928E-02 0. -1.
       -1   -1    0    0    0  501  0.00000000000E+00  0.00000000000E+00 -0.28763950423E+03  0.28763950427E+03  0.50400001928E-02 0.  1.
    10030    2    1    2    0    0  0.00000000000E+00  0.00000000000E+00  0.76579787880E+03  0.13410768873E+04  0.11009272576E+04 0.  0.
        3    1    3    3  502    0 -0.20260509566E+03  0.30908384002E+03  0.87984467703E+03  0.95431038496E+03  0.10100000352E+00 0. -1.
       -3    1    3    3    0  502  0.20260509566E+03 -0.30908384002E+03 -0.11404679823E+03  0.38676650235E+03  0.10100000352E+00 0.  1.
</event>
<event>
 5   0  0.2257667E-03  0.1097873E+04  0.7818609E-02  0.9207268E-01
       -1   -1    0    0    0  501  0.00000000000E+00  0.00000000000E+00  0.12699385303E+04  0.12699385303E+04  0.50400001928E-02 0.  1.
        1   -1    0    0  501    0  0.00000000000E+00  0.00000000000E+00 -0.23728016920E+03  0.23728016926E+03  0.50400001928E-02 0. -1.
    10030    2    1    2    0    0  0.00000000000E+00  0.00000000000E+00  0.10326583611E+04  0.15072186995E+04  0.10978729059E+04 0.  0.
        4    1    3    3  502    0 -0.72618886510E+02  0.12130085562E+03 -0.21185570170E+03  0.25469953179E+03  0.12699999809E+01 0. -1.
       -4    1    3    3    0  502  0.72618886510E+02 -0.12130085562E+03  0.12445140628E+04  0.12525191677E+04  0.12699999809E+01 0.  1.
</event>
<event>
 5   0  0.3962999E-03  0.1096966E+04  0.7818609E-02  0.9208154E-01
        2   -1    0    0  501    0  0.00000000000E+00  0.00000000000E+00  0.68448420892E+03  0.68448420893E+03  0.25500000920E-02 0. -1.
       -2   -1    0    0    0  501  0.00000000000E+00  0.00000000000E+00 -0.43950401698E+03  0.43950401699E+03  0.25500000920E-02 0.  1.
    10030    2    1    2    0    0  0.00000000000E+00  0.00000000000E+00  0.24498019194E+03  0.11239882259E+04  0.10969659236E+04 0.  0.
        3    1    3    3  502    0 -0.18109312886E+03  0.43035319995E+02 -0.40615215911E+03  0.44677326088E+03  0.10100000352E+00 0.  1.
       -3    1    3    3    0  502  0.18109312886E+03 -0.43035319995E+02  0.65113235105E+03  0.67721496504E+03  0.10100000352E+00 0. -1.
</event>
<event>
 5   0  0.3744875E-03  0.1179634E+04  0.7818609E-02  0.9130872E-01
        2   -1    0    0  501    0  0.00000000000E+00  0.00000000000E+00  0.10085722780E+04  0.10085722781E+04  0.25500000920E-02 0. -1.
       -2   -1    0    0    0  501  0.00000000000E+00  0.00000000000E+00 -0.34492756413E+03  0.34492756414E+03  0.25500000920E-02 0.  1.
    10030    2    1    2    0    0  0.00000000000E+00  0.00000000000E+00  0.66364471392E+03  0.13534998422E+04  0.11796344843E+04 0.  0.
        2    1    3    3  502    0  0.73793536096E+02  0.58474815022E+03  0.30594894820E+03  0.66406373494E+03  0.25500000920E-02 0.  1.
       -2    1    3    3    0  502 -0.73793536096E+02 -0.58474815022E+03  0.35769576572E+03  0.68943610724E+03  0.25500000920E-02 0. -1.
</event>
<event>
 5   0  0.3713158E-03  0.1099319E+04  0.7818609E-02  0.9205855E-01
       -2   -1    0    0    0  501  0.00000000000E+00  0.00000000000E+00  0.19071964227E+04  0.19071964227E+04  0.25500000920E-02 0.  1.
        2   -1    0    0  501    0  0.00000000000E+00  0.00000000000E+00 -0.15841357167E+03  0.15841357169E+03  0.25500000920E-02 0. -1.
    10030    2    1    2    0    0  0.00000000000E+00  0.00000000000E+00  0.17487828511E+04  0.20656099944E+04  0.10993194208E+04 0.  0.
        4    1    3    3  502    0 -0.20766805725E+02  0.52379320412E+03  0.11850425074E+04  0.12958078322E+04  0.12699999809E+01 0.  1.
       -4    1    3    3    0  502  0.20766805725E+02 -0.52379320412E+03  0.56374034370E+03  0.76980216220E+03  0.12699999809E+01 0. -1.
</event>
<event>
 5   0  0.2374100E-03  0.1029273E+04  0.7818609E-02  0.9277008E-01
       -1   -1    0    0    0  501  0.00000000000E+00  0.00000000000E+00  0.19028921652E+03  0.19028921659E+03  0.50400001928E-02 0. -1.
        1   -1    0    0  501    0  0.00000000000E+00  0.00000000000E+00 -0.13918334765E+04  0.13918334765E+04  0.50400001928E-02 0.  1.
    10030    2    1    2    0    0  0.00000000000E+00  0.00000000000E+00 -0.12015442600E+04  0.15821226931E+04  0.10292733395E+04 0.  0.
        2    1    3    3  502    0  0.35770668797E+03 -0.30580439658E+03 -0.28061977261E+03  0.54792139981E+03  0.25500000920E-02 0. -1.
       -2    1    3    3    0  502 -0.35770668797E+03  0.30580439658E+03 -0.92092448738E+03  0.10342012933E+04  0.25500000920E-02 0.  1.
</event>
<event>
 5   0  0.1508625E-03  0.1098734E+04  0.7818609E-02  0.9206427E-01
       -3   -1    0    0    0  501  0.00000000000E+00  0.00000000000E+00  0.12072288233E+04  0.12072288276E+04  0.10100000352E+00 0.  1.
        3   -1    0    0  501    0  0.00000000000E+00  0.00000000000E+00 -0.24999745837E+03  0.24999747878E+03  0.10100000352E+00 0. -1.
    10030    2    1    2    0    0  0.00000000000E+00  0.00000000000E+00  0.95723136497E+03  0.14572263063E+04  0.10987340997E+04 0.  0.
        2    1    3    3  502    0 -0.48111261615E+03 -0.10323608569E+03  0.15462067714E+03  0.51578541334E+03  0.25500000920E-02 0. -1.
       -2    1    3    3    0  502  0.48111261615E+03  0.10323608569E+03  0.80261068783E+03  0.94144089301E+03  0.25500000920E-02 0.  1.
</event>
<event>
 5   0  0.3992414E-03  0.1093619E+04  0.7818609E-02  0.9211433E-01
       -2   -1    0    0    0  501  0.00000000000E+00  0.00000000000E+00  0.14646736828E+03  0.14646736830E+03  0.25500000920E-02 0. -1.
        2   -1    0    0  501    0  0.00000000000E+00  0.00000000000E+00 -0.20414158449E+04  0.20414158449E+04  0.25500000920E-02 0.  1.
    10030    2    1    2    0    0  0.00000000000E+00  0.00000000000E+00 -0.18949484766E+04  0.21878832132E+04  0.10936193239E+04 0.  0.
        1    1    3    3  502    0 -0.46750709946E+03 -0.27690613361E+03 -0.10701629247E+04  0.12002035579E+04  0.50400001928E-02 0. -1.
       -1    1    3    3    0  502  0.46750709946E+03  0.27690613361E+03 -0.82478555189E+03  0.98767965530E+03  0.50400001928E-02 0.  1.
</event>
<event>
 5   0  0.3744875E-03  0.1094800E+04  0.7818609E-02  0.9210275E-01
        2   -1    0    0  501    0  0.00000000000E+00  0.00000000000E+00  0.13538389404E+04  0.13538389404E+04  0.25500000920E-02 0.  1.
       -2   -1    0    0    0  501  0.00000000000E+00  0.00000000000E+00 -0.22133130400E+03  0.22133130402E+03  0.25500000920E-02 0. -1.
    10030    2    1    2    0    0  0.00000000000E+00  0.00000000000E+00  0.11325076364E+04  0.15751702445E+04  0.10948003254E+04 0.  0.
        2    1    3    3  502    0 -0.19172288982E+03 -0.32539762963E+03  0.11363527508E+04  0.11974718611E+04  0.25500000920E-02 0.  1.
       -2    1    3    3    0  502  0.19172288982E+03  0.32539762963E+03 -0.38451144158E+01  0.37769838332E+03  0.25500000920E-02 0. -1.
</event>
<event>
 5   0  0.2298958E-03  0.1071426E+04  0.7818609E-02  0.9233498E-01
        1   -1    0    0  501    0  0.00000000000E+00  0.00000000000E+00  0.10695142269E+04  0.10695142269E+04  0.50400001928E-02 0.  1.
       -1   -1    0    0    0  501  0.00000000000E+00  0.00000000000E+00 -0.26833546529E+03  0.26833546533E+03  0.50400001928E-02 0. -1.
    10030    2    1    2    0    0  0.00000000000E+00  0.00000000000E+00  0.80117876162E+03  0.13378496923E+04  0.10714263348E+04 0.  0.
        1    1    3    3  502    0 -0.23945098540E+03  0.47920676587E+03  0.40503904729E+03  0.67158955376E+03  0.50400001928E-02 0. -1.
       -1    1    3    3    0  502  0.23945098540E+03 -0.47920676587E+03  0.39613971433E+03  0.66626013850E+03  0.50400001928E-02 0.  1.
</event>
<event>
 5   0  0.2255788E-03  0.1102091E+04  0.7818609E-02  0.9203156E-01
        1   -1    0    0  501    0  0.00000000000E+00  0.00000000000E+00  0.64033639681E+03  0.64033639683E+03  0.50400001928E-02 0.  1.
       -1   -1    0    0    0  501  0.00000000000E+00  0.00000000000E+00 -0.47420573217E+03  0.47420573220E+03  0.50400001928E-02 0. -1.
    10030    2    1    2    0    0  0.00000000000E+00  0.00000000000E+00  0.16613066464E+03  0.11145421290E+04  0.11020910850E+04 0.  0.
        3    1    3    3  502    0  0.25330497769E+03 -0.35890859634E+03  0.41949837185E+03  0.60741887231E+03  0.10100000352E+00 0.  1.
       -3    1    3    3    0  502 -0.25330497769E+03  0.35890859634E+03 -0.25336770721E+03  0.50712325672E+03  0.10100000352E+00 0. -1.
</event>
<event>
 5   0  0.2257667E-03  0.1091886E+04  0.7818609E-02  0.9213137E-01
       -1   -1    0    0    0  501  0.00000000000E+00  0.00000000000E+00  0.55422990456E+03  0.55422990458E+03  0.50400001928E-02 0. -1.
        1   -1    0    0  501    0  0.00000000000E+00  0.00000000000E+00 -0.53777997879E+03  0.53777997881E+03  0.50400001928E-02 0.  1.
    10030    2    1    2    0    0  0.00000000000E+00  0.00000000000E+00  0.16449925767E+02  0.10920098834E+04  0.10918859764E+04 0.  0.
        4    1    3    3  502    0 -0.40418342563E+03  0.28991751078E+03 -0.21682441337E+03  0.54261482079E+03  0.12699999809E+01 0.  1.
       -4    1    3    3    0  502  0.40418342563E+03 -0.28991751078E+03  0.23327433914E+03  0.54939506260E+03  0.12699999809E+01 0. -1.
</event>
<event>
 5   0  0.1508625E-03  0.1092157E+04  0.7818609E-02  0.9212870E-01
       -3   -1    0    0    0  501  0.00000000000E+00  0.00000000000E+00  0.67720499805E+03  0.67720500559E+03  0.10100000352E+00 0. -1.
        3   -1    0    0  501    0  0.00000000000E+00  0.00000000000E+00 -0.44034190708E+03  0.44034191866E+03  0.10100000352E+00 0.  1.
    10030    2    1    2    0    0  0.00000000000E+00  0.00000000000E+00  0.23686309098E+03  0.11175469242E+04  0.10921570418E+04 0.  0.
        1    1    3    3  502    0 -0.31693134089E+03  0.37098970517E+02  0.57188137361E+03  0.65488175571E+03  0.50400001928E-02 0. -1.
       -1    1    3    3    0  502  0.31693134089E+03 -0.37098970517E+02 -0.33501828264E+03  0.46266516854E+03  0.50400001928E-02 0.  1.
</event>
<event>
 5   0  0.2298958E-03  0.1099573E+04  0.7818609E-02  0.9205608E-01
        1   -1    0    0  501    0  0.00000000000E+00  0.00000000000E+00  0.14701122707E+04  0.14701122707E+04  0.50400001928E-02 0. -1.
       -1   -1    0    0    0  501  0.00000000000E+00  0.00000000000E+00 -0.20560675734E+03  0.20560675741E+03  0.50400001928E-02 0.  1.
    10030    2    1    2    0    0  0.00000000000E+00  0.00000000000E+00  0.12645055133E+04  0.16757190281E+04  0.10995726751E+04 0.  0.
        1    1    3    3  502    0  0.31910843971E+03 -0.41853467909E+03  0.87448078325E+03  0.10206459299E+04  0.50400001928E-02 0. -1.
       -1    1    3    3    0  502 -0.31910843971E+03  0.41853467909E+03  0.39002473009E+03  0.65507309821E+03  0.50400001928E-02 0.  1.
</event>
<event>
 5   0  0.3962999E-03  0.1074896E+04  0.7818609E-02  0.9230012E-01
       -2   -1    0    0    0  501  0.00000000000E+00  0.00000000000E+00  0.26388953858E+03  0.26388953859E+03  0.25500000920E-02 0.  1.
        2   -1    0    0  501    0  0.00000000000E+00  0.00000000000E+00 -0.10945876074E+04  0.10945876074E+04  0.25500000920E-02 0. -1.
    10030    2    1    2    0    0  0.00000000000E+00  0.00000000000E+00 -0.83069806882E+03  0.13584771460E+04  0.10748957506E+04 0.  0.
        3    1    3    3  502    0 -0.20373383024E+03  0.47067621372E+03 -0.61837505146E+03  0.80338738241E+03  0.10100000352E+00 0. -1.
       -3    1    3    3    0  502  0.20373383024E+03 -0.47067621372E+03 -0.21232301736E+03  0.55508976359E+03  0.10100000352E+00 0.  1.
</event>
<event>
 5   0  0.2374100E-03  0.1089686E+04  0.7818609E-02  0.9215304E-01
        1   -1    0    0  501    0  0.00000000000E+00  0.00000000000E+00  0.54858670117E+03  0.54858670120E+03  0.50400001928E-02 0. -1.
       -1   -1    0    0    0  501  0.00000000000E+00  0.00000000000E+00 -0.54112459778E+03  0.54112459780E+03  0.50400001928E-02 0.  1.
    10030    2    1    2    0    0  0.00000000000E+00  0.00000000000E+00  0.74621033969E+01  0.10897112990E+04  0.10896857493E+04 0.  0.
        2    1    3    3  502    0  0.33903417513E+03  0.22228075438E+03  0.36774625179E+03  0.54734834556E+03  0.25500000920E-02 0. -1.
       -2    1    3    3    0  502 -0.33903417513E+03 -0.22228075438E+03 -0.36028414839E+03  0.54236295344E+03  0.25500000920E-02 0.  1.
</event>
<event>
 5   0  0.3992414E-03  0.1101373E+04  0.7818609E-02  0.9203854E-01
        2   -1    0    0  501    0  0.00000000000E+00  0.00000000000E+00  0.14448482210E+04  0.14448482210E+04  0.25500000920E-02 0.  1.
       -2   -1    0    0    0  501  0.00000000000E+00  0.00000000000E+00 -0.20988762482E+03  0.20988762483E+03  0.25500000920E-02 0. -1.
    10030    2    1    2    0    0  0.00000000000E+00  0.00000000000E+00  0.12349605962E+04  0.16547358458E+04  0.11013732543E+04 0.  0.
        1    1    3    3  502    0  0.41196380351E+02 -0.44704575272E+03  0.13832837917E+03  0.46976780146E+03  0.50400001928E-02 0. -1.
       -1    1    3    3    0  502 -0.41196380351E+02  0.44704575272E+03  0.10966322170E+04  0.11849680444E+04  0.50400001928E-02 0.  1.
</event>
<event>
 5   0  0.2374100E-03  0.1084278E+04  0.7818609E-02  0.9220652E-01
        1   -1    0    0  501    0  0.00000000000E+00  0.00000000000E+00  0.71372205054E+03  0.71372205056E+03  0.50400001928E-02 0.  1.
       -1   -1    0    0    0  501  0.00000000000E+00  0.00000000000E+00 -0.41180574773E+03  0.41180574776E+03  0.50400001928E-02 0. -1.
    10030    2    1    2    0    0  0.00000000000E+00  0.00000000000E+00  0.30191630281E+03  0.11255277983E+04  0.10842782719E+04 0.  0.
        2    1    3    3  502    0 -0.50289832828E+02 -0.24846138472E+03 -0.34649394277E+03  0.42932526057E+03  0.25500000920E-02 0. -1.
       -2    1    3    3    0  502  0.50289832828E+02  0.24846138472E+03  0.64841024558E+03  0.69620253775E+03  0.25500000920E-02 0.  1.
</event>
<event>
 5   0  0.2255788E-03  0.1116868E+04  0.7818609E-02  0.9188905E-01
       -1   -1    0    0    0  501  0.00000000000E+00  0.00000000000E+00  0.38122421880E+03  0.38122421883E+03  0.50400001928E-02 0.  1.
        1   -1    0    0  501    0  0.00000000000E+00  0.00000000000E+00 -0.81801875747E+03  0.81801875748E+03  0.50400001928E-02 0. -1.
    10030    2    1    2    0    0  0.00000000000E+00  0.00000000000E+00 -0.43679453867E+03  0.11992429763E+04  0.11168680527E+04 0.  0.
        3    1    3    3  502    0  0.55150130987E+03  0.13151830415E+02 -0.31152278566E+03  0.63354014997E+03  0.10100000352E+00 0. -1.
       -3    1    3    3    0  502 -0.55150130987E+03 -0.13151830415E+02 -0.12527175301E+03  0.56570282635E+03  0.10100000352E+00 0.  1.
</event>
<event>
 5   0  0.3713158E-03  0.1104887E+04  0.7818609E-02  0.9200442E-01
        2   -1    0    0  501    0  0.00000000000E+00  0.00000000000E+00  0.88454593356E+03  0.88454593356E+03  0.25500000920E-02 0.  1.
       -2   -1    0    0    0  501  0.00000000000E+00  0.00000000000E+00 -0.34502853807E+03  0.34502853808E+03  0.25500000920E-02 0. -1.
    10030    2    1    2    0    0  0.00000000000E+00  0.00000000000E+00  0.53951739549E+03  0.12295744716E+04  0.11048865830E+04 0.  0.
        4    1    3    3  502    0 -0.18911105967E+03  0.50793913105E+03  0.15079898661E+03  0.56258963820E+03  0.12699999809E+01 0. -1.
       -4    1    3    3    0  502  0.18911105967E+03 -0.50793913105E+03  0.38871840889E+03  0.66698483345E+03  0.12699999809E+01 0.  1.
</event>
<event>
 5   0  0.2257667E-03  0.1118204E+04  0.7818609E-02  0.9187628E-01
       -1   -1    0    0    0  501  0.00000000000E+00  0.00000000000E+00  0.37756853124E+03  0.37756853128E+03  0.50400001928E-02 0. -1.
        1   -1    0    0  501    0  0.00000000000E+00  0.00000000000E+00 -0.82791675406E+03  0.82791675407E+03  0.50400001928E-02 0.  1.
    10030    2    1    2    0    0  0.00000000000E+00  0.00000000000E+00 -0.45034822281E+03  0.12054852853E+04  0.11182044766E+04 0.  0.
        4    1    3    3  502    0  0.52735907081E+03 -0.14549294234E+03 -0.10076310826E+03  0.55626486742E+03  0.12699999809E+01 0. -1.
       -4    1    3    3    0  502 -0.52735907081E+03  0.14549294234E+03 -0.34958511455E+03  0.64922041793E+03  0.12699999809E+01 0.  1.
</event>
<event>
 5   0  0.3744875E-03  0.1035989E+04  0.7818609E-02  0.9269931E-01
       -2   -1    0    0    0  501  0.00000000000E+00  0.00000000000E+00  0.15726322857E+03  0.15726322859E+03  0.25500000920E-02 0. -1.
        2   -1    0    0  501    0  0.00000000000E+00  0.00000000000E+00 -0.17061716583E+04  0.17061716583E+04  0.25500000920E-02 0.  1.
    10030    2    1    2    0    0  0.00000000000E+00  0.00000000000E+00 -0.15489084297E+04  0.18634348869E+04  0.10359885395E+04 0.  0.
        2    1    3    3  502    0  0.11825957542E+03  0.21734815071E+03  0.44088739987E+02  0.25133516029E+03  0.25500000920E-02 0. -1.
       -2    1    3    3    0  502 -0.11825957542E+03 -0.21734815071E+03 -0.15929971697E+04  0.16120997266E+04  0.25500000920E-02 0.  1.
</event>
<event>
 5   0  0.2255788E-03  0.1063869E+04  0.7818609E-02  0.9241141E-01
        1   -1    0    0  501    0  0.00000000000E+00  0.00000000000E+00  0.73385299786E+03  0.73385299787E+03  0.50400001928E-02 0.  1.
       -1   -1    0    0    0  501  0.00000000000E+00  0.00000000000E+00 -0.38557360153E+03  0.38557360156E+03  0.50400001928E-02 0. -1.
    10030    2    1    2    0    0  0.00000000000E+00  0.00000000000E+00  0.34827939633E+03  0.11194265994E+04  0.10638690585E+04 0.  0.
        3    1    3    3  502    0 -0.29137941654E+03 -0.32673468752E+03 -0.14379304146E+03  0.46079710219E+03  0.10100000352E+00 0. -1.
       -3    1    3    3    0  502  0.29137941654E+03  0.32673468752E+03  0.49207243779E+03  0.65862949725E+03  0.10100000352E+00 0.  1.
</event>
<event>
 5   0  0.3962999E-03  0.1109981E+04  0.7818609E-02  0.9195518E-01
        2   -1    0    0  501    0  0.00000000000E+00  0.00000000000E+00  0.62996541039E+03  0.62996541040E+03  0.25500000920E-02 0. -1.
       -2   -1    0    0    0  501  0.00000000000E+00  0.00000000000E+00 -0.48893852974E+03  0.48893852974E+03  0.25500000920E-02 0.  1.
    10030    2    1    2    0    0  0.00000000000E+00  0.00000000000E+00  0.14102688066E+03  0.11189039401E+04  0.11099808315E+04 0.  0.
        3    1    3    3  502    0  0.28321225693E+03 -0.51727990620E+02 -0.40777888876E+03  0.49916790743E+03  0.10100000352E+00 0.  1.
       -3    1    3    3    0  502 -0.28321225693E+03  0.51727990620E+02  0.54880576942E+03  0.61973603271E+03  0.10100000352E+00 0. -1.
</event>
<event>
 5   0  0.2374100E-03  0.1100936E+04  0.7818609E-02  0.9204280E-01
       -1   -1    0    0    0  501  0.00000000000E+00  0.00000000000E+00  0.57100395762E+03  0.57100395764E+03  0.50400001928E-02 0. -1.
        1   -1    0    0  501    0  0.00000000000E+00  0.00000000000E+00 -0.53067063506E+03  0.53067063508E+03  0.50400001928E-02 0.  1.
    10030    2    1    2    0    0  0.00000000000E+00  0.00000000000E+00  0.40333322562E+02  0.11016745927E+04  0.11009360251E+04 0.  0.
        2    1    3    3  502    0  0.16171642516E+03 -0.17618830286E+03  0.51630216969E+03  0.56900127475E+03  0.25500000920E-02 0. -1.
       -2    1    3    3    0  502 -0.16171642516E+03  0.17618830286E+03 -0.47596884713E+03  0.53267331797E+03  0.25500000920E-02 0.  1.
</event>
<event>
 5   0  0.3744875E-03  0.1202913E+04  0.7818609E-02  0.9110310E-01
       -2   -1    0    0    0  501  0.00000000000E+00  0.00000000000E+00  0.20735719630E+03  0.20735719632E+03  0.25500000920E-02 0. -1.
        2   -1    0    0  501    0  0.00000000000E+00  0.00000000000E+00 -0.17445747588E+04  0.17445747588E+04  0.25500000920E-02 0.  1.
    10030    2    1    2    0    0  0.00000000000E+00  0.00000000000E+00 -0.15372175625E+04  0.19519319551E+04  0.12029133481E+04 0.  0.
        2    1    3    3  502    0 -0.42676089788E+03  0.39384640345E+03 -0.10226501488E+04  0.11760328143E+04  0.25500000920E-02 0.  1.
       -2    1    3    3    0  502  0.42676089788E+03 -0.39384640345E+03 -0.51456741363E+03  0.77589914077E+03  0.25500000920E-02 0. -1.
</event>
<event>
 5   0  0.3992414E-03  0.1099200E+04  0.7818609E-02  0.9205972E-01
       -2   -1    0    0    0  501  0.00000000000E+00  0.00000000000E+00  0.18360352853E+03  0.18360352855E+03  0.25500000920E-02 0. -1.
        2   -1    0    0  501    0  0.00000000000E+00  0.00000000000E+00 -0.16451753592E+04  0.16451753592E+04  0.25500000920E-02 0.  1.
    10030    2    1    2    0    0  0.00000000000E+00  0.00000000000E+00 -0.14615718307E+04  0.18287788878E+04  0.10991997107E+04 0.  0.
        1    1    3    3  502    0 -0.37618780482E+03 -0.36879270765E+03 -0.47018571144E+03  0.70611608747E+03  0.50400001928E-02 0. -1.
       -1    1    3    3    0  502  0.37618780482E+03  0.36879270765E+03 -0.99138611926E+03  0.11226628003E+04  0.50400001928E-02 0.  1.
</event>
<event>
 5   0  0.2255788E-03  0.1095330E+04  0.7818609E-02  0.9209755E-01
       -1   -1    0    0    0  501  0.00000000000E+00  0.00000000000E+00  0.30749732772E+03  0.30749732776E+03  0.50400001928E-02 0. -1.
        1   -1    0    0  501    0  0.00000000000E+00  0.00000000000E+00 -0.97541335665E+03  0.97541335666E+03  0.50400001928E-02 0.  1.
    10030    2    1    2    0    0  0.00000000000E+00  0.00000000000E+00 -0.66791602893E+03  0.12829106844E+04  0.10953300884E+04 0.  0.
        3    1    3    3  502    0 -0.54555396183E+03  0.40215496795E+02 -0.36473726780E+03  0.65747980667E+03  0.10100000352E+00 0. -1.
       -3    1    3    3    0  502  0.54555396183E+03 -0.40215496795E+02 -0.30317876113E+03  0.62543087776E+03  0.10100000352E+00 0.  1.
</event>
<event>
 5   0  0.2374100E-03  0.1122803E+04  0.7818609E-02  0.9183247E-01
       -1   -1    0    0    0  501  0.00000000000E+00  0.00000000000E+00  0.26266860444E+03  0.26266860449E+03  0.50400001928E-02 0. -1.
        1   -1    0    0  501    0  0.00000000000E+00  0.00000000000E+00 -0.11998830047E+04  0.11998830047E+04  0.50400001928E-02 0.  1.
    10030    2    1    2    0    0  0.00000000000E+00  0.00000000000E+00 -0.93721440023E+03  0.14625516092E+04  0.11228029112E+04 0.  0.
        2    1    3    3  502    0  0.46404005941E+03  0.45679942413E+02 -0.87586551863E+03  0.99225008975E+03  0.25500000920E-02 0.  1.
       -2    1    3    3    0  502 -0.46404005941E+03 -0.45679942413E+02 -0.61348881592E+02  0.47030151941E+03  0.25500000920E-02 0. -1.
</event>
<event>
 5   0  0.3744875E-03  0.1092601E+04  0.7818609E-02  0.9212434E-01
        2   -1    0    0  501    0  0.00000000000E+00  0.00000000000E+00  0.96484700830E+03  0.96484700830E+03  0.25500000920E-02 0.  1.
       -2   -1    0    0    0  501  0.00000000000E+00  0.00000000000E+00 -0.30931756945E+03  0.30931756946E+03  0.25500000920E-02 0. -1.
    10030    2    1    2    0    0  0.00000000000E+00  0.00000000000E+00  0.65552943885E+03  0.12741645778E+04  0.10926008082E+04 0.  0.
        2    1    3    3  502    0  0.29283526736E+02  0.40208874209E+03 -0.10215930398E+03  0.41589590627E+03  0.25500000920E-02 0. -1.
       -2    1    3    3    0  502 -0.29283526736E+02 -0.40208874209E+03  0.75768874283E+03  0.85826867149E+03  0.25500000920E-02 0.  1.
</event>
<event>
 5   0  0.3713158E-03  0.1116264E+04  0.7818609E-02  0.9189483E-01
       -2   -1    0    0    0  501  0.00000000000E+00  0.00000000000E+00  0.67204020275E+03  0.67204020276E+03  0.25500000920E-02 0.  1.
        2   -1    0    0  501    0  0.00000000000E+00  0.00000000000E+00 -0.46353089386E+03  0.46353089387E+03  0.25500000920E-02 0. -1.
    10030    2    1    2    0    0  0.00000000000E+00  0.00000000000E+00  0.20850930889E+03  0.11355710966E+04  0.11162641191E+04 0.  0.
        4    1    3    3  502    0 -0.29820064786E+03 -0.25921948499E+03 -0.29676058393E+03  0.49415263316E+03  0.12699999809E+01 0. -1.
       -4    1    3    3    0  502  0.29820064786E+03  0.25921948499E+03  0.50526989282E+03  0.64141846346E+03  0.12699999809E+01 0.  1.
</event>
<event>
 5   0  0.3962999E-03  0.1106369E+04  0.7818609E-02  0.9199007E-01
        2   -1    0    0  501    0  0.00000000000E+00  0.00000000000E+00  0.28907156876E+04  0.28907156876E+04  0.25500000920E-02 0.  1.
       -2   -1    0    0    0  501  0.00000000000E+00  0.00000000000E+00 -0.10586063392E+03  0.10586063395E+03  0.25500000920E-02 0. -1.
    10030    2    1    2    0    0  0.00000000000E+00  0.00000000000E+00  0.27848550537E+04  0.29965763215E+04  0.11063688268E+04 0.  0.
        3    1    3    3  502    0 -0.54109703180E+03 -0.10986735674E+03  0.13003332343E+04  0.14127007342E+04  0.10100000352E+00 0. -1.
       -3    1    3    3    0  502  0.54109703180E+03  0.10986735674E+03  0.14845218193E+04  0.15838755873E+04  0.10100000352E+00 0.  1.
</event>
<event>
 5   0  0.3748901E-03  0.1101042E+04  0.7818609E-02  0.9204177E-01
       -2   -1    0    0    0  501  0.00000000000E+00  0.00000000000E+00  0.61546436207E+03  0.61546436208E+03  0.25500000920E-02 0. -1.
        2   -1    0    0  501    0  0.00000000000E+00  0.00000000000E+00 -0.49243048287E+03  0.49243048288E+03  0.25500000920E-02 0.  1.
    10030    2    1    2    0    0  0.00000000000E+00  0.00000000000E+00  0.12303387920E+03  0.11078948450E+04  0.11010420755E+04 0.  0.
        5    1    3    3  502    0 -0.46077172555E+03 -0.20803147572E+03 -0.15770053475E+03  0.52960289521E+03  0.46999998093E+01 0.  1.
       -5    1    3    3    0  502  0.46077172555E+03  0.20803147572E+03  0.28073441396E+03  0.57829194974E+03  0.46999998093E+01 0. -1.
</event>
<event>
 5   0  0.2257667E-03  0.1096091E+04  0.7818609E-02  0.9209011E-01
        1   -1    0    0  501    0  0.00000000000E+00  0.00000000000E+00  0.26934433409E+03  0.26934433414E+03  0.50400001928E-02 0.  1.
       -1   -1    0    0    0  501  0.00000000000E+00  0.00000000000E+00 -0.11151288204E+04  0.11151288204E+04  0.50400001928E-02 0. -1.
    10030    2    1    2    0    0  0.00000000000E+00  0.00000000000E+00 -0.84578448634E+03  0.13844731546E+04  0.10960905612E+04 0.  0.
        4    1    3    3  502    0  0.31288082067E+03  0.25199464789E+03  0.47951963962E+02  0.40459450596E+03  0.12699999809E+01 0.  1.
       -4    1    3    3    0  502 -0.31288082067E+03 -0.25199464789E+03 -0.89373645031E+03  0.97987864862E+03  0.12699999809E+01 0. -1.
</event>
<event>
 5   0  0.2255788E-03  0.1108068E+04  0.7818609E-02  0.9197364E-01
        1   -1    0    0  501    0  0.00000000000E+00  0.00000000000E+00  0.38873341824E+03  0.38873341827E+03  0.50400001928E-02 0.  1.
       -1   -1    0    0    0  501  0.00000000000E+00  0.00000000000E+00 -0.78962484171E+03  0.78962484173E+03  0.50400001928E-02 0. -1.
    10030    2    1    2    0    0  0.00000000000E+00  0.00000000000E+00 -0.40089142348E+03  0.11783582600E+04  0.11080678027E+04 0.  0.
        3    1    3    3  502    0 -0.31987497867E+03 -0.45111515152E+03 -0.23617257149E+03  0.60133383044E+03  0.10100000352E+00 0.  1.
       -3    1    3    3    0  502  0.31987497867E+03  0.45111515152E+03 -0.16471885198E+03  0.57702442956E+03  0.10100000352E+00 0. -1.
</event>
<event>
 5   0  0.2298958E-03  0.1104618E+04  0.7818609E-02  0.9200703E-01
        1   -1    0    0  501    0  0.00000000000E+00  0.00000000000E+00  0.48412985483E+03  0.48412985485E+03  0.50400001928E-02 0.  1.
       -1   -1    0    0    0  501  0.00000000000E+00  0.00000000000E+00 -0.63008937535E+03  0.63008937537E+03  0.50400001928E-02 0. -1.
    10030    2    1    2    0    0  0.00000000000E+00  0.00000000000E+00 -0.14595952052E+03  0.11142192302E+04  0.11046177218E+04 0.  0.
        1    1    3    3  502    0  0.10399310227E+03  0.50389482810E+03  0.12956530978E+03  0.53057679239E+03  0.50400001928E-02 0.  1.
       -1    1    3    3    0  502 -0.10399310227E+03 -0.50389482810E+03 -0.27552483030E+03  0.58364243783E+03  0.50400001928E-02 0. -1.
</event>
<event>
 5   0  0.3713158E-03  0.9915659E+03  0.7818609E-02  0.9317844E-01
        2   -1    0    0  501    0  0.00000000000E+00  0.00000000000E+00  0.85923824469E+03  0.85923824469E+03  0.25500000920E-02 0.  1.
       -2   -1    0    0    0  501  0.00000000000E+00  0.00000000000E+00 -0.28606821193E+03  0.28606821194E+03  0.25500000920E-02 0. -1.
    10030    2    1    2    0    0  0.00000000000E+00  0.00000000000E+00  0.57317003276E+03  0.11453064566E+04  0.99156592981E+03 0.  0.
        4    1    3    3  502    0 -0.35184738955E+03 -0.28323601057E+03  0.50491601246E+02  0.45449998671E+03  0.12699999809E+01 0. -1.
       -4    1    3    3    0  502  0.35184738955E+03  0.28323601057E+03  0.52267843151E+03  0.69080646992E+03  0.12699999809E+01 0.  1.
</event>
<event>
 5   0  0.3713158E-03  0.1091165E+04  0.7818609E-02  0.9213846E-01
       -2   -1    0    0    0  501  0.00000000000E+00  0.00000000000E+00  0.20094205197E+03  0.20094205198E+03  0.25500000920E-02 0. -1.
        2   -1    0    0  501    0  0.00000000000E+00  0.00000000000E+00 -0.14813228670E+04  0.14813228670E+04  0.25500000920E-02 0.  1.
    10030    2    1    2    0    0  0.00000000000E+00  0.00000000000E+00 -0.12803808150E+04  0.16822649190E+04  0.10911646192E+04 0.  0.
        4    1    3    3  502    0 -0.49573361562E+03  0.11266794833E+03 -0.94548330989E+03  0.10734925181E+04  0.12699999809E+01 0.  1.
       -4    1    3    3    0  502  0.49573361562E+03 -0.11266794833E+03 -0.33489750516E+03  0.60877240090E+03  0.12699999809E+01 0. -1.
</event>
<event>
 5   0  0.2300702E-03  0.1093668E+04  0.7818609E-02  0.9211385E-01
       -1   -1    0    0    0  501  0.00000000000E+00  0.00000000000E+00  0.40609279852E+03  0.40609279855E+03  0.50400001928E-02 0.  1.
        1   -1    0    0  501    0  0.00000000000E+00  0.00000000000E+00 -0.73635250185E+03  0.73635250186E+03  0.50400001928E-02 0. -1.
    10030    2    1    2    0    0  0.00000000000E+00  0.00000000000E+00 -0.33025970333E+03  0.11424453004E+04  0.10936680451E+04 0.  0.
        5    1    3    3  502    0 -0.46948069414E+03 -0.11839995439E+03 -0.43057882304E+03  0.64795901431E+03  0.46999998093E+01 0. -1.
       -5    1    3    3    0  502  0.46948069414E+03  0.11839995439E+03  0.10031911972E+03  0.49448628611E+03  0.46999998093E+01 0.  1.
</event>
<event>
 5   0  0.3744875E-03  0.1093899E+04  0.7818609E-02  0.9211159E-01
        2   -1    0    0  501    0  0.00000000000E+00  0.00000000000E+00  0.14408243521E+04  0.14408243521E+04  0.25500000920E-02 0.  1.
       -2   -1    0    0    0  501  0.00000000000E+00  0.00000000000E+00 -0.20762663574E+03  0.20762663576E+03  0.25500000920E-02 0. -1.
    10030    2    1    2    0    0  0.00000000000E+00  0.00000000000E+00  0.12331977164E+04  0.16484509879E+04  0.10938985564E+04 0.  0.
        2    1    3    3  502    0 -0.49702717816E+03 -0.18697121786E+03  0.41919834505E+03  0.67655118405E+03  0.25500000920E-02 0. -1.
       -2    1    3    3    0  502  0.49702717816E+03  0.18697121786E+03  0.81399937131E+03  0.97189980381E+03  0.25500000920E-02 0.  1.
</event>
<event>
 5   0  0.2374100E-03  0.1099890E+04  0.7818609E-02  0.9205299E-01
       -1   -1    0    0    0  501  0.00000000000E+00  0.00000000000E+00  0.19950461167E+03  0.19950461173E+03  0.50400001928E-02 0.  1.
        1   -1    0    0  501    0  0.00000000000E+00  0.00000000000E+00 -0.15159533886E+04  0.15159533886E+04  0.50400001928E-02 0. -1.
    10030    2    1    2    0    0  0.00000000000E+00  0.00000000000E+00 -0.13164487769E+04  0.17154580003E+04  0.10998903439E+04 0.  0.
        2    1    3    3  502    0 -0.29951712054E+03  0.24282907079E+03 -0.46639218825E+02  0.38839629228E+03  0.25500000920E-02 0.  1.
       -2    1    3    3    0  502  0.29951712054E+03 -0.24282907079E+03 -0.12698095581E+04  0.13270617080E+04  0.25500000920E-02 0. -1.
</event>
<event>
 5   0  0.2255788E-03  0.1098644E+04  0.7818609E-02  0.9206515E-01
        1   -1    0    0  501    0  0.00000000000E+00  0.00000000000E+00  0.21902617659E+04  0.21902617659E+04  0.50400001928E-02 0. -1.
       -1   -1    0    0    0  501  0.00000000000E+00  0.00000000000E+00 -0.13777103790E+03  0.13777103800E+03  0.50400001928E-02 0.  1.
    10030    2    1    2    0    0  0.00000000000E+00  0.00000000000E+00  0.20524907280E+04  0.23280328039E+04  0.10986439585E+04 0.  0.
        3    1    3    3  502    0 -0.51302668209E+02  0.54501732599E+03  0.92963224458E+03  0.10788382500E+04  0.10100000352E+00 0. -1.
       -3    1    3    3    0  502  0.51302668209E+02 -0.54501732599E+03  0.11228584834E+04  0.12491945539E+04  0.10100000352E+00 0.  1.
</event>
<event>
 5   0  0.3748901E-03  0.1084935E+04  0.7818609E-02  0.9220001E-01
        2   -1    0    0  501    0  0.00000000000E+00  0.00000000000E+00  0.13561886363E+04  0.13561886363E+04  0.25500000920E-02 0. -1.
       -2   -1    0    0    0  501  0.00000000000E+00  0.00000000000E+00 -0.21698388176E+03  0.21698388177E+03  0.25500000920E-02 0.  1.
    10030    2    1    2    0    0  0.00000000000E+00  0.00000000000E+00  0.11392047545E+04  0.15731725181E+04  0.10849351588E+04 0.  0.
        5    1    3    3  502    0 -0.51967878611E+03 -0.13044263781E+03  0.69236363614E+03  0.87548319067E+03  0.46999998093E+01 0.  1.
       -5    1    3    3    0  502  0.51967878611E+03  0.13044263781E+03  0.44684111839E+03  0.69768932740E+03  0.46999998093E+01 0. -1.
</event>
<event>
 5   0  0.3992414E-03  0.1099828E+04  0.7818609E-02  0.9205359E-01
        2   -1    0    0  501    0  0.00000000000E+00  0.00000000000E+00  0.28698469719E+03  0.28698469720E+03  0.25500000920E-02 0. -1.
       -2   -1    0    0    0  501  0.00000000000E+00  0.00000000000E+00 -0.10537344400E+04  0.10537344401E+04  0.25500000920E-02 0.  1.
    10030    2    1    2    0    0  0.00000000000E+00  0.00000000000E+00 -0.76674974286E+03  0.13407191372E+04  0.10998284579E+04 0.  0.
        1    1    3    3  502    0  0.43599190692E+03  0.57699345784E+02  0.19065188091E+02  0.44020635936E+03  0.50400001928E-02 0. -1.
       -1    1    3    3    0  502 -0.43599190692E+03 -0.57699345784E+02 -0.78581493095E+03  0.90051277788E+03  0.50400001928E-02 0.  1.
</event>
<event>
 5   0  0.2257667E-03  0.1102090E+04  0.7818609E-02  0.9203157E-01
       -1   -1    0    0    0  501  0.00000000000E+00  0.00000000000E+00  0.29875434422E+03  0.29875434426E+03  0.50400001928E-02 0.  1.
        1   -1    0    0  501    0  0.00000000000E+00  0.00000000000E+00 -0.10163897172E+04  0.10163897172E+04  0.50400001928E-02 0. -1.
    10030    2    1    2    0    0  0.00000000000E+00  0.00000000000E+00 -0.71763537298E+03  0.13151440615E+04  0.11020904563E+04 0.  0.
        4    1    3    3  502    0 -0.43780364184E+03  0.10898303405E+03  0.18730952108E+02  0.45155486044E+03  0.12699999809E+01 0.  1.
       -4    1    3    3    0  502  0.43780364184E+03 -0.10898303405E+03 -0.73636632509E+03  0.86358920104E+03  0.12699999809E+01 0. -1.
</event>
<event>
 5   0  0.2257667E-03  0.1088406E+04  0.7818609E-02  0.9216566E-01
        1   -1    0    0  501    0  0.00000000000E+00  0.00000000000E+00  0.58732651815E+03  0.58732651817E+03  0.50400001928E-02 0. -1.
       -1   -1    0    0    0  501  0.00000000000E+00  0.00000000000E+00 -0.50424616663E+03  0.50424616666E+03  0.50400001928E-02 0.  1.
    10030    2    1    2    0    0  0.00000000000E+00  0.00000000000E+00  0.83080351518E+02  0.10915726848E+04  0.10884064413E+04 0.  0.
        4    1    3    3  502    0 -0.26023314612E+03  0.39335439157E+03 -0.23073913429E+03  0.52506297593E+03  0.12699999809E+01 0.  1.
       -4    1    3    3    0  502  0.26023314612E+03 -0.39335439157E+03  0.31381948580E+03  0.56650970890E+03  0.12699999809E+01 0. -1.
</event>
<event>
 5   0  0.2255788E-03  0.1087656E+04  0.7818609E-02  0.9217307E-01
       -1   -1    0    0    0  501  0.00000000000E+00  0.00000000000E+00  0.15807937275E+03  0.15807937283E+03  0.50400001928E-02 0.  1.
        1   -1    0    0  501    0  0.00000000000E+00  0.00000000000E+00 -0.18708902525E+04  0.18708902525E+04  0.50400001928E-02 0. -1.
    10030    2    1    2    0    0  0.00000000000E+00  0.00000000000E+00 -0.17128108798E+04  0.20289696253E+04  0.10876564856E+04 0.  0.
        3    1    3    3  502    0 -0.90101739632E+02  0.42139786917E+03 -0.23755171463E+03  0.49206230800E+03  0.10100000352E+00 0.  1.
       -3    1    3    3    0  502  0.90101739632E+02 -0.42139786917E+03 -0.14752591651E+04  0.15369073173E+04  0.10100000352E+00 0. -1.
</event>
<event>
 5   0  0.3713158E-03  0.1094643E+04  0.7818609E-02  0.9210429E-01
        2   -1    0    0  501    0  0.00000000000E+00  0.00000000000E+00  0.13734815323E+04  0.13734815323E+04  0.25500000920E-02 0. -1.
       -2   -1    0    0    0  501  0.00000000000E+00  0.00000000000E+00 -0.21810307974E+03  0.21810307976E+03  0.25500000920E-02 0.  1.
    10030    2    1    2    0    0  0.00000000000E+00  0.00000000000E+00  0.11553784525E+04  0.15915846120E+04  0.10946425027E+04 0.  0.
        4    1    3    3  502    0 -0.40271513141E+03  0.17601408254E+03  0.10519587166E+04  0.11400785888E+04  0.12699999809E+01 0. -1.
       -4    1    3    3    0  502  0.40271513141E+03 -0.17601408254E+03  0.10341973590E+03  0.45150602320E+03  0.12699999809E+01 0.  1.
</event>
<event>
 5   0  0.2300702E-03  0.1119059E+04  0.7818609E-02  0.9186813E-01
        1   -1    0    0  501    0  0.00000000000E+00  0.00000000000E+00  0.15141275475E+03  0.15141275484E+03  0.50400001928E-02 0. -1.
       -1   -1    0    0    0  501  0.00000000000E+00  0.00000000000E+00 -0.20676793359E+04  0.20676793359E+04  0.50400001928E-02 0.  1.
    10030    2    1    2    0    0  0.00000000000E+00  0.00000000000E+00 -0.19162665811E+04  0.22190920907E+04  0.11190585763E+04 0.  0.
        5    1    3    3  502    0 -0.31153576399E+03 -0.22934057638E+02 -0.18786175065E+04  0.19044175826E+04  0.46999998093E+01 0.  1.
       -5    1    3    3    0  502  0.31153576399E+03  0.22934057638E+02 -0.37649074645E+02  0.31467450813E+03  0.46999998093E+01 0. -1.
</event>
<event>
 5   0  0.3962999E-03  0.1068920E+04  0.7818609E-02  0.9236025E-01
        2   -1    0    0  501    0  0.00000000000E+00  0.00000000000E+00  0.29476983969E+03  0.29476983970E+03  0.25500000920E-02 0. -1.
       -2   -1    0    0    0  501  0.00000000000E+00  0.00000000000E+00 -0.96905311583E+03  0.96905311583E+03  0.25500000920E-02 0.  1.
    10030    2    1    2    0    0  0.00000000000E+00  0.00000000000E+00 -0.67428327614E+03  0.12638229555E+04  0.10689202620E+04 0.  0.
        3    1    3    3  502    0 -0.26964332074E+03  0.11354212699E+03 -0.86596221762E+03  0.91405137031E+03  0.10100000352E+00 0.  1.
       -3    1    3    3    0  502  0.26964332074E+03 -0.11354212699E+03  0.19167894148E+03  0.34977158522E+03  0.10100000352E+00 0. -1.
</event>
<event>
 5   0  0.3962999E-03  0.1063016E+04  0.7818609E-02  0.9242008E-01
       -2   -1    0    0    0  501  0.00000000000E+00  0.00000000000E+00  0.34709367456E+03  0.34709367457E+03  0.25500000920E-02 0.  1.
        2   -1    0    0  501    0  0.00000000000E+00  0.00000000000E+00 -0.81390358481E+03  0.81390358482E+03  0.25500000920E-02 0. -1.
    10030    2    1    2    0    0  0.00000000000E+00  0.00000000000E+00 -0.46680991025E+03  0.11609972594E+04  0.10630160601E+04 0.  0.
        3    1    3    3  502    0 -0.41518902261E+03 -0.13348499765E+03 -0.56521814567E+03  0.71391297193E+03  0.10100000352E+00 0. -1.
       -3    1    3    3    0  502  0.41518902261E+03  0.13348499765E+03  0.98408235423E+02  0.44708428746E+03  0.10100000352E+00 0.  1.
</event>
<event>
 5   0  0.1508625E-03  0.1082396E+04  0.7818609E-02  0.9222521E-01
       -3   -1    0    0    0  501  0.00000000000E+00  0.00000000000E+00  0.69668742517E+03  0.69668743249E+03  0.10100000352E+00 0. -1.
        3   -1    0    0  501    0  0.00000000000E+00  0.00000000000E+00 -0.42041153770E+03  0.42041154983E+03  0.10100000352E+00 0.  1.
    10030    2    1    2    0    0  0.00000000000E+00  0.00000000000E+00  0.27627588747E+03  0.11170989823E+04  0.10823963093E+04 0.  0.
        2    1    3    3  502    0 -0.22671863636E+03 -0.42448239100E+03  0.39368257965E+03  0.62174963922E+03  0.25500000920E-02 0. -1.
       -2    1    3    3    0  502  0.22671863636E+03  0.42448239100E+03 -0.11740669218E+03  0.49534934310E+03  0.25500000920E-02 0.  1.
</event>
<event>
 5   0  0.2300702E-03  0.1103265E+04  0.7818609E-02  0.9202015E-01
       -1   -1    0    0    0  501  0.00000000000E+00  0.00000000000E+00  0.13684028589E+03  0.13684028598E+03  0.50400001928E-02 0. -1.
        1   -1    0    0  501    0  0.00000000000E+00  0.00000000000E+00 -0.22237507540E+04  0.22237507540E+04  0.50400001928E-02 0.  1.
    10030    2    1    2    0    0  0.00000000000E+00  0.00000000000E+00 -0.20869104681E+04  0.23605910400E+04  0.11032654967E+04 0.  0.
        5    1    3    3  502    0 -0.11243711001E+03 -0.39660126781E+03 -0.18276907549E+04  0.18736088852E+04  0.46999998093E+01 0.  1.
       -5    1    3    3    0  502  0.11243711001E+03  0.39660126781E+03 -0.25921971325E+03  0.48698215477E+03  0.46999998093E+01 0. -1.
</event>
<event>
 5   0  0.3962999E-03  0.1088992E+04  0.7818609E-02  0.9215988E-01
        2   -1    0    0  501    0  0.00000000000E+00  0.00000000000E+00  0.80786473286E+03  0.80786473286E+03  0.25500000920E-02 0.  1.
       -2   -1    0    0    0  501  0.00000000000E+00  0.00000000000E+00 -0.36698694132E+03  0.36698694133E+03  0.25500000920E-02 0. -1.
    10030    2    1    2    0    0  0.00000000000E+00  0.00000000000E+00  0.44087779154E+03  0.11748516742E+04  0.10889918408E+04 0.  0.
        3    1    3    3  502    0  0.50659951516E+03  0.13526316347E+03  0.62114793086E+02  0.52801273647E+03  0.10100000352E+00 0. -1.
       -3    1    3    3    0  502 -0.50659951516E+03 -0.13526316347E+03  0.37876299846E+03  0.64683893772E+03  0.10100000352E+00 0.  1.
</event>
<event>
 5   0  0.1508625E-03  0.1118610E+04  0.7818609E-02  0.9187241E-01
       -3   -1    0    0    0  501  0.00000000000E+00  0.00000000000E+00  0.37445475271E+03  0.37445476633E+03  0.10100000352E+00 0.  1.
        3   -1    0    0  501    0  0.00000000000E+00  0.00000000000E+00 -0.83540669634E+03  0.83540670245E+03  0.10100000352E+00 0. -1.
    10030    2    1    2    0    0  0.00000000000E+00  0.00000000000E+00 -0.46095194364E+03  0.12098614688E+04  0.11186098870E+04 0.  0.
        4    1    3    3  502    0  0.40274912480E+03  0.11531971980E+03  0.17031307389E+03  0.45223185573E+03  0.12699999809E+01 0.  1.
       -4    1    3    3    0  502 -0.40274912480E+03 -0.11531971980E+03 -0.63126501753E+03  0.75762961304E+03  0.12699999809E+01 0. -1.
</event>
<event>
 5   0  0.3744875E-03  0.1099756E+04  0.7818609E-02  0.9205430E-01
        2   -1    0    0  501    0  0.00000000000E+00  0.00000000000E+00  0.28255786456E+03  0.28255786458E+03  0.25500000920E-02 0.  1.
       -2   -1    0    0    0  501  0.00000000000E+00  0.00000000000E+00 -0.10701022984E+04  0.10701022984E+04  0.25500000920E-02 0. -1.
    10030    2    1    2    0    0  0.00000000000E+00  0.00000000000E+00 -0.78754443382E+03  0.13526601630E+04  0.10997560099E+04 0.  0.
        2    1    3    3  502    0  0.50312917047E+03  0.20700607444E+03 -0.29556483290E+03  0.61915187756E+03  0.25500000920E-02 0. -1.
       -2    1    3    3    0  502 -0.50312917047E+03 -0.20700607444E+03 -0.49197960091E+03  0.73350828540E+03  0.25500000920E-02 0.  1.
</event>
<event>
 5   0  0.3992414E-03  0.1083112E+04  0.7818609E-02  0.9221811E-01
       -2   -1    0    0    0  501  0.00000000000E+00  0.00000000000E+00  0.48793050703E+03  0.48793050704E+03  0.25500000920E-02 0.  1.
        2   -1    0    0  501    0  0.00000000000E+00  0.00000000000E+00 -0.60107470726E+03  0.60107470727E+03  0.25500000920E-02 0. -1.
    10030    2    1    2    0    0  0.00000000000E+00  0.00000000000E+00 -0.11314420023E+03  0.10890052143E+04  0.10831116040E+04 0.  0.
        1    1    3    3  502    0  0.14169212958E+03 -0.23667054921E+03 -0.52514777650E+03  0.59318613911E+03  0.50400001928E-02 0. -1.
       -1    1    3    3    0  502 -0.14169212958E+03  0.23667054921E+03  0.41200357626E+03  0.49581907520E+03  0.50400001928E-02 0.  1.
</event>
<event>
 5   0  0.2298958E-03  0.1060061E+04  0.7818609E-02  0.9245018E-01
        1   -1    0    0  501    0  0.00000000000E+00  0.00000000000E+00  0.13263655006E+04  0.13263655006E+04  0.50400001928E-02 0.  1.
       -1   -1    0    0    0  501  0.00000000000E+00  0.00000000000E+00 -0.21180612426E+03  0.21180612432E+03  0.50400001928E-02 0. -1.
    10030    2    1    2    0    0  0.00000000000E+00  0.00000000000E+00  0.11145593763E+04  0.15381716249E+04  0.10600610097E+04 0.  0.
        1    1    3    3  502    0  0.10321443523E+03 -0.29945654958E+03  0.11739296212E+04  0.12159104409E+04  0.50400001928E-02 0.  1.
       -1    1    3    3    0  502 -0.10321443523E+03  0.29945654958E+03 -0.59370244883E+02  0.32226118402E+03  0.50400001928E-02 0. -1.
</event>
<event>
 5   0  0.3713158E-03  0.1100010E+04  0.7818609E-02  0.9205182E-01
       -2   -1    0    0    0  501  0.00000000000E+00  0.00000000000E+00  0.43219751354E+03  0.43219751355E+03  0.25500000920E-02 0.  1.
        2   -1    0    0  501    0  0.00000000000E+00  0.00000000000E+00 -0.69992405168E+03  0.69992405169E+03  0.25500000920E-02 0. -1.
    10030    2    1    2    0    0  0.00000000000E+00  0.00000000000E+00 -0.26772653814E+03  0.11321215652E+04  0.11000098814E+04 0.  0.
        4    1    3    3  502    0  0.20461099696E+03  0.50646123233E+03 -0.67680674379E+02  0.55040978054E+03  0.12699999809E+01 0. -1.
       -4    1    3    3    0  502 -0.20461099696E+03 -0.50646123233E+03 -0.20004586376E+03  0.58171178469E+03  0.12699999809E+01 0.  1.
</event>
<event>
 5   0  0.3713158E-03  0.1097177E+04  0.7818609E-02  0.9207948E-01
       -2   -1    0    0    0  501  0.00000000000E+00  0.00000000000E+00  0.51830071581E+03  0.51830071581E+03  0.25500000920E-02 0.  1.
        2   -1    0    0  501    0  0.00000000000E+00  0.00000000000E+00 -0.58064603837E+03  0.58064603837E+03  0.25500000920E-02 0. -1.
    10030    2    1    2    0    0  0.00000000000E+00  0.00000000000E+00 -0.62345322563E+02  0.10989467542E+04  0.10971768450E+04 0.  0.
        4    1    3    3  502    0  0.39727692739E+03  0.12842629486E+03 -0.38759128417E+03  0.56969367796E+03  0.12699999809E+01 0. -1.
       -4    1    3    3    0  502 -0.39727692739E+03 -0.12842629486E+03  0.32524596161E+03  0.52925307622E+03  0.12699999809E+01 0.  1.
</event>
<event>
 5   0  0.3962999E-03  0.1080569E+04  0.7818609E-02  0.9224340E-01
        2   -1    0    0  501    0  0.00000000000E+00  0.00000000000E+00  0.11114298442E+04  0.11114298442E+04  0.25500000920E-02 0. -1.
       -2   -1    0    0    0  501  0.00000000000E+00  0.00000000000E+00 -0.26264119039E+03  0.26264119040E+03  0.25500000920E-02 0.  1.
    10030    2    1    2    0    0  0.00000000000E+00  0.00000000000E+00  0.84878865381E+03  0.13740710346E+04  0.10805688452E+04 0.  0.
        3    1    3    3  502    0  0.12265021275E+03 -0.52569574168E+03  0.45305964823E+03  0.70474260732E+03  0.10100000352E+00 0. -1.
       -3    1    3    3    0  502 -0.12265021275E+03  0.52569574168E+03  0.39572900558E+03  0.66932842728E+03  0.10100000352E+00 0.  1.
</event>
<event>
 5   0  0.2257667E-03  0.1066384E+04  0.7818609E-02  0.9238590E-01
        1   -1    0    0  501    0  0.00000000000E+00  0.00000000000E+00  0.12838651263E+04  0.12838651263E+04  0.50400001928E-02 0.  1.
       -1   -1    0    0    0  501  0.00000000000E+00  0.00000000000E+00 -0.22143581533E+03  0.22143581538E+03  0.50400001928E-02 0. -1.
    10030    2    1    2    0    0  0.00000000000E+00  0.00000000000E+00  0.10624293110E+04  0.15053009417E+04  0.10663840229E+04 0.  0.
        4    1    3    3  502    0 -0.11827482731E+03 -0.51170962229E+03  0.40140608035E+03  0.66103262140E+03  0.12699999809E+01 0.  1.
       -4    1    3    3    0  502  0.11827482731E+03  0.51170962229E+03  0.66102323064E+03  0.84426832030E+03  0.12699999809E+01 0. -1.
</event>
<event>
 5   0  0.2374100E-03  0.1102945E+04  0.7818609E-02  0.9202326E-01
        1   -1    0    0  501    0  0.00000000000E+00  0.00000000000E+00  0.10287979642E+04  0.10287979642E+04  0.50400001928E-02 0. -1.
       -1   -1    0    0    0  501  0.00000000000E+00  0.00000000000E+00 -0.29560888167E+03  0.29560888171E+03  0.50400001928E-02 0.  1.
    10030    2    1    2    0    0  0.00000000000E+00  0.00000000000E+00  0.73318908256E+03  0.13244068459E+04  0.11029448140E+04 0.  0.
        2    1    3    3  502    0  0.43477941084E+03 -0.90620646198E+02 -0.25968043163E+02  0.44488153128E+03  0.25500000920E-02 0.  1.
       -2    1    3    3    0  502 -0.43477941084E+03  0.90620646198E+02  0.75915712572E+03  0.87952531467E+03  0.25500000920E-02 0. -1.
</event>
<event>
 5   0  0.3962999E-03  0.1059777E+04  0.7818609E-02  0.9245308E-01
        2   -1    0    0  501    0  0.00000000000E+00  0.00000000000E+00  0.47823188527E+03  0.47823188528E+03  0.25500000920E-02 0. -1.
       -2   -1    0    0    0  501  0.00000000000E+00  0.00000000000E+00 -0.58712494130E+03  0.58712494130E+03  0.25500000920E-02 0.  1.
    10030    2    1    2    0    0  0.00000000000E+00  0.00000000000E+00 -0.10889305603E+03  0.10653568266E+04  0.10597770852E+04 0.  0.
        3    1    3    3  502    0  0.39093305792E+03  0.22574008833E+03 -0.33338649273E+03  0.56118963549E+03  0.10100000352E+00 0.  1.
       -3    1    3    3    0  502 -0.39093305792E+03 -0.22574008833E+03  0.22449343670E+03  0.50416719109E+03  0.10100000352E+00 0. -1.
</event>
<event>
 5   0  0.3713158E-03  0.1094994E+04  0.7818609E-02  0.9210085E-01
       -2   -1    0    0    0  501  0.00000000000E+00  0.00000000000E+00  0.55695240913E+03  0.55695240914E+03  0.25500000920E-02 0. -1.
        2   -1    0    0  501    0  0.00000000000E+00  0.00000000000E+00 -0.53820184154E+03  0.53820184155E+03  0.25500000920E-02 0.  1.
    10030    2    1    2    0    0  0.00000000000E+00  0.00000000000E+00  0.18750567590E+02  0.10951542507E+04  0.10949937210E+04 0.  0.
        4    1    3    3  502    0  0.33539248110E+03  0.43273606712E+03  0.10981504453E+02  0.54760462608E+03  0.12699999809E+01 0. -1.
       -4    1    3    3    0  502 -0.33539248110E+03 -0.43273606712E+03  0.77690631365E+01  0.54754962461E+03  0.12699999809E+01 0.  1.
</event>
<event>
 5   0  0.3713158E-03  0.1093634E+04  0.7818609E-02  0.9211419E-01
        2   -1    0    0  501    0  0.00000000000E+00  0.00000000000E+00  0.84024815651E+03  0.84024815651E+03  0.25500000920E-02 0. -1.
       -2   -1    0    0    0  501  0.00000000000E+00  0.00000000000E+00 -0.35585757374E+03  0.35585757375E+03  0.25500000920E-02 0.  1.
    10030    2    1    2    0    0  0.00000000000E+00  0.00000000000E+00  0.48439058277E+03  0.11961057303E+04  0.10936337053E+04 0.  0.
        4    1    3    3  502    0 -0.50016580644E+03 -0.21149056403E+03  0.31233681280E+03  0.62645829082E+03  0.12699999809E+01 0. -1.
       -4    1    3    3    0  502  0.50016580644E+03  0.21149056403E+03  0.17205376997E+03  0.56964743944E+03  0.12699999809E+01 0.  1.
</event>
<event>
 5   0  0.2255788E-03  0.1089249E+04  0.7818609E-02  0.9215734E-01
       -1   -1    0    0    0  501  0.00000000000E+00  0.00000000000E+00  0.64048846433E+03  0.64048846435E+03  0.50400001928E-02 0.  1.
        1   -1    0    0  501    0  0.00000000000E+00  0.00000000000E+00 -0.46310908041E+03  0.46310908044E+03  0.50400001928E-02 0. -1.
    10030    2    1    2    0    0  0.00000000000E+00  0.00000000000E+00  0.17737938392E+03  0.11035975448E+04  0.10892493264E+04 0.  0.
        3    1    3    3  502    0  0.29017767937E+03 -0.24102023040E+03 -0.30932361792E+03  0.48782676010E+03  0.10100000352E+00 0. -1.
       -3    1    3    3    0  502 -0.29017767937E+03  0.24102023040E+03  0.48670300184E+03  0.61577078468E+03  0.10100000352E+00 0.  1.
</event>
<event>
 5   0  0.2298958E-03  0.1087753E+04  0.7818609E-02  0.9217211E-01
       -1   -1    0    0    0  501  0.00000000000E+00  0.00000000000E+00  0.21871196424E+03  0.21871196429E+03  0.50400001928E-02 0.  1.
        1   -1    0    0  501    0  0.00000000000E+00  0.00000000000E+00 -0.13524723326E+04  0.13524723326E+04  0.50400001928E-02 0. -1.
    10030    2    1    2    0    0  0.00000000000E+00  0.00000000000E+00 -0.11337603684E+04  0.15711842969E+04  0.10877534288E+04 0.  0.
        1    1    3    3  502    0  0.47617405539E+03  0.17770786535E+03 -0.28724176972E+03  0.58380617566E+03  0.50400001928E-02 0.  1.
       -1    1    3    3    0  502 -0.47617405539E+03 -0.17770786535E+03 -0.84651859863E+03  0.98737812124E+03  0.50400001928E-02 0. -1.
</event>
<event>
 5   0  0.2374100E-03  0.1086358E+04  0.7818609E-02  0.9218591E-01
        1   -1    0    0  501    0  0.00000000000E+00  0.00000000000E+00  0.88552284887E+03  0.88552284888E+03  0.50400001928E-02 0.  1.
       -1   -1    0    0    0  501  0.00000000000E+00  0.00000000000E+00 -0.33318574116E+03  0.33318574120E+03  0.50400001928E-02 0. -1.
    10030    2    1    2    0    0  0.00000000000E+00  0.00000000000E+00  0.55233710771E+03  0.12187085901E+04  0.10863582959E+04 0.  0.
        2    1    3    3  502    0  0.39976822115E+02 -0.10042216560E+03  0.87333678340E+03  0.87999994028E+03  0.25500000920E-02 0.  1.
       -2    1    3    3    0  502 -0.39976822115E+02  0.10042216560E+03 -0.32099967569E+03  0.33870864980E+03  0.25500000920E-02 0. -1.
</event>
<event>
 5   0  0.3992414E-03  0.1101179E+04  0.7818609E-02  0.9204044E-01
        2   -1    0    0  501    0  0.00000000000E+00  0.00000000000E+00  0.10176429259E+04  0.10176429259E+04  0.25500000920E-02 0. -1.
       -2   -1    0    0    0  501  0.00000000000E+00  0.00000000000E+00 -0.29789301928E+03  0.29789301929E+03  0.25500000920E-02 0.  1.
    10030    2    1    2    0    0  0.00000000000E+00  0.00000000000E+00  0.71974990660E+03  0.13155359452E+04  0.11011788660E+04 0.  0.
        1    1    3    3  502    0 -0.42862765024E+03  0.30783163620E+02 -0.51337615709E+02  0.43278726475E+03  0.50400001928E-02 0.  1.
       -1    1    3    3    0  502  0.42862765024E+03 -0.30783163620E+02  0.77108752231E+03  0.88274868043E+03  0.50400001928E-02 0. -1.
</event>
<event>
 5   0  0.3713158E-03  0.1094957E+04  0.7818609E-02  0.9210121E-01
       -2   -1    0    0    0  501  0.00000000000E+00  0.00000000000E+00  0.17716745620E+03  0.17716745622E+03  0.25500000920E-02 0. -1.
        2   -1    0    0  501    0  0.00000000000E+00  0.00000000000E+00 -0.16918038016E+04  0.16918038016E+04  0.25500000920E-02 0.  1.
    10030    2    1    2    0    0  0.00000000000E+00  0.00000000000E+00 -0.15146363454E+04  0.18689712578E+04  0.10949567588E+04 0.  0.
        4    1    3    3  502    0  0.28714201308E+03  0.25060483389E+03 -0.86448015414E+02  0.39080454285E+03  0.12699999809E+01 0. -1.
       -4    1    3    3    0  502 -0.28714201308E+03 -0.25060483389E+03 -0.14281883300E+04  0.14781667149E+04  0.12699999809E+01 0.  1.
</event>
<event>
 5   0  0.2300702E-03  0.1105597E+04  0.7818609E-02  0.9199754E-01
        1   -1    0    0  501    0  0.00000000000E+00  0.00000000000E+00  0.93952181460E+03  0.93952181461E+03  0.50400001928E-02 0.  1.
       -1   -1    0    0    0  501  0.00000000000E+00  0.00000000000E+00 -0.32525718367E+03  0.32525718371E+03  0.50400001928E-02 0. -1.
    10030    2    1    2    0    0  0.00000000000E+00  0.00000000000E+00  0.61426463093E+03  0.12647789983E+04  0.11055970685E+04 0.  0.
        5    1    3    3  502    0 -0.53607153404E+03 -0.11921144489E+03  0.23496123780E+03  0.59733820526E+03  0.46999998093E+01 0.  1.
       -5    1    3    3    0  502  0.53607153404E+03  0.11921144489E+03  0.37930339313E+03  0.66744079306E+03  0.46999998093E+01 0. -1.
</event>
<event>
 5   0  0.3713158E-03  0.1105178E+04  0.7818609E-02  0.9200160E-01
        2   -1    0    0  501    0  0.00000000000E+00  0.00000000000E+00  0.24788612695E+03  0.24788612696E+03  0.25500000920E-02 0. -1.
       -2   -1    0    0    0  501  0.00000000000E+00  0.00000000000E+00 -0.12318338209E+04  0.12318338209E+04  0.25500000920E-02 0.  1.
    10030    2    1    2    0    0  0.00000000000E+00  0.00000000000E+00 -0.98394769398E+03  0.14797199479E+04  0.11051778408E+04 0.  0.
        4    1    3    3  502    0 -0.33396068615E+03  0.43445562385E+03 -0.39662522513E+03  0.67645739785E+03  0.12699999809E+01 0. -1.
       -4    1    3    3    0  502  0.33396068615E+03 -0.43445562385E+03 -0.58732246884E+03  0.80326255004E+03  0.12699999809E+01 0.  1.
</event>
<event>
 5   0  0.2255788E-03  0.1083912E+04  0.7818609E-02  0.9221015E-01
        1   -1    0    0  501    0  0.00000000000E+00  0.00000000000E+00  0.13932826583E+03  0.13932826592E+03  0.50400001928E-02 0.  1.
       -1   -1    0    0    0  501  0.00000000000E+00  0.00000000000E+00 -0.21080897488E+04  0.21080897488E+04  0.50400001928E-02 0. -1.
    10030    2    1    2    0    0  0.00000000000E+00  0.00000000000E+00 -0.19687614830E+04  0.22474180148E+04  0.10839123378E+04 0.  0.
        3    1    3    3  502    0  0.42822700952E+03  0.32387982439E+03 -0.83145245917E+03  0.98974224644E+03  0.10100000352E+00 0. -1.
       -3    1    3    3    0  502 -0.42822700952E+03 -0.32387982439E+03 -0.11373090238E+04  0.12576757683E+04  0.10100000352E+00 0.  1.
</event>
<event>
 5   0  0.2300702E-03  0.1084395E+04  0.7818609E-02  0.9220536E-01
        1   -1    0    0  501    0  0.00000000000E+00  0.00000000000E+00  0.19213582616E+04  0.19213582616E+04  0.50400001928E-02 0. -1.
       -1   -1    0    0    0  501  0.00000000000E+00  0.00000000000E+00 -0.15300542743E+03  0.15300542752E+03  0.50400001928E-02 0.  1.
    10030    2    1    2    0    0  0.00000000000E+00  0.00000000000E+00  0.17683528342E+04  0.20743636891E+04  0.10843952087E+04 0.  0.
        5    1    3    3  502    0 -0.45679744741E+03  0.28509427284E+03  0.76298860790E+03  0.93387170326E+03  0.46999998093E+01 0.  1.
       -5    1    3    3    0  502  0.45679744741E+03 -0.28509427284E+03  0.10053642263E+04  0.11404919859E+04  0.46999998093E+01 0. -1.
</event>
<event>
 5   0  0.2300702E-03  0.1112027E+04  0.7818609E-02  0.9193548E-01
        1   -1    0    0  501    0  0.00000000000E+00  0.00000000000E+00  0.11567412182E+04  0.11567412182E+04  0.50400001928E-02 0.  1.
       -1   -1    0    0    0  501  0.00000000000E+00  0.00000000000E+00 -0.26726018908E+03  0.26726018913E+03  0.50400001928E-02 0. -1.
    10030    2    1    2    0    0  0.00000000000E+00  0.00000000000E+00  0.88948102908E+03  0.14240014073E+04  0.11120267564E+04 0.  0.
        5    1    3    3  502    0 -0.83145563331E+02 -0.53157470401E+03  0.26526325158E+03  0.59989293485E+03  0.46999998093E+01 0. -1.
       -5    1    3    3    0  502  0.83145563331E+02  0.53157470401E+03  0.62421777749E+03  0.82410847246E+03  0.46999998093E+01 0.  1.
</event>
<event>
 5   0  0.3748901E-03  0.1092692E+04  0.7818609E-02  0.9212344E-01
        2   -1    0    0  501    0  0.00000000000E+00  0.00000000000E+00  0.25538363318E+04  0.25538363318E+04  0.25500000920E-02 0. -1.
       -2   -1    0    0    0  501  0.00000000000E+00  0.00000000000E+00 -0.11688053456E+03  0.11688053459E+03  0.25500000920E-02 0.  1.
    10030    2    1    2    0    0  0.00000000000E+00  0.00000000000E+00  0.24369557973E+04  0.26707168664E+04  0.10926916412E+04 0.  0.
        5    1    3    3  502    0  0.34963730622E+02 -0.51629644499E+03  0.16466405172E+04  0.17260450644E+04  0.46999998093E+01 0. -1.
       -5    1    3    3    0  502 -0.34963730622E+02  0.51629644499E+03  0.79031528008E+03  0.94467180200E+03  0.46999998093E+01 0.  1.
</event>
<event>
 5   0  0.3748901E-03  0.1093257E+04  0.7818609E-02  0.9211789E-01
       -2   -1    0    0    0  501  0.00000000000E+00  0.00000000000E+00  0.25413995562E+03  0.25413995563E+03  0.25500000920E-02 0. -1.
        2   -1    0    0  501    0  0.00000000000E+00  0.00000000000E+00 -0.11757407135E+04  0.11757407135E+04  0.25500000920E-02 0.  1.
    10030    2    1    2    0    0  0.00000000000E+00  0.00000000000E+00 -0.92160075787E+03  0.14298806691E+04  0.10932569556E+04 0.  0.
        5    1    3    3  502    0 -0.46172160880E+03  0.44875005100E+02 -0.82681196643E+02  0.47123123877E+03  0.46999998093E+01 0. -1.
       -5    1    3    3    0  502  0.46172160880E+03 -0.44875005100E+02 -0.83891956123E+03  0.95864943036E+03  0.46999998093E+01 0.  1.
</event>
<event>
 5   0  0.3744875E-03  0.1106715E+04  0.7818609E-02  0.9198671E-01
       -2   -1    0    0    0  501  0.00000000000E+00  0.00000000000E+00  0.85557119914E+03  0.85557119915E+03  0.25500000920E-02 0.  1.
        2   -1    0    0  501    0  0.00000000000E+00  0.00000000000E+00 -0.35789509416E+03  0.35789509417E+03  0.25500000920E-02 0. -1.
    10030    2    1    2    0    0  0.00000000000E+00  0.00000000000E+00  0.49767610499E+03  0.12134662933E+04  0.11067153833E+04 0.  0.
        2    1    3    3  502    0 -0.28453282178E+03 -0.42356486111E+03  0.14087014098E+02  0.51045524996E+03  0.25500000920E-02 0.  1.
       -2    1    3    3    0  502  0.28453282178E+03  0.42356486111E+03  0.48358909089E+03  0.70301104335E+03  0.25500000920E-02 0. -1.
</event>
<event>
 5   0  0.2298958E-03  0.1104161E+04  0.7818609E-02  0.9201146E-01
       -1   -1    0    0    0  501  0.00000000000E+00  0.00000000000E+00  0.44976923649E+03  0.44976923652E+03  0.50400001928E-02 0. -1.
        1   -1    0    0  501    0  0.00000000000E+00  0.00000000000E+00 -0.67766465666E+03  0.67766465668E+03  0.50400001928E-02 0.  1.
    10030    2    1    2    0    0  0.00000000000E+00  0.00000000000E+00 -0.22789542017E+03  0.11274338932E+04  0.11041607043E+04 0.  0.
        1    1    3    3  502    0  0.16911345325E+03 -0.26312247281E+03  0.35056962174E+03  0.46982108880E+03  0.50400001928E-02 0. -1.
       -1    1    3    3    0  502 -0.16911345325E+03  0.26312247281E+03 -0.57846504191E+03  0.65761280440E+03  0.50400001928E-02 0.  1.
</event>
<event>
 5   0  0.3748901E-03  0.1108058E+04  0.7818609E-02  0.9197374E-01
        2   -1    0    0  501    0  0.00000000000E+00  0.00000000000E+00  0.30377267348E+04  0.30377267348E+04  0.25500000920E-02 0. -1.
       -2   -1    0    0    0  501  0.00000000000E+00  0.00000000000E+00 -0.10104525364E+03  0.10104525367E+03  0.25500000920E-02 0.  1.
    10030    2    1    2    0    0  0.00000000000E+00  0.00000000000E+00  0.29366814811E+04  0.31387719884E+04  0.11080575228E+04 0.  0.
        5    1    3    3  502    0  0.46761669871E+03  0.24312908362E+03  0.98471803081E+03  0.11169014363E+04  0.46999998093E+01 0. -1.
       -5    1    3    3    0  502 -0.46761669871E+03 -0.24312908362E+03  0.19519634503E+04  0.20218705521E+04  0.46999998093E+01 0.  1.
</event>
<event>
 5   0  0.2300702E-03  0.1095732E+04  0.7818609E-02  0.9209361E-01
       -1   -1    0    0    0  501  0.00000000000E+00  0.00000000000E+00  0.38761008641E+03  0.38761008644E+03  0.50400001928E-02 0.  1.
        1   -1    0    0  501    0  0.00000000000E+00  0.00000000000E+00 -0.77437953992E+03  0.77437953994E+03  0.50400001928E-02 0. -1.
    10030    2    1    2    0    0  0.00000000000E+00  0.00000000000E+00 -0.38676945351E+03  0.11619896264E+04  0.10957323038E+04 0.  0.
        5    1    3    3  502    0  0.27294698040E+03 -0.47492848832E+03 -0.18401248356E+03  0.57787525231E+03  0.46999998093E+01 0. -1.
       -5    1    3    3    0  502 -0.27294698040E+03  0.47492848832E+03 -0.20275696995E+03  0.58411437407E+03  0.46999998093E+01 0.  1.
</event>
<event>
 5   0  0.3962999E-03  0.1096670E+04  0.7818609E-02  0.9208444E-01
        2   -1    0    0  501    0  0.00000000000E+00  0.00000000000E+00  0.44821964457E+03  0.44821964458E+03  0.25500000920E-02 0. -1.
       -2   -1    0    0    0  501  0.00000000000E+00  0.00000000000E+00 -0.67081192090E+03  0.67081192090E+03  0.25500000920E-02 0.  1.
    10030    2    1    2    0    0  0.00000000000E+00  0.00000000000E+00 -0.22259227632E+03  0.11190315655E+04  0.10966696508E+04 0.  0.
        3    1    3    3  502    0 -0.46903009179E+03  0.11415414593E+03  0.15410487585E+03  0.50672351336E+03  0.10100000352E+00 0. -1.
       -3    1    3    3    0  502  0.46903009179E+03 -0.11415414593E+03 -0.37669715217E+03  0.61230805212E+03  0.10100000352E+00 0.  1.
</event>
<event>
 5   0  0.3748901E-03  0.1102041E+04  0.7818609E-02  0.9203204E-01
       -2   -1    0    0    0  501  0.00000000000E+00  0.00000000000E+00  0.24285733723E+03  0.24285733724E+03  0.25500000920E-02 0. -1.
        2   -1    0    0  501    0  0.00000000000E+00  0.00000000000E+00 -0.12502148570E+04  0.12502148570E+04  0.25500000920E-02 0.  1.
    10030    2    1    2    0    0  0.00000000000E+00  0.00000000000E+00 -0.10073575197E+04  0.14930721942E+04  0.11020414713E+04 0.  0.
        5    1    3    3  502    0  0.31060011945E+03  0.27519219837E+03 -0.12569404731E+02  0.41519063114E+03  0.46999998093E+01 0. -1.
       -5    1    3    3    0  502 -0.31060011945E+03 -0.27519219837E+03 -0.99478811501E+03  0.10778815631E+04  0.46999998093E+01 0.  1.
</event>
<event>
 5   0  0.2257667E-03  0.1095710E+04  0.7818609E-02  0.9209383E-01
        1   -1    0    0  501    0  0.00000000000E+00  0.00000000000E+00  0.25924211871E+03  0.25924211876E+03  0.50400001928E-02 0. -1.
       -1   -1    0    0    0  501  0.00000000000E+00  0.00000000000E+00 -0.11577788041E+04  0.11577788041E+04  0.50400001928E-02 0.  1.
    10030    2    1    2    0    0  0.00000000000E+00  0.00000000000E+00 -0.89853668540E+03  0.14170209229E+04  0.10957098708E+04 0.  0.
        4    1    3    3  502    0 -0.43274259322E+03 -0.26559322537E+03 -0.71536738650E+03  0.87724456335E+03  0.12699999809E+01 0.  1.
       -4    1    3    3    0  502  0.43274259322E+03  0.26559322537E+03 -0.18316929890E+03  0.53977635953E+03  0.12699999809E+01 0. -1.
</event>
<event>
 5   0  0.3962999E-03  0.1120802E+04  0.7818609E-02  0.9185151E-01
       -2   -1    0    0    0  501  0.00000000000E+00  0.00000000000E+00  0.24128234279E+03  0.24128234280E+03  0.25500000920E-02 0. -1.
        2   -1    0    0  501    0  0.00000000000E+00  0.00000000000E+00 -0.13015831930E+04  0.13015831930E+04  0.25500000920E-02 0.  1.
    10030    2    1    2    0    0  0.00000000000E+00  0.00000000000E+00 -0.10603008502E+04  0.15428655358E+04  0.11208015741E+04 0.  0.
        3    1    3    3  502    0 -0.15309867430E+03 -0.49107962787E+03 -0.83626587322E+03  0.98180396511E+03  0.10100000352E+00 0.  1.
       -3    1    3    3    0  502  0.15309867430E+03  0.49107962787E+03 -0.22403497696E+03  0.56106157067E+03  0.10100000352E+00 0. -1.
</event>
<event>
 5   0  0.3744875E-03  0.1100355E+04  0.7818609E-02  0.9204846E-01
        2   -1    0    0  501    0  0.00000000000E+00  0.00000000000E+00  0.14196582235E+04  0.14196582235E+04  0.25500000920E-02 0.  1.
       -2   -1    0    0    0  501  0.00000000000E+00  0.00000000000E+00 -0.21321693808E+03  0.21321693810E+03  0.25500000920E-02 0. -1.
    10030    2    1    2    0    0  0.00000000000E+00  0.00000000000E+00  0.12064412854E+04  0.16328751616E+04  0.11003548147E+04 0.  0.
        2    1    3    3  502    0  0.42422032267E+03  0.15231041658E+03  0.13504846381E+03  0.47053101147E+03  0.25500000920E-02 0.  1.
       -2    1    3    3    0  502 -0.42422032267E+03 -0.15231041658E+03  0.10713928216E+04  0.11623441501E+04  0.25500000920E-02 0. -1.
</event>
<event>
 5   0  0.3713158E-03  0.1110474E+04  0.7818609E-02  0.9195043E-01
        2   -1    0    0  501    0  0.00000000000E+00  0.00000000000E+00  0.39279199542E+03  0.39279199543E+03  0.25500000920E-02 0. -1.
       -2   -1    0    0    0  501  0.00000000000E+00  0.00000000000E+00 -0.78486320593E+03  0.78486320593E+03  0.25500000920E-02 0.  1.
    10030    2    1    2    0    0  0.00000000000E+00  0.00000000000E+00 -0.39207121050E+03  0.11776552014E+04  0.11104737454E+04 0.  0.
        4    1    3    3  502    0 -0.10287608874E+03 -0.52041530674E+03 -0.22195457196E+02  0.53095181734E+03  0.12699999809E+01 0.  1.
       -4    1    3    3    0  502  0.10287608874E+03  0.52041530674E+03 -0.36987575331E+03  0.64670338402E+03  0.12699999809E+01 0. -1.
</event>
<event>
 5   0  0.3962999E-03  0.1020642E+04  0.7818609E-02  0.9286191E-01
        2   -1    0    0  501    0  0.00000000000E+00  0.00000000000E+00  0.24059358115E+04  0.24059358115E+04  0.25500000920E-02 0. -1.
       -2   -1    0    0    0  501  0.00000000000E+00  0.00000000000E+00 -0.10824368325E+03  0.10824368328E+03  0.25500000920E-02 0.  1.
    10030    2    1    2    0    0  0.00000000000E+00  0.00000000000E+00  0.22976921282E+04  0.25141794948E+04  0.10206416687E+04 0.  0.
        3    1    3    3  502    0 -0.25983753013E+03 -0.43886802256E+03  0.11919832563E+04  0.12965125440E+04  0.10100000352E+00 0.  1.
       -3    1    3    3    0  502  0.25983753013E+03  0.43886802256E+03  0.11057088720E+04  0.12176669508E+04  0.10100000352E+00 0. -1.
</event>
<event>
 5   0  0.3992414E-03  0.1082896E+04  0.7818609E-02  0.9222025E-01
       -2   -1    0    0    0  501  0.00000000000E+00  0.00000000000E+00  0.20104218277E+03  0.20104218279E+03  0.25500000920E-02 0.  1.
        2   -1    0    0  501    0  0.00000000000E+00  0.00000000000E+00 -0.14582299648E+04  0.14582299648E+04  0.25500000920E-02 0. -1.
    10030    2    1    2    0    0  0.00000000000E+00  0.00000000000E+00 -0.12571877820E+04  0.16592721476E+04  0.10828956277E+04 0.  0.
        1    1    3    3  502    0 -0.33910573116E+03  0.10038573411E+03 -0.12568104505E+04  0.13056195851E+04  0.50400001928E-02 0. -1.
       -1    1    3    3    0  502  0.33910573116E+03 -0.10038573411E+03 -0.37733149285E+00  0.35365256245E+03  0.50400001928E-02 0.  1.
</event>
<event>
 5   0  0.3992414E-03  0.1087592E+04  0.7818609E-02  0.9217370E-01
       -2   -1    0    0    0  501  0.00000000000E+00  0.00000000000E+00  0.60712392277E+03  0.60712392278E+03  0.25500000920E-02 0.  1.
        2   -1    0    0  501    0  0.00000000000E+00  0.00000000000E+00 -0.48707406019E+03  0.48707406020E+03  0.25500000920E-02 0. -1.
    10030    2    1    2    0    0  0.00000000000E+00  0.00000000000E+00  0.12004986258E+03  0.10941979830E+04  0.10875924128E+04 0.  0.
        1    1    3    3  502    0 -0.49309003061E+03 -0.12408433224E+02 -0.17032542092E+03  0.52182611715E+03  0.50400001928E-02 0.  1.
       -1    1    3    3    0  502  0.49309003061E+03  0.12408433224E+02  0.29037528350E+03  0.57237186583E+03  0.50400001928E-02 0. -1.
</event>
<event>
 5   0  0.2298958E-03  0.1101407E+04  0.7818609E-02  0.9203822E-01
       -1   -1    0    0    0  501  0.00000000000E+00  0.00000000000E+00  0.40128143355E+03  0.40128143358E+03  0.50400001928E-02 0. -1.
        1   -1    0    0  501    0  0.00000000000E+00  0.00000000000E+00 -0.75576416654E+03  0.75576416656E+03  0.50400001928E-02 0.  1.
    10030    2    1    2    0    0  0.00000000000E+00  0.00000000000E+00 -0.35448273299E+03  0.11570456001E+04  0.11014066065E+04 0.  0.
        1    1    3    3  502    0  0.47244793045E+03 -0.21556537568E+03  0.15317584756E+02  0.51952873511E+03  0.50400001928E-02 0. -1.
       -1    1    3    3    0  502 -0.47244793045E+03  0.21556537568E+03 -0.36980031774E+03  0.63751686503E+03  0.50400001928E-02 0.  1.
</event>
<event>
 5   0  0.2374100E-03  0.1146955E+04  0.7818609E-02  0.9160597E-01
       -1   -1    0    0    0  501  0.00000000000E+00  0.00000000000E+00  0.45360249044E+03  0.45360249047E+03  0.50400001928E-02 0.  1.
        1   -1    0    0  501    0  0.00000000000E+00  0.00000000000E+00 -0.72503212880E+03  0.72503212882E+03  0.50400001928E-02 0. -1.
    10030    2    1    2    0    0  0.00000000000E+00  0.00000000000E+00 -0.27142963836E+03  0.11786346193E+04  0.11469548889E+04 0.  0.
        2    1    3    3  502    0 -0.45996538989E+03 -0.34145334123E+03 -0.16324729202E+03  0.59565780654E+03  0.25500000920E-02 0. -1.
       -2    1    3    3    0  502  0.45996538989E+03  0.34145334123E+03 -0.10818234635E+03  0.58297681275E+03  0.25500000920E-02 0.  1.
</event>
<event>
 5   0  0.3992414E-03  0.1105944E+04  0.7818609E-02  0.9199418E-01
        2   -1    0    0  501    0  0.00000000000E+00  0.00000000000E+00  0.62860364939E+03  0.62860364940E+03  0.25500000920E-02 0. -1.
       -2   -1    0    0    0  501  0.00000000000E+00  0.00000000000E+00 -0.48643992596E+03  0.48643992597E+03  0.25500000920E-02 0.  1.
    10030    2    1    2    0    0  0.00000000000E+00  0.00000000000E+00  0.14216372343E+03  0.11150435754E+04  0.11059437828E+04 0.  0.
        1    1    3    3  502    0  0.36506087179E+03 -0.87706915514E+02  0.48039758988E+03  0.60970795265E+03  0.50400001928E-02 0. -1.
       -1    1    3    3    0  502 -0.36506087179E+03  0.87706915514E+02 -0.33823386645E+03  0.50533562271E+03  0.50400001928E-02 0.  1.
</event>
<event>
 5   0  0.2255788E-03  0.1093005E+04  0.7818609E-02  0.9212036E-01
       -1   -1    0    0    0  501  0.00000000000E+00  0.00000000000E+00  0.62927450568E+03  0.62927450570E+03  0.50400001928E-02 0. -1.
        1   -1    0    0  501    0  0.00000000000E+00  0.00000000000E+00 -0.47461838580E+03  0.47461838583E+03  0.50400001928E-02 0.  1.
    10030    2    1    2    0    0  0.00000000000E+00  0.00000000000E+00  0.15465611988E+03  0.11038928915E+04  0.10930054897E+04 0.  0.
        3    1    3    3  502    0  0.33953602472E+03  0.33382208467E+03 -0.19356626230E+03  0.51399397311E+03  0.10100000352E+00 0.  1.
       -3    1    3    3    0  502 -0.33953602472E+03 -0.33382208467E+03  0.34822238217E+03  0.58989891841E+03  0.10100000352E+00 0. -1.
</event>
<event>
 5   0  0.3748901E-03  0.1097628E+04  0.7818609E-02  0.9207507E-01
       -2   -1    0    0    0  501  0.00000000000E+00  0.00000000000E+00  0.24463188111E+03  0.24463188112E+03  0.25500000920E-02 0.  1.
        2   -1    0    0  501    0  0.00000000000E+00  0.00000000000E+00 -0.12312242134E+04  0.12312242134E+04  0.25500000920E-02 0. -1.
    10030    2    1    2    0    0  0.00000000000E+00  0.00000000000E+00 -0.98659233225E+03  0.14758560945E+04  0.10976277974E+04 0.  0.
        5    1    3    3  502    0  0.16385374875E+02 -0.22055295078E+03  0.18203265043E+03  0.28647872596E+03  0.46999998093E+01 0.  1.
       -5    1    3    3    0  502 -0.16385374875E+02  0.22055295078E+03 -0.11686249827E+04  0.11893773685E+04  0.46999998093E+01 0. -1.
</event>
<event>
 5   0  0.2255788E-03  0.1112694E+04  0.7818609E-02  0.9192907E-01
       -1   -1    0    0    0  501  0.00000000000E+00  0.00000000000E+00  0.27965545582E+03  0.27965545586E+03  0.50400001928E-02 0. -1.
        1   -1    0    0  501    0  0.00000000000E+00  0.00000000000E+00 -0.11067979181E+04  0.11067979181E+04  0.50400001928E-02 0.  1.
    10030    2    1    2    0    0  0.00000000000E+00  0.00000000000E+00 -0.82714246224E+03  0.13864533739E+04  0.11126941652E+04 0.  0.
        3    1    3    3  502    0  0.59750449552E+02  0.46853679203E+03 -0.47260437049E+02  0.47468979431E+03  0.10100000352E+00 0. -1.
       -3    1    3    3    0  502 -0.59750449552E+02 -0.46853679203E+03 -0.77988202519E+03  0.91176357962E+03  0.10100000352E+00 0.  1.
</event>
<event>
 5   0  0.3744875E-03  0.1094428E+04  0.7818609E-02  0.9210640E-01
        2   -1    0    0  501    0  0.00000000000E+00  0.00000000000E+00  0.16763933291E+04  0.16763933291E+04  0.25500000920E-02 0. -1.
       -2   -1    0    0    0  501  0.00000000000E+00  0.00000000000E+00 -0.17862354097E+03  0.17862354099E+03  0.25500000920E-02 0.  1.
    10030    2    1    2    0    0  0.00000000000E+00  0.00000000000E+00  0.14977697881E+04  0.18550168701E+04  0.10944282754E+04 0.  0.
        2    1    3    3  502    0  0.54659721241E+02  0.53837314524E+03  0.61108123213E+03  0.81624359165E+03  0.25500000920E-02 0.  1.
       -2    1    3    3    0  502 -0.54659721241E+02 -0.53837314524E+03  0.88668855597E+03  0.10387732784E+04  0.25500000920E-02 0. -1.
</event>
<event>
 5   0  0.2257667E-03  0.1106345E+04  0.7818609E-02  0.9199030E-01
       -1   -1    0    0    0  501  0.00000000000E+00  0.00000000000E+00  0.25213492544E+03  0.25213492549E+03  0.50400001928E-02 0. -1.
        1   -1    0    0  501    0  0.00000000000E+00  0.00000000000E+00 -0.12136345642E+04  0.12136345643E+04  0.50400001928E-02 0.  1.
    10030    2    1    2    0    0  0.00000000000E+00  0.00000000000E+00 -0.96149963880E+03  0.14657694897E+04  0.11063447210E+04 0.  0.
        4    1    3    3  502    0 -0.36179911778E+03 -0.32058529091E+03 -0.12444804841E+03  0.49916175738E+03  0.12699999809E+01 0. -1.
       -4    1    3    3    0  502  0.36179911778E+03  0.32058529091E+03 -0.83705159040E+03  0.96660773236E+03  0.12699999809E+01 0.  1.
</event>
<event>
 5   0  0.2300702E-03  0.1108056E+04  0.7818609E-02  0.9197376E-01
        1   -1    0    0  501    0  0.00000000000E+00  0.00000000000E+00  0.81427262882E+03  0.81427262884E+03  0.50400001928E-02 0.  1.
       -1   -1    0    0    0  501  0.00000000000E+00  0.00000000000E+00 -0.37695834052E+03  0.37695834055E+03  0.50400001928E-02 0. -1.
    10030    2    1    2    0    0  0.00000000000E+00  0.00000000000E+00  0.43731428830E+03  0.11912309694E+04  0.11080557006E+04 0.  0.
        5    1    3    3  502    0 -0.52254610946E+03  0.16420283701E+03  0.30800888662E+03  0.62841751442E+03  0.46999998093E+01 0. -1.
       -5    1    3    3    0  502  0.52254610946E+03 -0.16420283701E+03  0.12930540168E+03  0.56281345497E+03  0.46999998093E+01 0.  1.
</event>
<event>
 5   0  0.2298958E-03  0.1120553E+04  0.7818609E-02  0.9185388E-01
        1   -1    0    0  501    0  0.00000000000E+00  0.00000000000E+00  0.74524272069E+03  0.74524272070E+03  0.50400001928E-02 0.  1.
       -1   -1    0    0    0  501  0.00000000000E+00  0.00000000000E+00 -0.42121812398E+03  0.42121812401E+03  0.50400001928E-02 0. -1.
    10030    2    1    2    0    0  0.00000000000E+00  0.00000000000E+00  0.32402459670E+03  0.11664608447E+04  0.11205529720E+04 0.  0.
        1    1    3    3  502    0  0.15974944658E+03 -0.17461371495E+03 -0.36663177168E+03  0.43638135977E+03  0.50400001928E-02 0. -1.
       -1    1    3    3    0  502 -0.15974944658E+03  0.17461371495E+03  0.69065636838E+03  0.73007948494E+03  0.50400001928E-02 0.  1.
</event>
<event>
 5   0  0.2374100E-03  0.1096716E+04  0.7818609E-02  0.9208399E-01
       -1   -1    0    0    0  501  0.00000000000E+00  0.00000000000E+00  0.26004210522E+03  0.26004210527E+03  0.50400001928E-02 0. -1.
        1   -1    0    0  501    0  0.00000000000E+00  0.00000000000E+00 -0.11563367625E+04  0.11563367625E+04  0.50400001928E-02 0.  1.
    10030    2    1    2    0    0  0.00000000000E+00  0.00000000000E+00 -0.89629465723E+03  0.14163788677E+04  0.10967155440E+04 0.  0.
        2    1    3    3  502    0 -0.16262706235E+03 -0.43834251243E+03 -0.81820464072E+03  0.94236434233E+03  0.25500000920E-02 0.  1.
       -2    1    3    3    0  502  0.16262706235E+03  0.43834251243E+03 -0.78090016518E+02  0.47401452540E+03  0.25500000920E-02 0. -1.
</event>
<event>
 5   0  0.3962999E-03  0.1088596E+04  0.7818609E-02  0.9216378E-01
        2   -1    0    0  501    0  0.00000000000E+00  0.00000000000E+00  0.22554296950E+03  0.22554296952E+03  0.25500000920E-02 0.  1.
       -2   -1    0    0    0  501  0.00000000000E+00  0.00000000000E+00 -0.13135436735E+04  0.13135436735E+04  0.25500000920E-02 0. -1.
    10030    2    1    2    0    0  0.00000000000E+00  0.00000000000E+00 -0.10880007040E+04  0.15390866431E+04  0.10885964187E+04 0.  0.
        3    1    3    3  502    0  0.23590576292E+03  0.27401823998E+03  0.31208220599E+02  0.36292077380E+03  0.10100000352E+00 0.  1.
       -3    1    3    3    0  502 -0.23590576292E+03 -0.27401823998E+03 -0.11192089246E+04  0.11761658693E+04  0.10100000352E+00 0. -1.
</event>
<event>
 5   0  0.3992414E-03  0.1085717E+04  0.7818609E-02  0.9219226E-01
       -2   -1    0    0    0  501  0.00000000000E+00  0.00000000000E+00  0.31987884409E+03  0.31987884410E+03  0.25500000920E-02 0. -1.
        2   -1    0    0  501    0  0.00000000000E+00  0.00000000000E+00 -0.92127204677E+03  0.92127204677E+03  0.25500000920E-02 0.  1.
    10030    2    1    2    0    0  0.00000000000E+00  0.00000000000E+00 -0.60139320268E+03  0.12411508909E+04  0.10857171591E+04 0.  0.
        1    1    3    3  502    0  0.57823840322E+02 -0.29198153537E+03 -0.81967039454E+03  0.87204149513E+03  0.50400001928E-02 0.  1.
       -1    1    3    3    0  502 -0.57823840322E+02  0.29198153537E+03  0.21827719187E+03  0.36910939574E+03  0.50400001928E-02 0. -1.
</event>
<event>
 5   0  0.2374100E-03  0.1102678E+04  0.7818609E-02  0.9202586E-01
       -1   -1    0    0    0  501  0.00000000000E+00  0.00000000000E+00  0.38631097636E+03  0.38631097640E+03  0.50400001928E-02 0.  1.
        1   -1    0    0  501    0  0.00000000000E+00  0.00000000000E+00 -0.78686461418E+03  0.78686461420E+03  0.50400001928E-02 0. -1.
    10030    2    1    2    0    0  0.00000000000E+00  0.00000000000E+00 -0.40055363782E+03  0.11731755906E+04  0.11026775365E+04 0.  0.
        2    1    3    3  502    0  0.33754355741E+03  0.39441045884E+02 -0.66217983768E+03  0.74429388463E+03  0.25500000920E-02 0. -1.
       -2    1    3    3    0  502 -0.33754355741E+03 -0.39441045884E+02  0.26162619987E+03  0.42888170597E+03  0.25500000920E-02 0.  1.
</event>
<event>
 5   0  0.2374100E-03  0.1094363E+04  0.7818609E-02  0.9210703E-01
        1   -1    0    0  501    0  0.00000000000E+00  0.00000000000E+00  0.78113909038E+03  0.78113909039E+03  0.50400001928E-02 0.  1.
       -1   -1    0    0    0  501  0.00000000000E+00  0.00000000000E+00 -0.38329646333E+03  0.38329646336E+03  0.50400001928E-02 0. -1.
    10030    2    1    2    0    0  0.00000000000E+00  0.00000000000E+00  0.39784262705E+03  0.11644355538E+04  0.10943634693E+04 0.  0.
        2    1    3    3  502    0  0.10857092432E+03 -0.36151950626E+03 -0.22257943428E+03  0.43820726099E+03  0.25500000920E-02 0. -1.
       -2    1    3    3    0  502 -0.10857092432E+03  0.36151950626E+03  0.62042206133E+03  0.72622829276E+03  0.25500000920E-02 0.  1.
</event>
<event>
 5   0  0.2255788E-03  0.1094497E+04  0.7818609E-02  0.9210572E-01
       -1   -1    0    0    0  501  0.00000000000E+00  0.00000000000E+00  0.76771416645E+03  0.76771416647E+03  0.50400001928E-02 0.  1.
        1   -1    0    0  501    0  0.00000000000E+00  0.00000000000E+00 -0.39009438704E+03  0.39009438707E+03  0.50400001928E-02 0. -1.
    10030    2    1    2    0    0  0.00000000000E+00  0.00000000000E+00  0.37761977942E+03  0.11578085535E+04  0.10944971214E+04 0.  0.
        3    1    3    3  502    0 -0.24390015484E+03 -0.21353724798E+03 -0.27759733919E+03  0.42678534972E+03  0.10100000352E+00 0. -1.
       -3    1    3    3    0  502  0.24390015484E+03  0.21353724798E+03  0.65521711861E+03  0.73102320382E+03  0.10100000352E+00 0.  1.
</event>
<event>
 5   0  0.2257667E-03  0.1101986E+04  0.7818609E-02  0.9203258E-01
        1   -1    0    0  501    0  0.00000000000E+00  0.00000000000E+00  0.60821605723E+03  0.60821605725E+03  0.50400001928E-02 0.  1.
       -1   -1    0    0    0  501  0.00000000000E+00  0.00000000000E+00 -0.49915354640E+03  0.49915354643E+03  0.50400001928E-02 0. -1.
    10030    2    1    2    0    0  0.00000000000E+00  0.00000000000E+00  0.10906251083E+03  0.11073696037E+04  0.11019858474E+04 0.  0.
        4    1    3    3  502    0 -0.18581445205E+03  0.88277668735E+02  0.56817583580E+03  0.60427257978E+03  0.12699999809E+01 0.  1.
       -4    1    3    3    0  502  0.18581445205E+03 -0.88277668735E+02 -0.45911332497E+03  0.50309702390E+03  0.12699999809E+01 0. -1.
</event>
<event>
 5   0  0.3744875E-03  0.1092703E+04  0.7818609E-02  0.9212333E-01
        2   -1    0    0  501    0  0.00000000000E+00  0.00000000000E+00  0.87012308646E+03  0.87012308646E+03  0.25500000920E-02 0. -1.
       -2   -1    0    0    0  501  0.00000000000E+00  0.00000000000E+00 -0.34305516657E+03  0.34305516657E+03  0.25500000920E-02 0.  1.
    10030    2    1    2    0    0  0.00000000000E+00  0.00000000000E+00  0.52706791989E+03  0.12131782530E+04  0.10927034737E+04 0.  0.
        2    1    3    3  502    0  0.39811251151E+03 -0.62932445693E+02 -0.14597690651E+03  0.42867624355E+03  0.25500000920E-02 0.  1.
       -2    1    3    3    0  502 -0.39811251151E+03  0.62932445693E+02  0.67304482640E+03  0.78450200949E+03  0.25500000920E-02 0. -1.
</event>
<event>
 5   0  0.3992414E-03  0.1088336E+04  0.7818609E-02  0.9216636E-01
       -2   -1    0    0    0  501  0.00000000000E+00  0.00000000000E+00  0.58333414416E+03  0.58333414416E+03  0.25500000920E-02 0.  1.
        2   -1    0    0  501    0  0.00000000000E+00  0.00000000000E+00 -0.50763140915E+03  0.50763140916E+03  0.25500000920E-02 0. -1.
    10030    2    1    2    0    0  0.00000000000E+00  0.00000000000E+00  0.75702735007E+02  0.10909655533E+04  0.10883358555E+04 0.  0.
        1    1    3    3  502    0  0.10363060497E+03 -0.12335858438E+03 -0.48317572360E+03  0.50932840342E+03  0.50400001928E-02 0. -1.
       -1    1    3    3    0  502 -0.10363060497E+03  0.12335858438E+03  0.55887845861E+03  0.58163714990E+03  0.50400001928E-02 0.  1.
</event>
<event>
 5   0  0.1508625E-03  0.1106893E+04  0.7818609E-02  0.9198499E-01
       -3   -1    0    0    0  501  0.00000000000E+00  0.00000000000E+00  0.46129025151E+03  0.46129026257E+03  0.10100000352E+00 0.  1.
        3   -1    0    0  501    0  0.00000000000E+00  0.00000000000E+00 -0.66401417491E+03  0.66401418259E+03  0.10100000352E+00 0. -1.
    10030    2    1    2    0    0  0.00000000000E+00  0.00000000000E+00 -0.20272392339E+03  0.11253044452E+04  0.11068934480E+04 0.  0.
        3    1    3    3  502    0  0.66523330072E+02  0.24915918865E+03  0.39647443438E+03  0.47296685090E+03  0.10100000352E+00 0.  1.
       -3    1    3    3    0  502 -0.66523330072E+02 -0.24915918865E+03 -0.59919835777E+03  0.65233759426E+03  0.10100000352E+00 0. -1.
</event>
<event>
 5   0  0.2298958E-03  0.1050980E+04  0.7818609E-02  0.9254333E-01
       -1   -1    0    0    0  501  0.00000000000E+00  0.00000000000E+00  0.80240225090E+03  0.80240225091E+03  0.50400001928E-02 0.  1.
        1   -1    0    0  501    0  0.00000000000E+00  0.00000000000E+00 -0.34414126031E+03  0.34414126035E+03  0.50400001928E-02 0. -1.
    10030    2    1    2    0    0  0.00000000000E+00  0.00000000000E+00  0.45826099058E+03  0.11465435113E+04  0.10509799654E+04 0.  0.
        1    1    3    3  502    0 -0.33220667585E+03  0.36849656316E+03  0.41804927691E+03  0.64878054108E+03  0.50400001928E-02 0.  1.
       -1    1    3    3    0  502  0.33220667585E+03 -0.36849656316E+03  0.40211713675E+02  0.49776297018E+03  0.50400001928E-02 0. -1.
</event>
<event>
 5   0  0.3744875E-03  0.1109528E+04  0.7818609E-02  0.9195954E-01
       -2   -1    0    0    0  501  0.00000000000E+00  0.00000000000E+00  0.61653411619E+03  0.61653411620E+03  0.25500000920E-02 0. -1.
        2   -1    0    0  501    0  0.00000000000E+00  0.00000000000E+00 -0.49918302999E+03  0.49918303000E+03  0.25500000920E-02 0.  1.
    10030    2    1    2    0    0  0.00000000000E+00  0.00000000000E+00  0.11735108620E+03  0.11157171462E+04  0.11095284912E+04 0.  0.
        2    1    3    3  502    0  0.22587687018E+03 -0.28644660362E+03  0.47896776249E+03  0.60206489245E+03  0.25500000920E-02 0. -1.
       -2    1    3    3    0  502 -0.22587687018E+03  0.28644660362E+03 -0.36161667629E+03  0.51365225375E+03  0.25500000920E-02 0.  1.
</event>
<event>
 5   0  0.2298958E-03  0.1284775E+04  0.7818609E-02  0.9041727E-01
       -1   -1    0    0    0  501  0.00000000000E+00  0.00000000000E+00  0.42780740001E+03  0.42780740004E+03  0.50400001928E-02 0.  1.
        1   -1    0    0  501    0  0.00000000000E+00  0.00000000000E+00 -0.96459635041E+03  0.96459635042E+03  0.50400001928E-02 0. -1.
    10030    2    1    2    0    0  0.00000000000E+00  0.00000000000E+00 -0.53678895040E+03  0.13924037505E+04  0.12847746211E+04 0.  0.
        1    1    3    3  502    0  0.21749838861E+03 -0.32436823257E+03  0.28437336662E+03  0.48310300249E+03  0.50400001928E-02 0.  1.
       -1    1    3    3    0  502 -0.21749838861E+03  0.32436823257E+03 -0.82116231702E+03  0.90930074797E+03  0.50400001928E-02 0. -1.
</event>
<event>
 5   0  0.3992414E-03  0.9436613E+03  0.7818609E-02  0.9372590E-01
        2   -1    0    0  501    0  0.00000000000E+00  0.00000000000E+00  0.76927745103E+03  0.76927745103E+03  0.25500000920E-02 0. -1.
       -2   -1    0    0    0  501  0.00000000000E+00  0.00000000000E+00 -0.28939385337E+03  0.28939385338E+03  0.25500000920E-02 0.  1.
    10030    2    1    2    0    0  0.00000000000E+00  0.00000000000E+00  0.47988359766E+03  0.10586713044E+04  0.94366130761E+03 0.  0.
        1    1    3    3  502    0 -0.33238151206E+03  0.21780480719E+02  0.61484378155E+03  0.69927443442E+03  0.50400001928E-02 0. -1.
       -1    1    3    3    0  502  0.33238151206E+03 -0.21780480719E+02 -0.13496018389E+03  0.35939686999E+03  0.50400001928E-02 0.  1.
</event>
<event>
 5   0  0.2255788E-03  0.1093767E+04  0.7818609E-02  0.9211288E-01
       -1   -1    0    0    0  501  0.00000000000E+00  0.00000000000E+00  0.69149555262E+03  0.69149555264E+03  0.50400001928E-02 0. -1.
        1   -1    0    0  501    0  0.00000000000E+00  0.00000000000E+00 -0.43251405826E+03  0.43251405829E+03  0.50400001928E-02 0.  1.
    10030    2    1    2    0    0  0.00000000000E+00  0.00000000000E+00  0.25898149437E+03  0.11240096109E+04  0.10937669729E+04 0.  0.
        3    1    3    3  502    0 -0.89088296210E+02 -0.25698764779E+03 -0.35807709342E+03  0.44966497604E+03  0.10100000352E+00 0.  1.
       -3    1    3    3    0  502  0.89088296210E+02  0.25698764779E+03  0.61705858779E+03  0.67434463489E+03  0.10100000352E+00 0. -1.
</event>
<event>
 5   0  0.3748901E-03  0.1134022E+04  0.7818609E-02  0.9172651E-01
       -2   -1    0    0    0  501  0.00000000000E+00  0.00000000000E+00  0.62932317616E+03  0.62932317616E+03  0.25500000920E-02 0. -1.
        2   -1    0    0  501    0  0.00000000000E+00  0.00000000000E+00 -0.51086894521E+03  0.51086894521E+03  0.25500000920E-02 0.  1.
    10030    2    1    2    0    0  0.00000000000E+00  0.00000000000E+00  0.11845423095E+03  0.11401921214E+04  0.11340223405E+04 0.  0.
        5    1    3    3  502    0  0.44881447659E+03 -0.31321617352E+03  0.20815717814E+03  0.58556836198E+03  0.46999998093E+01 0. -1.
       -5    1    3    3    0  502 -0.44881447659E+03  0.31321617352E+03 -0.89702947186E+02  0.55462375939E+03  0.46999998093E+01 0.  1.
</event>
<event>
 5   0  0.3992414E-03  0.1100074E+04  0.7818609E-02  0.9205119E-01
       -2   -1    0    0    0  501  0.00000000000E+00  0.00000000000E+00  0.90908800044E+03  0.90908800044E+03  0.25500000920E-02 0.  1.
        2   -1    0    0  501    0  0.00000000000E+00  0.00000000000E+00 -0.33279608999E+03  0.33279609000E+03  0.25500000920E-02 0. -1.
    10030    2    1    2    0    0  0.00000000000E+00  0.00000000000E+00  0.57629191045E+03  0.12418840904E+04  0.11000744193E+04 0.  0.
        1    1    3    3  502    0  0.18511603386E+03 -0.23238457331E+03 -0.23441876234E+03  0.37844774021E+03  0.50400001928E-02 0. -1.
       -1    1    3    3    0  502 -0.18511603386E+03  0.23238457331E+03  0.81071067279E+03  0.86343635023E+03  0.50400001928E-02 0.  1.
</event>
<event>
 5   0  0.2374100E-03  0.1111124E+04  0.7818609E-02  0.9194417E-01
       -1   -1    0    0    0  501  0.00000000000E+00  0.00000000000E+00  0.71425232348E+03  0.71425232350E+03  0.50400001928E-02 0.  1.
        1   -1    0    0  501    0  0.00000000000E+00  0.00000000000E+00 -0.43212905811E+03  0.43212905814E+03  0.50400001928E-02 0. -1.
    10030    2    1    2    0    0  0.00000000000E+00  0.00000000000E+00  0.28212326537E+03  0.11463813816E+04  0.11111240864E+04 0.  0.
        2    1    3    3  502    0 -0.27501141395E+03  0.46656740230E+03  0.13306957066E+02  0.54175039806E+03  0.25500000920E-02 0. -1.
       -2    1    3    3    0  502  0.27501141395E+03 -0.46656740230E+03  0.26881630831E+03  0.60463098358E+03  0.25500000920E-02 0.  1.
</event>
<event>
 5   0  0.3744875E-03  0.1111165E+04  0.7818609E-02  0.9194378E-01
       -2   -1    0    0    0  501  0.00000000000E+00  0.00000000000E+00  0.28245617229E+03  0.28245617230E+03  0.25500000920E-02 0.  1.
        2   -1    0    0  501    0  0.00000000000E+00  0.00000000000E+00 -0.10928127417E+04  0.10928127417E+04  0.25500000920E-02 0. -1.
    10030    2    1    2    0    0  0.00000000000E+00  0.00000000000E+00 -0.81035656943E+03  0.13752689140E+04  0.11111646216E+04 0.  0.
        2    1    3    3  502    0  0.13543087089E+02 -0.43492665743E+03  0.22363680014E+02  0.43571177026E+03  0.25500000920E-02 0.  1.
       -2    1    3    3    0  502 -0.13543087089E+02  0.43492665743E+03 -0.83272024944E+03  0.93955714376E+03  0.25500000920E-02 0. -1.
</event>
<event>
 5   0  0.3992414E-03  0.1109863E+04  0.7818609E-02  0.9195632E-01
        2   -1    0    0  501    0  0.00000000000E+00  0.00000000000E+00  0.20322701305E+04  0.20322701305E+04  0.25500000920E-02 0.  1.
       -2   -1    0    0    0  501  0.00000000000E+00  0.00000000000E+00 -0.15152943237E+03  0.15152943239E+03  0.25500000920E-02 0. -1.
    10030    2    1    2    0    0  0.00000000000E+00  0.00000000000E+00  0.18807406981E+04  0.21837995629E+04  0.11098625849E+04 0.  0.
        1    1    3    3  502    0 -0.27730696592E+03  0.85292854857E+01  0.18860145833E+04  0.19063113362E+04  0.50400001928E-02 0.  1.
       -1    1    3    3    0  502  0.27730696592E+03 -0.85292854857E+01 -0.52738851826E+01  0.27748822669E+03  0.50400001928E-02 0. -1.
</event>
<event>
 5   0  0.2374100E-03  0.1093969E+04  0.7818609E-02  0.9211090E-01
       -1   -1    0    0    0  501  0.00000000000E+00  0.00000000000E+00  0.32290788188E+03  0.32290788192E+03  0.50400001928E-02 0.  1.
        1   -1    0    0  501    0  0.00000000000E+00  0.00000000000E+00 -0.92655621880E+03  0.92655621881E+03  0.50400001928E-02 0. -1.
    10030    2    1    2    0    0  0.00000000000E+00  0.00000000000E+00 -0.60364833692E+03  0.12494641007E+04  0.10939694805E+04 0.  0.
        2    1    3    3  502    0 -0.36104156813E+03  0.38269328198E+03 -0.13093366719E+03  0.54217044110E+03  0.25500000920E-02 0.  1.
       -2    1    3    3    0  502  0.36104156813E+03 -0.38269328198E+03 -0.47271466973E+03  0.70729365964E+03  0.25500000920E-02 0. -1.
</event>
<event>
 5   0  0.2257667E-03  0.1094404E+04  0.7818609E-02  0.9210663E-01
        1   -1    0    0  501    0  0.00000000000E+00  0.00000000000E+00  0.36939192954E+03  0.36939192957E+03  0.50400001928E-02 0. -1.
       -1   -1    0    0    0  501  0.00000000000E+00  0.00000000000E+00 -0.81060302097E+03  0.81060302098E+03  0.50400001928E-02 0.  1.
    10030    2    1    2    0    0  0.00000000000E+00  0.00000000000E+00 -0.44121109143E+03  0.11799949506E+04  0.10944043385E+04 0.  0.
        4    1    3    3  502    0 -0.10731383971E+03  0.45624756608E+03 -0.52509275126E+03  0.70384807457E+03  0.12699999809E+01 0.  1.
       -4    1    3    3    0  502  0.10731383971E+03 -0.45624756608E+03  0.83881659838E+02  0.47614687598E+03  0.12699999809E+01 0. -1.
</event>
<event>
 5   0  0.3748901E-03  0.1112784E+04  0.7818609E-02  0.9192820E-01
        2   -1    0    0  501    0  0.00000000000E+00  0.00000000000E+00  0.44840493733E+03  0.44840493734E+03  0.25500000920E-02 0.  1.
       -2   -1    0    0    0  501  0.00000000000E+00  0.00000000000E+00 -0.69038522149E+03  0.69038522150E+03  0.25500000920E-02 0. -1.
    10030    2    1    2    0    0  0.00000000000E+00  0.00000000000E+00 -0.24198028416E+03  0.11387901588E+04  0.11127841515E+04 0.  0.
        5    1    3    3  502    0 -0.33734614712E+03  0.21016429425E+02 -0.57325255791E+03  0.66549582902E+03  0.46999998093E+01 0. -1.
       -5    1    3    3    0  502  0.33734614712E+03 -0.21016429425E+02  0.33127227375E+03  0.47329432982E+03  0.46999998093E+01 0.  1.
</event>
<event>
 5   0  0.2255788E-03  0.1169174E+04  0.7818609E-02  0.9140275E-01
        1   -1    0    0  501    0  0.00000000000E+00  0.00000000000E+00  0.19506088807E+04  0.19506088807E+04  0.50400001928E-02 0.  1.
       -1   -1    0    0    0  501  0.00000000000E+00  0.00000000000E+00 -0.17519750061E+03  0.17519750068E+03  0.50400001928E-02 0. -1.
    10030    2    1    2    0    0  0.00000000000E+00  0.00000000000E+00  0.17754113801E+04  0.21258063814E+04  0.11691737264E+04 0.  0.
        3    1    3    3  502    0 -0.29207010375E+03 -0.34853634282E+03  0.15556588481E+04  0.16207581527E+04  0.10100000352E+00 0.  1.
       -3    1    3    3    0  502  0.29207010375E+03  0.34853634282E+03  0.21975253203E+03  0.50504822869E+03  0.10100000352E+00 0. -1.
</event>
<event>
 5   0  0.2298958E-03  0.1116025E+04  0.7818609E-02  0.9189712E-01
       -1   -1    0    0    0  501  0.00000000000E+00  0.00000000000E+00  0.17427271923E+03  0.17427271930E+03  0.50400001928E-02 0.  1.
        1   -1    0    0  501    0  0.00000000000E+00  0.00000000000E+00 -0.17867294760E+04  0.17867294760E+04  0.50400001928E-02 0. -1.
    10030    2    1    2    0    0  0.00000000000E+00  0.00000000000E+00 -0.16124567568E+04  0.19610021953E+04  0.11160254556E+04 0.  0.
        1    1    3    3  502    0  0.31375847069E+03  0.42477237582E+03 -0.48944621013E+03  0.72002329256E+03  0.50400001928E-02 0. -1.
       -1    1    3    3    0  502 -0.31375847069E+03 -0.42477237582E+03 -0.11230105466E+04  0.12409789028E+04  0.50400001928E-02 0.  1.
</event>
<event>
 5   0  0.3962999E-03  0.1093344E+04  0.7818609E-02  0.9211704E-01
       -2   -1    0    0    0  501  0.00000000000E+00  0.00000000000E+00  0.30662178616E+03  0.30662178617E+03  0.25500000920E-02 0. -1.
        2   -1    0    0  501    0  0.00000000000E+00  0.00000000000E+00 -0.97465455923E+03  0.97465455923E+03  0.25500000920E-02 0.  1.
    10030    2    1    2    0    0  0.00000000000E+00  0.00000000000E+00 -0.66803277307E+03  0.12812763454E+04  0.10933440846E+04 0.  0.
        3    1    3    3  502    0  0.49417237853E+03 -0.18724565306E+03 -0.17002313573E+03  0.55513525485E+03  0.10100000352E+00 0. -1.
       -3    1    3    3    0  502 -0.49417237853E+03  0.18724565306E+03 -0.49800963734E+03  0.72614109055E+03  0.10100000352E+00 0.  1.
</event>
<event>
 5   0  0.3748901E-03  0.1092288E+04  0.7818609E-02  0.9212741E-01
        2   -1    0    0  501    0  0.00000000000E+00  0.00000000000E+00  0.14894272708E+04  0.14894272708E+04  0.25500000920E-02 0.  1.
       -2   -1    0    0    0  501  0.00000000000E+00  0.00000000000E+00 -0.20026029420E+03  0.20026029422E+03  0.25500000920E-02 0. -1.
    10030    2    1    2    0    0  0.00000000000E+00  0.00000000000E+00  0.12891669766E+04  0.16896875650E+04  0.10922877706E+04 0.  0.
        5    1    3    3  502    0  0.44277613460E+03  0.26278560832E+03  0.92620917879E+03  0.10597134113E+04  0.46999998093E+01 0.  1.
       -5    1    3    3    0  502 -0.44277613460E+03 -0.26278560832E+03  0.36295779782E+03  0.62997415368E+03  0.46999998093E+01 0. -1.
</event>
<event>
 5   0  0.2300702E-03  0.1099016E+04  0.7818609E-02  0.9206152E-01
       -1   -1    0    0    0  501  0.00000000000E+00  0.00000000000E+00  0.49516795367E+03  0.49516795370E+03  0.50400001928E-02 0. -1.
        1   -1    0    0  501    0  0.00000000000E+00  0.00000000000E+00 -0.60981092521E+03  0.60981092523E+03  0.50400001928E-02 0.  1.
    10030    2    1    2    0    0  0.00000000000E+00  0.00000000000E+00 -0.11464297154E+03  0.11049788789E+04  0.10990156104E+04 0.  0.
        5    1    3    3  502    0  0.81549242297E+02  0.27987335136E+03 -0.52563567416E+03  0.60107763530E+03  0.46999998093E+01 0.  1.
       -5    1    3    3    0  502 -0.81549242297E+02 -0.27987335136E+03  0.41099270262E+03  0.50390124362E+03  0.46999998093E+01 0. -1.
</event>
<event>
 5   0  0.2374100E-03  0.1099558E+04  0.7818609E-02  0.9205623E-01
        1   -1    0    0  501    0  0.00000000000E+00  0.00000000000E+00  0.79192013369E+03  0.79192013370E+03  0.50400001928E-02 0. -1.
       -1   -1    0    0    0  501  0.00000000000E+00  0.00000000000E+00 -0.38167587823E+03  0.38167587826E+03  0.50400001928E-02 0.  1.
    10030    2    1    2    0    0  0.00000000000E+00  0.00000000000E+00  0.41024425546E+03  0.11735960120E+04  0.10995577521E+04 0.  0.
        2    1    3    3  502    0 -0.20460647156E+02  0.53819519269E+03  0.32293628158E+03  0.62798132574E+03  0.25500000920E-02 0.  1.
       -2    1    3    3    0  502  0.20460647156E+02 -0.53819519269E+03  0.87307973876E+02  0.54561468622E+03  0.25500000920E-02 0. -1.
</event>
<event>
 5   0  0.3713158E-03  0.1114190E+04  0.7818609E-02  0.9191471E-01
        2   -1    0    0  501    0  0.00000000000E+00  0.00000000000E+00  0.25591516645E+04  0.25591516645E+04  0.25500000920E-02 0. -1.
       -2   -1    0    0    0  501  0.00000000000E+00  0.00000000000E+00 -0.12127250513E+03  0.12127250515E+03  0.25500000920E-02 0.  1.
    10030    2    1    2    0    0  0.00000000000E+00  0.00000000000E+00  0.24378791593E+04  0.26804241696E+04  0.11141898104E+04 0.  0.
        4    1    3    3  502    0 -0.30480436806E+03 -0.25108386141E+03  0.21642491519E+04  0.21999829119E+04  0.12699999809E+01 0. -1.
       -4    1    3    3    0  502  0.30480436806E+03  0.25108386141E+03  0.27363000742E+03  0.48044125770E+03  0.12699999809E+01 0.  1.
</event>
<event>
 5   0  0.3748901E-03  0.1096371E+04  0.7818609E-02  0.9208736E-01
       -2   -1    0    0    0  501  0.00000000000E+00  0.00000000000E+00  0.21300704430E+03  0.21300704432E+03  0.25500000920E-02 0. -1.
        2   -1    0    0  501    0  0.00000000000E+00  0.00000000000E+00 -0.14107857029E+04  0.14107857029E+04  0.25500000920E-02 0.  1.
    10030    2    1    2    0    0  0.00000000000E+00  0.00000000000E+00 -0.11977786586E+04  0.16237927472E+04  0.10963709094E+04 0.  0.
        5    1    3    3  502    0  0.87785183668E+02  0.29510659245E+03 -0.12705977694E+04  0.13073771151E+04  0.46999998093E+01 0.  1.
       -5    1    3    3    0  502 -0.87785183668E+02 -0.29510659245E+03  0.72819110800E+02  0.31641563216E+03  0.46999998093E+01 0. -1.
</event>
<event>
 5   0  0.2298958E-03  0.1102404E+04  0.7818609E-02  0.9202852E-01
       -1   -1    0    0    0  501  0.00000000000E+00  0.00000000000E+00  0.72358092144E+03  0.72358092146E+03  0.50400001928E-02 0.  1.
        1   -1    0    0  501    0  0.00000000000E+00  0.00000000000E+00 -0.41988914376E+03  0.41988914379E+03  0.50400001928E-02 0. -1.
    10030    2    1    2    0    0  0.00000000000E+00  0.00000000000E+00  0.30369177768E+03  0.11434700653E+04  0.11024042336E+04 0.  0.
        1    1    3    3  502    0 -0.54682069719E+03 -0.56961184199E+02  0.19289695818E+03  0.58263769865E+03  0.50400001928E-02 0. -1.
       -1    1    3    3    0  502  0.54682069719E+03  0.56961184199E+02  0.11079481950E+03  0.56083236661E+03  0.50400001928E-02 0.  1.
</event>
<event>
 5   0  0.3744875E-03  0.1103567E+04  0.7818609E-02  0.9201722E-01
       -2   -1    0    0    0  501  0.00000000000E+00  0.00000000000E+00  0.29543198992E+03  0.29543198993E+03  0.25500000920E-02 0. -1.
        2   -1    0    0  501    0  0.00000000000E+00  0.00000000000E+00 -0.10305762577E+04  0.10305762577E+04  0.25500000920E-02 0.  1.
    10030    2    1    2    0    0  0.00000000000E+00  0.00000000000E+00 -0.73514426777E+03  0.13260082476E+04  0.11035672967E+04 0.  0.
        2    1    3    3  502    0  0.10433676562E+03 -0.43882742774E+03 -0.74945358354E+03  0.87472072451E+03  0.25500000920E-02 0.  1.
       -2    1    3    3    0  502 -0.10433676562E+03  0.43882742774E+03  0.14309315769E+02  0.45128752312E+03  0.25500000920E-02 0. -1.
</event>
<event>
 5   0  0.2374100E-03  0.1106657E+04  0.7818609E-02  0.9198728E-01
       -1   -1    0    0    0  501  0.00000000000E+00  0.00000000000E+00  0.38164978844E+03  0.38164978847E+03  0.50400001928E-02 0.  1.
        1   -1    0    0  501    0  0.00000000000E+00  0.00000000000E+00 -0.80223415055E+03  0.80223415057E+03  0.50400001928E-02 0. -1.
    10030    2    1    2    0    0  0.00000000000E+00  0.00000000000E+00 -0.42058436211E+03  0.11838839390E+04  0.11066571174E+04 0.  0.
        2    1    3    3  502    0 -0.62783728647E+02 -0.28201004768E+03  0.29455177400E+03  0.41259206384E+03  0.25500000920E-02 0.  1.
       -2    1    3    3    0  502  0.62783728647E+02  0.28201004768E+03 -0.71513613610E+03  0.77129187520E+03  0.25500000920E-02 0. -1.
</event>
<event>
 5   0  0.3992414E-03  0.1108156E+04  0.7818609E-02  0.9197278E-01
       -2   -1    0    0    0  501  0.00000000000E+00  0.00000000000E+00  0.88434391922E+03  0.88434391923E+03  0.25500000920E-02 0.  1.
        2   -1    0    0  501    0  0.00000000000E+00  0.00000000000E+00 -0.34715296387E+03  0.34715296388E+03  0.25500000920E-02 0. -1.
    10030    2    1    2    0    0  0.00000000000E+00  0.00000000000E+00  0.53719095535E+03  0.12314968831E+04  0.11081563295E+04 0.  0.
        1    1    3    3  502    0 -0.30451229325E+03 -0.28770264218E+03  0.67158947091E+03  0.79153835316E+03  0.50400001928E-02 0.  1.
       -1    1    3    3    0  502  0.30451229325E+03  0.28770264218E+03 -0.13439851556E+03  0.43995852995E+03  0.50400001928E-02 0. -1.
</event>
<event>
 5   0  0.2298958E-03  0.1123508E+04  0.7818609E-02  0.9182577E-01
       -1   -1    0    0    0  501  0.00000000000E+00  0.00000000000E+00  0.10358648259E+04  0.10358648259E+04  0.50400001928E-02 0. -1.
        1   -1    0    0  501    0  0.00000000000E+00  0.00000000000E+00 -0.30464172073E+03  0.30464172077E+03  0.50400001928E-02 0.  1.
    10030    2    1    2    0    0  0.00000000000E+00  0.00000000000E+00  0.73122310520E+03  0.13405065467E+04  0.11235081540E+04 0.  0.
        1    1    3    3  502    0  0.34476569113E+03  0.38041627222E+03  0.93565079048E+02  0.52185663356E+03  0.50400001928E-02 0.  1.
       -1    1    3    3    0  502 -0.34476569113E+03 -0.38041627222E+03  0.63765802616E+03  0.81864991315E+03  0.50400001928E-02 0. -1.
</event>
<event>
 5   0  0.2255788E-03  0.1075644E+04  0.7818609E-02  0.9229261E-01
        1   -1    0    0  501    0  0.00000000000E+00  0.00000000000E+00  0.91920898385E+03  0.91920898386E+03  0.50400001928E-02 0. -1.
       -1   -1    0    0    0  501  0.00000000000E+00  0.00000000000E+00 -0.31467571490E+03  0.31467571494E+03  0.50400001928E-02 0.  1.
    10030    2    1    2    0    0  0.00000000000E+00  0.00000000000E+00  0.60453326895E+03  0.12338846988E+04  0.10756444471E+04 0.  0.
        3    1    3    3  502    0 -0.30957858873E+03 -0.80323147830E+02 -0.19373435026E+03  0.37393009955E+03  0.10100000352E+00 0.  1.
       -3    1    3    3    0  502  0.30957858873E+03  0.80323147830E+02  0.79826761921E+03  0.85995459925E+03  0.10100000352E+00 0. -1.
</event>
<event>
 5   0  0.3713158E-03  0.1103065E+04  0.7818609E-02  0.9202210E-01
        2   -1    0    0  501    0  0.00000000000E+00  0.00000000000E+00  0.19779427836E+04  0.19779427836E+04  0.25500000920E-02 0. -1.
       -2   -1    0    0    0  501  0.00000000000E+00  0.00000000000E+00 -0.15379008349E+03  0.15379008351E+03  0.25500000920E-02 0.  1.
    10030    2    1    2    0    0  0.00000000000E+00  0.00000000000E+00  0.18241527001E+04  0.21317328671E+04  0.11030647957E+04 0.  0.
        4    1    3    3  502    0  0.16847253643E+03  0.50718908194E+03  0.64877607835E+03  0.84055682325E+03  0.12699999809E+01 0.  1.
       -4    1    3    3    0  502 -0.16847253643E+03 -0.50718908194E+03  0.11753766217E+04  0.12911760438E+04  0.12699999809E+01 0. -1.
</event>
<event>
 5   0  0.3992414E-03  0.1097624E+04  0.7818609E-02  0.9207511E-01
        2   -1    0    0  501    0  0.00000000000E+00  0.00000000000E+00  0.30015437872E+03  0.30015437873E+03  0.25500000920E-02 0.  1.
       -2   -1    0    0    0  501  0.00000000000E+00  0.00000000000E+00 -0.10034660708E+04  0.10034660708E+04  0.25500000920E-02 0. -1.
    10030    2    1    2    0    0  0.00000000000E+00  0.00000000000E+00 -0.70331169207E+03  0.13036204495E+04  0.10976242254E+04 0.  0.
        1    1    3    3  502    0  0.42452787483E+03 -0.29510070480E+02 -0.76324975388E+03  0.87386780899E+03  0.50400001928E-02 0. -1.
       -1    1    3    3    0  502 -0.42452787483E+03  0.29510070480E+02  0.59938061808E+02  0.42975264053E+03  0.50400001928E-02 0.  1.
</event>
<event>
 5   0  0.3748901E-03  0.1032330E+04  0.7818609E-02  0.9273780E-01
        2   -1    0    0  501    0  0.00000000000E+00  0.00000000000E+00  0.25203796155E+03  0.25203796156E+03  0.25500000920E-02 0.  1.
       -2   -1    0    0    0  501  0.00000000000E+00  0.00000000000E+00 -0.10570878996E+04  0.10570878996E+04  0.25500000920E-02 0. -1.
    10030    2    1    2    0    0  0.00000000000E+00  0.00000000000E+00 -0.80504993802E+03  0.13091258611E+04  0.10323299461E+04 0.  0.
        5    1    3    3  502    0  0.26798844150E+03  0.78139972828E+02  0.14802421449E+03  0.31600145285E+03  0.46999998093E+01 0.  1.
       -5    1    3    3    0  502 -0.26798844150E+03 -0.78139972828E+02 -0.95307415251E+03  0.99312440827E+03  0.46999998093E+01 0. -1.
</event>
<event>
 5   0  0.2257667E-03  0.1095166E+04  0.7818609E-02  0.9209916E-01
       -1   -1    0    0    0  501  0.00000000000E+00  0.00000000000E+00  0.23221384533E+03  0.23221384538E+03  0.50400001928E-02 0. -1.
        1   -1    0    0  501    0  0.00000000000E+00  0.00000000000E+00 -0.12912538771E+04  0.12912538771E+04  0.50400001928E-02 0.  1.
    10030    2    1    2    0    0  0.00000000000E+00  0.00000000000E+00 -0.10590400318E+04  0.15234677225E+04  0.10951657923E+04 0.  0.
        4    1    3    3  502    0 -0.17503329732E+03 -0.36188829212E+03 -0.10467445105E+04  0.11212829591E+04  0.12699999809E+01 0.  1.
       -4    1    3    3    0  502  0.17503329732E+03  0.36188829212E+03 -0.12295521211E+02  0.40218476337E+03  0.12699999809E+01 0. -1.
</event>
<event>
 5   0  0.2300702E-03  0.1085880E+04  0.7818609E-02  0.9219065E-01
       -1   -1    0    0    0  501  0.00000000000E+00  0.00000000000E+00  0.13977987237E+04  0.13977987237E+04  0.50400001928E-02 0.  1.
        1   -1    0    0  501    0  0.00000000000E+00  0.00000000000E+00 -0.21089134538E+03  0.21089134544E+03  0.50400001928E-02 0. -1.
    10030    2    1    2    0    0  0.00000000000E+00  0.00000000000E+00  0.11869073783E+04  0.16086900691E+04  0.10858796498E+04 0.  0.
        5    1    3    3  502    0 -0.20718895216E+03 -0.35478737357E+03  0.67669655568E+02  0.41641639572E+03  0.46999998093E+01 0. -1.
       -5    1    3    3    0  502  0.20718895216E+03  0.35478737357E+03  0.11192377227E+04  0.11922736734E+04  0.46999998093E+01 0.  1.
</event>
<event>
 5   0  0.3744875E-03  0.1108000E+04  0.7818609E-02  0.9197430E-01
        2   -1    0    0  501    0  0.00000000000E+00  0.00000000000E+00  0.16171436978E+04  0.16171436978E+04  0.25500000920E-02 0. -1.
       -2   -1    0    0    0  501  0.00000000000E+00  0.00000000000E+00 -0.18978880965E+03  0.18978880966E+03  0.25500000920E-02 0.  1.
    10030    2    1    2    0    0  0.00000000000E+00  0.00000000000E+00  0.14273548882E+04  0.18069325075E+04  0.11079995983E+04 0.  0.
        2    1    3    3  502    0  0.45221452525E+03  0.23344980790E+03  0.10706675223E+04  0.11854643533E+04  0.25500000920E-02 0.  1.
       -2    1    3    3    0  502 -0.45221452525E+03 -0.23344980790E+03  0.35668736581E+03  0.62146815412E+03  0.25500000920E-02 0. -1.
</event>
<event>
 5   0  0.2257667E-03  0.1089903E+04  0.7818609E-02  0.9215090E-01
        1   -1    0    0  501    0  0.00000000000E+00  0.00000000000E+00  0.27437968525E+04  0.27437968525E+04  0.50400001928E-02 0.  1.
       -1   -1    0    0    0  501  0.00000000000E+00  0.00000000000E+00 -0.10823396447E+03  0.10823396459E+03  0.50400001928E-02 0. -1.
    10030    2    1    2    0    0  0.00000000000E+00  0.00000000000E+00  0.26355628880E+04  0.28520308171E+04  0.10899027686E+04 0.  0.
        4    1    3    3  502    0 -0.15866723579E+03  0.64973667605E+02  0.26713742312E+04  0.26768710774E+04  0.12699999809E+01 0.  1.
       -4    1    3    3    0  502  0.15866723579E+03 -0.64973667605E+02 -0.35811343175E+02  0.17515973966E+03  0.12699999809E+01 0. -1.
</event>
<event>
 5   0  0.3748901E-03  0.1100863E+04  0.7818609E-02  0.9204351E-01
        2   -1    0    0  501    0  0.00000000000E+00  0.00000000000E+00  0.19459706665E+04  0.19459706665E+04  0.25500000920E-02 0.  1.
       -2   -1    0    0    0  501  0.00000000000E+00  0.00000000000E+00 -0.15569350682E+03  0.15569350684E+03  0.25500000920E-02 0. -1.
    10030    2    1    2    0    0  0.00000000000E+00  0.00000000000E+00  0.17902771597E+04  0.21016641734E+04  0.11008632926E+04 0.  0.
        5    1    3    3  502    0  0.69900901710E+02 -0.13130582449E+03 -0.11655324482E+03  0.18903466476E+03  0.46999998093E+01 0. -1.
       -5    1    3    3    0  502 -0.69900901710E+02  0.13130582449E+03  0.19068304045E+04  0.19126295086E+04  0.46999998093E+01 0.  1.
</event>
<event>
 5   0  0.2300702E-03  0.9776387E+03  0.7818609E-02  0.9333416E-01
       -1   -1    0    0    0  501  0.00000000000E+00  0.00000000000E+00  0.13512788652E+03  0.13512788662E+03  0.50400001928E-02 0. -1.
        1   -1    0    0  501    0  0.00000000000E+00  0.00000000000E+00 -0.17682830723E+04  0.17682830724E+04  0.50400001928E-02 0.  1.
    10030    2    1    2    0    0  0.00000000000E+00  0.00000000000E+00 -0.16331551858E+04  0.19034109590E+04  0.97763869489E+03 0.  0.
        5    1    3    3  502    0 -0.18288370127E+03 -0.31976170602E+03 -0.19103987357E+03  0.41498472276E+03  0.46999998093E+01 0. -1.
       -5    1    3    3    0  502  0.18288370127E+03  0.31976170602E+03 -0.14421153123E+04  0.14884262362E+04  0.46999998093E+01 0.  1.
</event>
<event>
 5   0  0.2298958E-03  0.1106119E+04  0.7818609E-02  0.9199249E-01
        1   -1    0    0  501    0  0.00000000000E+00  0.00000000000E+00  0.65517103055E+03  0.65517103057E+03  0.50400001928E-02 0. -1.
       -1   -1    0    0    0  501  0.00000000000E+00  0.00000000000E+00 -0.46686211664E+03  0.46686211667E+03  0.50400001928E-02 0.  1.
    10030    2    1    2    0    0  0.00000000000E+00  0.00000000000E+00  0.18830891391E+03  0.11220331472E+04  0.11061185002E+04 0.  0.
        1    1    3    3  502    0 -0.41406116501E+03 -0.66821426944E+02 -0.27153591961E+03  0.49964337996E+03  0.50400001928E-02 0.  1.
       -1    1    3    3    0  502  0.41406116501E+03  0.66821426944E+02  0.45984483353E+03  0.62238976728E+03  0.50400001928E-02 0. -1.
</event>
<event>
 5   0  0.3744875E-03  0.1105829E+04  0.7818609E-02  0.9199529E-01
       -2   -1    0    0    0  501  0.00000000000E+00  0.00000000000E+00  0.89380421133E+03  0.89380421134E+03  0.25500000920E-02 0.  1.
        2   -1    0    0  501    0  0.00000000000E+00  0.00000000000E+00 -0.34203747656E+03  0.34203747657E+03  0.25500000920E-02 0. -1.
    10030    2    1    2    0    0  0.00000000000E+00  0.00000000000E+00  0.55176673478E+03  0.12358416879E+04  0.11058291676E+04 0.  0.
        2    1    3    3  502    0  0.33435562576E+03 -0.40543048326E+03  0.46798511595E+03  0.70368858879E+03  0.25500000920E-02 0.  1.
       -2    1    3    3    0  502 -0.33435562576E+03  0.40543048326E+03  0.83781618833E+02  0.53215309912E+03  0.25500000920E-02 0. -1.
</event>
<event>
 5   0  0.2300702E-03  0.1073036E+04  0.7818609E-02  0.9231879E-01
       -1   -1    0    0    0  501  0.00000000000E+00  0.00000000000E+00  0.65961104017E+03  0.65961104019E+03  0.50400001928E-02 0.  1.
        1   -1    0    0  501    0  0.00000000000E+00  0.00000000000E+00 -0.43639606937E+03  0.43639606940E+03  0.50400001928E-02 0. -1.
    10030    2    1    2    0    0  0.00000000000E+00  0.00000000000E+00  0.22321497080E+03  0.10960071096E+04  0.10730361881E+04 0.  0.
        5    1    3    3  502    0  0.59716325404E+02  0.52185934320E+02 -0.43035494563E+03  0.43762641658E+03  0.46999998093E+01 0. -1.
       -5    1    3    3    0  502 -0.59716325404E+02 -0.52185934320E+02  0.65356991643E+03  0.65838069300E+03  0.46999998093E+01 0.  1.
</event>
<event>
 5   0  0.3992414E-03  0.1118324E+04  0.7818609E-02  0.9187514E-01
       -2   -1    0    0    0  501  0.00000000000E+00  0.00000000000E+00  0.55341927970E+03  0.55341927970E+03  0.25500000920E-02 0. -1.
        2   -1    0    0  501    0  0.00000000000E+00  0.00000000000E+00 -0.56496410838E+03  0.56496410838E+03  0.25500000920E-02 0.  1.
    10030    2    1    2    0    0  0.00000000000E+00  0.00000000000E+00 -0.11544828681E+02  0.11183833881E+04  0.11183237991E+04 0.  0.
        1    1    3    3  502    0  0.40190377698E+02 -0.12335579167E+03 -0.54970406360E+03  0.56480658226E+03  0.50400001928E-02 0.  1.
       -1    1    3    3    0  502 -0.40190377698E+02  0.12335579167E+03  0.53815923492E+03  0.55357680583E+03  0.50400001928E-02 0. -1.
</event>
<event>
 5   0  0.2298958E-03  0.1096706E+04  0.7818609E-02  0.9208409E-01
       -1   -1    0    0    0  501  0.00000000000E+00  0.00000000000E+00  0.73681178430E+03  0.73681178431E+03  0.50400001928E-02 0.  1.
        1   -1    0    0  501    0  0.00000000000E+00  0.00000000000E+00 -0.40809731191E+03  0.40809731194E+03  0.50400001928E-02 0. -1.
    10030    2    1    2    0    0  0.00000000000E+00  0.00000000000E+00  0.32871447239E+03  0.11449090963E+04  0.10967058103E+04 0.  0.
        1    1    3    3  502    0 -0.75478359923E+02  0.45912065887E+03 -0.13857287375E+03  0.48548038434E+03  0.50400001928E-02 0.  1.
       -1    1    3    3    0  502  0.75478359923E+02 -0.45912065887E+03  0.46728734614E+03  0.65942871192E+03  0.50400001928E-02 0. -1.
</event>
<event>
 5   0  0.2374100E-03  0.1108365E+04  0.7818609E-02  0.9197077E-01
        1   -1    0    0  501    0  0.00000000000E+00  0.00000000000E+00  0.12813129268E+04  0.12813129268E+04  0.50400001928E-02 0.  1.
       -1   -1    0    0    0  501  0.00000000000E+00  0.00000000000E+00 -0.23969029786E+03  0.23969029791E+03  0.50400001928E-02 0. -1.
    10030    2    1    2    0    0  0.00000000000E+00  0.00000000000E+00  0.10416226289E+04  0.15210032247E+04  0.11083650610E+04 0.  0.
        2    1    3    3  502    0 -0.39578709242E+02  0.55117372799E+03  0.46325138165E+03  0.72108307098E+03  0.25500000920E-02 0.  1.
       -2    1    3    3    0  502  0.39578709242E+02 -0.55117372799E+03  0.57837124728E+03  0.79992015373E+03  0.25500000920E-02 0. -1.
</event>
<event>
 5   0  0.3713158E-03  0.1164415E+04  0.7818609E-02  0.9144587E-01
        2   -1    0    0  501    0  0.00000000000E+00  0.00000000000E+00  0.54108429211E+03  0.54108429212E+03  0.25500000920E-02 0. -1.
       -2   -1    0    0    0  501  0.00000000000E+00  0.00000000000E+00 -0.62645626224E+03  0.62645626225E+03  0.25500000920E-02 0.  1.
    10030    2    1    2    0    0  0.00000000000E+00  0.00000000000E+00 -0.85371970133E+02  0.11675405544E+04  0.11644151205E+04 0.  0.
        4    1    3    3  502    0 -0.47464608039E+03  0.14977765775E+03  0.26018733444E+03  0.56162381564E+03  0.12699999809E+01 0. -1.
       -4    1    3    3    0  502  0.47464608039E+03 -0.14977765775E+03 -0.34555930458E+03  0.60591673873E+03  0.12699999809E+01 0.  1.
</event>
<event>
 5   0  0.3744875E-03  0.1093817E+04  0.7818609E-02  0.9211239E-01
       -2   -1    0    0    0  501  0.00000000000E+00  0.00000000000E+00  0.45041690617E+03  0.45041690618E+03  0.25500000920E-02 0.  1.
        2   -1    0    0  501    0  0.00000000000E+00  0.00000000000E+00 -0.66407119227E+03  0.66407119228E+03  0.25500000920E-02 0. -1.
    10030    2    1    2    0    0  0.00000000000E+00  0.00000000000E+00 -0.21365428610E+03  0.11144880985E+04  0.10938169717E+04 0.  0.
        2    1    3    3  502    0  0.50395470194E+03  0.67852050446E+02 -0.31196413773E+03  0.59657008439E+03  0.25500000920E-02 0. -1.
       -2    1    3    3    0  502 -0.50395470194E+03 -0.67852050446E+02  0.98309851627E+02  0.51791801407E+03  0.25500000920E-02 0.  1.
</event>
<event>
 5   0  0.3713158E-03  0.1053871E+04  0.7818609E-02  0.9251357E-01
       -2   -1    0    0    0  501  0.00000000000E+00  0.00000000000E+00  0.31307066891E+03  0.31307066892E+03  0.25500000920E-02 0.  1.
        2   -1    0    0  501    0  0.00000000000E+00  0.00000000000E+00 -0.88689523536E+03  0.88689523536E+03  0.25500000920E-02 0. -1.
    10030    2    1    2    0    0  0.00000000000E+00  0.00000000000E+00 -0.57382456645E+03  0.11999659043E+04  0.10538707408E+04 0.  0.
        4    1    3    3  502    0  0.10750177600E+02  0.25840115975E+03  0.23583114281E+03  0.35000666636E+03  0.12699999809E+01 0.  1.
       -4    1    3    3    0  502 -0.10750177600E+02 -0.25840115975E+03 -0.80965570926E+03  0.84995923792E+03  0.12699999809E+01 0. -1.
</event>
<event>
 5   0  0.2374100E-03  0.1119777E+04  0.7818609E-02  0.9186127E-01
       -1   -1    0    0    0  501  0.00000000000E+00  0.00000000000E+00  0.54920641235E+03  0.54920641237E+03  0.50400001928E-02 0.  1.
        1   -1    0    0  501    0  0.00000000000E+00  0.00000000000E+00 -0.57077878843E+03  0.57077878845E+03  0.50400001928E-02 0. -1.
    10030    2    1    2    0    0  0.00000000000E+00  0.00000000000E+00 -0.21572376077E+02  0.11199852008E+04  0.11197774255E+04 0.  0.
        2    1    3    3  502    0 -0.81296030781E+02 -0.25881077905E+03  0.47908352515E+03  0.55055707066E+03  0.25500000920E-02 0.  1.
       -2    1    3    3    0  502  0.81296030781E+02  0.25881077905E+03 -0.50065590123E+03  0.56942813016E+03  0.25500000920E-02 0. -1.
</event>
<event>
 5   0  0.3992414E-03  0.1110585E+04  0.7818609E-02  0.9194936E-01
       -2   -1    0    0    0  501  0.00000000000E+00  0.00000000000E+00  0.17733559664E+03  0.17733559666E+03  0.25500000920E-02 0. -1.
        2   -1    0    0  501    0  0.00000000000E+00  0.00000000000E+00 -0.17387926559E+04  0.17387926559E+04  0.25500000920E-02 0.  1.
    10030    2    1    2    0    0  0.00000000000E+00  0.00000000000E+00 -0.15614570593E+04  0.19161282526E+04  0.11105851306E+04 0.  0.
        1    1    3    3  502    0 -0.20090114227E+03  0.51730016433E+03 -0.74669510811E+03  0.93033021745E+03  0.50400001928E-02 0.  1.
       -1    1    3    3    0  502  0.20090114227E+03 -0.51730016433E+03 -0.81476195116E+03  0.98579803513E+03  0.50400001928E-02 0. -1.
</event>
<event>
 5   0  0.2257667E-03  0.1099652E+04  0.7818609E-02  0.9205531E-01
        1   -1    0    0  501    0  0.00000000000E+00  0.00000000000E+00  0.17625751160E+04  0.17625751160E+04  0.50400001928E-02 0. -1.
       -1   -1    0    0    0  501  0.00000000000E+00  0.00000000000E+00 -0.17151542587E+03  0.17151542595E+03  0.50400001928E-02 0.  1.
    10030    2    1    2    0    0  0.00000000000E+00  0.00000000000E+00  0.15910596901E+04  0.19340905419E+04  0.10996523482E+04 0.  0.
        4    1    3    3  502    0 -0.14753758956E+03  0.58254304896E+01  0.17270503535E+04  0.17333510356E+04  0.12699999809E+01 0. -1.
       -4    1    3    3    0  502  0.14753758956E+03 -0.58254304896E+01 -0.13599066343E+03  0.20073950636E+03  0.12699999809E+01 0.  1.
</event>
<event>
 5   0  0.2374100E-03  0.1085341E+04  0.7818609E-02  0.9219598E-01
        1   -1    0    0  501    0  0.00000000000E+00  0.00000000000E+00  0.85433699060E+03  0.85433699061E+03  0.50400001928E-02 0.  1.
       -1   -1    0    0    0  501  0.00000000000E+00  0.00000000000E+00 -0.34470152785E+03  0.34470152788E+03  0.50400001928E-02 0. -1.
    10030    2    1    2    0    0  0.00000000000E+00  0.00000000000E+00  0.50963546275E+03  0.11990385185E+04  0.10853409897E+04 0.  0.
        2    1    3    3  502    0 -0.14226219824E+03  0.52360143312E+03  0.26554424731E+03  0.60407842297E+03  0.25500000920E-02 0.  1.
       -2    1    3    3    0  502  0.14226219824E+03 -0.52360143312E+03  0.24409121544E+03  0.59496009553E+03  0.25500000920E-02 0. -1.
</event>
<event>
 5   0  0.2298958E-03  0.1096827E+04  0.7818609E-02  0.9208290E-01
       -1   -1    0    0    0  501  0.00000000000E+00  0.00000000000E+00  0.99239781213E+03  0.99239781214E+03  0.50400001928E-02 0. -1.
        1   -1    0    0  501    0  0.00000000000E+00  0.00000000000E+00 -0.30306112954E+03  0.30306112958E+03  0.50400001928E-02 0.  1.
    10030    2    1    2    0    0  0.00000000000E+00  0.00000000000E+00  0.68933668259E+03  0.12954589417E+04  0.10968266990E+04 0.  0.
        1    1    3    3  502    0 -0.30280891098E+03  0.31693532614E+03 -0.44585108966E+02  0.44060080515E+03  0.50400001928E-02 0.  1.
       -1    1    3    3    0  502  0.30280891098E+03 -0.31693532614E+03  0.73392179156E+03  0.85485813658E+03  0.50400001928E-02 0. -1.
</event>
<event>
 5   0  0.3713158E-03  0.1082809E+04  0.7818609E-02  0.9222112E-01
       -2   -1    0    0    0  501  0.00000000000E+00  0.00000000000E+00  0.53304436036E+03  0.53304436036E+03  0.25500000920E-02 0. -1.
        2   -1    0    0  501    0  0.00000000000E+00  0.00000000000E+00 -0.54989540364E+03  0.54989540364E+03  0.25500000920E-02 0.  1.
    10030    2    1    2    0    0  0.00000000000E+00  0.00000000000E+00 -0.16851043283E+02  0.10829397640E+04  0.10828086511E+04 0.  0.
        4    1    3    3  502    0 -0.21020829612E+02  0.41280522209E+03  0.34128380848E+03  0.53602824318E+03  0.12699999809E+01 0. -1.
       -4    1    3    3    0  502  0.21020829612E+02 -0.41280522209E+03 -0.35813485176E+03  0.54691152082E+03  0.12699999809E+01 0.  1.
</event>
<event>
 5   0  0.2255788E-03  0.1096854E+04  0.7818609E-02  0.9208263E-01
       -1   -1    0    0    0  501  0.00000000000E+00  0.00000000000E+00  0.71466620802E+03  0.71466620804E+03  0.50400001928E-02 0.  1.
        1   -1    0    0  501    0  0.00000000000E+00  0.00000000000E+00 -0.42085709241E+03  0.42085709244E+03  0.50400001928E-02 0. -1.
    10030    2    1    2    0    0  0.00000000000E+00  0.00000000000E+00  0.29380911562E+03  0.11355233005E+04  0.10968543064E+04 0.  0.
        3    1    3    3  502    0  0.37228461646E+02  0.48540967727E+03 -0.11451270665E+03  0.50012166853E+03  0.10100000352E+00 0. -1.
       -3    1    3    3    0  502 -0.37228461646E+02 -0.48540967727E+03  0.40832182227E+03  0.63540163195E+03  0.10100000352E+00 0.  1.
</event>
<event>
 5   0  0.2300702E-03  0.1097961E+04  0.7818609E-02  0.9207182E-01
        1   -1    0    0  501    0  0.00000000000E+00  0.00000000000E+00  0.44515399863E+03  0.44515399865E+03  0.50400001928E-02 0. -1.
       -1   -1    0    0    0  501  0.00000000000E+00  0.00000000000E+00 -0.67702313224E+03  0.67702313225E+03  0.50400001928E-02 0.  1.
    10030    2    1    2    0    0  0.00000000000E+00  0.00000000000E+00 -0.23186913361E+03  0.11221771309E+04  0.10979609365E+04 0.  0.
        5    1    3    3  502    0  0.11214311469E+03 -0.37238872456E+03  0.28004837628E+03  0.47926884252E+03  0.46999998093E+01 0. -1.
       -5    1    3    3    0  502 -0.11214311469E+03  0.37238872456E+03 -0.51191750989E+03  0.64290828839E+03  0.46999998093E+01 0.  1.
</event>
<event>
 5   0  0.2255788E-03  0.1104725E+04  0.7818609E-02  0.9200599E-01
        1   -1    0    0  501    0  0.00000000000E+00  0.00000000000E+00  0.61046204623E+03  0.61046204625E+03  0.50400001928E-02 0.  1.
       -1   -1    0    0    0  501  0.00000000000E+00  0.00000000000E+00 -0.49979250869E+03  0.49979250872E+03  0.50400001928E-02 0. -1.
    10030    2    1    2    0    0  0.00000000000E+00  0.00000000000E+00  0.11066953754E+03  0.11102545550E+04  0.11047250474E+04 0.  0.
        3    1    3    3  502    0 -0.44697704371E+03  0.29591429625E+03  0.18923300915E+03  0.56847417732E+03  0.10100000352E+00 0.  1.
       -3    1    3    3    0  502  0.44697704371E+03 -0.29591429625E+03 -0.78563471611E+02  0.54178037765E+03  0.10100000352E+00 0. -1.
</event>
<event>
 5   0  0.3744875E-03  0.1046698E+04  0.7818609E-02  0.9258760E-01
        2   -1    0    0  501    0  0.00000000000E+00  0.00000000000E+00  0.67847434698E+03  0.67847434699E+03  0.25500000920E-02 0. -1.
       -2   -1    0    0    0  501  0.00000000000E+00  0.00000000000E+00 -0.40369101845E+03  0.40369101846E+03  0.25500000920E-02 0.  1.
    10030    2    1    2    0    0  0.00000000000E+00  0.00000000000E+00  0.27478332853E+03  0.10821653654E+04  0.10466976643E+04 0.  0.
        2    1    3    3  502    0  0.21554057152E+03 -0.44725283653E+03  0.30853376884E+03  0.58453906993E+03  0.25500000920E-02 0. -1.
       -2    1    3    3    0  502 -0.21554057152E+03  0.44725283653E+03 -0.33750440307E+02  0.49762629551E+03  0.25500000920E-02 0.  1.
</event>
<event>
 5   0  0.3744875E-03  0.1106093E+04  0.7818609E-02  0.9199274E-01
        2   -1    0    0  501    0  0.00000000000E+00  0.00000000000E+00  0.18907178064E+04  0.18907178064E+04  0.25500000920E-02 0.  1.
       -2   -1    0    0    0  501  0.00000000000E+00  0.00000000000E+00 -0.16176945403E+03  0.16176945405E+03  0.25500000920E-02 0. -1.
    10030    2    1    2    0    0  0.00000000000E+00  0.00000000000E+00  0.17289483524E+04  0.20524872604E+04  0.11060929207E+04 0.  0.
        2    1    3    3  502    0  0.17971343777E+03 -0.42370195284E+03  0.14335176555E+04  0.15055873050E+04  0.25500000920E-02 0.  1.
       -2    1    3    3    0  502 -0.17971343777E+03  0.42370195284E+03  0.29543069689E+03  0.54689995541E+03  0.25500000920E-02 0. -1.
</event>
<event>
 5   0  0.3713158E-03  0.1103005E+04  0.7818609E-02  0.9202268E-01
        2   -1    0    0  501    0  0.00000000000E+00  0.00000000000E+00  0.16264224590E+04  0.16264224590E+04  0.25500000920E-02 0. -1.
       -2   -1    0    0    0  501  0.00000000000E+00  0.00000000000E+00 -0.18700848987E+03  0.18700848989E+03  0.25500000920E-02 0.  1.
    10030    2    1    2    0    0  0.00000000000E+00  0.00000000000E+00  0.14394139691E+04  0.18134309489E+04  0.11030046382E+04 0.  0.
        4    1    3    3  502    0  0.20192924928E+03  0.44769161904E+03  0.30720930572E+03  0.57929472455E+03  0.12699999809E+01 0.  1.
       -4    1    3    3    0  502 -0.20192924928E+03 -0.44769161904E+03  0.11322046634E+04  0.12341362243E+04  0.12699999809E+01 0. -1.
</event>
<event>
 5   0  0.2300702E-03  0.1109811E+04  0.7818609E-02  0.9195682E-01
       -1   -1    0    0    0  501  0.00000000000E+00  0.00000000000E+00  0.33823791342E+03  0.33823791346E+03  0.50400001928E-02 0.  1.
        1   -1    0    0  501    0  0.00000000000E+00  0.00000000000E+00 -0.91036512332E+03  0.91036512333E+03  0.50400001928E-02 0. -1.
    10030    2    1    2    0    0  0.00000000000E+00  0.00000000000E+00 -0.57212720989E+03  0.12486030368E+04  0.11098107943E+04 0.  0.
        5    1    3    3  502    0 -0.13420319108E+03  0.51594010523E+03 -0.11288768790E+03  0.54494991399E+03  0.46999998093E+01 0. -1.
       -5    1    3    3    0  502  0.13420319108E+03 -0.51594010523E+03 -0.45923952199E+03  0.70365312281E+03  0.46999998093E+01 0.  1.
</event>
<event>
 5   0  0.2255788E-03  0.1097769E+04  0.7818609E-02  0.9207369E-01
       -1   -1    0    0    0  501  0.00000000000E+00  0.00000000000E+00  0.24155478542E+03  0.24155478547E+03  0.50400001928E-02 0.  1.
        1   -1    0    0  501    0  0.00000000000E+00  0.00000000000E+00 -0.12472299385E+04  0.12472299385E+04  0.50400001928E-02 0. -1.
    10030    2    1    2    0    0  0.00000000000E+00  0.00000000000E+00 -0.10056751531E+04  0.14887847240E+04  0.10977693022E+04 0.  0.
        3    1    3    3  502    0  0.13846788494E+03  0.47982881698E+03 -0.81169587477E+03  0.95302636484E+03  0.10100000352E+00 0. -1.
       -3    1    3    3    0  502 -0.13846788494E+03 -0.47982881698E+03 -0.19397927829E+03  0.53575835913E+03  0.10100000352E+00 0.  1.
</event>
<event>
 5   0  0.2257667E-03  0.1090259E+04  0.7818609E-02  0.9214739E-01
       -1   -1    0    0    0  501  0.00000000000E+00  0.00000000000E+00  0.45777545804E+03  0.45777545807E+03  0.50400001928E-02 0. -1.
        1   -1    0    0  501    0  0.00000000000E+00  0.00000000000E+00 -0.64915242309E+03  0.64915242311E+03  0.50400001928E-02 0.  1.
    10030    2    1    2    0    0  0.00000000000E+00  0.00000000000E+00 -0.19137696504E+03  0.11069278812E+04  0.10902587727E+04 0.  0.
        4    1    3    3  502    0 -0.26432568796E+03  0.19564843118E+03 -0.53709768590E+03  0.62977925898E+03  0.12699999809E+01 0.  1.
       -4    1    3    3    0  502  0.26432568796E+03 -0.19564843118E+03  0.34572072086E+03  0.47714862220E+03  0.12699999809E+01 0. -1.
</event>
<event>
 5   0  0.3748901E-03  0.1088935E+04  0.7818609E-02  0.9216044E-01
        2   -1    0    0  501    0  0.00000000000E+00  0.00000000000E+00  0.17218113453E+04  0.17218113453E+04  0.25500000920E-02 0. -1.
       -2   -1    0    0    0  501  0.00000000000E+00  0.00000000000E+00 -0.17217047721E+03  0.17217047723E+03  0.25500000920E-02 0.  1.
    10030    2    1    2    0    0  0.00000000000E+00  0.00000000000E+00  0.15496408681E+04  0.18939818225E+04  0.10889354086E+04 0.  0.
        5    1    3    3  502    0 -0.20660509381E+03  0.44893530414E+03  0.37745899467E+03  0.62187294100E+03  0.46999998093E+01 0.  1.
       -5    1    3    3    0  502  0.20660509381E+03 -0.44893530414E+03  0.11721818734E+04  0.12721088815E+04  0.46999998093E+01 0. -1.
</event>
<event>
 5   0  0.2255788E-03  0.1110446E+04  0.7818609E-02  0.9195070E-01
        1   -1    0    0  501    0  0.00000000000E+00  0.00000000000E+00  0.44964683110E+03  0.44964683113E+03  0.50400001928E-02 0.  1.
       -1   -1    0    0    0  501  0.00000000000E+00  0.00000000000E+00 -0.68558858618E+03  0.68558858620E+03  0.50400001928E-02 0. -1.
    10030    2    1    2    0    0  0.00000000000E+00  0.00000000000E+00 -0.23594175508E+03  0.11352354173E+04  0.11104462801E+04 0.  0.
        3    1    3    3  502    0  0.41715545140E+03 -0.17150118492E+02  0.25620503868E+03  0.48985082346E+03  0.10100000352E+00 0.  1.
       -3    1    3    3    0  502 -0.41715545140E+03  0.17150118492E+02 -0.49214679376E+03  0.64538459387E+03  0.10100000352E+00 0. -1.
</event>
<event>
 5   0  0.2374100E-03  0.1111796E+04  0.7818609E-02  0.9193771E-01
        1   -1    0    0  501    0  0.00000000000E+00  0.00000000000E+00  0.87413036942E+03  0.87413036943E+03  0.50400001928E-02 0. -1.
       -1   -1    0    0    0  501  0.00000000000E+00  0.00000000000E+00 -0.35351977521E+03  0.35351977524E+03  0.50400001928E-02 0.  1.
    10030    2    1    2    0    0  0.00000000000E+00  0.00000000000E+00  0.52061059421E+03  0.12276501447E+04  0.11117956138E+04 0.  0.
        2    1    3    3  502    0 -0.42591058186E+03 -0.35470110199E+03  0.30727849249E+03  0.63374503346E+03  0.25500000920E-02 0.  1.
       -2    1    3    3    0  502  0.42591058186E+03  0.35470110199E+03  0.21333210173E+03  0.59390511121E+03  0.25500000920E-02 0. -1.
</event>
<event>
 5   0  0.3962999E-03  0.1109112E+04  0.7818609E-02  0.9196356E-01
       -2   -1    0    0    0  501  0.00000000000E+00  0.00000000000E+00  0.10822531242E+04  0.10822531242E+04  0.25500000920E-02 0.  1.
        2   -1    0    0  501    0  0.00000000000E+00  0.00000000000E+00 -0.28415939243E+03  0.28415939244E+03  0.25500000920E-02 0. -1.
    10030    2    1    2    0    0  0.00000000000E+00  0.00000000000E+00  0.79809373181E+03  0.13664125167E+04  0.11091120597E+04 0.  0.
        3    1    3    3  502    0 -0.39439156644E+03  0.88190328612E+02 -0.68800620792E+02  0.40994606641E+03  0.10100000352E+00 0. -1.
       -3    1    3    3    0  502  0.39439156644E+03 -0.88190328612E+02  0.86689435261E+03  0.95646645029E+03  0.10100000352E+00 0.  1.
</event>
<event>
 5   0  0.2255788E-03  0.1103971E+04  0.7818609E-02  0.9201330E-01
       -1   -1    0    0    0  501  0.00000000000E+00  0.00000000000E+00  0.43293460144E+03  0.43293460147E+03  0.50400001928E-02 0. -1.
        1   -1    0    0  501    0  0.00000000000E+00  0.00000000000E+00 -0.70377382501E+03  0.70377382503E+03  0.50400001928E-02 0.  1.
    10030    2    1    2    0    0  0.00000000000E+00  0.00000000000E+00 -0.27083922357E+03  0.11367084265E+04  0.11039710874E+04 0.  0.
        3    1    3    3  502    0  0.36614352215E+03 -0.19855324678E+03  0.23754204797E+03  0.47949004721E+03  0.10100000352E+00 0. -1.
       -3    1    3    3    0  502 -0.36614352215E+03  0.19855324678E+03 -0.50838127154E+03  0.65721837929E+03  0.10100000352E+00 0.  1.
</event>
<event>
 5   0  0.2255788E-03  0.1110623E+04  0.7818609E-02  0.9194899E-01
       -1   -1    0    0    0  501  0.00000000000E+00  0.00000000000E+00  0.47175226544E+03  0.47175226547E+03  0.50400001928E-02 0. -1.
        1   -1    0    0  501    0  0.00000000000E+00  0.00000000000E+00 -0.65367112479E+03  0.65367112481E+03  0.50400001928E-02 0.  1.
    10030    2    1    2    0    0  0.00000000000E+00  0.00000000000E+00 -0.18191885935E+03  0.11254233903E+04  0.11106229495E+04 0.  0.
        3    1    3    3  502    0  0.13464225976E+03 -0.15742164932E+03 -0.61305429201E+03  0.64710562426E+03  0.10100000352E+00 0.  1.
       -3    1    3    3    0  502 -0.13464225976E+03  0.15742164932E+03  0.43113543267E+03  0.47831776602E+03  0.10100000352E+00 0. -1.
</event>
<event>
 5   0  0.2255788E-03  0.1090956E+04  0.7818609E-02  0.9214052E-01
       -1   -1    0    0    0  501  0.00000000000E+00  0.00000000000E+00  0.84812982815E+03  0.84812982817E+03  0.50400001928E-02 0.  1.
        1   -1    0    0  501    0  0.00000000000E+00  0.00000000000E+00 -0.35082598779E+03  0.35082598783E+03  0.50400001928E-02 0. -1.
    10030    2    1    2    0    0  0.00000000000E+00  0.00000000000E+00  0.49730384036E+03  0.11989558160E+04  0.10909555165E+04 0.  0.
        3    1    3    3  502    0 -0.24258670177E+03 -0.45008285063E+03  0.45752795198E+03  0.68611567345E+03  0.10100000352E+00 0.  1.
       -3    1    3    3    0  502  0.24258670177E+03  0.45008285063E+03  0.39775888384E+02  0.51284014255E+03  0.10100000352E+00 0. -1.
</event>
<event>
 5   0  0.3748901E-03  0.1096685E+04  0.7818609E-02  0.9208429E-01
       -2   -1    0    0    0  501  0.00000000000E+00  0.00000000000E+00  0.32513763532E+03  0.32513763533E+03  0.25500000920E-02 0.  1.
        2   -1    0    0  501    0  0.00000000000E+00  0.00000000000E+00 -0.92477525424E+03  0.92477525424E+03  0.25500000920E-02 0. -1.
    10030    2    1    2    0    0  0.00000000000E+00  0.00000000000E+00 -0.59963761892E+03  0.12499128896E+04  0.10966845296E+04 0.  0.
        5    1    3    3  502    0  0.41222010601E+03  0.11767470110E+03 -0.68947026448E+03  0.81188920838E+03  0.46999998093E+01 0. -1.
       -5    1    3    3    0  502 -0.41222010601E+03 -0.11767470110E+03  0.89832645562E+02  0.43802368119E+03  0.46999998093E+01 0.  1.
</event>
<event>
 5   0  0.2257667E-03  0.1155732E+04  0.7818609E-02  0.9152511E-01
       -1   -1    0    0    0  501  0.00000000000E+00  0.00000000000E+00  0.19176420858E+03  0.19176420865E+03  0.50400001928E-02 0. -1.
        1   -1    0    0  501    0  0.00000000000E+00  0.00000000000E+00 -0.17413541028E+04  0.17413541028E+04  0.50400001928E-02 0.  1.
    10030    2    1    2    0    0  0.00000000000E+00  0.00000000000E+00 -0.15495898942E+04  0.19331183114E+04  0.11557324802E+04 0.  0.
        4    1    3    3  502    0 -0.23710383939E+03 -0.37971499763E+03 -0.13859960749E+04  0.14564986930E+04  0.12699999809E+01 0.  1.
       -4    1    3    3    0  502  0.23710383939E+03  0.37971499763E+03 -0.16359381927E+03  0.47661961844E+03  0.12699999809E+01 0. -1.
</event>
<event>
 5   0  0.2374100E-03  0.1104948E+04  0.7818609E-02  0.9200383E-01
        1   -1    0    0  501    0  0.00000000000E+00  0.00000000000E+00  0.16938776048E+04  0.16938776048E+04  0.50400001928E-02 0.  1.
       -1   -1    0    0    0  501  0.00000000000E+00  0.00000000000E+00 -0.18019453936E+03  0.18019453943E+03  0.50400001928E-02 0. -1.
    10030    2    1    2    0    0  0.00000000000E+00  0.00000000000E+00  0.15136830655E+04  0.18740721443E+04  0.11049479532E+04 0.  0.
        2    1    3    3  502    0  0.90106541546E+02  0.20610030387E+03 -0.99013278785E+02  0.24576442678E+03  0.25500000920E-02 0. -1.
       -2    1    3    3    0  502 -0.90106541546E+02 -0.20610030387E+03  0.16126963443E+04  0.16283077175E+04  0.25500000920E-02 0.  1.
</event>
<event>
 5   0  0.3962999E-03  0.1063309E+04  0.7818609E-02  0.9241710E-01
       -2   -1    0    0    0  501  0.00000000000E+00  0.00000000000E+00  0.40131036801E+03  0.40131036802E+03  0.25500000920E-02 0. -1.
        2   -1    0    0  501    0  0.00000000000E+00  0.00000000000E+00 -0.70433406760E+03  0.70433406760E+03  0.25500000920E-02 0.  1.
    10030    2    1    2    0    0  0.00000000000E+00  0.00000000000E+00 -0.30302369959E+03  0.11056444356E+04  0.10633091063E+04 0.  0.
        3    1    3    3  502    0  0.21450474679E+03 -0.14552862809E+03  0.33115226303E+03  0.42053858266E+03  0.10100000352E+00 0. -1.
       -3    1    3    3    0  502 -0.21450474679E+03  0.14552862809E+03 -0.63417596262E+03  0.68510585296E+03  0.10100000352E+00 0.  1.
</event>
<event>
 5   0  0.3713158E-03  0.1097543E+04  0.7818609E-02  0.9207590E-01
        2   -1    0    0  501    0  0.00000000000E+00  0.00000000000E+00  0.49021235198E+03  0.49021235199E+03  0.25500000920E-02 0. -1.
       -2   -1    0    0    0  501  0.00000000000E+00  0.00000000000E+00 -0.61432597634E+03  0.61432597635E+03  0.25500000920E-02 0.  1.
    10030    2    1    2    0    0  0.00000000000E+00  0.00000000000E+00 -0.12411362436E+03  0.11045383283E+04  0.10975430411E+04 0.  0.
        4    1    3    3  502    0  0.23077803513E+03  0.47793035023E+03  0.78377015603E+02  0.53648904056E+03  0.12699999809E+01 0.  1.
       -4    1    3    3    0  502 -0.23077803513E+03 -0.47793035023E+03 -0.20249063996E+03  0.56804928778E+03  0.12699999809E+01 0. -1.
</event>
<event>
 5   0  0.3713158E-03  0.1087157E+04  0.7818609E-02  0.9217800E-01
        2   -1    0    0  501    0  0.00000000000E+00  0.00000000000E+00  0.10535710456E+04  0.10535710456E+04  0.25500000920E-02 0. -1.
       -2   -1    0    0    0  501  0.00000000000E+00  0.00000000000E+00 -0.28045360022E+03  0.28045360023E+03  0.25500000920E-02 0.  1.
    10030    2    1    2    0    0  0.00000000000E+00  0.00000000000E+00  0.77311744533E+03  0.13340246458E+04  0.10871573811E+04 0.  0.
        4    1    3    3  502    0 -0.25932530635E+03 -0.50398628134E+02  0.96949927365E+03  0.10048482924E+04  0.12699999809E+01 0. -1.
       -4    1    3    3    0  502  0.25932530635E+03  0.50398628134E+02 -0.19638182832E+03  0.32917635339E+03  0.12699999809E+01 0.  1.
</event>
<event>
 5   0  0.2300702E-03  0.1096505E+04  0.7818609E-02  0.9208605E-01
       -1   -1    0    0    0  501  0.00000000000E+00  0.00000000000E+00  0.13945214919E+03  0.13945214928E+03  0.50400001928E-02 0. -1.
        1   -1    0    0  501    0  0.00000000000E+00  0.00000000000E+00 -0.21554395578E+04  0.21554395578E+04  0.50400001928E-02 0.  1.
    10030    2    1    2    0    0  0.00000000000E+00  0.00000000000E+00 -0.20159874086E+04  0.22948917071E+04  0.10965047722E+04 0.  0.
        5    1    3    3  502    0  0.52825296648E+02 -0.43718620176E+03 -0.16914397077E+04  0.17478308447E+04  0.46999998093E+01 0.  1.
       -5    1    3    3    0  502 -0.52825296648E+02  0.43718620176E+03 -0.32454770094E+03  0.54706086239E+03  0.46999998093E+01 0. -1.
</event>
<event>
 5   0  0.2255788E-03  0.9235670E+03  0.7818609E-02  0.9396592E-01
       -1   -1    0    0    0  501  0.00000000000E+00  0.00000000000E+00  0.70389875543E+03  0.70389875545E+03  0.50400001928E-02 0.  1.
        1   -1    0    0  501    0  0.00000000000E+00  0.00000000000E+00 -0.30294696783E+03  0.30294696787E+03  0.50400001928E-02 0. -1.
    10030    2    1    2    0    0  0.00000000000E+00  0.00000000000E+00  0.40095178761E+03  0.10068457233E+04  0.92356698435E+03 0.  0.
        3    1    3    3  502    0 -0.72375676402E+02  0.39216625849E+03  0.45430400853E+03  0.60450372637E+03  0.10100000352E+00 0.  1.
       -3    1    3    3    0  502  0.72375676402E+02 -0.39216625849E+03 -0.53352220926E+02  0.40234199695E+03  0.10100000352E+00 0. -1.
</event>
<event>
 5   0  0.3713158E-03  0.1103245E+04  0.7818609E-02  0.9202035E-01
        2   -1    0    0  501    0  0.00000000000E+00  0.00000000000E+00  0.19860929298E+04  0.19860929298E+04  0.25500000920E-02 0.  1.
       -2   -1    0    0    0  501  0.00000000000E+00  0.00000000000E+00 -0.15320890817E+03  0.15320890820E+03  0.25500000920E-02 0. -1.
    10030    2    1    2    0    0  0.00000000000E+00  0.00000000000E+00  0.18328840217E+04  0.21393018380E+04  0.11032445410E+04 0.  0.
        4    1    3    3  502    0  0.36631756876E+03 -0.14587186893E+03  0.16839563331E+03  0.42874918722E+03  0.12699999809E+01 0. -1.
       -4    1    3    3    0  502 -0.36631756876E+03  0.14587186893E+03  0.16644883884E+04  0.17105526508E+04  0.12699999809E+01 0.  1.
</event>
<event>
 5   0  0.3748901E-03  0.1102451E+04  0.7818609E-02  0.9202806E-01
       -2   -1    0    0    0  501  0.00000000000E+00  0.00000000000E+00  0.14829937715E+03  0.14829937717E+03  0.25500000920E-02 0.  1.
        2   -1    0    0  501    0  0.00000000000E+00  0.00000000000E+00 -0.20488937669E+04  0.20488937669E+04  0.25500000920E-02 0. -1.
    10030    2    1    2    0    0  0.00000000000E+00  0.00000000000E+00 -0.19005943897E+04  0.21971931440E+04  0.11024512134E+04 0.  0.
        5    1    3    3  502    0  0.30050515423E+03  0.19853676615E+03 -0.11869150746E+03  0.37924920458E+03  0.46999998093E+01 0.  1.
       -5    1    3    3    0  502 -0.30050515423E+03 -0.19853676615E+03 -0.17819028822E+04  0.18179439395E+04  0.46999998093E+01 0. -1.
</event>
<event>
 5   0  0.2300702E-03  0.1182092E+04  0.7818609E-02  0.9128678E-01
        1   -1    0    0  501    0  0.00000000000E+00  0.00000000000E+00  0.33466644778E+03  0.33466644781E+03  0.50400001928E-02 0.  1.
       -1   -1    0    0    0  501  0.00000000000E+00  0.00000000000E+00 -0.10438309512E+04  0.10438309512E+04  0.50400001928E-02 0. -1.
    10030    2    1    2    0    0  0.00000000000E+00  0.00000000000E+00 -0.70916450341E+03  0.13784973990E+04  0.11820916996E+04 0.  0.
        5    1    3    3  502    0 -0.44709891039E+03  0.70953871278E+02 -0.79769080711E+03  0.91720477608E+03  0.46999998093E+01 0. -1.
       -5    1    3    3    0  502  0.44709891039E+03 -0.70953871278E+02  0.88526303699E+02  0.46129262293E+03  0.46999998093E+01 0.  1.
</event>
<event>
 5   0  0.2255788E-03  0.1091892E+04  0.7818609E-02  0.9213130E-01
       -1   -1    0    0    0  501  0.00000000000E+00  0.00000000000E+00  0.17677227001E+03  0.17677227008E+03  0.50400001928E-02 0.  1.
        1   -1    0    0  501    0  0.00000000000E+00  0.00000000000E+00 -0.16861081474E+04  0.16861081474E+04  0.50400001928E-02 0. -1.
    10030    2    1    2    0    0  0.00000000000E+00  0.00000000000E+00 -0.15093358774E+04  0.18628804175E+04  0.10918922379E+04 0.  0.
        3    1    3    3  502    0 -0.43632313918E+03 -0.11808069944E+03 -0.12770147161E+04  0.13546540255E+04  0.10100000352E+00 0. -1.
       -3    1    3    3    0  502  0.43632313918E+03  0.11808069944E+03 -0.23232116128E+03  0.50822639202E+03  0.10100000352E+00 0.  1.
</event>
<event>
 5   0  0.3744875E-03  0.1118365E+04  0.7818609E-02  0.9187474E-01
        2   -1    0    0  501    0  0.00000000000E+00  0.00000000000E+00  0.67174432784E+03  0.67174432785E+03  0.25500000920E-02 0. -1.
       -2   -1    0    0    0  501  0.00000000000E+00  0.00000000000E+00 -0.46548262738E+03  0.46548262738E+03  0.25500000920E-02 0.  1.
    10030    2    1    2    0    0  0.00000000000E+00  0.00000000000E+00  0.20626170047E+03  0.11372269552E+04  0.11183654406E+04 0.  0.
        2    1    3    3  502    0 -0.70833865533E+02  0.15636384531E+03  0.64428875421E+03  0.66676464171E+03  0.25500000920E-02 0. -1.
       -2    1    3    3    0  502  0.70833865533E+02 -0.15636384531E+03 -0.43802705374E+03  0.47046231352E+03  0.25500000920E-02 0.  1.
</event>
<event>
 5   0  0.3748901E-03  0.1122223E+04  0.7818609E-02  0.9183799E-01
       -2   -1    0    0    0  501  0.00000000000E+00  0.00000000000E+00  0.35387488609E+03  0.35387488610E+03  0.25500000920E-02 0.  1.
        2   -1    0    0  501    0  0.00000000000E+00  0.00000000000E+00 -0.88970998891E+03  0.88970998891E+03  0.25500000920E-02 0. -1.
    10030    2    1    2    0    0  0.00000000000E+00  0.00000000000E+00 -0.53583510281E+03  0.12435848750E+04  0.11222228317E+04 0.  0.
        5    1    3    3  502    0 -0.16493166165E+03 -0.40368938181E+03  0.12333173051E+03  0.45321118229E+03  0.46999998093E+01 0.  1.
       -5    1    3    3    0  502  0.16493166165E+03  0.40368938181E+03 -0.65916683333E+03  0.79037369273E+03  0.46999998093E+01 0. -1.
</event>
<event>
 5   0  0.3992414E-03  0.1122481E+04  0.7818609E-02  0.9183553E-01
        2   -1    0    0  501    0  0.00000000000E+00  0.00000000000E+00  0.56155034523E+03  0.56155034523E+03  0.25500000920E-02 0. -1.
       -2   -1    0    0    0  501  0.00000000000E+00  0.00000000000E+00 -0.56093130005E+03  0.56093130005E+03  0.25500000920E-02 0.  1.
    10030    2    1    2    0    0  0.00000000000E+00  0.00000000000E+00  0.61904517875E+00  0.11224816453E+04  0.11224814746E+04 0.  0.
        1    1    3    3  502    0 -0.43617987042E+03  0.34929997473E+03  0.52538004202E+02  0.56126962649E+03  0.50400001928E-02 0. -1.
       -1    1    3    3    0  502  0.43617987042E+03 -0.34929997473E+03 -0.51918959023E+02  0.56121201880E+03  0.50400001928E-02 0.  1.
</event>
<event>
 5   0  0.3713158E-03  0.1094076E+04  0.7818609E-02  0.9210986E-01
       -2   -1    0    0    0  501  0.00000000000E+00  0.00000000000E+00  0.74035967876E+03  0.74035967877E+03  0.25500000920E-02 0. -1.
        2   -1    0    0  501    0  0.00000000000E+00  0.00000000000E+00 -0.40419588357E+03  0.40419588357E+03  0.25500000920E-02 0.  1.
    10030    2    1    2    0    0  0.00000000000E+00  0.00000000000E+00  0.33616379520E+03  0.11445555623E+04  0.10940755632E+04 0.  0.
        4    1    3    3  502    0 -0.18465863140E+03  0.50988140784E+03  0.92855370723E+02  0.55018323582E+03  0.12699999809E+01 0.  1.
       -4    1    3    3    0  502  0.18465863140E+03 -0.50988140784E+03  0.24330842447E+03  0.59437232652E+03  0.12699999809E+01 0. -1.
</event>
<event>
 5   0  0.3748901E-03  0.1086018E+04  0.7818609E-02  0.9218928E-01
        2   -1    0    0  501    0  0.00000000000E+00  0.00000000000E+00  0.12519147091E+04  0.12519147091E+04  0.25500000920E-02 0. -1.
       -2   -1    0    0    0  501  0.00000000000E+00  0.00000000000E+00 -0.23552614774E+03  0.23552614776E+03  0.25500000920E-02 0.  1.
    10030    2    1    2    0    0  0.00000000000E+00  0.00000000000E+00  0.10163885614E+04  0.14874408569E+04  0.10860177692E+04 0.  0.
        5    1    3    3  502    0 -0.27579818301E+03  0.13837648921E+03 -0.10374595409E+03  0.32557334582E+03  0.46999998093E+01 0.  1.
       -5    1    3    3    0  502  0.27579818301E+03 -0.13837648921E+03  0.11201345155E+04  0.11618675111E+04  0.46999998093E+01 0. -1.
</event>
<event>
 5   0  0.3962999E-03  0.1102782E+04  0.7818609E-02  0.9202484E-01
       -2   -1    0    0    0  501  0.00000000000E+00  0.00000000000E+00  0.20162035569E+03  0.20162035571E+03  0.25500000920E-02 0. -1.
        2   -1    0    0  501    0  0.00000000000E+00  0.00000000000E+00 -0.15079435318E+04  0.15079435318E+04  0.25500000920E-02 0.  1.
    10030    2    1    2    0    0  0.00000000000E+00  0.00000000000E+00 -0.13063231761E+04  0.17095638875E+04  0.11027821385E+04 0.  0.
        3    1    3    3  502    0 -0.50148227741E+03  0.17209276925E+03 -0.88791601325E+03  0.10341640356E+04  0.10100000352E+00 0.  1.
       -3    1    3    3    0  502  0.50148227741E+03 -0.17209276925E+03 -0.41840716282E+03  0.67539985185E+03  0.10100000352E+00 0. -1.
</event>
<event>
 5   0  0.2374100E-03  0.1259345E+04  0.7818609E-02  0.9062441E-01
       -1   -1    0    0    0  501  0.00000000000E+00  0.00000000000E+00  0.22011043222E+03  0.22011043228E+03  0.50400001928E-02 0.  1.
        1   -1    0    0  501    0  0.00000000000E+00  0.00000000000E+00 -0.18013109812E+04  0.18013109813E+04  0.50400001928E-02 0. -1.
    10030    2    1    2    0    0  0.00000000000E+00  0.00000000000E+00 -0.15812005490E+04  0.20214214135E+04  0.12593448117E+04 0.  0.
        2    1    3    3  502    0  0.20755745253E+03  0.35708825700E+03 -0.15534969541E+04  0.16074653669E+04  0.25500000920E-02 0. -1.
       -2    1    3    3    0  502 -0.20755745253E+03 -0.35708825700E+03 -0.27703594961E+02  0.41395604667E+03  0.25500000920E-02 0.  1.
</event>
<event>
 5   0  0.3748901E-03  0.1103618E+04  0.7818609E-02  0.9201673E-01
        2   -1    0    0  501    0  0.00000000000E+00  0.00000000000E+00  0.81460732561E+03  0.81460732562E+03  0.25500000920E-02 0.  1.
       -2   -1    0    0    0  501  0.00000000000E+00  0.00000000000E+00 -0.37379104147E+03  0.37379104148E+03  0.25500000920E-02 0. -1.
    10030    2    1    2    0    0  0.00000000000E+00  0.00000000000E+00  0.44081628414E+03  0.11883983671E+04  0.11036175436E+04 0.  0.
        5    1    3    3  502    0  0.21347594180E+03 -0.31125462476E+03 -0.21302985015E+03  0.43342268770E+03  0.46999998093E+01 0. -1.
       -5    1    3    3    0  502 -0.21347594180E+03  0.31125462476E+03  0.65384613429E+03  0.75497567940E+03  0.46999998093E+01 0.  1.
</event>
<event>
 5   0  0.2300702E-03  0.1101866E+04  0.7818609E-02  0.9203375E-01
       -1   -1    0    0    0  501  0.00000000000E+00  0.00000000000E+00  0.54929472946E+03  0.54929472948E+03  0.50400001928E-02 0. -1.
        1   -1    0    0  501    0  0.00000000000E+00  0.00000000000E+00 -0.55257643445E+03  0.55257643447E+03  0.50400001928E-02 0.  1.
    10030    2    1    2    0    0  0.00000000000E+00  0.00000000000E+00 -0.32817049902E+01  0.11018711640E+04  0.11018662770E+04 0.  0.
        5    1    3    3  502    0  0.50429362706E+03  0.14531326663E+01 -0.22343241129E+03  0.55159614420E+03  0.46999998093E+01 0.  1.
       -5    1    3    3    0  502 -0.50429362706E+03 -0.14531326663E+01  0.22015070630E+03  0.55027501976E+03  0.46999998093E+01 0. -1.
</event>
<event>
 5   0  0.2300702E-03  0.1094440E+04  0.7818609E-02  0.9210628E-01
       -1   -1    0    0    0  501  0.00000000000E+00  0.00000000000E+00  0.36399660123E+03  0.36399660127E+03  0.50400001928E-02 0. -1.
        1   -1    0    0  501    0  0.00000000000E+00  0.00000000000E+00 -0.82267128419E+03  0.82267128421E+03  0.50400001928E-02 0.  1.
    10030    2    1    2    0    0  0.00000000000E+00  0.00000000000E+00 -0.45867468296E+03  0.11866678855E+04  0.10944396766E+04 0.  0.
        5    1    3    3  502    0 -0.64523251134E+02 -0.30266474027E+03  0.25997749211E+03  0.40420240146E+03  0.46999998093E+01 0. -1.
       -5    1    3    3    0  502  0.64523251134E+02  0.30266474027E+03 -0.71865217507E+03  0.78246548402E+03  0.46999998093E+01 0.  1.
</event>
<event>
 5   0  0.2300702E-03  0.1100933E+04  0.7818609E-02  0.9204283E-01
        1   -1    0    0  501    0  0.00000000000E+00  0.00000000000E+00  0.10915414976E+04  0.10915414976E+04  0.50400001928E-02 0.  1.
       -1   -1    0    0    0  501  0.00000000000E+00  0.00000000000E+00 -0.27760126133E+03  0.27760126138E+03  0.50400001928E-02 0. -1.
    10030    2    1    2    0    0  0.00000000000E+00  0.00000000000E+00  0.81394023625E+03  0.13691427590E+04  0.11009328709E+04 0.  0.
        5    1    3    3  502    0 -0.20022073601E+03 -0.23265416191E+03  0.97520389030E+03  0.10223800760E+04  0.46999998093E+01 0.  1.
       -5    1    3    3    0  502  0.20022073601E+03  0.23265416191E+03 -0.16126365405E+03  0.34676268296E+03  0.46999998093E+01 0. -1.
</event>
<event>
 5   0  0.2257667E-03  0.1093351E+04  0.7818609E-02  0.9211696E-01
       -1   -1    0    0    0  501  0.00000000000E+00  0.00000000000E+00  0.14732029965E+03  0.14732029974E+03  0.50400001928E-02 0.  1.
        1   -1    0    0  501    0  0.00000000000E+00  0.00000000000E+00 -0.20286024332E+04  0.20286024332E+04  0.50400001928E-02 0. -1.
    10030    2    1    2    0    0  0.00000000000E+00  0.00000000000E+00 -0.18812821335E+04  0.21759227329E+04  0.10933513954E+04 0.  0.
        4    1    3    3  502    0  0.54068269851E+03  0.63681793886E+02 -0.84194225959E+03  0.10026273150E+04  0.12699999809E+01 0.  1.
       -4    1    3    3    0  502 -0.54068269851E+03 -0.63681793886E+02 -0.10393398740E+04  0.11732954180E+04  0.12699999809E+01 0. -1.
</event>
<event>
 5   0  0.3962999E-03  0.1060434E+04  0.7818609E-02  0.9244638E-01
        2   -1    0    0  501    0  0.00000000000E+00  0.00000000000E+00  0.25761072094E+04  0.25761072094E+04  0.25500000920E-02 0.  1.
       -2   -1    0    0    0  501  0.00000000000E+00  0.00000000000E+00 -0.10912974801E+03  0.10912974804E+03  0.25500000920E-02 0. -1.
    10030    2    1    2    0    0  0.00000000000E+00  0.00000000000E+00  0.24669774614E+04  0.26852369574E+04  0.10604337427E+04 0.  0.
        3    1    3    3  502    0 -0.15489561548E+03  0.30148626923E+03  0.20103368577E+03  0.39408270103E+03  0.10100000352E+00 0. -1.
       -3    1    3    3    0  502  0.15489561548E+03 -0.30148626923E+03  0.22659437756E+04  0.22911542564E+04  0.10100000352E+00 0.  1.
</event>
<event>
 5   0  0.3748901E-03  0.1060402E+04  0.7818609E-02  0.9244670E-01
       -2   -1    0    0    0  501  0.00000000000E+00  0.00000000000E+00  0.17245096019E+03  0.17245096020E+03  0.25500000920E-02 0. -1.
        2   -1    0    0  501    0  0.00000000000E+00  0.00000000000E+00 -0.16301032566E+04  0.16301032566E+04  0.25500000920E-02 0.  1.
    10030    2    1    2    0    0  0.00000000000E+00  0.00000000000E+00 -0.14576522964E+04  0.18025542168E+04  0.10604015689E+04 0.  0.
        5    1    3    3  502    0  0.28943434376E+03 -0.35554132377E+03 -0.27617004747E+03  0.53523252646E+03  0.46999998093E+01 0. -1.
       -5    1    3    3    0  502 -0.28943434376E+03  0.35554132377E+03 -0.11814822489E+04  0.12673216903E+04  0.46999998093E+01 0.  1.
</event>
<event>
 5   0  0.2257667E-03  0.1101156E+04  0.7818609E-02  0.9204066E-01
        1   -1    0    0  501    0  0.00000000000E+00  0.00000000000E+00  0.48117173413E+03  0.48117173416E+03  0.50400001928E-02 0.  1.
       -1   -1    0    0    0  501  0.00000000000E+00  0.00000000000E+00 -0.62999525306E+03  0.62999525308E+03  0.50400001928E-02 0. -1.
    10030    2    1    2    0    0  0.00000000000E+00  0.00000000000E+00 -0.14882351893E+03  0.11111669872E+04  0.11011555902E+04 0.  0.
        4    1    3    3  502    0 -0.11072379940E+03  0.27276400611E+03 -0.54390986802E+03  0.61846545596E+03  0.12699999809E+01 0. -1.
       -4    1    3    3    0  502  0.11072379940E+03 -0.27276400611E+03  0.39508634909E+03  0.49270153128E+03  0.12699999809E+01 0.  1.
</event>
<event>
 5   0  0.3744875E-03  0.1100692E+04  0.7818609E-02  0.9204518E-01
       -2   -1    0    0    0  501  0.00000000000E+00  0.00000000000E+00  0.49072292326E+03  0.49072292327E+03  0.25500000920E-02 0. -1.
        2   -1    0    0  501    0  0.00000000000E+00  0.00000000000E+00 -0.61721276769E+03  0.61721276769E+03  0.25500000920E-02 0.  1.
    10030    2    1    2    0    0  0.00000000000E+00  0.00000000000E+00 -0.12648984443E+03  0.11079356910E+04  0.11006915165E+04 0.  0.
        2    1    3    3  502    0  0.29009708200E+03 -0.39766691567E+03 -0.31100542077E+03  0.58225395195E+03  0.25500000920E-02 0.  1.
       -2    1    3    3    0  502 -0.29009708200E+03  0.39766691567E+03  0.18451557634E+03  0.52568173901E+03  0.25500000920E-02 0. -1.
</event>
<event>
 5   0  0.3744875E-03  0.1002538E+04  0.7818609E-02  0.9305766E-01
       -2   -1    0    0    0  501  0.00000000000E+00  0.00000000000E+00  0.73423463215E+03  0.73423463215E+03  0.25500000920E-02 0. -1.
        2   -1    0    0  501    0  0.00000000000E+00  0.00000000000E+00 -0.34222086640E+03  0.34222086640E+03  0.25500000920E-02 0.  1.
    10030    2    1    2    0    0  0.00000000000E+00  0.00000000000E+00  0.39201376575E+03  0.10764554986E+04  0.10025376042E+04 0.  0.
        2    1    3    3  502    0 -0.39809478083E+03  0.87441203002E+02 -0.11730362971E+03  0.42412917850E+03  0.25500000920E-02 0.  1.
       -2    1    3    3    0  502  0.39809478083E+03 -0.87441203002E+02  0.50931739546E+03  0.65232632005E+03  0.25500000920E-02 0. -1.
</event>
<event>
 5   0  0.2257667E-03  0.1094189E+04  0.7818609E-02  0.9210874E-01
        1   -1    0    0  501    0  0.00000000000E+00  0.00000000000E+00  0.12851164429E+04  0.12851164430E+04  0.50400001928E-02 0.  1.
       -1   -1    0    0    0  501  0.00000000000E+00  0.00000000000E+00 -0.23290698482E+03  0.23290698488E+03  0.50400001928E-02 0. -1.
    10030    2    1    2    0    0  0.00000000000E+00  0.00000000000E+00  0.10522094581E+04  0.15180234278E+04  0.10941893729E+04 0.  0.
        4    1    3    3  502    0  0.61651949915E+01 -0.54281545456E+03  0.43176131314E+03  0.69361810225E+03  0.12699999809E+01 0.  1.
       -4    1    3    3    0  502 -0.61651949915E+01  0.54281545456E+03  0.62044814499E+03  0.82440532559E+03  0.12699999809E+01 0. -1.
</event>
<event>
 5   0  0.3748901E-03  0.1104846E+04  0.7818609E-02  0.9200481E-01
        2   -1    0    0  501    0  0.00000000000E+00  0.00000000000E+00  0.10617362205E+04  0.10617362205E+04  0.25500000920E-02 0.  1.
       -2   -1    0    0    0  501  0.00000000000E+00  0.00000000000E+00 -0.28742666591E+03  0.28742666592E+03  0.25500000920E-02 0. -1.
    10030    2    1    2    0    0  0.00000000000E+00  0.00000000000E+00  0.77430955455E+03  0.13491628864E+04  0.11048462371E+04 0.  0.
        5    1    3    3  502    0 -0.52797712800E+03 -0.15355231421E+02  0.58463705456E+03  0.78792017768E+03  0.46999998093E+01 0.  1.
       -5    1    3    3    0  502  0.52797712800E+03  0.15355231421E+02  0.18967249999E+03  0.56124270871E+03  0.46999998093E+01 0. -1.
</event>
<event>
 5   0  0.2255788E-03  0.1107814E+04  0.7818609E-02  0.9197609E-01
        1   -1    0    0  501    0  0.00000000000E+00  0.00000000000E+00  0.14130264292E+04  0.14130264292E+04  0.50400001928E-02 0.  1.
       -1   -1    0    0    0  501  0.00000000000E+00  0.00000000000E+00 -0.21713195813E+03  0.21713195819E+03  0.50400001928E-02 0. -1.
    10030    2    1    2    0    0  0.00000000000E+00  0.00000000000E+00  0.11958944711E+04  0.16301583874E+04  0.11078144168E+04 0.  0.
        3    1    3    3  502    0 -0.11056909995E+03 -0.12319959814E+03 -0.17988043480E+03  0.24445991056E+03  0.10100000352E+00 0. -1.
       -3    1    3    3    0  502  0.11056909995E+03  0.12319959814E+03  0.13757749059E+04  0.13856984768E+04  0.10100000352E+00 0.  1.
</event>
<event>
 5   0  0.3713158E-03  0.1092481E+04  0.7818609E-02  0.9212552E-01
       -2   -1    0    0    0  501  0.00000000000E+00  0.00000000000E+00  0.57940479488E+03  0.57940479489E+03  0.25500000920E-02 0.  1.
        2   -1    0    0  501    0  0.00000000000E+00  0.00000000000E+00 -0.51497444406E+03  0.51497444406E+03  0.25500000920E-02 0. -1.
    10030    2    1    2    0    0  0.00000000000E+00  0.00000000000E+00  0.64430350828E+02  0.10943792390E+04  0.10924809603E+04 0.  0.
        4    1    3    3  502    0  0.47256314105E+03  0.17926779897E+03  0.23975669331E+03  0.55940839368E+03  0.12699999809E+01 0.  1.
       -4    1    3    3    0  502 -0.47256314105E+03 -0.17926779897E+03 -0.17532634248E+03  0.53497084528E+03  0.12699999809E+01 0. -1.
</event>
<event>
 5   0  0.1508625E-03  0.1110618E+04  0.7818609E-02  0.9194904E-01
       -3   -1    0    0    0  501  0.00000000000E+00  0.00000000000E+00  0.71009308125E+03  0.71009308843E+03  0.10100000352E+00 0.  1.
        3   -1    0    0  501    0  0.00000000000E+00  0.00000000000E+00 -0.43426419715E+03  0.43426420889E+03  0.10100000352E+00 0. -1.
    10030    2    1    2    0    0  0.00000000000E+00  0.00000000000E+00  0.27582888410E+03  0.11443572973E+04  0.11106178689E+04 0.  0.
        4    1    3    3  502    0  0.55378316080E+03  0.22564830579E+02  0.17333069710E+03  0.58071516617E+03  0.12699999809E+01 0.  1.
       -4    1    3    3    0  502 -0.55378316080E+03 -0.22564830579E+02  0.10249818701E+03  0.56364213115E+03  0.12699999809E+01 0. -1.
</event>
<event>
 5   0  0.3748901E-03  0.1096778E+04  0.7818609E-02  0.9208338E-01
        2   -1    0    0  501    0  0.00000000000E+00  0.00000000000E+00  0.11498362498E+04  0.11498362498E+04  0.25500000920E-02 0. -1.
       -2   -1    0    0    0  501  0.00000000000E+00  0.00000000000E+00 -0.26154183945E+03  0.26154183946E+03  0.25500000920E-02 0.  1.
    10030    2    1    2    0    0  0.00000000000E+00  0.00000000000E+00  0.88829441032E+03  0.14113780892E+04  0.10967776216E+04 0.  0.
        5    1    3    3  502    0  0.32006919324E+03 -0.16348028303E+03  0.97712006728E+03  0.10411319836E+04  0.46999998093E+01 0. -1.
       -5    1    3    3    0  502 -0.32006919324E+03  0.16348028303E+03 -0.88825656959E+02  0.37024610563E+03  0.46999998093E+01 0.  1.
</event>
<event>
 5   0  0.2298958E-03  0.1090447E+04  0.7818609E-02  0.9214553E-01
       -1   -1    0    0    0  501  0.00000000000E+00  0.00000000000E+00  0.94061727459E+03  0.94061727460E+03  0.50400001928E-02 0. -1.
        1   -1    0    0  501    0  0.00000000000E+00  0.00000000000E+00 -0.31603555200E+03  0.31603555204E+03  0.50400001928E-02 0.  1.
    10030    2    1    2    0    0  0.00000000000E+00  0.00000000000E+00  0.62458172258E+03  0.12566528266E+04  0.10904466968E+04 0.  0.
        1    1    3    3  502    0  0.37703088157E+02  0.11972388781E+03 -0.29915812290E+03  0.32442397367E+03  0.50400001928E-02 0.  1.
       -1    1    3    3    0  502 -0.37703088157E+02 -0.11972388781E+03  0.92373984548E+03  0.93222885298E+03  0.50400001928E-02 0. -1.
</event>
<event>
 5   0  0.2298958E-03  0.1097003E+04  0.7818609E-02  0.9208118E-01
        1   -1    0    0  501    0  0.00000000000E+00  0.00000000000E+00  0.12774116890E+04  0.12774116890E+04  0.50400001928E-02 0.  1.
       -1   -1    0    0    0  501  0.00000000000E+00  0.00000000000E+00 -0.23551826616E+03  0.23551826621E+03  0.50400001928E-02 0. -1.
    10030    2    1    2    0    0  0.00000000000E+00  0.00000000000E+00  0.10418934229E+04  0.15129299552E+04  0.10970028007E+04 0.  0.
        1    1    3    3  502    0 -0.77566906365E+02 -0.34497841865E+03  0.10992476971E+04  0.11547173827E+04  0.50400001928E-02 0.  1.
       -1    1    3    3    0  502  0.77566906365E+02  0.34497841865E+03 -0.57354274272E+02  0.35821257251E+03  0.50400001928E-02 0. -1.
</event>
<event>
 5   0  0.2255788E-03  0.9248871E+03  0.7818609E-02  0.9394995E-01
        1   -1    0    0  501    0  0.00000000000E+00  0.00000000000E+00  0.14411103680E+03  0.14411103688E+03  0.50400001928E-02 0. -1.
       -1   -1    0    0    0  501  0.00000000000E+00  0.00000000000E+00 -0.14839532789E+04  0.14839532789E+04  0.50400001928E-02 0.  1.
    10030    2    1    2    0    0  0.00000000000E+00  0.00000000000E+00 -0.13398422421E+04  0.16280643158E+04  0.92488711886E+03 0.  0.
        3    1    3    3  502    0  0.18300615664E+03 -0.34020054466E+02 -0.14150963237E+04  0.14272863178E+04  0.10100000352E+00 0.  1.
       -3    1    3    3    0  502 -0.18300615664E+03  0.34020054466E+02  0.75254081594E+02  0.20077799798E+03  0.10100000352E+00 0. -1.
</event>
<event>
 5   0  0.3713158E-03  0.1098397E+04  0.7818609E-02  0.9206756E-01
        2   -1    0    0  501    0  0.00000000000E+00  0.00000000000E+00  0.16379708333E+04  0.16379708333E+04  0.25500000920E-02 0. -1.
       -2   -1    0    0    0  501  0.00000000000E+00  0.00000000000E+00 -0.18414169978E+03  0.18414169980E+03  0.25500000920E-02 0.  1.
    10030    2    1    2    0    0  0.00000000000E+00  0.00000000000E+00  0.14538291335E+04  0.18221125331E+04  0.10983965285E+04 0.  0.
        4    1    3    3  502    0 -0.41435524508E+03  0.80017900839E+02  0.14388350340E+03  0.44586680638E+03  0.12699999809E+01 0.  1.
       -4    1    3    3    0  502  0.41435524508E+03 -0.80017900839E+02  0.13099456301E+04  0.13762457267E+04  0.12699999809E+01 0. -1.
</event>
<event>
 5   0  0.3992414E-03  0.1068837E+04  0.7818609E-02  0.9236110E-01
        2   -1    0    0  501    0  0.00000000000E+00  0.00000000000E+00  0.13289431834E+04  0.13289431834E+04  0.25500000920E-02 0.  1.
       -2   -1    0    0    0  501  0.00000000000E+00  0.00000000000E+00 -0.21490980126E+03  0.21490980128E+03  0.25500000920E-02 0. -1.
    10030    2    1    2    0    0  0.00000000000E+00  0.00000000000E+00  0.11140333821E+04  0.15438529847E+04  0.10688365927E+04 0.  0.
        1    1    3    3  502    0 -0.22247352614E+03  0.48565454496E+03  0.57976847695E+03  0.78834401993E+03  0.50400001928E-02 0. -1.
       -1    1    3    3    0  502  0.22247352614E+03 -0.48565454496E+03  0.53426490519E+03  0.75550896475E+03  0.50400001928E-02 0.  1.
</event>
<event>
 5   0  0.3748901E-03  0.1104256E+04  0.7818609E-02  0.9201054E-01
        2   -1    0    0  501    0  0.00000000000E+00  0.00000000000E+00  0.21276617613E+04  0.21276617613E+04  0.25500000920E-02 0.  1.
       -2   -1    0    0    0  501  0.00000000000E+00  0.00000000000E+00 -0.14327709137E+03  0.14327709139E+03  0.25500000920E-02 0. -1.
    10030    2    1    2    0    0  0.00000000000E+00  0.00000000000E+00  0.19843846699E+04  0.22709388527E+04  0.11042557468E+04 0.  0.
        5    1    3    3  502    0 -0.10882750095E+03 -0.51944423999E+03  0.67923851944E+03  0.86200510423E+03  0.46999998093E+01 0. -1.
       -5    1    3    3    0  502  0.10882750095E+03  0.51944423999E+03  0.13051461505E+04  0.14089337485E+04  0.46999998093E+01 0.  1.
</event>
<event>
 5   0  0.2374100E-03  0.1098706E+04  0.7818609E-02  0.9206454E-01
       -1   -1    0    0    0  501  0.00000000000E+00  0.00000000000E+00  0.57544375924E+03  0.57544375926E+03  0.50400001928E-02 0.  1.
        1   -1    0    0  501    0  0.00000000000E+00  0.00000000000E+00 -0.52444542923E+03  0.52444542925E+03  0.50400001928E-02 0. -1.
    10030    2    1    2    0    0  0.00000000000E+00  0.00000000000E+00  0.50998330014E+02  0.10998891885E+04  0.10987062380E+04 0.  0.
        2    1    3    3  502    0 -0.92902689677E+02 -0.41066083165E+03  0.37874679941E+03  0.56632355282E+03  0.25500000920E-02 0.  1.
       -2    1    3    3    0  502  0.92902689677E+02  0.41066083165E+03 -0.32774846940E+03  0.53356563570E+03  0.25500000920E-02 0. -1.
</event>
<event>
 5   0  0.2300702E-03  0.1137899E+04  0.7818609E-02  0.9169021E-01
        1   -1    0    0  501    0  0.00000000000E+00  0.00000000000E+00  0.10842389620E+04  0.10842389620E+04  0.50400001928E-02 0.  1.
       -1   -1    0    0    0  501  0.00000000000E+00  0.00000000000E+00 -0.29855359882E+03  0.29855359886E+03  0.50400001928E-02 0. -1.
    10030    2    1    2    0    0  0.00000000000E+00  0.00000000000E+00  0.78568536321E+03  0.13827925609E+04  0.11378988428E+04 0.  0.
        5    1    3    3  502    0 -0.78138627723E+02 -0.39593866384E+03 -0.94469857880E+02  0.41451141687E+03  0.46999998093E+01 0. -1.
       -5    1    3    3    0  502  0.78138627723E+02  0.39593866384E+03  0.88015522109E+03  0.96828114403E+03  0.46999998093E+01 0.  1.
</event>
<event>
 5   0  0.3713158E-03  0.1097683E+04  0.7818609E-02  0.9207454E-01
       -2   -1    0    0    0  501  0.00000000000E+00  0.00000000000E+00  0.66611012423E+03  0.66611012423E+03  0.25500000920E-02 0.  1.
        2   -1    0    0  501    0  0.00000000000E+00  0.00000000000E+00 -0.45221760653E+03  0.45221760654E+03  0.25500000920E-02 0. -1.
    10030    2    1    2    0    0  0.00000000000E+00  0.00000000000E+00  0.21389251770E+03  0.11183277308E+04  0.10976825153E+04 0.  0.
        4    1    3    3  502    0  0.23745521375E+03 -0.15246202120E+03 -0.37264668347E+03  0.46743642353E+03  0.12699999809E+01 0. -1.
       -4    1    3    3    0  502 -0.23745521375E+03  0.15246202120E+03  0.58653920116E+03  0.65089130724E+03  0.12699999809E+01 0.  1.
</event>
<event>
 5   0  0.2255788E-03  0.1109520E+04  0.7818609E-02  0.9195962E-01
       -1   -1    0    0    0  501  0.00000000000E+00  0.00000000000E+00  0.34832230349E+03  0.34832230352E+03  0.50400001928E-02 0. -1.
        1   -1    0    0  501    0  0.00000000000E+00  0.00000000000E+00 -0.88354605177E+03  0.88354605178E+03  0.50400001928E-02 0.  1.
    10030    2    1    2    0    0  0.00000000000E+00  0.00000000000E+00 -0.53522374828E+03  0.12318683553E+04  0.11095202495E+04 0.  0.
        3    1    3    3  502    0 -0.28118580793E+01 -0.86150381093E+02  0.34084204783E+03  0.35157233463E+03  0.10100000352E+00 0. -1.
       -3    1    3    3    0  502  0.28118580793E+01  0.86150381093E+02 -0.87606579611E+03  0.88029602068E+03  0.10100000352E+00 0.  1.
</event>
<event>
 5   0  0.3713158E-03  0.1015594E+04  0.7818609E-02  0.9291605E-01
       -2   -1    0    0    0  501  0.00000000000E+00  0.00000000000E+00  0.31838442474E+03  0.31838442475E+03  0.25500000920E-02 0.  1.
        2   -1    0    0  501    0  0.00000000000E+00  0.00000000000E+00 -0.80989421040E+03  0.80989421040E+03  0.25500000920E-02 0. -1.
    10030    2    1    2    0    0  0.00000000000E+00  0.00000000000E+00 -0.49150978566E+03  0.11282786352E+04  0.10155938209E+04 0.  0.
        4    1    3    3  502    0  0.25922861790E+02 -0.48883989136E+03 -0.95798014194E+02  0.49881389974E+03  0.12699999809E+01 0.  1.
       -4    1    3    3    0  502 -0.25922861790E+02  0.48883989136E+03 -0.39571177147E+03  0.62946473541E+03  0.12699999809E+01 0. -1.
</event>
<event>
 5   0  0.2298958E-03  0.1062390E+04  0.7818609E-02  0.9242645E-01
       -1   -1    0    0    0  501  0.00000000000E+00  0.00000000000E+00  0.70708788654E+03  0.70708788656E+03  0.50400001928E-02 0. -1.
        1   -1    0    0  501    0  0.00000000000E+00  0.00000000000E+00 -0.39905679474E+03  0.39905679477E+03  0.50400001928E-02 0.  1.
    10030    2    1    2    0    0  0.00000000000E+00  0.00000000000E+00  0.30803109180E+03  0.11061446813E+04  0.10623901837E+04 0.  0.
        1    1    3    3  502    0  0.10565966347E+03 -0.22684169069E+03 -0.33384056241E+03  0.41721773483E+03  0.50400001928E-02 0.  1.
       -1    1    3    3    0  502 -0.10565966347E+03  0.22684169069E+03  0.64187165421E+03  0.68892694650E+03  0.50400001928E-02 0. -1.
</event>
<event>
 5   0  0.2298958E-03  0.1093500E+04  0.7818609E-02  0.9211551E-01
       -1   -1    0    0    0  501  0.00000000000E+00  0.00000000000E+00  0.75760962223E+03  0.75760962225E+03  0.50400001928E-02 0. -1.
        1   -1    0    0  501    0  0.00000000000E+00  0.00000000000E+00 -0.39457702587E+03  0.39457702590E+03  0.50400001928E-02 0.  1.
    10030    2    1    2    0    0  0.00000000000E+00  0.00000000000E+00  0.36303259637E+03  0.11521866481E+04  0.10934996141E+04 0.  0.
        1    1    3    3  502    0  0.21742520678E+03  0.50123518557E+03  0.15979640697E+03  0.56924979008E+03  0.50400001928E-02 0. -1.
       -1    1    3    3    0  502 -0.21742520678E+03 -0.50123518557E+03  0.20323618939E+03  0.58293685807E+03  0.50400001928E-02 0.  1.
</event>
<event>
 5   0  0.3713158E-03  0.1126107E+04  0.7818609E-02  0.9180113E-01
        2   -1    0    0  501    0  0.00000000000E+00  0.00000000000E+00  0.60443929416E+03  0.60443929417E+03  0.25500000920E-02 0.  1.
       -2   -1    0    0    0  501  0.00000000000E+00  0.00000000000E+00 -0.52450124668E+03  0.52450124669E+03  0.25500000920E-02 0. -1.
    10030    2    1    2    0    0  0.00000000000E+00  0.00000000000E+00  0.79938047480E+02  0.11289405409E+04  0.11261068570E+04 0.  0.
        4    1    3    3  502    0  0.45208584989E+03  0.86424264629E+02  0.36509480145E+03  0.58749178388E+03  0.12699999809E+01 0.  1.
       -4    1    3    3    0  502 -0.45208584989E+03 -0.86424264629E+02 -0.28515675397E+03  0.54144875697E+03  0.12699999809E+01 0. -1.
</event>
<event>
 5   0  0.3992414E-03  0.1113894E+04  0.7818609E-02  0.9191755E-01
        2   -1    0    0  501    0  0.00000000000E+00  0.00000000000E+00  0.98413989688E+03  0.98413989688E+03  0.25500000920E-02 0.  1.
       -2   -1    0    0    0  501  0.00000000000E+00  0.00000000000E+00 -0.31518866703E+03  0.31518866704E+03  0.25500000920E-02 0. -1.
    10030    2    1    2    0    0  0.00000000000E+00  0.00000000000E+00  0.66895122984E+03  0.12993285639E+04  0.11138936076E+04 0.  0.
        1    1    3    3  502    0 -0.24500146510E+02  0.43978385857E+03 -0.63118816094E+02  0.44496526203E+03  0.50400001928E-02 0. -1.
       -1    1    3    3    0  502  0.24500146510E+02 -0.43978385857E+03  0.73207004594E+03  0.85436330190E+03  0.50400001928E-02 0.  1.
</event>
<event>
 5   0  0.3744875E-03  0.1099609E+04  0.7818609E-02  0.9205573E-01
       -2   -1    0    0    0  501  0.00000000000E+00  0.00000000000E+00  0.19801177412E+03  0.19801177413E+03  0.25500000920E-02 0. -1.
        2   -1    0    0  501    0  0.00000000000E+00  0.00000000000E+00 -0.15266005369E+04  0.15266005369E+04  0.25500000920E-02 0.  1.
    10030    2    1    2    0    0  0.00000000000E+00  0.00000000000E+00 -0.13285887628E+04  0.17246123110E+04  0.10996088044E+04 0.  0.
        2    1    3    3  502    0  0.26202487938E+03 -0.20592457556E+03 -0.13501350556E+04  0.13906569083E+04  0.25500000920E-02 0.  1.
       -2    1    3    3    0  502 -0.26202487938E+03  0.20592457556E+03  0.21546292876E+02  0.33395540268E+03  0.25500000920E-02 0. -1.
</event>
<event>
 5   0  0.3713158E-03  0.1128408E+04  0.7818609E-02  0.9177937E-01
       -2   -1    0    0    0  501  0.00000000000E+00  0.00000000000E+00  0.26991498076E+03  0.26991498077E+03  0.25500000920E-02 0. -1.
        2   -1    0    0  501    0  0.00000000000E+00  0.00000000000E+00 -0.11793578177E+04  0.11793578177E+04  0.25500000920E-02 0.  1.
    10030    2    1    2    0    0  0.00000000000E+00  0.00000000000E+00 -0.90944283691E+03  0.14492727985E+04  0.11284083351E+04 0.  0.
        4    1    3    3  502    0  0.96520369243E+01 -0.45661598203E+03 -0.29266744676E+02  0.45765650012E+03  0.12699999809E+01 0. -1.
       -4    1    3    3    0  502 -0.96520369243E+01  0.45661598203E+03 -0.88017609224E+03  0.99161629833E+03  0.12699999809E+01 0.  1.
</event>
<event>
 5   0  0.2298958E-03  0.1110923E+04  0.7818609E-02  0.9194611E-01
       -1   -1    0    0    0  501  0.00000000000E+00  0.00000000000E+00  0.17312426026E+03  0.17312426034E+03  0.50400001928E-02 0.  1.
        1   -1    0    0  501    0  0.00000000000E+00  0.00000000000E+00 -0.17821734146E+04  0.17821734146E+04  0.50400001928E-02 0. -1.
    10030    2    1    2    0    0  0.00000000000E+00  0.00000000000E+00 -0.16090491544E+04  0.19552976750E+04  0.11109229571E+04 0.  0.
        1    1    3    3  502    0 -0.37578663106E+03 -0.30304679312E+03 -0.32095625525E+03  0.57971188423E+03  0.50400001928E-02 0.  1.
       -1    1    3    3    0  502  0.37578663106E+03  0.30304679312E+03 -0.12880928991E+04  0.13755857908E+04  0.50400001928E-02 0. -1.
</event>
<event>
 5   0  0.2255788E-03  0.1093899E+04  0.7818609E-02  0.9211158E-01
        1   -1    0    0  501    0  0.00000000000E+00  0.00000000000E+00  0.88402708584E+03  0.88402708585E+03  0.50400001928E-02 0. -1.
       -1   -1    0    0    0  501  0.00000000000E+00  0.00000000000E+00 -0.33839909781E+03  0.33839909785E+03  0.50400001928E-02 0.  1.
    10030    2    1    2    0    0  0.00000000000E+00  0.00000000000E+00  0.54562798803E+03  0.12224261837E+04  0.10938993890E+04 0.  0.
        3    1    3    3  502    0 -0.28026168320E+03 -0.11542642397E+03  0.78159190307E+03  0.83830530451E+03  0.10100000352E+00 0. -1.
       -3    1    3    3    0  502  0.28026168320E+03  0.11542642397E+03 -0.23596391505E+03  0.38412087918E+03  0.10100000352E+00 0.  1.
</event>
<event>
 5   0  0.3744875E-03  0.1096055E+04  0.7818609E-02  0.9209046E-01
        2   -1    0    0  501    0  0.00000000000E+00  0.00000000000E+00  0.91285743357E+03  0.91285743358E+03  0.25500000920E-02 0.  1.
       -2   -1    0    0    0  501  0.00000000000E+00  0.00000000000E+00 -0.32900439445E+03  0.32900439446E+03  0.25500000920E-02 0. -1.
    10030    2    1    2    0    0  0.00000000000E+00  0.00000000000E+00  0.58385303912E+03  0.12418618280E+04  0.10960549387E+04 0.  0.
        2    1    3    3  502    0 -0.46918566542E+03  0.17839108880E+03  0.54112985946E+03  0.73809219886E+03  0.25500000920E-02 0.  1.
       -2    1    3    3    0  502  0.46918566542E+03 -0.17839108880E+03  0.42723179656E+02  0.50376962918E+03  0.25500000920E-02 0. -1.
</event>
<event>
 5   0  0.2374100E-03  0.1193957E+04  0.7818609E-02  0.9118162E-01
        1   -1    0    0  501    0  0.00000000000E+00  0.00000000000E+00  0.52383204276E+03  0.52383204278E+03  0.50400001928E-02 0.  1.
       -1   -1    0    0    0  501  0.00000000000E+00  0.00000000000E+00 -0.68033937235E+03  0.68033937236E+03  0.50400001928E-02 0. -1.
    10030    2    1    2    0    0  0.00000000000E+00  0.00000000000E+00 -0.15650732959E+03  0.12041714151E+04  0.11939573916E+04 0.  0.
        2    1    3    3  502    0  0.58930284266E+03 -0.92792767432E+02 -0.10069769420E+03  0.60500277990E+03  0.25500000920E-02 0. -1.
       -2    1    3    3    0  502 -0.58930284266E+03  0.92792767432E+02 -0.55809635390E+02  0.59916863525E+03  0.25500000920E-02 0.  1.
</event>
<event>
 5   0  0.2374100E-03  0.1105735E+04  0.7818609E-02  0.9199621E-01
       -1   -1    0    0    0  501  0.00000000000E+00  0.00000000000E+00  0.22384227035E+03  0.22384227040E+03  0.50400001928E-02 0. -1.
        1   -1    0    0  501    0  0.00000000000E+00  0.00000000000E+00 -0.13655251326E+04  0.13655251326E+04  0.50400001928E-02 0.  1.
    10030    2    1    2    0    0  0.00000000000E+00  0.00000000000E+00 -0.11416828623E+04  0.15893674030E+04  0.11057345901E+04 0.  0.
        2    1    3    3  502    0  0.33888111289E+03  0.33956999707E+03 -0.17585034023E+03  0.51095159629E+03  0.25500000920E-02 0. -1.
       -2    1    3    3    0  502 -0.33888111289E+03 -0.33956999707E+03 -0.96583252203E+03  0.10784158067E+04  0.25500000920E-02 0.  1.
</event>
<event>
 5   0  0.2257667E-03  0.1130910E+04  0.7818609E-02  0.9175578E-01
       -1   -1    0    0    0  501  0.00000000000E+00  0.00000000000E+00  0.34948687525E+03  0.34948687529E+03  0.50400001928E-02 0. -1.
        1   -1    0    0  501    0  0.00000000000E+00  0.00000000000E+00 -0.91488203063E+03  0.91488203064E+03  0.50400001928E-02 0.  1.
    10030    2    1    2    0    0  0.00000000000E+00  0.00000000000E+00 -0.56539515537E+03  0.12643689059E+04  0.11309098322E+04 0.  0.
        4    1    3    3  502    0  0.17115377727E+03  0.31422392321E+03 -0.77221169387E+03  0.85108331110E+03  0.12699999809E+01 0.  1.
       -4    1    3    3    0  502 -0.17115377727E+03 -0.31422392321E+03  0.20681653850E+03  0.41328559482E+03  0.12699999809E+01 0. -1.
</event>
<event>
 5   0  0.3744875E-03  0.1162031E+04  0.7818609E-02  0.9146756E-01
       -2   -1    0    0    0  501  0.00000000000E+00  0.00000000000E+00  0.38510971117E+03  0.38510971118E+03  0.25500000920E-02 0. -1.
        2   -1    0    0  501    0  0.00000000000E+00  0.00000000000E+00 -0.87657817708E+03  0.87657817708E+03  0.25500000920E-02 0.  1.
    10030    2    1    2    0    0  0.00000000000E+00  0.00000000000E+00 -0.49146846591E+03  0.12616878883E+04  0.11620305824E+04 0.  0.
        2    1    3    3  502    0  0.54301089814E+02 -0.33758895354E+03  0.26430076771E+03  0.43216872368E+03  0.25500000920E-02 0. -1.
       -2    1    3    3    0  502 -0.54301089814E+02  0.33758895354E+03 -0.75576923362E+03  0.82951916458E+03  0.25500000920E-02 0.  1.
</event>
<event>
 5   0  0.2298958E-03  0.1092045E+04  0.7818609E-02  0.9212980E-01
        1   -1    0    0  501    0  0.00000000000E+00  0.00000000000E+00  0.58831786208E+03  0.58831786211E+03  0.50400001928E-02 0.  1.
       -1   -1    0    0    0  501  0.00000000000E+00  0.00000000000E+00 -0.50676784746E+03  0.50676784749E+03  0.50400001928E-02 0. -1.
    10030    2    1    2    0    0  0.00000000000E+00  0.00000000000E+00  0.81550014622E+02  0.10950857096E+04  0.10920450112E+04 0.  0.
        1    1    3    3  502    0 -0.11780343944E+03 -0.10311328590E+03 -0.48377860869E+03  0.50847983472E+03  0.50400001928E-02 0. -1.
       -1    1    3    3    0  502  0.11780343944E+03  0.10311328590E+03  0.56532862331E+03  0.58660587487E+03  0.50400001928E-02 0.  1.
</event>
<event>
 5   0  0.3744875E-03  0.1095689E+04  0.7818609E-02  0.9209404E-01
       -2   -1    0    0    0  501  0.00000000000E+00  0.00000000000E+00  0.24481186399E+03  0.24481186400E+03  0.25500000920E-02 0. -1.
        2   -1    0    0  501    0  0.00000000000E+00  0.00000000000E+00 -0.12259755289E+04  0.12259755289E+04  0.25500000920E-02 0.  1.
    10030    2    1    2    0    0  0.00000000000E+00  0.00000000000E+00 -0.98116366488E+03  0.14707873929E+04  0.10956885587E+04 0.  0.
        2    1    3    3  502    0  0.48260221401E+03  0.25622040720E+03 -0.43723226645E+03  0.69980415036E+03  0.25500000920E-02 0.  1.
       -2    1    3    3    0  502 -0.48260221401E+03 -0.25622040720E+03 -0.54393139844E+03  0.77098324252E+03  0.25500000920E-02 0. -1.
</event>
<event>
 5   0  0.3744875E-03  0.1113519E+04  0.7818609E-02  0.9192114E-01
        2   -1    0    0  501    0  0.00000000000E+00  0.00000000000E+00  0.48434921368E+03  0.48434921369E+03  0.25500000920E-02 0. -1.
       -2   -1    0    0    0  501  0.00000000000E+00  0.00000000000E+00 -0.63999557567E+03  0.63999557567E+03  0.25500000920E-02 0.  1.
    10030    2    1    2    0    0  0.00000000000E+00  0.00000000000E+00 -0.15564636199E+03  0.11243447894E+04  0.11135193826E+04 0.  0.
        2    1    3    3  502    0  0.36545672987E+03  0.12908873312E+03 -0.48140739259E+03  0.61804174622E+03  0.25500000920E-02 0.  1.
       -2    1    3    3    0  502 -0.36545672987E+03 -0.12908873312E+03  0.32576103060E+03  0.50630304314E+03  0.25500000920E-02 0. -1.
</event>
<event>
 5   0  0.3744875E-03  0.1093771E+04  0.7818609E-02  0.9211284E-01
        2   -1    0    0  501    0  0.00000000000E+00  0.00000000000E+00  0.18171563946E+04  0.18171563946E+04  0.25500000920E-02 0.  1.
       -2   -1    0    0    0  501  0.00000000000E+00  0.00000000000E+00 -0.16458891990E+03  0.16458891992E+03  0.25500000920E-02 0. -1.
    10030    2    1    2    0    0  0.00000000000E+00  0.00000000000E+00  0.16525674747E+04  0.19817453145E+04  0.10937711064E+04 0.  0.
        2    1    3    3  502    0  0.20240825133E+03 -0.38885108054E+03  0.14187036319E+04  0.14848886350E+04  0.25500000920E-02 0.  1.
       -2    1    3    3    0  502 -0.20240825133E+03  0.38885108054E+03  0.23386384276E+03  0.49685667954E+03  0.25500000920E-02 0. -1.
</event>
<event>
 5   0  0.3992414E-03  0.1117996E+04  0.7818609E-02  0.9187827E-01
        2   -1    0    0  501    0  0.00000000000E+00  0.00000000000E+00  0.85287897362E+03  0.85287897363E+03  0.25500000920E-02 0. -1.
       -2   -1    0    0    0  501  0.00000000000E+00  0.00000000000E+00 -0.36638091662E+03  0.36638091663E+03  0.25500000920E-02 0.  1.
    10030    2    1    2    0    0  0.00000000000E+00  0.00000000000E+00  0.48649805700E+03  0.12192598903E+04  0.11179956711E+04 0.  0.
        1    1    3    3  502    0  0.27102125565E+03 -0.41108729164E+03  0.53185708727E+03  0.72478772318E+03  0.50400001928E-02 0. -1.
       -1    1    3    3    0  502 -0.27102125565E+03  0.41108729164E+03 -0.45359030274E+02  0.49447216708E+03  0.50400001928E-02 0.  1.
</event>
<event>
 5   0  0.2374100E-03  0.1088864E+04  0.7818609E-02  0.9216114E-01
        1   -1    0    0  501    0  0.00000000000E+00  0.00000000000E+00  0.12053913351E+04  0.12053913351E+04  0.50400001928E-02 0. -1.
       -1   -1    0    0    0  501  0.00000000000E+00  0.00000000000E+00 -0.24590034630E+03  0.24590034635E+03  0.50400001928E-02 0.  1.
    10030    2    1    2    0    0  0.00000000000E+00  0.00000000000E+00  0.95949098879E+03  0.14512916815E+04  0.10888638974E+04 0.  0.
        2    1    3    3  502    0  0.54286488990E+03  0.40337239118E+02  0.46806763147E+03  0.71792526713E+03  0.25500000920E-02 0.  1.
       -2    1    3    3    0  502 -0.54286488990E+03 -0.40337239118E+02  0.49142335732E+03  0.73336641433E+03  0.25500000920E-02 0. -1.
</event>
<event>
 5   0  0.3713158E-03  0.1104960E+04  0.7818609E-02  0.9200371E-01
        2   -1    0    0  501    0  0.00000000000E+00  0.00000000000E+00  0.30232660188E+03  0.30232660189E+03  0.25500000920E-02 0.  1.
       -2   -1    0    0    0  501  0.00000000000E+00  0.00000000000E+00 -0.10096175714E+04  0.10096175714E+04  0.25500000920E-02 0. -1.
    10030    2    1    2    0    0  0.00000000000E+00  0.00000000000E+00 -0.70729096949E+03  0.13119441733E+04  0.11049601795E+04 0.  0.
        4    1    3    3  502    0 -0.44674349357E+03 -0.12578130632E+03 -0.70950955586E+03  0.84782433843E+03  0.12699999809E+01 0. -1.
       -4    1    3    3    0  502  0.44674349357E+03  0.12578130632E+03  0.22185863672E+01  0.46411983484E+03  0.12699999809E+01 0.  1.
</event>
<event>
 5   0  0.3748901E-03  0.1103217E+04  0.7818609E-02  0.9202062E-01
        2   -1    0    0  501    0  0.00000000000E+00  0.00000000000E+00  0.94351595948E+03  0.94351595949E+03  0.25500000920E-02 0.  1.
       -2   -1    0    0    0  501  0.00000000000E+00  0.00000000000E+00 -0.32248733163E+03  0.32248733164E+03  0.25500000920E-02 0. -1.
    10030    2    1    2    0    0  0.00000000000E+00  0.00000000000E+00  0.62102862786E+03  0.12660032911E+04  0.11032170124E+04 0.  0.
        5    1    3    3  502    0 -0.25503071420E+03 -0.48798447190E+03  0.34823286000E+03  0.65150420166E+03  0.46999998093E+01 0. -1.
       -5    1    3    3    0  502  0.25503071420E+03  0.48798447190E+03  0.27279576786E+03  0.61449908947E+03  0.46999998093E+01 0.  1.
</event>
<event>
 5   0  0.2255788E-03  0.1096572E+04  0.7818609E-02  0.9208540E-01
       -1   -1    0    0    0  501  0.00000000000E+00  0.00000000000E+00  0.18840232248E+03  0.18840232255E+03  0.50400001928E-02 0. -1.
        1   -1    0    0  501    0  0.00000000000E+00  0.00000000000E+00 -0.15956145901E+04  0.15956145901E+04  0.50400001928E-02 0.  1.
    10030    2    1    2    0    0  0.00000000000E+00  0.00000000000E+00 -0.14072122676E+04  0.17840169127E+04  0.10965719213E+04 0.  0.
        3    1    3    3  502    0 -0.28702500526E+02 -0.79597498805E+02 -0.15849283962E+04  0.15871854418E+04  0.10100000352E+00 0.  1.
       -3    1    3    3    0  502  0.28702500526E+02  0.79597498805E+02  0.17771612859E+03  0.19683147085E+03  0.10100000352E+00 0. -1.
</event>
<event>
 5   0  0.3748901E-03  0.1021255E+04  0.7818609E-02  0.9285535E-01
        2   -1    0    0  501    0  0.00000000000E+00  0.00000000000E+00  0.80030826652E+03  0.80030826652E+03  0.25500000920E-02 0.  1.
       -2   -1    0    0    0  501  0.00000000000E+00  0.00000000000E+00 -0.32580023898E+03  0.32580023899E+03  0.25500000920E-02 0. -1.
    10030    2    1    2    0    0  0.00000000000E+00  0.00000000000E+00  0.47450802753E+03  0.11261085055E+04  0.10212553540E+04 0.  0.
        5    1    3    3  502    0 -0.15245045018E+03  0.48393872084E+03  0.17409581130E+03  0.53644129856E+03  0.46999998093E+01 0.  1.
       -5    1    3    3    0  502  0.15245045018E+03 -0.48393872084E+03  0.30041221624E+03  0.58966720695E+03  0.46999998093E+01 0. -1.
</event>
<event>
 5   0  0.2300702E-03  0.1085576E+04  0.7818609E-02  0.9219365E-01
       -1   -1    0    0    0  501  0.00000000000E+00  0.00000000000E+00  0.73889726430E+03  0.73889726432E+03  0.50400001928E-02 0. -1.
        1   -1    0    0  501    0  0.00000000000E+00  0.00000000000E+00 -0.39872786397E+03  0.39872786400E+03  0.50400001928E-02 0.  1.
    10030    2    1    2    0    0  0.00000000000E+00  0.00000000000E+00  0.34016940033E+03  0.11376251283E+04  0.10855762118E+04 0.  0.
        5    1    3    3  502    0  0.62103097151E+02  0.52840762151E+03  0.28258855511E+03  0.60245314392E+03  0.46999998093E+01 0. -1.
       -5    1    3    3    0  502 -0.62103097151E+02 -0.52840762151E+03  0.57580845228E+02  0.53517198440E+03  0.46999998093E+01 0.  1.
</event>
<event>
 5   0  0.3748901E-03  0.1103379E+04  0.7818609E-02  0.9201905E-01
        2   -1    0    0  501    0  0.00000000000E+00  0.00000000000E+00  0.81569928610E+03  0.81569928610E+03  0.25500000920E-02 0. -1.
       -2   -1    0    0    0  501  0.00000000000E+00  0.00000000000E+00 -0.37312936307E+03  0.37312936308E+03  0.25500000920E-02 0.  1.
    10030    2    1    2    0    0  0.00000000000E+00  0.00000000000E+00  0.44256992303E+03  0.11888286492E+04  0.11033790919E+04 0.  0.
        5    1    3    3  502    0  0.24184729844E+03 -0.14440625099E+03  0.73235673495E+03  0.78467302637E+03  0.46999998093E+01 0. -1.
       -5    1    3    3    0  502 -0.24184729844E+03  0.14440625099E+03 -0.28978681192E+03  0.40415562281E+03  0.46999998093E+01 0.  1.
</event>
<event>
 5   0  0.3744875E-03  0.1107832E+04  0.7818609E-02  0.9197592E-01
        2   -1    0    0  501    0  0.00000000000E+00  0.00000000000E+00  0.70678969585E+03  0.70678969586E+03  0.25500000920E-02 0.  1.
       -2   -1    0    0    0  501  0.00000000000E+00  0.00000000000E+00 -0.43410796507E+03  0.43410796508E+03  0.25500000920E-02 0. -1.
    10030    2    1    2    0    0  0.00000000000E+00  0.00000000000E+00  0.27268173078E+03  0.11408976609E+04  0.11078321833E+04 0.  0.
        2    1    3    3  502    0  0.25690100758E+03  0.13955102476E+03 -0.34818045019E+03  0.45464518265E+03  0.25500000920E-02 0. -1.
       -2    1    3    3    0  502 -0.25690100758E+03 -0.13955102476E+03  0.62086218096E+03  0.68625247829E+03  0.25500000920E-02 0.  1.
</event>
<event>
 5   0  0.2298958E-03  0.1111740E+04  0.7818609E-02  0.9193824E-01
       -1   -1    0    0    0  501  0.00000000000E+00  0.00000000000E+00  0.12951330627E+03  0.12951330637E+03  0.50400001928E-02 0.  1.
        1   -1    0    0  501    0  0.00000000000E+00  0.00000000000E+00 -0.23857881252E+04  0.23857881252E+04  0.50400001928E-02 0. -1.
    10030    2    1    2    0    0  0.00000000000E+00  0.00000000000E+00 -0.22562748189E+04  0.25153014316E+04  0.11117397326E+04 0.  0.
        1    1    3    3  502    0 -0.36617741341E+03  0.64541759681E+02 -0.20630139429E+04  0.20962533400E+04  0.50400001928E-02 0. -1.
       -1    1    3    3    0  502  0.36617741341E+03 -0.64541759681E+02 -0.19326087606E+03  0.41904809160E+03  0.50400001928E-02 0.  1.
</event>
<event>
 5   0  0.2298958E-03  0.1108824E+04  0.7818609E-02  0.9196634E-01
        1   -1    0    0  501    0  0.00000000000E+00  0.00000000000E+00  0.11254533571E+04  0.11254533571E+04  0.50400001928E-02 0.  1.
       -1   -1    0    0    0  501  0.00000000000E+00  0.00000000000E+00 -0.27310994559E+03  0.27310994563E+03  0.50400001928E-02 0. -1.
    10030    2    1    2    0    0  0.00000000000E+00  0.00000000000E+00  0.85234341152E+03  0.13985633028E+04  0.11088237104E+04 0.  0.
        1    1    3    3  502    0  0.35870024454E+03 -0.38908425396E+01 -0.10700549836E+03  0.37434099534E+03  0.50400001928E-02 0. -1.
       -1    1    3    3    0  502 -0.35870024454E+03  0.38908425396E+01  0.95934890989E+03  0.10242223074E+04  0.50400001928E-02 0.  1.
</event>
<event>
 5   0  0.3713158E-03  0.1094224E+04  0.7818609E-02  0.9210840E-01
       -2   -1    0    0    0  501  0.00000000000E+00  0.00000000000E+00  0.15426385477E+04  0.15426385477E+04  0.25500000920E-02 0. -1.
        2   -1    0    0  501    0  0.00000000000E+00  0.00000000000E+00 -0.19403858271E+03  0.19403858273E+03  0.25500000920E-02 0.  1.
    10030    2    1    2    0    0  0.00000000000E+00  0.00000000000E+00  0.13485999650E+04  0.17366771304E+04  0.10942237385E+04 0.  0.
        4    1    3    3  502    0 -0.13362837926E+03 -0.19019552558E+03 -0.11176917395E+03  0.25792410286E+03  0.12699999809E+01 0.  1.
       -4    1    3    3    0  502  0.13362837926E+03  0.19019552558E+03  0.14603691389E+04  0.14787530275E+04  0.12699999809E+01 0. -1.
</event>
<event>
 5   0  0.3713158E-03  0.1101773E+04  0.7818609E-02  0.9203465E-01
        2   -1    0    0  501    0  0.00000000000E+00  0.00000000000E+00  0.14441284805E+04  0.14441284805E+04  0.25500000920E-02 0. -1.
       -2   -1    0    0    0  501  0.00000000000E+00  0.00000000000E+00 -0.21014470903E+03  0.21014470905E+03  0.25500000920E-02 0.  1.
    10030    2    1    2    0    0  0.00000000000E+00  0.00000000000E+00  0.12339837714E+04  0.16542731895E+04  0.11017730426E+04 0.  0.
        4    1    3    3  502    0  0.28812495672E+03 -0.45409684993E+03  0.43772929804E+03  0.69341797717E+03  0.12699999809E+01 0. -1.
       -4    1    3    3    0  502 -0.28812495672E+03  0.45409684993E+03  0.79625447340E+03  0.96085521235E+03  0.12699999809E+01 0.  1.
</event>
<event>
 5   0  0.3992414E-03  0.1107721E+04  0.7818609E-02  0.9197699E-01
       -2   -1    0    0    0  501  0.00000000000E+00  0.00000000000E+00  0.40082794646E+03  0.40082794647E+03  0.25500000920E-02 0.  1.
        2   -1    0    0  501    0  0.00000000000E+00  0.00000000000E+00 -0.76531976437E+03  0.76531976437E+03  0.25500000920E-02 0. -1.
    10030    2    1    2    0    0  0.00000000000E+00  0.00000000000E+00 -0.36449181791E+03  0.11661477108E+04  0.11077211735E+04 0.  0.
        1    1    3    3  502    0  0.51994594429E+03  0.18539344796E+03 -0.22987646306E+03  0.59796128957E+03  0.50400001928E-02 0.  1.
       -1    1    3    3    0  502 -0.51994594429E+03 -0.18539344796E+03 -0.13461535485E+03  0.56818642127E+03  0.50400001928E-02 0. -1.
</event>
<event>
 5   0  0.3748901E-03  0.1100167E+04  0.7818609E-02  0.9205029E-01
       -2   -1    0    0    0  501  0.00000000000E+00  0.00000000000E+00  0.13148092001E+03  0.13148092003E+03  0.25500000920E-02 0.  1.
        2   -1    0    0  501    0  0.00000000000E+00  0.00000000000E+00 -0.23014140813E+04  0.23014140813E+04  0.25500000920E-02 0. -1.
    10030    2    1    2    0    0  0.00000000000E+00  0.00000000000E+00 -0.21699331613E+04  0.24328950014E+04  0.11001673341E+04 0.  0.
        5    1    3    3  502    0  0.22074380207E+03 -0.14261644766E+03 -0.16377950567E+02  0.26335831971E+03  0.46999998093E+01 0.  1.
       -5    1    3    3    0  502 -0.22074380207E+03  0.14261644766E+03 -0.21535552108E+04  0.21695366817E+04  0.46999998093E+01 0. -1.
</event>
<event>
 5   0  0.2255788E-03  0.1104483E+04  0.7818609E-02  0.9200833E-01
        1   -1    0    0  501    0  0.00000000000E+00  0.00000000000E+00  0.13792145471E+04  0.13792145471E+04  0.50400001928E-02 0. -1.
       -1   -1    0    0    0  501  0.00000000000E+00  0.00000000000E+00 -0.22111921002E+03  0.22111921008E+03  0.50400001928E-02 0.  1.
    10030    2    1    2    0    0  0.00000000000E+00  0.00000000000E+00  0.11580953371E+04  0.16003337572E+04  0.11044832840E+04 0.  0.
        3    1    3    3  502    0 -0.51787215320E+02  0.14050640705E+03 -0.19114017157E+03  0.24281380002E+03  0.10100000352E+00 0.  1.
       -3    1    3    3    0  502  0.51787215320E+02 -0.14050640705E+03  0.13492355087E+04  0.13575199572E+04  0.10100000352E+00 0. -1.
</event>
<event>
 5   0  0.2298958E-03  0.1102427E+04  0.7818609E-02  0.9202830E-01
       -1   -1    0    0    0  501  0.00000000000E+00  0.00000000000E+00  0.12823561664E+03  0.12823561674E+03  0.50400001928E-02 0.  1.
        1   -1    0    0  501    0  0.00000000000E+00  0.00000000000E+00 -0.23693595829E+04  0.23693595829E+04  0.50400001928E-02 0. -1.
    10030    2    1    2    0    0  0.00000000000E+00  0.00000000000E+00 -0.22411239662E+04  0.24975951996E+04  0.11024269360E+04 0.  0.
        1    1    3    3  502    0  0.22803610459E+03 -0.16031202987E+03 -0.21979123609E+04  0.22155178081E+04  0.50400001928E-02 0. -1.
       -1    1    3    3    0  502 -0.22803610459E+03  0.16031202987E+03 -0.43211605314E+02  0.28207739147E+03  0.50400001928E-02 0.  1.
</event>
<event>
 5   0  0.3744875E-03  0.1094508E+04  0.7818609E-02  0.9210561E-01
       -2   -1    0    0    0  501  0.00000000000E+00  0.00000000000E+00  0.41340247024E+03  0.41340247025E+03  0.25500000920E-02 0.  1.
        2   -1    0    0  501    0  0.00000000000E+00  0.00000000000E+00 -0.72444434699E+03  0.72444434699E+03  0.25500000920E-02 0. -1.
    10030    2    1    2    0    0  0.00000000000E+00  0.00000000000E+00 -0.31104187675E+03  0.11378468172E+04  0.10945082596E+04 0.  0.
        2    1    3    3  502    0 -0.51680952018E+03  0.32219367778E+02 -0.33961145591E+03  0.61924640394E+03  0.25500000920E-02 0. -1.
       -2    1    3    3    0  502  0.51680952018E+03 -0.32219367778E+02  0.28569579159E+02  0.51860041329E+03  0.25500000920E-02 0.  1.
</event>
<event>
 5   0  0.2300702E-03  0.1114196E+04  0.7818609E-02  0.9191464E-01
       -1   -1    0    0    0  501  0.00000000000E+00  0.00000000000E+00  0.17158001308E+03  0.17158001315E+03  0.50400001928E-02 0.  1.
        1   -1    0    0  501    0  0.00000000000E+00  0.00000000000E+00 -0.18088263033E+04  0.18088263033E+04  0.50400001928E-02 0. -1.
    10030    2    1    2    0    0  0.00000000000E+00  0.00000000000E+00 -0.16372462902E+04  0.19804063165E+04  0.11141964654E+04 0.  0.
        5    1    3    3  502    0 -0.16974637915E+03 -0.31521795305E+03 -0.15772343021E+04  0.16173640051E+04  0.46999998093E+01 0. -1.
       -5    1    3    3    0  502  0.16974637915E+03  0.31521795305E+03 -0.60011988139E+02  0.36304231142E+03  0.46999998093E+01 0.  1.
</event>
<event>
 5   0  0.2298958E-03  0.1092923E+04  0.7818609E-02  0.9212117E-01
        1   -1    0    0  501    0  0.00000000000E+00  0.00000000000E+00  0.63092302737E+03  0.63092302739E+03  0.50400001928E-02 0. -1.
       -1   -1    0    0    0  501  0.00000000000E+00  0.00000000000E+00 -0.47330703068E+03  0.47330703071E+03  0.50400001928E-02 0.  1.
    10030    2    1    2    0    0  0.00000000000E+00  0.00000000000E+00  0.15761599669E+03  0.11042300581E+04  0.10929232447E+04 0.  0.
        1    1    3    3  502    0 -0.53960316975E+03 -0.41008762164E+02  0.15553444348E+03  0.56306683663E+03  0.50400001928E-02 0. -1.
       -1    1    3    3    0  502  0.53960316975E+03  0.41008762164E+02  0.20815532036E+01  0.54116322147E+03  0.50400001928E-02 0.  1.
</event>
<event>
 5   0  0.2374100E-03  0.1098481E+04  0.7818609E-02  0.9206674E-01
       -1   -1    0    0    0  501  0.00000000000E+00  0.00000000000E+00  0.50590917270E+03  0.50590917273E+03  0.50400001928E-02 0.  1.
        1   -1    0    0  501    0  0.00000000000E+00  0.00000000000E+00 -0.59628316766E+03  0.59628316768E+03  0.50400001928E-02 0. -1.
    10030    2    1    2    0    0  0.00000000000E+00  0.00000000000E+00 -0.90373994958E+02  0.11021923404E+04  0.10984809950E+04 0.  0.
        2    1    3    3  502    0 -0.41045531437E+03  0.34773033833E+02  0.31933424654E+03  0.52120733877E+03  0.25500000920E-02 0.  1.
       -2    1    3    3    0  502  0.41045531437E+03 -0.34773033833E+02 -0.40970824150E+03  0.58098500164E+03  0.25500000920E-02 0. -1.
</event>
<event>
 5   0  0.3744875E-03  0.1101736E+04  0.7818609E-02  0.9203501E-01
       -2   -1    0    0    0  501  0.00000000000E+00  0.00000000000E+00  0.75706096091E+03  0.75706096092E+03  0.25500000920E-02 0.  1.
        2   -1    0    0  501    0  0.00000000000E+00  0.00000000000E+00 -0.40083394195E+03  0.40083394196E+03  0.25500000920E-02 0. -1.
    10030    2    1    2    0    0  0.00000000000E+00  0.00000000000E+00  0.35622701896E+03  0.11578949029E+04  0.11017363192E+04 0.  0.
        2    1    3    3  502    0 -0.37628093604E+03  0.41535047540E+01  0.60092750089E+03  0.70902641401E+03  0.25500000920E-02 0.  1.
       -2    1    3    3    0  502  0.37628093604E+03 -0.41535047540E+01 -0.24470048193E+03  0.44886848886E+03  0.25500000920E-02 0. -1.
</event>
<event>
 5   0  0.3962999E-03  0.1091978E+04  0.7818609E-02  0.9213046E-01
        2   -1    0    0  501    0  0.00000000000E+00  0.00000000000E+00  0.15521631410E+04  0.15521631410E+04  0.25500000920E-02 0. -1.
       -2   -1    0    0    0  501  0.00000000000E+00  0.00000000000E+00 -0.19205708703E+03  0.19205708704E+03  0.25500000920E-02 0.  1.
    10030    2    1    2    0    0  0.00000000000E+00  0.00000000000E+00  0.13601060540E+04  0.17442202281E+04  0.10919778963E+04 0.  0.
        3    1    3    3  502    0 -0.99549471842E+02 -0.25675659099E+03 -0.73003844603E+02  0.28489228822E+03  0.10100000352E+00 0.  1.
       -3    1    3    3    0  502  0.99549471842E+02  0.25675659099E+03  0.14331098986E+04  0.14593279399E+04  0.10100000352E+00 0. -1.
</event>
<event>
 5   0  0.2300702E-03  0.1112160E+04  0.7818609E-02  0.9193421E-01
       -1   -1    0    0    0  501  0.00000000000E+00  0.00000000000E+00  0.43618885816E+03  0.43618885819E+03  0.50400001928E-02 0.  1.
        1   -1    0    0  501    0  0.00000000000E+00  0.00000000000E+00 -0.70892394652E+03  0.70892394654E+03  0.50400001928E-02 0. -1.
    10030    2    1    2    0    0  0.00000000000E+00  0.00000000000E+00 -0.27273508836E+03  0.11451128047E+04  0.11121595691E+04 0.  0.
        5    1    3    3  502    0 -0.33896318501E+03 -0.10341626847E+03 -0.57756328385E+03  0.67763736779E+03  0.46999998093E+01 0. -1.
       -5    1    3    3    0  502  0.33896318501E+03  0.10341626847E+03  0.30482819549E+03  0.46747543693E+03  0.46999998093E+01 0.  1.
</event>
<event>
 5   0  0.2298958E-03  0.1104526E+04  0.7818609E-02  0.9200792E-01
       -1   -1    0    0    0  501  0.00000000000E+00  0.00000000000E+00  0.11066082458E+03  0.11066082470E+03  0.50400001928E-02 0.  1.
        1   -1    0    0  501    0  0.00000000000E+00  0.00000000000E+00 -0.27561185410E+04  0.27561185410E+04  0.50400001928E-02 0. -1.
    10030    2    1    2    0    0  0.00000000000E+00  0.00000000000E+00 -0.26454577164E+04  0.28667793657E+04  0.11045258721E+04 0.  0.
        1    1    3    3  502    0  0.46989928579E+03 -0.22553639671E+03 -0.17965191508E+04  0.18706023266E+04  0.50400001928E-02 0. -1.
       -1    1    3    3    0  502 -0.46989928579E+03  0.22553639671E+03 -0.84893856560E+03  0.99617703909E+03  0.50400001928E-02 0.  1.
</event>
<event>
 5   0  0.2255788E-03  0.1103231E+04  0.7818609E-02  0.9202049E-01
        1   -1    0    0  501    0  0.00000000000E+00  0.00000000000E+00  0.55386074886E+03  0.55386074888E+03  0.50400001928E-02 0. -1.
       -1   -1    0    0    0  501  0.00000000000E+00  0.00000000000E+00 -0.54937895788E+03  0.54937895790E+03  0.50400001928E-02 0.  1.
    10030    2    1    2    0    0  0.00000000000E+00  0.00000000000E+00  0.44817909802E+01  0.11032397068E+04  0.11032306033E+04 0.  0.
        3    1    3    3  502    0  0.36304339527E+03 -0.11137883358E+03  0.40233628557E+03  0.55324519727E+03  0.10100000352E+00 0. -1.
       -3    1    3    3    0  502 -0.36304339527E+03  0.11137883358E+03 -0.39785449459E+03  0.54999450950E+03  0.10100000352E+00 0.  1.
</event>
<event>
 5   0  0.3748901E-03  0.1110179E+04  0.7818609E-02  0.9195327E-01
       -2   -1    0    0    0  501  0.00000000000E+00  0.00000000000E+00  0.43236670582E+03  0.43236670583E+03  0.25500000920E-02 0. -1.
        2   -1    0    0  501    0  0.00000000000E+00  0.00000000000E+00 -0.71264623116E+03  0.71264623117E+03  0.25500000920E-02 0.  1.
    10030    2    1    2    0    0  0.00000000000E+00  0.00000000000E+00 -0.28027952534E+03  0.11450129370E+04  0.11101792709E+04 0.  0.
        5    1    3    3  502    0 -0.55892854766E+02  0.51127552773E+03 -0.35543759129E+03  0.62520768371E+03  0.46999998093E+01 0.  1.
       -5    1    3    3    0  502  0.55892854766E+02 -0.51127552773E+03  0.75158065946E+02  0.51980525329E+03  0.46999998093E+01 0. -1.
</event>
<event>
 5   0  0.1508625E-03  0.1093768E+04  0.7818609E-02  0.9211288E-01
       -3   -1    0    0    0  501  0.00000000000E+00  0.00000000000E+00  0.46851012875E+03  0.46851013964E+03  0.10100000352E+00 0.  1.
        3   -1    0    0  501    0  0.00000000000E+00  0.00000000000E+00 -0.63836815889E+03  0.63836816687E+03  0.10100000352E+00 0. -1.
    10030    2    1    2    0    0  0.00000000000E+00  0.00000000000E+00 -0.16985803013E+03  0.11068783065E+04  0.10937677244E+04 0.  0.
        2    1    3    3  502    0 -0.33517200989E+02 -0.21945410480E+03  0.42086029163E+03  0.47582233234E+03  0.25500000920E-02 0.  1.
       -2    1    3    3    0  502  0.33517200989E+02  0.21945410480E+03 -0.59071832176E+03  0.63105597418E+03  0.25500000920E-02 0. -1.
</event>
<event>
 5   0  0.3744875E-03  0.1103509E+04  0.7818609E-02  0.9201778E-01
       -2   -1    0    0    0  501  0.00000000000E+00  0.00000000000E+00  0.33698875319E+03  0.33698875320E+03  0.25500000920E-02 0.  1.
        2   -1    0    0  501    0  0.00000000000E+00  0.00000000000E+00 -0.90339264038E+03  0.90339264039E+03  0.25500000920E-02 0. -1.
    10030    2    1    2    0    0  0.00000000000E+00  0.00000000000E+00 -0.56640388719E+03  0.12403813936E+04  0.11035092379E+04 0.  0.
        2    1    3    3  502    0 -0.25520551792E+03  0.14683913931E+02  0.26641216686E+03  0.36921662525E+03  0.25500000920E-02 0.  1.
       -2    1    3    3    0  502  0.25520551792E+03 -0.14683913931E+02 -0.83281605405E+03  0.87116476834E+03  0.25500000920E-02 0. -1.
</event>
<event>
 5   0  0.3744875E-03  0.1096040E+04  0.7818609E-02  0.9209060E-01
        2   -1    0    0  501    0  0.00000000000E+00  0.00000000000E+00  0.21071610969E+04  0.21071610969E+04  0.25500000920E-02 0.  1.
       -2   -1    0    0    0  501  0.00000000000E+00  0.00000000000E+00 -0.14252633522E+03  0.14252633524E+03  0.25500000920E-02 0. -1.
    10030    2    1    2    0    0  0.00000000000E+00  0.00000000000E+00  0.19646347616E+04  0.22496874321E+04  0.10960400520E+04 0.  0.
        2    1    3    3  502    0  0.41556870750E+01 -0.44130726211E+03  0.16491831296E+04  0.17072124544E+04  0.25500000920E-02 0. -1.
       -2    1    3    3    0  502 -0.41556870750E+01  0.44130726211E+03  0.31545163204E+03  0.54247497776E+03  0.25500000920E-02 0.  1.
</event>
<event>
 5   0  0.3748901E-03  0.1115889E+04  0.7818609E-02  0.9189842E-01
       -2   -1    0    0    0  501  0.00000000000E+00  0.00000000000E+00  0.80175665667E+03  0.80175665668E+03  0.25500000920E-02 0. -1.
        2   -1    0    0  501    0  0.00000000000E+00  0.00000000000E+00 -0.38827523225E+03  0.38827523226E+03  0.25500000920E-02 0.  1.
    10030    2    1    2    0    0  0.00000000000E+00  0.00000000000E+00  0.41348142442E+03  0.11900318889E+04  0.11158893352E+04 0.  0.
        5    1    3    3  502    0  0.18069528784E+03  0.46153522483E+02  0.76751027524E+03  0.78985761203E+03  0.46999998093E+01 0. -1.
       -5    1    3    3    0  502 -0.18069528784E+03 -0.46153522483E+02 -0.35402885082E+03  0.40017427690E+03  0.46999998093E+01 0.  1.
</event>
<event>
 5   0  0.3992414E-03  0.1096607E+04  0.7818609E-02  0.9208505E-01
        2   -1    0    0  501    0  0.00000000000E+00  0.00000000000E+00  0.50347265514E+03  0.50347265514E+03  0.25500000920E-02 0. -1.
       -2   -1    0    0    0  501  0.00000000000E+00  0.00000000000E+00 -0.59712663356E+03  0.59712663357E+03  0.25500000920E-02 0.  1.
    10030    2    1    2    0    0  0.00000000000E+00  0.00000000000E+00 -0.93653978425E+02  0.11005992887E+04  0.10966073712E+04 0.  0.
        1    1    3    3  502    0 -0.34146918525E+03  0.38408688617E+03  0.14495232982E+03  0.53398044772E+03  0.50400001928E-02 0. -1.
       -1    1    3    3    0  502  0.34146918525E+03 -0.38408688617E+03 -0.23860630824E+03  0.56661884099E+03  0.50400001928E-02 0.  1.
</event>
<event>
 5   0  0.3744875E-03  0.1136988E+04  0.7818609E-02  0.9169872E-01
       -2   -1    0    0    0  501  0.00000000000E+00  0.00000000000E+00  0.51872270761E+03  0.51872270762E+03  0.25500000920E-02 0. -1.
        2   -1    0    0  501    0  0.00000000000E+00  0.00000000000E+00 -0.62304076935E+03  0.62304076936E+03  0.25500000920E-02 0.  1.
    10030    2    1    2    0    0  0.00000000000E+00  0.00000000000E+00 -0.10431806174E+03  0.11417634770E+04  0.11369879416E+04 0.  0.
        2    1    3    3  502    0  0.47916811086E+03  0.11444443599E+02 -0.35914277628E+03  0.59892953468E+03  0.25500000920E-02 0.  1.
       -2    1    3    3    0  502 -0.47916811086E+03 -0.11444443599E+02  0.25482471453E+03  0.54283394229E+03  0.25500000920E-02 0. -1.
</event>
<event>
 5   0  0.3992414E-03  0.1113474E+04  0.7818609E-02  0.9192158E-01
        2   -1    0    0  501    0  0.00000000000E+00  0.00000000000E+00  0.39937214581E+03  0.39937214582E+03  0.25500000920E-02 0. -1.
       -2   -1    0    0    0  501  0.00000000000E+00  0.00000000000E+00 -0.77610795995E+03  0.77610795996E+03  0.25500000920E-02 0.  1.
    10030    2    1    2    0    0  0.00000000000E+00  0.00000000000E+00 -0.37673581414E+03  0.11754801058E+04  0.11134736662E+04 0.  0.
        1    1    3    3  502    0  0.54591938776E+03  0.81148680359E+02 -0.11120289927E+03  0.56300903286E+03  0.50400001928E-02 0.  1.
       -1    1    3    3    0  502 -0.54591938776E+03 -0.81148680359E+02 -0.26553291488E+03  0.61247107292E+03  0.50400001928E-02 0. -1.
</event>
<event>
 5   0  0.2374100E-03  0.1094991E+04  0.7818609E-02  0.9210088E-01
       -1   -1    0    0    0  501  0.00000000000E+00  0.00000000000E+00  0.35691599976E+03  0.35691599979E+03  0.50400001928E-02 0. -1.
        1   -1    0    0  501    0  0.00000000000E+00  0.00000000000E+00 -0.83983676461E+03  0.83983676463E+03  0.50400001928E-02 0.  1.
    10030    2    1    2    0    0  0.00000000000E+00  0.00000000000E+00 -0.48292076485E+03  0.11967527644E+04  0.10949907370E+04 0.  0.
        2    1    3    3  502    0 -0.28180222281E+02  0.13500789304E+03  0.33761932573E+03  0.36470270801E+03  0.25500000920E-02 0. -1.
       -2    1    3    3    0  502  0.28180222281E+02 -0.13500789304E+03 -0.82054009059E+03  0.83205005641E+03  0.25500000920E-02 0.  1.
</event>
<event>
 5   0  0.2257667E-03  0.8934929E+03  0.7818609E-02  0.9433752E-01
       -1   -1    0    0    0  501  0.00000000000E+00  0.00000000000E+00  0.10502116901E+03  0.10502116913E+03  0.50400001928E-02 0. -1.
        1   -1    0    0  501    0  0.00000000000E+00  0.00000000000E+00 -0.19004015319E+04  0.19004015319E+04  0.50400001928E-02 0.  1.
    10030    2    1    2    0    0  0.00000000000E+00  0.00000000000E+00 -0.17953803629E+04  0.20054227010E+04  0.89349290000E+03 0.  0.
        4    1    3    3  502    0 -0.70526880718E+01  0.22530323748E+03 -0.31981533663E+02  0.22767459372E+03  0.12699999809E+01 0. -1.
       -4    1    3    3    0  502  0.70526880718E+01 -0.22530323748E+03 -0.17633988292E+04  0.17777481073E+04  0.12699999809E+01 0.  1.
</event>
<event>
 5   0  0.2257667E-03  0.1098634E+04  0.7818609E-02  0.9206524E-01
       -1   -1    0    0    0  501  0.00000000000E+00  0.00000000000E+00  0.31777237079E+03  0.31777237083E+03  0.50400001928E-02 0. -1.
        1   -1    0    0  501    0  0.00000000000E+00  0.00000000000E+00 -0.94957620362E+03  0.94957620363E+03  0.50400001928E-02 0.  1.
    10030    2    1    2    0    0  0.00000000000E+00  0.00000000000E+00 -0.63180383282E+03  0.12673485745E+04  0.10986338453E+04 0.  0.
        4    1    3    3  502    0 -0.15282548227E+03 -0.50751340992E+03 -0.14944413111E+03  0.55069106630E+03  0.12699999809E+01 0.  1.
       -4    1    3    3    0  502  0.15282548227E+03  0.50751340992E+03 -0.48235970172E+03  0.71665750817E+03  0.12699999809E+01 0. -1.
</event>
<event>
 5   0  0.3713158E-03  0.1090454E+04  0.7818609E-02  0.9214547E-01
        2   -1    0    0  501    0  0.00000000000E+00  0.00000000000E+00  0.97084084952E+03  0.97084084952E+03  0.25500000920E-02 0.  1.
       -2   -1    0    0    0  501  0.00000000000E+00  0.00000000000E+00 -0.30620088912E+03  0.30620088913E+03  0.25500000920E-02 0. -1.
    10030    2    1    2    0    0  0.00000000000E+00  0.00000000000E+00  0.66463996039E+03  0.12770417387E+04  0.10904537245E+04 0.  0.
        4    1    3    3  502    0  0.78575015625E+02  0.74391872154E+02 -0.29349861853E+03  0.31281182155E+03  0.12699999809E+01 0. -1.
       -4    1    3    3    0  502 -0.78575015625E+02 -0.74391872154E+02  0.95813857892E+03  0.96422991710E+03  0.12699999809E+01 0.  1.
</event>
<event>
 5   0  0.2300702E-03  0.1107400E+04  0.7818609E-02  0.9198009E-01
       -1   -1    0    0    0  501  0.00000000000E+00  0.00000000000E+00  0.29929738819E+03  0.29929738823E+03  0.50400001928E-02 0. -1.
        1   -1    0    0  501    0  0.00000000000E+00  0.00000000000E+00 -0.10243449645E+04  0.10243449645E+04  0.50400001928E-02 0.  1.
    10030    2    1    2    0    0  0.00000000000E+00  0.00000000000E+00 -0.72504757634E+03  0.13236423528E+04  0.11074001490E+04 0.  0.
        5    1    3    3  502    0  0.36995604795E+03 -0.44014123553E+02 -0.85208427011E+03  0.92998624391E+03  0.46999998093E+01 0.  1.
       -5    1    3    3    0  502 -0.36995604795E+03  0.44014123553E+02  0.12703669377E+03  0.39365610887E+03  0.46999998093E+01 0. -1.
</event>
<event>
 5   0  0.2374100E-03  0.1151874E+04  0.7818609E-02  0.9156056E-01
       -1   -1    0    0    0  501  0.00000000000E+00  0.00000000000E+00  0.35239051968E+03  0.35239051972E+03  0.50400001928E-02 0.  1.
        1   -1    0    0  501    0  0.00000000000E+00  0.00000000000E+00 -0.94129552307E+03  0.94129552309E+03  0.50400001928E-02 0. -1.
    10030    2    1    2    0    0  0.00000000000E+00  0.00000000000E+00 -0.58890500339E+03  0.12936860428E+04  0.11518743310E+04 0.  0.
        2    1    3    3  502    0  0.12827869914E+03 -0.34478684568E+02  0.33495179095E+03  0.36032888673E+03  0.25500000920E-02 0.  1.
       -2    1    3    3    0  502 -0.12827869914E+03  0.34478684568E+02 -0.92385679434E+03  0.93335715608E+03  0.25500000920E-02 0. -1.
</event>
<event>
 5   0  0.2257667E-03  0.1103554E+04  0.7818609E-02  0.9201735E-01
       -1   -1    0    0    0  501  0.00000000000E+00  0.00000000000E+00  0.67078387878E+03  0.67078387880E+03  0.50400001928E-02 0.  1.
        1   -1    0    0  501    0  0.00000000000E+00  0.00000000000E+00 -0.45388355221E+03  0.45388355224E+03  0.50400001928E-02 0. -1.
    10030    2    1    2    0    0  0.00000000000E+00  0.00000000000E+00  0.21690032658E+03  0.11246674310E+04  0.11035538404E+04 0.  0.
        4    1    3    3  502    0 -0.28228402362E+03  0.32092749966E+03 -0.24719261038E+03  0.49374540966E+03  0.12699999809E+01 0. -1.
       -4    1    3    3    0  502  0.28228402362E+03 -0.32092749966E+03  0.46409293696E+03  0.63092202138E+03  0.12699999809E+01 0.  1.
</event>
<event>
 5   0  0.2257667E-03  0.1105153E+04  0.7818609E-02  0.9200184E-01
       -1   -1    0    0    0  501  0.00000000000E+00  0.00000000000E+00  0.26904090298E+03  0.26904090303E+03  0.50400001928E-02 0. -1.
        1   -1    0    0  501    0  0.00000000000E+00  0.00000000000E+00 -0.11349225770E+04  0.11349225770E+04  0.50400001928E-02 0.  1.
    10030    2    1    2    0    0  0.00000000000E+00  0.00000000000E+00 -0.86588167397E+03  0.14039634800E+04  0.11051526500E+04 0.  0.
        4    1    3    3  502    0  0.43991481435E+03  0.46416373945E+01 -0.81846938373E+01  0.44001726193E+03  0.12699999809E+01 0.  1.
       -4    1    3    3    0  502 -0.43991481435E+03 -0.46416373945E+01 -0.85769698014E+03  0.96394621806E+03  0.12699999809E+01 0. -1.
</event>
<event>
 5   0  0.3962999E-03  0.1101353E+04  0.7818609E-02  0.9203874E-01
       -2   -1    0    0    0  501  0.00000000000E+00  0.00000000000E+00  0.45188322931E+03  0.45188322932E+03  0.25500000920E-02 0.  1.
        2   -1    0    0  501    0  0.00000000000E+00  0.00000000000E+00 -0.67106901327E+03  0.67106901327E+03  0.25500000920E-02 0. -1.
    10030    2    1    2    0    0  0.00000000000E+00  0.00000000000E+00 -0.21918578395E+03  0.11229522426E+04  0.11013534089E+04 0.  0.
        3    1    3    3  502    0 -0.39699557511E+03 -0.18122611633E+03  0.23284535494E+03  0.49463659530E+03  0.10100000352E+00 0.  1.
       -3    1    3    3    0  502  0.39699557511E+03  0.18122611633E+03 -0.45203113890E+03  0.62831564729E+03  0.10100000352E+00 0. -1.
</event>
<event>
 5   0  0.2374100E-03  0.1101431E+04  0.7818609E-02  0.9203799E-01
        1   -1    0    0  501    0  0.00000000000E+00  0.00000000000E+00  0.27911575106E+03  0.27911575110E+03  0.50400001928E-02 0. -1.
       -1   -1    0    0    0  501  0.00000000000E+00  0.00000000000E+00 -0.10866008248E+04  0.10866008249E+04  0.50400001928E-02 0.  1.
    10030    2    1    2    0    0  0.00000000000E+00  0.00000000000E+00 -0.80748507379E+03  0.13657165760E+04  0.11014307157E+04 0.  0.
        2    1    3    3  502    0 -0.13122378687E+03 -0.41573004534E+03  0.13507266929E+02  0.43615776859E+03  0.25500000920E-02 0. -1.
       -2    1    3    3    0  502  0.13122378687E+03  0.41573004534E+03 -0.82099234072E+03  0.92955880737E+03  0.25500000920E-02 0.  1.
</event>
<event>
 5   0  0.3962999E-03  0.1107205E+04  0.7818609E-02  0.9198197E-01
       -2   -1    0    0    0  501  0.00000000000E+00  0.00000000000E+00  0.40429824723E+03  0.40429824724E+03  0.25500000920E-02 0.  1.
        2   -1    0    0  501    0  0.00000000000E+00  0.00000000000E+00 -0.75804413275E+03  0.75804413275E+03  0.25500000920E-02 0. -1.
    10030    2    1    2    0    0  0.00000000000E+00  0.00000000000E+00 -0.35374588552E+03  0.11623423800E+04  0.11072053363E+04 0.  0.
        3    1    3    3  502    0 -0.45255877234E+03 -0.17345097295E+03  0.10399712262E+03  0.49569153125E+03  0.10100000352E+00 0.  1.
       -3    1    3    3    0  502  0.45255877234E+03  0.17345097295E+03 -0.45774300813E+03  0.66665084875E+03  0.10100000352E+00 0. -1.
</event>
<event>
 5   0  0.2300702E-03  0.1080070E+04  0.7818609E-02  0.9224838E-01
       -1   -1    0    0    0  501  0.00000000000E+00  0.00000000000E+00  0.41006065846E+03  0.41006065849E+03  0.50400001928E-02 0. -1.
        1   -1    0    0  501    0  0.00000000000E+00  0.00000000000E+00 -0.71120619281E+03  0.71120619283E+03  0.50400001928E-02 0.  1.
    10030    2    1    2    0    0  0.00000000000E+00  0.00000000000E+00 -0.30114553436E+03  0.11212668513E+04  0.10800697751E+04 0.  0.
        5    1    3    3  502    0  0.65864838473E+01  0.33901470169E+03 -0.58689086033E+03  0.67781805941E+03  0.46999998093E+01 0.  1.
       -5    1    3    3    0  502 -0.65864838473E+01 -0.33901470169E+03  0.28574532597E+03  0.44344879191E+03  0.46999998093E+01 0. -1.
</event>
<event>
 5   0  0.3962999E-03  0.1104071E+04  0.7818609E-02  0.9201233E-01
       -2   -1    0    0    0  501  0.00000000000E+00  0.00000000000E+00  0.40313935432E+03  0.40313935432E+03  0.25500000920E-02 0.  1.
        2   -1    0    0  501    0  0.00000000000E+00  0.00000000000E+00 -0.75592534221E+03  0.75592534221E+03  0.25500000920E-02 0. -1.
    10030    2    1    2    0    0  0.00000000000E+00  0.00000000000E+00 -0.35278598789E+03  0.11590646965E+04  0.11040711107E+04 0.  0.
        3    1    3    3  502    0 -0.71719326982E+02 -0.30361226929E+03  0.30172499071E+03  0.43400697246E+03  0.10100000352E+00 0.  1.
       -3    1    3    3    0  502  0.71719326982E+02  0.30361226929E+03 -0.65451097860E+03  0.72505772407E+03  0.10100000352E+00 0. -1.
</event>
<event>
 5   0  0.2298958E-03  0.8944157E+03  0.7818609E-02  0.9432589E-01
        1   -1    0    0  501    0  0.00000000000E+00  0.00000000000E+00  0.69121829159E+03  0.69121829161E+03  0.50400001928E-02 0.  1.
       -1   -1    0    0    0  501  0.00000000000E+00  0.00000000000E+00 -0.28933672792E+03  0.28933672797E+03  0.50400001928E-02 0. -1.
    10030    2    1    2    0    0  0.00000000000E+00  0.00000000000E+00  0.40188156367E+03  0.98055501958E+03  0.89441565013E+03 0.  0.
        1    1    3    3  502    0 -0.11383259384E+02  0.45197989782E+02 -0.28666664614E+03  0.29043106395E+03  0.50400001928E-02 0. -1.
       -1    1    3    3    0  502  0.11383259384E+02 -0.45197989782E+02  0.68854820981E+03  0.69012395562E+03  0.50400001928E-02 0.  1.
</event>
<event>
 5   0  0.2300702E-03  0.1102821E+04  0.7818609E-02  0.9202447E-01
       -1   -1    0    0    0  501  0.00000000000E+00  0.00000000000E+00  0.48778089033E+03  0.48778089036E+03  0.50400001928E-02 0. -1.
        1   -1    0    0  501    0  0.00000000000E+00  0.00000000000E+00 -0.62334050566E+03  0.62334050569E+03  0.50400001928E-02 0.  1.
    10030    2    1    2    0    0  0.00000000000E+00  0.00000000000E+00 -0.13555961533E+03  0.11111213960E+04  0.11028210859E+04 0.  0.
        5    1    3    3  502    0  0.40369985792E+03 -0.11922286114E+03 -0.42661177358E+03  0.59933910373E+03  0.46999998093E+01 0.  1.
       -5    1    3    3    0  502 -0.40369985792E+03  0.11922286114E+03  0.29105215825E+03  0.51178229231E+03  0.46999998093E+01 0. -1.
</event>
<event>
 5   0  0.3748901E-03  0.1100247E+04  0.7818609E-02  0.9204951E-01
        2   -1    0    0  501    0  0.00000000000E+00  0.00000000000E+00  0.62454568020E+03  0.62454568021E+03  0.25500000920E-02 0.  1.
       -2   -1    0    0    0  501  0.00000000000E+00  0.00000000000E+00 -0.48456990276E+03  0.48456990277E+03  0.25500000920E-02 0. -1.
    10030    2    1    2    0    0  0.00000000000E+00  0.00000000000E+00  0.13997577744E+03  0.11091155830E+04  0.11002473168E+04 0.  0.
        5    1    3    3  502    0  0.62126171233E+02  0.16676127663E+03  0.59470718019E+03  0.62077991647E+03  0.46999998093E+01 0.  1.
       -5    1    3    3    0  502 -0.62126171233E+02 -0.16676127663E+03 -0.45473140275E+03  0.48833566650E+03  0.46999998093E+01 0. -1.
</event>
<event>
 5   0  0.2298958E-03  0.1004310E+04  0.7818609E-02  0.9303831E-01
       -1   -1    0    0    0  501  0.00000000000E+00  0.00000000000E+00  0.26063088025E+03  0.26063088030E+03  0.50400001928E-02 0.  1.
        1   -1    0    0  501    0  0.00000000000E+00  0.00000000000E+00 -0.96749649586E+03  0.96749649587E+03  0.50400001928E-02 0. -1.
    10030    2    1    2    0    0  0.00000000000E+00  0.00000000000E+00 -0.70686561561E+03  0.12281273762E+04  0.10043096403E+04 0.  0.
        1    1    3    3  502    0  0.12493358972E+03 -0.33854584221E+03  0.73583943937E+02  0.36828831905E+03  0.50400001928E-02 0.  1.
       -1    1    3    3    0  502 -0.12493358972E+03  0.33854584221E+03 -0.78044955955E+03  0.85983905712E+03  0.50400001928E-02 0. -1.
</event>
<event>
 5   0  0.2374100E-03  0.1093709E+04  0.7818609E-02  0.9211345E-01
        1   -1    0    0  501    0  0.00000000000E+00  0.00000000000E+00  0.12267205485E+04  0.12267205485E+04  0.50400001928E-02 0.  1.
       -1   -1    0    0    0  501  0.00000000000E+00  0.00000000000E+00 -0.24378000941E+03  0.24378000947E+03  0.50400001928E-02 0. -1.
    10030    2    1    2    0    0  0.00000000000E+00  0.00000000000E+00  0.98294053909E+03  0.14705005580E+04  0.10937091879E+04 0.  0.
        2    1    3    3  502    0 -0.18886640989E+03 -0.47739926690E+03  0.74468562961E+03  0.90450940723E+03  0.25500000920E-02 0.  1.
       -2    1    3    3    0  502  0.18886640989E+03  0.47739926690E+03  0.23825490948E+03  0.56599115075E+03  0.25500000920E-02 0. -1.
</event>
<event>
 5   0  0.3744875E-03  0.1093204E+04  0.7818609E-02  0.9211841E-01
        2   -1    0    0  501    0  0.00000000000E+00  0.00000000000E+00  0.56772537498E+03  0.56772537499E+03  0.25500000920E-02 0.  1.
       -2   -1    0    0    0  501  0.00000000000E+00  0.00000000000E+00 -0.52626473995E+03  0.52626473996E+03  0.25500000920E-02 0. -1.
    10030    2    1    2    0    0  0.00000000000E+00  0.00000000000E+00  0.41460635029E+02  0.10939901149E+04  0.10932041837E+04 0.  0.
        2    1    3    3  502    0  0.27859115813E+03  0.17036401073E+03 -0.41791906462E+03  0.53037088355E+03  0.25500000920E-02 0. -1.
       -2    1    3    3    0  502 -0.27859115813E+03 -0.17036401073E+03  0.45937969965E+03  0.56361923139E+03  0.25500000920E-02 0.  1.
</event>
<event>
 5   0  0.3744875E-03  0.1099533E+04  0.7818609E-02  0.9205647E-01
        2   -1    0    0  501    0  0.00000000000E+00  0.00000000000E+00  0.13991342150E+04  0.13991342150E+04  0.25500000920E-02 0. -1.
       -2   -1    0    0    0  501  0.00000000000E+00  0.00000000000E+00 -0.21602170512E+03  0.21602170514E+03  0.25500000920E-02 0.  1.
    10030    2    1    2    0    0  0.00000000000E+00  0.00000000000E+00  0.11831125099E+04  0.16151559201E+04  0.10995332807E+04 0.  0.
        2    1    3    3  502    0 -0.46225306258E+03 -0.27052547433E+03  0.77373783703E+03  0.94102718695E+03  0.25500000920E-02 0. -1.
       -2    1    3    3    0  502  0.46225306258E+03  0.27052547433E+03  0.40937467284E+03  0.67412873318E+03  0.25500000920E-02 0.  1.
</event>
<event>
 5   0  0.3713158E-03  0.1084978E+04  0.7818609E-02  0.9219958E-01
       -2   -1    0    0    0  501  0.00000000000E+00  0.00000000000E+00  0.20201714699E+03  0.20201714700E+03  0.25500000920E-02 0.  1.
        2   -1    0    0  501    0  0.00000000000E+00  0.00000000000E+00 -0.14567786285E+04  0.14567786285E+04  0.25500000920E-02 0. -1.
    10030    2    1    2    0    0  0.00000000000E+00  0.00000000000E+00 -0.12547614815E+04  0.16587957755E+04  0.10849779027E+04 0.  0.
        4    1    3    3  502    0  0.72970553427E+02 -0.43631374833E+03 -0.11074530481E+04  0.11925385760E+04  0.12699999809E+01 0. -1.
       -4    1    3    3    0  502 -0.72970553427E+02  0.43631374833E+03 -0.14730843346E+03  0.46625719953E+03  0.12699999809E+01 0.  1.
</event>
<event>
 5   0  0.3992414E-03  0.1062565E+04  0.7818609E-02  0.9242467E-01
        2   -1    0    0  501    0  0.00000000000E+00  0.00000000000E+00  0.78906635673E+03  0.78906635674E+03  0.25500000920E-02 0.  1.
       -2   -1    0    0    0  501  0.00000000000E+00  0.00000000000E+00 -0.35771506392E+03  0.35771506393E+03  0.25500000920E-02 0. -1.
    10030    2    1    2    0    0  0.00000000000E+00  0.00000000000E+00  0.43135129282E+03  0.11467814207E+04  0.10625646752E+04 0.  0.
        1    1    3    3  502    0  0.27686914920E+03 -0.37128142022E+02  0.70340700695E+03  0.75684637950E+03  0.50400001928E-02 0.  1.
       -1    1    3    3    0  502 -0.27686914920E+03  0.37128142022E+02 -0.27205571413E+03  0.38993504117E+03  0.50400001928E-02 0. -1.
</event>
<event>
 5   0  0.3748901E-03  0.1106857E+04  0.7818609E-02  0.9198534E-01
       -2   -1    0    0    0  501  0.00000000000E+00  0.00000000000E+00  0.32916778508E+03  0.32916778509E+03  0.25500000920E-02 0.  1.
        2   -1    0    0  501    0  0.00000000000E+00  0.00000000000E+00 -0.93047736476E+03  0.93047736476E+03  0.25500000920E-02 0. -1.
    10030    2    1    2    0    0  0.00000000000E+00  0.00000000000E+00 -0.60130957968E+03  0.12596451498E+04  0.11068571240E+04 0.  0.
        5    1    3    3  502    0 -0.29654333957E+03 -0.31399493315E+03 -0.69443937633E+03  0.81780126417E+03  0.46999998093E+01 0. -1.
       -5    1    3    3    0  502  0.29654333957E+03  0.31399493315E+03  0.93129796653E+02  0.44184388568E+03  0.46999998093E+01 0.  1.
</event>
<event>
 5   0  0.3744875E-03  0.1112198E+04  0.7818609E-02  0.9193384E-01
       -2   -1    0    0    0  501  0.00000000000E+00  0.00000000000E+00  0.11439836424E+04  0.11439836424E+04  0.25500000920E-02 0. -1.
        2   -1    0    0  501    0  0.00000000000E+00  0.00000000000E+00 -0.27032372038E+03  0.27032372039E+03  0.25500000920E-02 0.  1.
    10030    2    1    2    0    0  0.00000000000E+00  0.00000000000E+00  0.87365992201E+03  0.14143073628E+04  0.11121976700E+04 0.  0.
        2    1    3    3  502    0  0.11207725734E+03  0.47478310975E+03  0.77630027216E+03  0.91685463705E+03  0.25500000920E-02 0.  1.
       -2    1    3    3    0  502 -0.11207725734E+03 -0.47478310975E+03  0.97359649850E+02  0.49745272573E+03  0.25500000920E-02 0. -1.
</event>
<event>
 5   0  0.3992414E-03  0.1119232E+04  0.7818609E-02  0.9186648E-01
        2   -1    0    0  501    0  0.00000000000E+00  0.00000000000E+00  0.11387857950E+04  0.11387857950E+04  0.25500000920E-02 0.  1.
       -2   -1    0    0    0  501  0.00000000000E+00  0.00000000000E+00 -0.27500326853E+03  0.27500326854E+03  0.25500000920E-02 0. -1.
    10030    2    1    2    0    0  0.00000000000E+00  0.00000000000E+00  0.86378252644E+03  0.14137890635E+04  0.11192315503E+04 0.  0.
        1    1    3    3  502    0 -0.43738431586E+03 -0.70040473909E+02 -0.10669827883E+00  0.44295679152E+03  0.50400001928E-02 0. -1.
       -1    1    3    3    0  502  0.43738431586E+03  0.70040473909E+02  0.86388922472E+03  0.97083227200E+03  0.50400001928E-02 0.  1.
</event>
<event>
 5   0  0.1508625E-03  0.1092843E+04  0.7818609E-02  0.9212195E-01
        3   -1    0    0  501    0  0.00000000000E+00  0.00000000000E+00  0.12711054712E+04  0.12711054752E+04  0.10100000352E+00 0.  1.
       -3   -1    0    0    0  501  0.00000000000E+00  0.00000000000E+00 -0.23489524852E+03  0.23489527023E+03  0.10100000352E+00 0. -1.
    10030    2    1    2    0    0  0.00000000000E+00  0.00000000000E+00  0.10362102226E+04  0.15060007454E+04  0.10928433646E+04 0.  0.
        2    1    3    3  502    0  0.53664763199E+02 -0.30095972826E+03  0.11422296535E+04  0.11824319203E+04  0.25500000920E-02 0.  1.
       -2    1    3    3    0  502 -0.53664763199E+02  0.30095972826E+03 -0.10601943085E+03  0.32356882509E+03  0.25500000920E-02 0. -1.
</event>
<event>
 5   0  0.1508625E-03  0.1090961E+04  0.7818609E-02  0.9214047E-01
       -3   -1    0    0    0  501  0.00000000000E+00  0.00000000000E+00  0.85932508473E+03  0.85932509066E+03  0.10100000352E+00 0. -1.
        3   -1    0    0  501    0  0.00000000000E+00  0.00000000000E+00 -0.34625876219E+03  0.34625877692E+03  0.10100000352E+00 0.  1.
    10030    2    1    2    0    0  0.00000000000E+00  0.00000000000E+00  0.51306632254E+03  0.12055838676E+04  0.10909607740E+04 0.  0.
        2    1    3    3  502    0  0.48594813305E+03 -0.11164832366E+03  0.12071347494E+02  0.49875510386E+03  0.25500000920E-02 0. -1.
       -2    1    3    3    0  502 -0.48594813305E+03  0.11164832366E+03  0.50099497505E+03  0.70682876372E+03  0.25500000920E-02 0.  1.
</event>
<event>
 5   0  0.2255788E-03  0.1117157E+04  0.7818609E-02  0.9188629E-01
        1   -1    0    0  501    0  0.00000000000E+00  0.00000000000E+00  0.12110088058E+04  0.12110088059E+04  0.50400001928E-02 0.  1.
       -1   -1    0    0    0  501  0.00000000000E+00  0.00000000000E+00 -0.25764459918E+03  0.25764459923E+03  0.50400001928E-02 0. -1.
    10030    2    1    2    0    0  0.00000000000E+00  0.00000000000E+00  0.95336420666E+03  0.14686534051E+04  0.11171568886E+04 0.  0.
        3    1    3    3  502    0  0.37988290678E+02 -0.35903677135E+03  0.10369994043E+04  0.10980520426E+04  0.10100000352E+00 0.  1.
       -3    1    3    3    0  502 -0.37988290678E+02  0.35903677135E+03 -0.83635197671E+02  0.37060136252E+03  0.10100000352E+00 0. -1.
</event>
<event>
 5   0  0.3748901E-03  0.1087302E+04  0.7818609E-02  0.9217658E-01
       -2   -1    0    0    0  501  0.00000000000E+00  0.00000000000E+00  0.16478453274E+03  0.16478453276E+03  0.25500000920E-02 0.  1.
        2   -1    0    0  501    0  0.00000000000E+00  0.00000000000E+00 -0.17935916753E+04  0.17935916753E+04  0.25500000920E-02 0. -1.
    10030    2    1    2    0    0  0.00000000000E+00  0.00000000000E+00 -0.16288071425E+04  0.19583762080E+04  0.10873015518E+04 0.  0.
        5    1    3    3  502    0 -0.14667001919E+03  0.24065628099E+03 -0.16517015976E+04  0.16755798393E+04  0.46999998093E+01 0. -1.
       -5    1    3    3    0  502  0.14667001919E+03 -0.24065628099E+03  0.22894455113E+02  0.28279636876E+03  0.46999998093E+01 0.  1.
</event>
<event>
 5   0  0.2257667E-03  0.1104691E+04  0.7818609E-02  0.9200632E-01
        1   -1    0    0  501    0  0.00000000000E+00  0.00000000000E+00  0.34243914117E+03  0.34243914121E+03  0.50400001928E-02 0. -1.
       -1   -1    0    0    0  501  0.00000000000E+00  0.00000000000E+00 -0.89091922350E+03  0.89091922351E+03  0.50400001928E-02 0.  1.
    10030    2    1    2    0    0  0.00000000000E+00  0.00000000000E+00 -0.54848008232E+03  0.12333583647E+04  0.11046911130E+04 0.  0.
        4    1    3    3  502    0 -0.23607132427E+03 -0.22742260209E+03  0.22209904235E+03  0.39595493127E+03  0.12699999809E+01 0. -1.
       -4    1    3    3    0  502  0.23607132427E+03  0.22742260209E+03 -0.77057912467E+03  0.83740343346E+03  0.12699999809E+01 0.  1.
</event>
<event>
 5   0  0.3992414E-03  0.1087792E+04  0.7818609E-02  0.9217173E-01
       -2   -1    0    0    0  501  0.00000000000E+00  0.00000000000E+00  0.41977978614E+03  0.41977978615E+03  0.25500000920E-02 0.  1.
        2   -1    0    0  501    0  0.00000000000E+00  0.00000000000E+00 -0.70471009293E+03  0.70471009293E+03  0.25500000920E-02 0. -1.
    10030    2    1    2    0    0  0.00000000000E+00  0.00000000000E+00 -0.28493030679E+03  0.11244898791E+04  0.10877923554E+04 0.  0.
        1    1    3    3  502    0  0.50394168645E+03 -0.11111668153E+03  0.35141700144E+02  0.51724179971E+03  0.50400001928E-02 0.  1.
       -1    1    3    3    0  502 -0.50394168645E+03  0.11111668153E+03 -0.32007200693E+03  0.60724807937E+03  0.50400001928E-02 0. -1.
</event>
<event>
 5   0  0.1508625E-03  0.1116588E+04  0.7818609E-02  0.9189173E-01
       -3   -1    0    0    0  501  0.00000000000E+00  0.00000000000E+00  0.10512889281E+04  0.10512889329E+04  0.10100000352E+00 0. -1.
        3   -1    0    0  501    0  0.00000000000E+00  0.00000000000E+00 -0.29648591968E+03  0.29648593689E+03  0.10100000352E+00 0.  1.
    10030    2    1    2    0    0  0.00000000000E+00  0.00000000000E+00  0.75480300837E+03  0.13477748698E+04  0.11165883387E+04 0.  0.
        1    1    3    3  502    0  0.11139131286E+03 -0.38680450373E+03  0.84436911389E+03  0.93540630167E+03  0.50400001928E-02 0. -1.
       -1    1    3    3    0  502 -0.11139131286E+03  0.38680450373E+03 -0.89566105524E+02  0.41236856812E+03  0.50400001928E-02 0.  1.
</event>
<event>
 5   0  0.3744875E-03  0.1123714E+04  0.7818609E-02  0.9182382E-01
       -2   -1    0    0    0  501  0.00000000000E+00  0.00000000000E+00  0.54520585947E+03  0.54520585948E+03  0.25500000920E-02 0.  1.
        2   -1    0    0  501    0  0.00000000000E+00  0.00000000000E+00 -0.57901672530E+03  0.57901672530E+03  0.25500000920E-02 0. -1.
    10030    2    1    2    0    0  0.00000000000E+00  0.00000000000E+00 -0.33810865826E+02  0.11242225848E+04  0.11237140408E+04 0.  0.
        2    1    3    3  502    0 -0.49319644719E+03 -0.19972204046E+03 -0.19740793153E+03  0.56753988442E+03  0.25500000920E-02 0. -1.
       -2    1    3    3    0  502  0.49319644719E+03  0.19972204046E+03  0.16359706570E+03  0.55668270036E+03  0.25500000920E-02 0.  1.
</event>
<event>
 5   0  0.2300702E-03  0.1104681E+04  0.7818609E-02  0.9200642E-01
        1   -1    0    0  501    0  0.00000000000E+00  0.00000000000E+00  0.23063153801E+04  0.23063153802E+04  0.50400001928E-02 0.  1.
       -1   -1    0    0    0  501  0.00000000000E+00  0.00000000000E+00 -0.13228023553E+03  0.13228023563E+03  0.50400001928E-02 0. -1.
    10030    2    1    2    0    0  0.00000000000E+00  0.00000000000E+00  0.21740351446E+04  0.24385956158E+04  0.11046808441E+04 0.  0.
        5    1    3    3  502    0  0.21545648490E+03 -0.10646668204E+02 -0.35395101480E+02  0.21865441142E+03  0.46999998093E+01 0. -1.
       -5    1    3    3    0  502 -0.21545648490E+03  0.10646668204E+02  0.22094302461E+04  0.22199412044E+04  0.46999998093E+01 0.  1.
</event>
<event>
 5   0  0.3713158E-03  0.1089390E+04  0.7818609E-02  0.9215595E-01
       -2   -1    0    0    0  501  0.00000000000E+00  0.00000000000E+00  0.42668588290E+03  0.42668588291E+03  0.25500000920E-02 0.  1.
        2   -1    0    0  501    0  0.00000000000E+00  0.00000000000E+00 -0.69534204055E+03  0.69534204056E+03  0.25500000920E-02 0. -1.
    10030    2    1    2    0    0  0.00000000000E+00  0.00000000000E+00 -0.26865615766E+03  0.11220279235E+04  0.10893899807E+04 0.  0.
        4    1    3    3  502    0  0.12004681994E+03 -0.50585435694E+03 -0.30164869204E+03  0.60107688005E+03  0.12699999809E+01 0. -1.
       -4    1    3    3    0  502 -0.12004681994E+03  0.50585435694E+03  0.32992534389E+02  0.52095104342E+03  0.12699999809E+01 0.  1.
</event>
<event>
 5   0  0.3748901E-03  0.1110367E+04  0.7818609E-02  0.9195146E-01
       -2   -1    0    0    0  501  0.00000000000E+00  0.00000000000E+00  0.22459916185E+03  0.22459916186E+03  0.25500000920E-02 0. -1.
        2   -1    0    0  501    0  0.00000000000E+00  0.00000000000E+00 -0.13723504150E+04  0.13723504150E+04  0.25500000920E-02 0.  1.
    10030    2    1    2    0    0  0.00000000000E+00  0.00000000000E+00 -0.11477512531E+04  0.15969495768E+04  0.11103670618E+04 0.  0.
        5    1    3    3  502    0  0.38797034214E+02  0.29298790459E+03 -0.12497760459E+04  0.12842544051E+04  0.46999998093E+01 0.  1.
       -5    1    3    3    0  502 -0.38797034214E+02 -0.29298790459E+03  0.10202479276E+03  0.31269517175E+03  0.46999998093E+01 0. -1.
</event>
<event>
 5   0  0.2257667E-03  0.1095400E+04  0.7818609E-02  0.9209687E-01
        1   -1    0    0  501    0  0.00000000000E+00  0.00000000000E+00  0.78011945903E+03  0.78011945905E+03  0.50400001928E-02 0. -1.
       -1   -1    0    0    0  501  0.00000000000E+00  0.00000000000E+00 -0.38452469008E+03  0.38452469012E+03  0.50400001928E-02 0.  1.
    10030    2    1    2    0    0  0.00000000000E+00  0.00000000000E+00  0.39559476895E+03  0.11646441492E+04  0.10953998233E+04 0.  0.
        4    1    3    3  502    0 -0.12927055173E+03 -0.10730776628E+03 -0.35644988172E+03  0.39406086246E+03  0.12699999809E+01 0.  1.
       -4    1    3    3    0  502  0.12927055173E+03  0.10730776628E+03  0.75204465067E+03  0.77058328670E+03  0.12699999809E+01 0. -1.
</event>
<event>
 5   0  0.3992414E-03  0.1095584E+04  0.7818609E-02  0.9209507E-01
        2   -1    0    0  501    0  0.00000000000E+00  0.00000000000E+00  0.13569879146E+04  0.13569879146E+04  0.25500000920E-02 0. -1.
       -2   -1    0    0    0  501  0.00000000000E+00  0.00000000000E+00 -0.22113394069E+03  0.22113394070E+03  0.25500000920E-02 0.  1.
    10030    2    1    2    0    0  0.00000000000E+00  0.00000000000E+00  0.11358539739E+04  0.15781218553E+04  0.10955840178E+04 0.  0.
        1    1    3    3  502    0  0.37074664999E+03 -0.59006633340E+02 -0.67002307033E+01  0.37547270789E+03  0.50400001928E-02 0.  1.
       -1    1    3    3    0  502 -0.37074664999E+03  0.59006633340E+02  0.11425542046E+04  0.12026491474E+04  0.50400001928E-02 0. -1.
</event>
<event>
 5   0  0.2300702E-03  0.1097537E+04  0.7818609E-02  0.9207596E-01
        1   -1    0    0  501    0  0.00000000000E+00  0.00000000000E+00  0.65409311812E+03  0.65409311813E+03  0.50400001928E-02 0. -1.
       -1   -1    0    0    0  501  0.00000000000E+00  0.00000000000E+00 -0.46040341087E+03  0.46040341089E+03  0.50400001928E-02 0.  1.
    10030    2    1    2    0    0  0.00000000000E+00  0.00000000000E+00  0.19368970725E+03  0.11144965290E+04  0.10975367012E+04 0.  0.
        5    1    3    3  502    0  0.34791089590E+03  0.31409178135E+03 -0.19292229678E+03  0.50688927903E+03  0.46999998093E+01 0.  1.
       -5    1    3    3    0  502 -0.34791089590E+03 -0.31409178135E+03  0.38661200403E+03  0.60760725000E+03  0.46999998093E+01 0. -1.
</event>
<event>
 5   0  0.2255788E-03  0.1100765E+04  0.7818609E-02  0.9204446E-01
       -1   -1    0    0    0  501  0.00000000000E+00  0.00000000000E+00  0.36337171628E+03  0.36337171631E+03  0.50400001928E-02 0. -1.
        1   -1    0    0  501    0  0.00000000000E+00  0.00000000000E+00 -0.83363935278E+03  0.83363935279E+03  0.50400001928E-02 0.  1.
    10030    2    1    2    0    0  0.00000000000E+00  0.00000000000E+00 -0.47026763650E+03  0.11970110691E+04  0.11007651201E+04 0.  0.
        3    1    3    3  502    0  0.47428792799E+03 -0.22685443959E+03 -0.58082163768E+02  0.52894756200E+03  0.10100000352E+00 0. -1.
       -3    1    3    3    0  502 -0.47428792799E+03  0.22685443959E+03 -0.41218547273E+03  0.66806350711E+03  0.10100000352E+00 0.  1.
</event>
<event>
 5   0  0.2255788E-03  0.1009540E+04  0.7818609E-02  0.9298143E-01
        1   -1    0    0  501    0  0.00000000000E+00  0.00000000000E+00  0.53406276613E+03  0.53406276615E+03  0.50400001928E-02 0. -1.
       -1   -1    0    0    0  501  0.00000000000E+00  0.00000000000E+00 -0.47708400870E+03  0.47708400872E+03  0.50400001928E-02 0.  1.
    10030    2    1    2    0    0  0.00000000000E+00  0.00000000000E+00  0.56978757430E+02  0.10111467749E+04  0.10095401040E+04 0.  0.
        3    1    3    3  502    0  0.10452621453E+03 -0.49095118611E+03  0.81809414722E+02  0.50857800504E+03  0.10100000352E+00 0.  1.
       -3    1    3    3    0  502 -0.10452621453E+03  0.49095118611E+03 -0.24830657292E+02  0.50256876983E+03  0.10100000352E+00 0. -1.
</event>
<event>
 5   0  0.2257667E-03  0.1145447E+04  0.7818609E-02  0.9161994E-01
        1   -1    0    0  501    0  0.00000000000E+00  0.00000000000E+00  0.64901281760E+03  0.64901281762E+03  0.50400001928E-02 0. -1.
       -1   -1    0    0    0  501  0.00000000000E+00  0.00000000000E+00 -0.50540207773E+03  0.50540207775E+03  0.50400001928E-02 0.  1.
    10030    2    1    2    0    0  0.00000000000E+00  0.00000000000E+00  0.14361073987E+03  0.11544148954E+04  0.11454473825E+04 0.  0.
        4    1    3    3  502    0  0.52556621572E+03  0.22306694822E+03  0.11723713910E+03  0.58285921986E+03  0.12699999809E+01 0. -1.
       -4    1    3    3    0  502 -0.52556621572E+03 -0.22306694822E+03  0.26373600768E+02  0.57155567551E+03  0.12699999809E+01 0.  1.
</event>
<event>
 5   0  0.3962999E-03  0.1088663E+04  0.7818609E-02  0.9216313E-01
       -2   -1    0    0    0  501  0.00000000000E+00  0.00000000000E+00  0.21027087408E+03  0.21027087409E+03  0.25500000920E-02 0. -1.
        2   -1    0    0  501    0  0.00000000000E+00  0.00000000000E+00 -0.14091186485E+04  0.14091186485E+04  0.25500000920E-02 0.  1.
    10030    2    1    2    0    0  0.00000000000E+00  0.00000000000E+00 -0.11988477744E+04  0.16193895226E+04  0.10886626841E+04 0.  0.
        3    1    3    3  502    0  0.40331715766E+03  0.25617822014E+03 -0.98733042575E+03  0.10968652561E+04  0.10100000352E+00 0.  1.
       -3    1    3    3    0  502 -0.40331715766E+03 -0.25617822014E+03 -0.21151734869E+03  0.52252426655E+03  0.10100000352E+00 0. -1.
</event>
<event>
 5   0  0.2300702E-03  0.1119797E+04  0.7818609E-02  0.9186108E-01
       -1   -1    0    0    0  501  0.00000000000E+00  0.00000000000E+00  0.20375684876E+03  0.20375684882E+03  0.50400001928E-02 0.  1.
        1   -1    0    0  501    0  0.00000000000E+00  0.00000000000E+00 -0.15385328115E+04  0.15385328115E+04  0.50400001928E-02 0. -1.
    10030    2    1    2    0    0  0.00000000000E+00  0.00000000000E+00 -0.13347759627E+04  0.17422896603E+04  0.11197974771E+04 0.  0.
        5    1    3    3  502    0  0.35157178151E+03 -0.33525971480E+03 -0.23434876547E+03  0.53939153479E+03  0.46999998093E+01 0.  1.
       -5    1    3    3    0  502 -0.35157178151E+03  0.33525971480E+03 -0.11004271972E+04  0.12028981255E+04  0.46999998093E+01 0. -1.
</event>
<event>
 5   0  0.3962999E-03  0.1092245E+04  0.7818609E-02  0.9212784E-01
       -2   -1    0    0    0  501  0.00000000000E+00  0.00000000000E+00  0.11673153578E+03  0.11673153580E+03  0.25500000920E-02 0. -1.
        2   -1    0    0  501    0  0.00000000000E+00  0.00000000000E+00 -0.25550049822E+04  0.25550049822E+04  0.25500000920E-02 0.  1.
    10030    2    1    2    0    0  0.00000000000E+00  0.00000000000E+00 -0.24382734465E+04  0.26717365180E+04  0.10922447629E+04 0.  0.
        3    1    3    3  502    0 -0.12514211061E+03  0.38543104142E+03 -0.32361129834E+03  0.51859610310E+03  0.10100000352E+00 0. -1.
       -3    1    3    3    0  502  0.12514211061E+03 -0.38543104142E+03 -0.21146621481E+04  0.21531404149E+04  0.10100000352E+00 0.  1.
</event>
<event>
 5   0  0.3748901E-03  0.1090906E+04  0.7818609E-02  0.9214101E-01
       -2   -1    0    0    0  501  0.00000000000E+00  0.00000000000E+00  0.23176160147E+03  0.23176160148E+03  0.25500000920E-02 0.  1.
        2   -1    0    0  501    0  0.00000000000E+00  0.00000000000E+00 -0.12837290689E+04  0.12837290689E+04  0.25500000920E-02 0. -1.
    10030    2    1    2    0    0  0.00000000000E+00  0.00000000000E+00 -0.10519674674E+04  0.15154906704E+04  0.10909062377E+04 0.  0.
        5    1    3    3  502    0 -0.10445619739E+03  0.50548808183E+03 -0.77084523683E+03  0.92771427023E+03  0.46999998093E+01 0. -1.
       -5    1    3    3    0  502  0.10445619739E+03 -0.50548808183E+03 -0.28112223060E+03  0.58777640015E+03  0.46999998093E+01 0.  1.
</event>
<event>
 5   0  0.2374100E-03  0.1092167E+04  0.7818609E-02  0.9212860E-01
        1   -1    0    0  501    0  0.00000000000E+00  0.00000000000E+00  0.22675235843E+04  0.22675235843E+04  0.50400001928E-02 0.  1.
       -1   -1    0    0    0  501  0.00000000000E+00  0.00000000000E+00 -0.13151231689E+03  0.13151231698E+03  0.50400001928E-02 0. -1.
    10030    2    1    2    0    0  0.00000000000E+00  0.00000000000E+00  0.21360112675E+04  0.23990359013E+04  0.10921671672E+04 0.  0.
        2    1    3    3  502    0  0.17599585185E+03 -0.31984297117E+03  0.19600812977E+04  0.19937885443E+04  0.25500000920E-02 0.  1.
       -2    1    3    3    0  502 -0.17599585185E+03  0.31984297117E+03  0.17592996980E+03  0.40524735700E+03  0.25500000920E-02 0. -1.
</event>
<event>
 5   0  0.2257667E-03  0.1076426E+04  0.7818609E-02  0.9228479E-01
        1   -1    0    0  501    0  0.00000000000E+00  0.00000000000E+00  0.11111596392E+04  0.11111596392E+04  0.50400001928E-02 0.  1.
       -1   -1    0    0    0  501  0.00000000000E+00  0.00000000000E+00 -0.26069437111E+03  0.26069437116E+03  0.50400001928E-02 0. -1.
    10030    2    1    2    0    0  0.00000000000E+00  0.00000000000E+00  0.85046526807E+03  0.13718540104E+04  0.10764256842E+04 0.  0.
        4    1    3    3  502    0 -0.23723245444E+03  0.56647790165E+02  0.10366822769E+04  0.10649882468E+04  0.12699999809E+01 0.  1.
       -4    1    3    3    0  502  0.23723245444E+03 -0.56647790165E+02 -0.18621700886E+03  0.30686576358E+03  0.12699999809E+01 0. -1.
</event>
<event>
 5   0  0.3744875E-03  0.1103782E+04  0.7818609E-02  0.9201514E-01
       -2   -1    0    0    0  501  0.00000000000E+00  0.00000000000E+00  0.17463312056E+03  0.17463312058E+03  0.25500000920E-02 0. -1.
        2   -1    0    0  501    0  0.00000000000E+00  0.00000000000E+00 -0.17441335284E+04  0.17441335284E+04  0.25500000920E-02 0.  1.
    10030    2    1    2    0    0  0.00000000000E+00  0.00000000000E+00 -0.15695004078E+04  0.19187666490E+04  0.11037816465E+04 0.  0.
        2    1    3    3  502    0 -0.26827747779E+02  0.35297866138E+03 -0.15207752290E+04  0.15614323426E+04  0.25500000920E-02 0.  1.
       -2    1    3    3    0  502  0.26827747779E+02 -0.35297866138E+03 -0.48725178834E+02  0.35733430636E+03  0.25500000920E-02 0. -1.
</event>
<event>
 5   0  0.3962999E-03  0.1096127E+04  0.7818609E-02  0.9208975E-01
       -2   -1    0    0    0  501  0.00000000000E+00  0.00000000000E+00  0.48575335479E+03  0.48575335479E+03  0.25500000920E-02 0. -1.
        2   -1    0    0  501    0  0.00000000000E+00  0.00000000000E+00 -0.61836609641E+03  0.61836609641E+03  0.25500000920E-02 0.  1.
    10030    2    1    2    0    0  0.00000000000E+00  0.00000000000E+00 -0.13261274162E+03  0.11041194512E+04  0.10961266456E+04 0.  0.
        3    1    3    3  502    0  0.19217008617E+03  0.27882217906E+03  0.36776775978E+03  0.49992427915E+03  0.10100000352E+00 0. -1.
       -3    1    3    3    0  502 -0.19217008617E+03 -0.27882217906E+03 -0.50038050140E+03  0.60419517206E+03  0.10100000352E+00 0.  1.
</event>
<event>
 5   0  0.2298958E-03  0.1104781E+04  0.7818609E-02  0.9200545E-01
        1   -1    0    0  501    0  0.00000000000E+00  0.00000000000E+00  0.89937636163E+03  0.89937636164E+03  0.50400001928E-02 0. -1.
       -1   -1    0    0    0  501  0.00000000000E+00  0.00000000000E+00 -0.33927425626E+03  0.33927425629E+03  0.50400001928E-02 0.  1.
    10030    2    1    2    0    0  0.00000000000E+00  0.00000000000E+00  0.56010210537E+03  0.12386506179E+04  0.11047809669E+04 0.  0.
        1    1    3    3  502    0  0.54939148500E+03 -0.41879714102E+02  0.23590570019E+03  0.59936334026E+03  0.50400001928E-02 0. -1.
       -1    1    3    3    0  502 -0.54939148500E+03  0.41879714102E+02  0.32419640519E+03  0.63928727768E+03  0.50400001928E-02 0.  1.
</event>
<event>
 5   0  0.3748901E-03  0.1089075E+04  0.7818609E-02  0.9215906E-01
        2   -1    0    0  501    0  0.00000000000E+00  0.00000000000E+00  0.64461871270E+03  0.64461871271E+03  0.25500000920E-02 0. -1.
       -2   -1    0    0    0  501  0.00000000000E+00  0.00000000000E+00 -0.45999438347E+03  0.45999438348E+03  0.25500000920E-02 0.  1.
    10030    2    1    2    0    0  0.00000000000E+00  0.00000000000E+00  0.18462432923E+03  0.11046130962E+04  0.10890748135E+04 0.  0.
        5    1    3    3  502    0 -0.42488383038E+03 -0.33987195132E+03  0.11405832098E+03  0.55594118681E+03  0.46999998093E+01 0. -1.
       -5    1    3    3    0  502  0.42488383038E+03  0.33987195132E+03  0.70566008255E+02  0.54867190937E+03  0.46999998093E+01 0.  1.
</event>
<event>
 5   0  0.2257667E-03  0.1142316E+04  0.7818609E-02  0.9164902E-01
        1   -1    0    0  501    0  0.00000000000E+00  0.00000000000E+00  0.82229785343E+03  0.82229785344E+03  0.50400001928E-02 0. -1.
       -1   -1    0    0    0  501  0.00000000000E+00  0.00000000000E+00 -0.39671935056E+03  0.39671935059E+03  0.50400001928E-02 0.  1.
    10030    2    1    2    0    0  0.00000000000E+00  0.00000000000E+00  0.42557850287E+03  0.12190172040E+04  0.11423160165E+04 0.  0.
        4    1    3    3  502    0  0.10466342305E+02 -0.15274198925E+03  0.79999094978E+03  0.81451015477E+03  0.12699999809E+01 0. -1.
       -4    1    3    3    0  502 -0.10466342305E+02  0.15274198925E+03 -0.37441244691E+03  0.40450704926E+03  0.12699999809E+01 0.  1.
</event>
<event>
 5   0  0.2300702E-03  0.1096898E+04  0.7818609E-02  0.9208220E-01
       -1   -1    0    0    0  501  0.00000000000E+00  0.00000000000E+00  0.56157746390E+03  0.56157746393E+03  0.50400001928E-02 0. -1.
        1   -1    0    0  501    0  0.00000000000E+00  0.00000000000E+00 -0.53562766784E+03  0.53562766787E+03  0.50400001928E-02 0.  1.
    10030    2    1    2    0    0  0.00000000000E+00  0.00000000000E+00  0.25949796060E+02  0.10972051318E+04  0.10968982220E+04 0.  0.
        5    1    3    3  502    0 -0.13212743866E+03 -0.35314726935E+03 -0.38538731129E+03  0.53918097481E+03  0.46999998093E+01 0.  1.
       -5    1    3    3    0  502  0.13212743866E+03  0.35314726935E+03  0.41133710735E+03  0.55802415698E+03  0.46999998093E+01 0. -1.
</event>
<event>
 5   0  0.3744875E-03  0.1108139E+04  0.7818609E-02  0.9197296E-01
        2   -1    0    0  501    0  0.00000000000E+00  0.00000000000E+00  0.18128512991E+04  0.18128512991E+04  0.25500000920E-02 0. -1.
       -2   -1    0    0    0  501  0.00000000000E+00  0.00000000000E+00 -0.16934251566E+03  0.16934251568E+03  0.25500000920E-02 0.  1.
    10030    2    1    2    0    0  0.00000000000E+00  0.00000000000E+00  0.16435087834E+04  0.19821938148E+04  0.11081386186E+04 0.  0.
        2    1    3    3  502    0  0.50619825881E+03  0.78633957372E+02  0.44410647181E+03  0.67797532019E+03  0.25500000920E-02 0.  1.
       -2    1    3    3    0  502 -0.50619825881E+03 -0.78633957372E+02  0.11994023116E+04  0.13042184946E+04  0.25500000920E-02 0. -1.
</event>
<event>
 5   0  0.2298958E-03  0.1094433E+04  0.7818609E-02  0.9210635E-01
        1   -1    0    0  501    0  0.00000000000E+00  0.00000000000E+00  0.26340467833E+03  0.26340467838E+03  0.50400001928E-02 0.  1.
       -1   -1    0    0    0  501  0.00000000000E+00  0.00000000000E+00 -0.11368287375E+04  0.11368287375E+04  0.50400001928E-02 0. -1.
    10030    2    1    2    0    0  0.00000000000E+00  0.00000000000E+00 -0.87342405917E+03  0.14002334159E+04  0.10944332012E+04 0.  0.
        1    1    3    3  502    0  0.25685638972E+03 -0.18207012092E+03  0.13591878539E+03  0.34292659582E+03  0.50400001928E-02 0.  1.
       -1    1    3    3    0  502 -0.25685638972E+03  0.18207012092E+03 -0.10093428446E+04  0.10573068201E+04  0.50400001928E-02 0. -1.
</event>
<event>
 5   0  0.2374100E-03  0.1111423E+04  0.7818609E-02  0.9194129E-01
        1   -1    0    0  501    0  0.00000000000E+00  0.00000000000E+00  0.61158246225E+03  0.61158246227E+03  0.50400001928E-02 0.  1.
       -1   -1    0    0    0  501  0.00000000000E+00  0.00000000000E+00 -0.50494441631E+03  0.50494441634E+03  0.50400001928E-02 0. -1.
    10030    2    1    2    0    0  0.00000000000E+00  0.00000000000E+00  0.10663804593E+03  0.11165268786E+04  0.11114227809E+04 0.  0.
        2    1    3    3  502    0 -0.32381724820E+03  0.21577001290E+03  0.45187874939E+03  0.59632936609E+03  0.25500000920E-02 0.  1.
       -2    1    3    3    0  502  0.32381724820E+03 -0.21577001290E+03 -0.34524070346E+03  0.52019751252E+03  0.25500000920E-02 0. -1.
</event>
<event>
 5   0  0.3748901E-03  0.1116785E+04  0.7818609E-02  0.9188984E-01
       -2   -1    0    0    0  501  0.00000000000E+00  0.00000000000E+00  0.91157093155E+03  0.91157093155E+03  0.25500000920E-02 0. -1.
        2   -1    0    0  501    0  0.00000000000E+00  0.00000000000E+00 -0.34204946879E+03  0.34204946879E+03  0.25500000920E-02 0.  1.
    10030    2    1    2    0    0  0.00000000000E+00  0.00000000000E+00  0.56952146276E+03  0.12536204003E+04  0.11167853024E+04 0.  0.
        5    1    3    3  502    0  0.21657636081E+03 -0.41492041009E+03 -0.57040557060E+02  0.47152940727E+03  0.46999998093E+01 0.  1.
       -5    1    3    3    0  502 -0.21657636081E+03  0.41492041009E+03  0.62656201982E+03  0.78209099308E+03  0.46999998093E+01 0. -1.
</event>
<event>
 5   0  0.3713158E-03  0.1101050E+04  0.7818609E-02  0.9204169E-01
        2   -1    0    0  501    0  0.00000000000E+00  0.00000000000E+00  0.86867651342E+03  0.86867651343E+03  0.25500000920E-02 0.  1.
       -2   -1    0    0    0  501  0.00000000000E+00  0.00000000000E+00 -0.34889580310E+03  0.34889580311E+03  0.25500000920E-02 0. -1.
    10030    2    1    2    0    0  0.00000000000E+00  0.00000000000E+00  0.51978071033E+03  0.12175723165E+04  0.11010496624E+04 0.  0.
        4    1    3    3  502    0 -0.25847472304E+02  0.52773145977E+02 -0.34541615415E+03  0.35038126264E+03  0.12699999809E+01 0. -1.
       -4    1    3    3    0  502  0.25847472304E+02 -0.52773145977E+02  0.86519686447E+03  0.86719105390E+03  0.12699999809E+01 0.  1.
</event>
<event>
 5   0  0.2374100E-03  0.1112272E+04  0.7818609E-02  0.9193312E-01
       -1   -1    0    0    0  501  0.00000000000E+00  0.00000000000E+00  0.45457704668E+03  0.45457704671E+03  0.50400001928E-02 0.  1.
        1   -1    0    0  501    0  0.00000000000E+00  0.00000000000E+00 -0.68038503941E+03  0.68038503942E+03  0.50400001928E-02 0. -1.
    10030    2    1    2    0    0  0.00000000000E+00  0.00000000000E+00 -0.22580799273E+03  0.11349620861E+04  0.11122723081E+04 0.  0.
        2    1    3    3  502    0 -0.37953941443E+03  0.39902638883E+03 -0.33764166632E+02  0.55173566592E+03  0.25500000920E-02 0.  1.
       -2    1    3    3    0  502  0.37953941443E+03 -0.39902638883E+03 -0.19204382610E+03  0.58322642021E+03  0.25500000920E-02 0. -1.
</event>
<event>
 5   0  0.2255788E-03  0.1075451E+04  0.7818609E-02  0.9229455E-01
       -1   -1    0    0    0  501  0.00000000000E+00  0.00000000000E+00  0.29857143462E+03  0.29857143466E+03  0.50400001928E-02 0.  1.
        1   -1    0    0  501    0  0.00000000000E+00  0.00000000000E+00 -0.96844071704E+03  0.96844071705E+03  0.50400001928E-02 0. -1.
    10030    2    1    2    0    0  0.00000000000E+00  0.00000000000E+00 -0.66986928242E+03  0.12670121517E+04  0.10754510389E+04 0.  0.
        3    1    3    3  502    0  0.45731147909E+03 -0.25867566628E+03 -0.20008301231E+03  0.56221002414E+03  0.10100000352E+00 0.  1.
       -3    1    3    3    0  502 -0.45731147909E+03  0.25867566628E+03 -0.46978627012E+03  0.70480212757E+03  0.10100000352E+00 0. -1.
</event>
<event>
 5   0  0.2374100E-03  0.1103907E+04  0.7818609E-02  0.9201392E-01
        1   -1    0    0  501    0  0.00000000000E+00  0.00000000000E+00  0.33815040327E+03  0.33815040331E+03  0.50400001928E-02 0.  1.
       -1   -1    0    0    0  501  0.00000000000E+00  0.00000000000E+00 -0.90093877671E+03  0.90093877673E+03  0.50400001928E-02 0. -1.
    10030    2    1    2    0    0  0.00000000000E+00  0.00000000000E+00 -0.56278837344E+03  0.12390891800E+04  0.11039072619E+04 0.  0.
        2    1    3    3  502    0  0.56321424878E+01  0.52982474272E+03 -0.10784164189E+03  0.54071785504E+03  0.25500000920E-02 0. -1.
       -2    1    3    3    0  502 -0.56321424878E+01 -0.52982474272E+03 -0.45494673155E+03  0.69837132500E+03  0.25500000920E-02 0.  1.
</event>
<event>
 5   0  0.3962999E-03  0.1094051E+04  0.7818609E-02  0.9211009E-01
        2   -1    0    0  501    0  0.00000000000E+00  0.00000000000E+00  0.22378713435E+04  0.22378713435E+04  0.25500000920E-02 0. -1.
       -2   -1    0    0    0  501  0.00000000000E+00  0.00000000000E+00 -0.13371507769E+03  0.13371507772E+03  0.25500000920E-02 0.  1.
    10030    2    1    2    0    0  0.00000000000E+00  0.00000000000E+00  0.21041562658E+04  0.23715864212E+04  0.10940514441E+04 0.  0.
        3    1    3    3  502    0 -0.46942947391E+03  0.26958167977E+03  0.88140874486E+03  0.10343692275E+04  0.10100000352E+00 0. -1.
       -3    1    3    3    0  502  0.46942947391E+03 -0.26958167977E+03  0.12227475209E+04  0.13372171937E+04  0.10100000352E+00 0.  1.
</event>
<event>
 5   0  0.2300702E-03  0.1101788E+04  0.7818609E-02  0.9203451E-01
        1   -1    0    0  501    0  0.00000000000E+00  0.00000000000E+00  0.65263201339E+03  0.65263201341E+03  0.50400001928E-02 0. -1.
       -1   -1    0    0    0  501  0.00000000000E+00  0.00000000000E+00 -0.46501551089E+03  0.46501551092E+03  0.50400001928E-02 0.  1.
    10030    2    1    2    0    0  0.00000000000E+00  0.00000000000E+00  0.18761650249E+03  0.11176475243E+04  0.11017876550E+04 0.  0.
        5    1    3    3  502    0 -0.52929497263E+03  0.14209043250E+03  0.15046071870E+03  0.56833386045E+03  0.46999998093E+01 0.  1.
       -5    1    3    3    0  502  0.52929497263E+03 -0.14209043250E+03  0.37155783796E+02  0.54931366388E+03  0.46999998093E+01 0. -1.
</event>
<event>
 5   0  0.2257667E-03  0.1085764E+04  0.7818609E-02  0.9219179E-01
        1   -1    0    0  501    0  0.00000000000E+00  0.00000000000E+00  0.38350360631E+03  0.38350360635E+03  0.50400001928E-02 0.  1.
       -1   -1    0    0    0  501  0.00000000000E+00  0.00000000000E+00 -0.76849636386E+03  0.76849636388E+03  0.50400001928E-02 0. -1.
    10030    2    1    2    0    0  0.00000000000E+00  0.00000000000E+00 -0.38499275755E+03  0.11519999702E+04  0.10857644809E+04 0.  0.
        4    1    3    3  502    0  0.25874746456E+03  0.15779903246E+03  0.28538971368E+03  0.41629278956E+03  0.12699999809E+01 0.  1.
       -4    1    3    3    0  502 -0.25874746456E+03 -0.15779903246E+03 -0.67038247122E+03  0.73570718067E+03  0.12699999809E+01 0. -1.
</event>
<event>
 5   0  0.2298958E-03  0.1163237E+04  0.7818609E-02  0.9145658E-01
        1   -1    0    0  501    0  0.00000000000E+00  0.00000000000E+00  0.37183715822E+03  0.37183715826E+03  0.50400001928E-02 0. -1.
       -1   -1    0    0    0  501  0.00000000000E+00  0.00000000000E+00 -0.90975357921E+03  0.90975357922E+03  0.50400001928E-02 0.  1.
    10030    2    1    2    0    0  0.00000000000E+00  0.00000000000E+00 -0.53791642099E+03  0.12815907375E+04  0.11632371824E+04 0.  0.
        1    1    3    3  502    0 -0.32866847500E+03  0.30243070183E+03 -0.67941240030E+03  0.81307349334E+03  0.50400001928E-02 0.  1.
       -1    1    3    3    0  502  0.32866847500E+03 -0.30243070183E+03  0.14149597931E+03  0.46851724414E+03  0.50400001928E-02 0. -1.
</event>
<event>
 5   0  0.3992414E-03  0.1100637E+04  0.7818609E-02  0.9204571E-01
        2   -1    0    0  501    0  0.00000000000E+00  0.00000000000E+00  0.79888912574E+03  0.79888912574E+03  0.25500000920E-02 0.  1.
       -2   -1    0    0    0  501  0.00000000000E+00  0.00000000000E+00 -0.37908947671E+03  0.37908947671E+03  0.25500000920E-02 0. -1.
    10030    2    1    2    0    0  0.00000000000E+00  0.00000000000E+00  0.41979964903E+03  0.11779786025E+04  0.11006370167E+04 0.  0.
        1    1    3    3  502    0  0.46208058071E+03 -0.15460731979E+03  0.48366425141E+03  0.68655152357E+03  0.50400001928E-02 0.  1.
       -1    1    3    3    0  502 -0.46208058071E+03  0.15460731979E+03 -0.63864602379E+02  0.49142707889E+03  0.50400001928E-02 0. -1.
</event>
<event>
 5   0  0.2298958E-03  0.1098565E+04  0.7818609E-02  0.9206592E-01
        1   -1    0    0  501    0  0.00000000000E+00  0.00000000000E+00  0.92574186081E+03  0.92574186082E+03  0.50400001928E-02 0.  1.
       -1   -1    0    0    0  501  0.00000000000E+00  0.00000000000E+00 -0.32591266790E+03  0.32591266794E+03  0.50400001928E-02 0. -1.
    10030    2    1    2    0    0  0.00000000000E+00  0.00000000000E+00  0.59982919291E+03  0.12516545288E+04  0.10985645173E+04 0.  0.
        1    1    3    3  502    0  0.38145695789E+03 -0.90074393780E+02 -0.13853444372E+03  0.41570975363E+03  0.50400001928E-02 0. -1.
       -1    1    3    3    0  502 -0.38145695789E+03  0.90074393780E+02  0.73836363663E+03  0.83594477513E+03  0.50400001928E-02 0.  1.
</event>
<event>
 5   0  0.3962999E-03  0.1098968E+04  0.7818609E-02  0.9206198E-01
       -2   -1    0    0    0  501  0.00000000000E+00  0.00000000000E+00  0.25592620985E+03  0.25592620986E+03  0.25500000920E-02 0. -1.
        2   -1    0    0  501    0  0.00000000000E+00  0.00000000000E+00 -0.11797655793E+04  0.11797655793E+04  0.25500000920E-02 0.  1.
    10030    2    1    2    0    0  0.00000000000E+00  0.00000000000E+00 -0.92383936950E+03  0.14356917892E+04  0.10989684859E+04 0.  0.
        3    1    3    3  502    0 -0.11786520388E+03 -0.33690462933E+03  0.83861389311E+02  0.36664653055E+03  0.10100000352E+00 0. -1.
       -3    1    3    3    0  502  0.11786520388E+03  0.33690462933E+03 -0.10077007588E+04  0.10690452587E+04  0.10100000352E+00 0.  1.
</event>
<event>
 5   0  0.3962999E-03  0.1097099E+04  0.7818609E-02  0.9208024E-01
       -2   -1    0    0    0  501  0.00000000000E+00  0.00000000000E+00  0.75916356211E+03  0.75916356212E+03  0.25500000920E-02 0.  1.
        2   -1    0    0  501    0  0.00000000000E+00  0.00000000000E+00 -0.39636599849E+03  0.39636599850E+03  0.25500000920E-02 0. -1.
    10030    2    1    2    0    0  0.00000000000E+00  0.00000000000E+00  0.36279756362E+03  0.11555295606E+04  0.10970991265E+04 0.  0.
        3    1    3    3  502    0  0.25475871761E+03  0.47000631466E+03  0.51977832218E+02  0.53713093865E+03  0.10100000352E+00 0. -1.
       -3    1    3    3    0  502 -0.25475871761E+03 -0.47000631466E+03  0.31081973141E+03  0.61839862196E+03  0.10100000352E+00 0.  1.
</event>
<event>
 5   0  0.3713158E-03  0.1055661E+04  0.7818609E-02  0.9249518E-01
        2   -1    0    0  501    0  0.00000000000E+00  0.00000000000E+00  0.22027654594E+04  0.22027654594E+04  0.25500000920E-02 0. -1.
       -2   -1    0    0    0  501  0.00000000000E+00  0.00000000000E+00 -0.12647976952E+03  0.12647976954E+03  0.25500000920E-02 0.  1.
    10030    2    1    2    0    0  0.00000000000E+00  0.00000000000E+00  0.20762856899E+04  0.23292452289E+04  0.10556614375E+04 0.  0.
        4    1    3    3  502    0  0.44413560216E+03 -0.27875793477E+03  0.11712848023E+04  0.12833051548E+04  0.12699999809E+01 0.  1.
       -4    1    3    3    0  502 -0.44413560216E+03  0.27875793477E+03  0.90500088753E+03  0.10459400741E+04  0.12699999809E+01 0. -1.
</event>
<event>
 5   0  0.2255788E-03  0.1110836E+04  0.7818609E-02  0.9194695E-01
        1   -1    0    0  501    0  0.00000000000E+00  0.00000000000E+00  0.10011500062E+04  0.10011500063E+04  0.50400001928E-02 0. -1.
       -1   -1    0    0    0  501  0.00000000000E+00  0.00000000000E+00 -0.30813459476E+03  0.30813459480E+03  0.50400001928E-02 0.  1.
    10030    2    1    2    0    0  0.00000000000E+00  0.00000000000E+00  0.69301541149E+03  0.13092846011E+04  0.11108356341E+04 0.  0.
        3    1    3    3  502    0  0.10836244922E+03 -0.45155439463E+03  0.70564777932E+03  0.84473817859E+03  0.10100000352E+00 0. -1.
       -3    1    3    3    0  502 -0.10836244922E+03  0.45155439463E+03 -0.12632367828E+02  0.46454642247E+03  0.10100000352E+00 0.  1.
</event>
<event>
 5   0  0.3713158E-03  0.1119943E+04  0.7818609E-02  0.9185970E-01
        2   -1    0    0  501    0  0.00000000000E+00  0.00000000000E+00  0.45805745095E+03  0.45805745096E+03  0.25500000920E-02 0.  1.
       -2   -1    0    0    0  501  0.00000000000E+00  0.00000000000E+00 -0.68456008611E+03  0.68456008612E+03  0.25500000920E-02 0. -1.
    10030    2    1    2    0    0  0.00000000000E+00  0.00000000000E+00 -0.22650263516E+03  0.11426175371E+04  0.11199425844E+04 0.  0.
        4    1    3    3  502    0 -0.10495903572E+03  0.45839233336E+03 -0.42342355434E+03  0.63279463472E+03  0.12699999809E+01 0. -1.
       -4    1    3    3    0  502  0.10495903572E+03 -0.45839233336E+03  0.19692091917E+03  0.50982290236E+03  0.12699999809E+01 0.  1.
</event>
<event>
 5   0  0.2300702E-03  0.1085115E+04  0.7818609E-02  0.9219822E-01
        1   -1    0    0  501    0  0.00000000000E+00  0.00000000000E+00  0.11684490411E+04  0.11684490411E+04  0.50400001928E-02 0. -1.
       -1   -1    0    0    0  501  0.00000000000E+00  0.00000000000E+00 -0.25193122663E+03  0.25193122668E+03  0.50400001928E-02 0.  1.
    10030    2    1    2    0    0  0.00000000000E+00  0.00000000000E+00  0.91651781443E+03  0.14203802678E+04  0.10851152938E+04 0.  0.
        5    1    3    3  502    0 -0.52502535037E+03 -0.11751357364E+03  0.54975235569E+03  0.76922740532E+03  0.46999998093E+01 0. -1.
       -5    1    3    3    0  502  0.52502535037E+03  0.11751357364E+03  0.36676545875E+03  0.65115286243E+03  0.46999998093E+01 0.  1.
</event>
<event>
 5   0  0.3992414E-03  0.1095851E+04  0.7818609E-02  0.9209245E-01
        2   -1    0    0  501    0  0.00000000000E+00  0.00000000000E+00  0.47493297513E+03  0.47493297514E+03  0.25500000920E-02 0.  1.
       -2   -1    0    0    0  501  0.00000000000E+00  0.00000000000E+00 -0.63213669830E+03  0.63213669831E+03  0.25500000920E-02 0. -1.
    10030    2    1    2    0    0  0.00000000000E+00  0.00000000000E+00 -0.15720372317E+03  0.11070696734E+04  0.10958513819E+04 0.  0.
        1    1    3    3  502    0 -0.27877797795E+03  0.42203226599E+03  0.13425431474E+03  0.52330929246E+03  0.50400001928E-02 0.  1.
       -1    1    3    3    0  502  0.27877797795E+03 -0.42203226599E+03 -0.29145803790E+03  0.58376038099E+03  0.50400001928E-02 0. -1.
</event>
<event>
 5   0  0.2374100E-03  0.1213348E+04  0.7818609E-02  0.9101253E-01
       -1   -1    0    0    0  501  0.00000000000E+00  0.00000000000E+00  0.89541384691E+03  0.89541384693E+03  0.50400001928E-02 0. -1.
        1   -1    0    0  501    0  0.00000000000E+00  0.00000000000E+00 -0.41104282423E+03  0.41104282426E+03  0.50400001928E-02 0.  1.
    10030    2    1    2    0    0  0.00000000000E+00  0.00000000000E+00  0.48437102268E+03  0.13064566712E+04  0.12133481553E+04 0.  0.
        2    1    3    3  502    0  0.17721614739E+03 -0.21218522142E+03  0.82364863896E+03  0.86880677458E+03  0.25500000920E-02 0. -1.
       -2    1    3    3    0  502 -0.17721614739E+03  0.21218522142E+03 -0.33927761628E+03  0.43764989661E+03  0.25500000920E-02 0.  1.
</event>
<event>
 5   0  0.3748901E-03  0.1098321E+04  0.7818609E-02  0.9206830E-01
        2   -1    0    0  501    0  0.00000000000E+00  0.00000000000E+00  0.44415812433E+03  0.44415812433E+03  0.25500000920E-02 0. -1.
       -2   -1    0    0    0  501  0.00000000000E+00  0.00000000000E+00 -0.67898639526E+03  0.67898639527E+03  0.25500000920E-02 0.  1.
    10030    2    1    2    0    0  0.00000000000E+00  0.00000000000E+00 -0.23482827094E+03  0.11231445196E+04  0.10983211257E+04 0.  0.
        5    1    3    3  502    0  0.31079483721E+03 -0.70110388002E+02 -0.57478827593E+03  0.65720053978E+03  0.46999998093E+01 0.  1.
       -5    1    3    3    0  502 -0.31079483721E+03  0.70110388002E+02  0.33996000499E+03  0.46594397982E+03  0.46999998093E+01 0. -1.
</event>
<event>
 5   0  0.2255788E-03  0.1090051E+04  0.7818609E-02  0.9214943E-01
        1   -1    0    0  501    0  0.00000000000E+00  0.00000000000E+00  0.39950066850E+03  0.39950066854E+03  0.50400001928E-02 0. -1.
       -1   -1    0    0    0  501  0.00000000000E+00  0.00000000000E+00 -0.74356074963E+03  0.74356074965E+03  0.50400001928E-02 0.  1.
    10030    2    1    2    0    0  0.00000000000E+00  0.00000000000E+00 -0.34406008113E+03  0.11430614182E+04  0.10900514054E+04 0.  0.
        3    1    3    3  502    0  0.29187223292E+03  0.37617904925E+03  0.10611010553E+03  0.48781086718E+03  0.10100000352E+00 0. -1.
       -3    1    3    3    0  502 -0.29187223292E+03 -0.37617904925E+03 -0.45017018666E+03  0.65525055101E+03  0.10100000352E+00 0.  1.
</event>
<event>
 5   0  0.2255788E-03  0.1101786E+04  0.7818609E-02  0.9203453E-01
       -1   -1    0    0    0  501  0.00000000000E+00  0.00000000000E+00  0.27929401546E+03  0.27929401550E+03  0.50400001928E-02 0. -1.
        1   -1    0    0  501    0  0.00000000000E+00  0.00000000000E+00 -0.10866070194E+04  0.10866070194E+04  0.50400001928E-02 0.  1.
    10030    2    1    2    0    0  0.00000000000E+00  0.00000000000E+00 -0.80731300391E+03  0.13659010349E+04  0.11017855285E+04 0.  0.
        3    1    3    3  502    0  0.19096553570E+03 -0.23647940651E+03 -0.97324151474E+03  0.10196025705E+04  0.10100000352E+00 0.  1.
       -3    1    3    3    0  502 -0.19096553570E+03  0.23647940651E+03  0.16592851084E+03  0.34629846439E+03  0.10100000352E+00 0. -1.
</event>
<event>
 5   0  0.1508625E-03  0.1102470E+04  0.7818609E-02  0.9202788E-01
        3   -1    0    0  501    0  0.00000000000E+00  0.00000000000E+00  0.73536121096E+03  0.73536121790E+03  0.10100000352E+00 0. -1.
       -3   -1    0    0    0  501  0.00000000000E+00  0.00000000000E+00 -0.41321188999E+03  0.41321190233E+03  0.10100000352E+00 0.  1.
    10030    2    1    2    0    0  0.00000000000E+00  0.00000000000E+00  0.32214932097E+03  0.11485731202E+04  0.11024699667E+04 0.  0.
        2    1    3    3  502    0  0.20814803598E+03  0.23173255881E+03 -0.31273432304E+03  0.44139363442E+03  0.25500000920E-02 0.  1.
       -2    1    3    3    0  502 -0.20814803598E+03 -0.23173255881E+03  0.63488364402E+03  0.70717948580E+03  0.25500000920E-02 0. -1.
</event>
<event>
 5   0  0.2298958E-03  0.1103734E+04  0.7818609E-02  0.9201560E-01
        1   -1    0    0  501    0  0.00000000000E+00  0.00000000000E+00  0.10563207374E+04  0.10563207374E+04  0.50400001928E-02 0.  1.
       -1   -1    0    0    0  501  0.00000000000E+00  0.00000000000E+00 -0.28831899321E+03  0.28831899326E+03  0.50400001928E-02 0. -1.
    10030    2    1    2    0    0  0.00000000000E+00  0.00000000000E+00  0.76800174414E+03  0.13446397306E+04  0.11037342643E+04 0.  0.
        1    1    3    3  502    0  0.13577220932E+02  0.40577758492E+03 -0.71371714960E+02  0.41223016760E+03  0.50400001928E-02 0. -1.
       -1    1    3    3    0  502 -0.13577220932E+02 -0.40577758492E+03  0.83937345910E+03  0.93240956303E+03  0.50400001928E-02 0.  1.
</event>
<event>
 5   0  0.2374100E-03  0.1112691E+04  0.7818609E-02  0.9192910E-01
       -1   -1    0    0    0  501  0.00000000000E+00  0.00000000000E+00  0.21998258560E+03  0.21998258566E+03  0.50400001928E-02 0. -1.
        1   -1    0    0  501    0  0.00000000000E+00  0.00000000000E+00 -0.14070207535E+04  0.14070207535E+04  0.50400001928E-02 0.  1.
    10030    2    1    2    0    0  0.00000000000E+00  0.00000000000E+00 -0.11870381679E+04  0.16270033392E+04  0.11126905471E+04 0.  0.
        2    1    3    3  502    0  0.65227531947E+01 -0.58015125498E+02 -0.14025293908E+04  0.14037439201E+04  0.25500000920E-02 0.  1.
       -2    1    3    3    0  502 -0.65227531947E+01  0.58015125498E+02  0.21549122286E+03  0.22325941913E+03  0.25500000920E-02 0. -1.
</event>
<event>
 5   0  0.2300702E-03  0.1112015E+04  0.7818609E-02  0.9193560E-01
       -1   -1    0    0    0  501  0.00000000000E+00  0.00000000000E+00  0.39055896109E+03  0.39055896112E+03  0.50400001928E-02 0.  1.
        1   -1    0    0  501    0  0.00000000000E+00  0.00000000000E+00 -0.79154273251E+03  0.79154273253E+03  0.50400001928E-02 0. -1.
    10030    2    1    2    0    0  0.00000000000E+00  0.00000000000E+00 -0.40098377142E+03  0.11821016937E+04  0.11120145814E+04 0.  0.
        5    1    3    3  502    0 -0.22339901969E+03 -0.25715553264E+03 -0.66760242762E+03  0.74950062130E+03  0.46999998093E+01 0. -1.
       -5    1    3    3    0  502  0.22339901969E+03  0.25715553264E+03  0.26661865620E+03  0.43260107235E+03  0.46999998093E+01 0.  1.
</event>
<event>
 5   0  0.3748901E-03  0.1099809E+04  0.7818609E-02  0.9205378E-01
        2   -1    0    0  501    0  0.00000000000E+00  0.00000000000E+00  0.10083541497E+04  0.10083541497E+04  0.25500000920E-02 0.  1.
       -2   -1    0    0    0  501  0.00000000000E+00  0.00000000000E+00 -0.29988954899E+03  0.29988954900E+03  0.25500000920E-02 0. -1.
    10030    2    1    2    0    0  0.00000000000E+00  0.00000000000E+00  0.70846460074E+03  0.13082436987E+04  0.10998088401E+04 0.  0.
        5    1    3    3  502    0 -0.15462058553E+03  0.26487224296E+03 -0.18867335865E+03  0.36011742088E+03  0.46999998093E+01 0. -1.
       -5    1    3    3    0  502  0.15462058553E+03 -0.26487224296E+03  0.89713795940E+03  0.94812627785E+03  0.46999998093E+01 0.  1.
</event>
<event>
 5   0  0.2300702E-03  0.1104836E+04  0.7818609E-02  0.9200491E-01
        1   -1    0    0  501    0  0.00000000000E+00  0.00000000000E+00  0.39883358765E+03  0.39883358768E+03  0.50400001928E-02 0.  1.
       -1   -1    0    0    0  501  0.00000000000E+00  0.00000000000E+00 -0.76514529187E+03  0.76514529188E+03  0.50400001928E-02 0. -1.
    10030    2    1    2    0    0  0.00000000000E+00  0.00000000000E+00 -0.36631170422E+03  0.11639788796E+04  0.11048359912E+04 0.  0.
        5    1    3    3  502    0  0.20859601976E+03 -0.44067386780E+03  0.90433358560E+02  0.49588914039E+03  0.46999998093E+01 0.  1.
       -5    1    3    3    0  502 -0.20859601976E+03  0.44067386780E+03 -0.45674506278E+03  0.66808973917E+03  0.46999998093E+01 0. -1.
</event>
<event>
 5   0  0.3992414E-03  0.1097768E+04  0.7818609E-02  0.9207370E-01
        2   -1    0    0  501    0  0.00000000000E+00  0.00000000000E+00  0.14228871955E+04  0.14228871955E+04  0.25500000920E-02 0.  1.
       -2   -1    0    0    0  501  0.00000000000E+00  0.00000000000E+00 -0.21173404143E+03  0.21173404145E+03  0.25500000920E-02 0. -1.
    10030    2    1    2    0    0  0.00000000000E+00  0.00000000000E+00  0.12111531541E+04  0.16346212369E+04  0.10977680200E+04 0.  0.
        1    1    3    3  502    0 -0.18461034069E+03  0.37559186262E+03  0.11343924114E+04  0.12091304182E+04  0.50400001928E-02 0.  1.
       -1    1    3    3    0  502  0.18461034069E+03 -0.37559186262E+03  0.76760742604E+02  0.42549081869E+03  0.50400001928E-02 0. -1.
</event>
<event>
 5   0  0.2298958E-03  0.1089105E+04  0.7818609E-02  0.9215876E-01
        1   -1    0    0  501    0  0.00000000000E+00  0.00000000000E+00  0.57890119109E+03  0.57890119111E+03  0.50400001928E-02 0.  1.
       -1   -1    0    0    0  501  0.00000000000E+00  0.00000000000E+00 -0.51224194608E+03  0.51224194611E+03  0.50400001928E-02 0. -1.
    10030    2    1    2    0    0  0.00000000000E+00  0.00000000000E+00  0.66659245010E+02  0.10911431372E+04  0.10891050872E+04 0.  0.
        1    1    3    3  502    0  0.34367173212E+03 -0.58048944663E+02  0.45251134811E+03  0.57117988378E+03  0.50400001928E-02 0.  1.
       -1    1    3    3    0  502 -0.34367173212E+03  0.58048944663E+02 -0.38585210310E+03  0.51996325344E+03  0.50400001928E-02 0. -1.
</event>
<event>
 5   0  0.3713158E-03  0.1096778E+04  0.7818609E-02  0.9208337E-01
        2   -1    0    0  501    0  0.00000000000E+00  0.00000000000E+00  0.11365794268E+04  0.11365794268E+04  0.25500000920E-02 0.  1.
       -2   -1    0    0    0  501  0.00000000000E+00  0.00000000000E+00 -0.26459282300E+03  0.26459282301E+03  0.25500000920E-02 0. -1.
    10030    2    1    2    0    0  0.00000000000E+00  0.00000000000E+00  0.87198660381E+03  0.14011722498E+04  0.10967784810E+04 0.  0.
        4    1    3    3  502    0  0.92005368209E+02 -0.47406581002E+03  0.76796982109E+03  0.90718390584E+03  0.12699999809E+01 0.  1.
       -4    1    3    3    0  502 -0.92005368209E+02  0.47406581002E+03  0.10401678272E+03  0.49398834399E+03  0.12699999809E+01 0. -1.
</event>
<event>
 5   0  0.3962999E-03  0.1098471E+04  0.7818609E-02  0.9206683E-01
       -2   -1    0    0    0  501  0.00000000000E+00  0.00000000000E+00  0.48939837495E+03  0.48939837496E+03  0.25500000920E-02 0.  1.
        2   -1    0    0  501    0  0.00000000000E+00  0.00000000000E+00 -0.61638904489E+03  0.61638904489E+03  0.25500000920E-02 0. -1.
    10030    2    1    2    0    0  0.00000000000E+00  0.00000000000E+00 -0.12699066994E+03  0.11057874199E+04  0.10984712958E+04 0.  0.
        3    1    3    3  502    0 -0.30439554234E+03  0.34472913449E+03  0.23877939345E+03  0.51817992174E+03  0.10100000352E+00 0.  1.
       -3    1    3    3    0  502  0.30439554234E+03 -0.34472913449E+03 -0.36577006339E+03  0.58760749811E+03  0.10100000352E+00 0. -1.
</event>
<event>
 5   0  0.2255788E-03  0.1101335E+04  0.7818609E-02  0.9203892E-01
        1   -1    0    0  501    0  0.00000000000E+00  0.00000000000E+00  0.87212600737E+03  0.87212600738E+03  0.50400001928E-02 0.  1.
       -1   -1    0    0    0  501  0.00000000000E+00  0.00000000000E+00 -0.34769573541E+03  0.34769573544E+03  0.50400001928E-02 0. -1.
    10030    2    1    2    0    0  0.00000000000E+00  0.00000000000E+00  0.52443027196E+03  0.12198217428E+04  0.11013346331E+04 0.  0.
        3    1    3    3  502    0 -0.48383792833E+03  0.20276376043E+03  0.44762301555E+03  0.68962211224E+03  0.10100000352E+00 0.  1.
       -3    1    3    3    0  502  0.48383792833E+03 -0.20276376043E+03  0.76807256408E+02  0.53019963059E+03  0.10100000352E+00 0. -1.
</event>
<event>
 5   0  0.2300702E-03  0.1098061E+04  0.7818609E-02  0.9207083E-01
        1   -1    0    0  501    0  0.00000000000E+00  0.00000000000E+00  0.39304611167E+03  0.39304611170E+03  0.50400001928E-02 0.  1.
       -1   -1    0    0    0  501  0.00000000000E+00  0.00000000000E+00 -0.76691955236E+03  0.76691955238E+03  0.50400001928E-02 0. -1.
    10030    2    1    2    0    0  0.00000000000E+00  0.00000000000E+00 -0.37387344069E+03  0.11599656641E+04  0.10980614701E+04 0.  0.
        5    1    3    3  502    0  0.15497879101E+03 -0.52165567724E+03 -0.26362107407E+03  0.60469929052E+03  0.46999998093E+01 0. -1.
       -5    1    3    3    0  502 -0.15497879101E+03  0.52165567724E+03 -0.11025236661E+03  0.55526637356E+03  0.46999998093E+01 0.  1.
</event>
<event>
 5   0  0.1508625E-03  0.1111239E+04  0.7818609E-02  0.9194307E-01
       -3   -1    0    0    0  501  0.00000000000E+00  0.00000000000E+00  0.30985027230E+03  0.30985028876E+03  0.10100000352E+00 0. -1.
        3   -1    0    0  501    0  0.00000000000E+00  0.00000000000E+00 -0.99632882521E+03  0.99632883033E+03  0.10100000352E+00 0.  1.
    10030    2    1    2    0    0  0.00000000000E+00  0.00000000000E+00 -0.68647855292E+03  0.13061791191E+04  0.11112385376E+04 0.  0.
        4    1    3    3  502    0 -0.39691371380E+02  0.54788332831E+03 -0.44129839270E+03  0.70462573803E+03  0.12699999809E+01 0.  1.
       -4    1    3    3    0  502  0.39691371380E+02 -0.54788332831E+03 -0.24518016021E+03  0.60155338105E+03  0.12699999809E+01 0. -1.
</event>
<event>
 5   0  0.2374100E-03  0.1138559E+04  0.7818609E-02  0.9168404E-01
        1   -1    0    0  501    0  0.00000000000E+00  0.00000000000E+00  0.42175916770E+03  0.42175916773E+03  0.50400001928E-02 0. -1.
       -1   -1    0    0    0  501  0.00000000000E+00  0.00000000000E+00 -0.76839791943E+03  0.76839791945E+03  0.50400001928E-02 0.  1.
    10030    2    1    2    0    0  0.00000000000E+00  0.00000000000E+00 -0.34663875173E+03  0.11901570872E+04  0.11385585044E+04 0.  0.
        2    1    3    3  502    0 -0.25840705746E+03 -0.49500428131E+03 -0.57503756092E+02  0.56134670911E+03  0.25500000920E-02 0. -1.
       -2    1    3    3    0  502  0.25840705746E+03  0.49500428131E+03 -0.28913499564E+03  0.62881037807E+03  0.25500000920E-02 0.  1.
</event>
<event>
 5   0  0.3962999E-03  0.1101482E+04  0.7818609E-02  0.9203749E-01
        2   -1    0    0  501    0  0.00000000000E+00  0.00000000000E+00  0.73336299330E+03  0.73336299331E+03  0.25500000920E-02 0. -1.
       -2   -1    0    0    0  501  0.00000000000E+00  0.00000000000E+00 -0.41359515130E+03  0.41359515131E+03  0.25500000920E-02 0.  1.
    10030    2    1    2    0    0  0.00000000000E+00  0.00000000000E+00  0.31976784200E+03  0.11469581446E+04  0.11014815081E+04 0.  0.
        3    1    3    3  502    0  0.33022505228E+03 -0.16436143768E+03  0.58573342887E+03  0.69220439702E+03  0.10100000352E+00 0. -1.
       -3    1    3    3    0  502 -0.33022505228E+03  0.16436143768E+03 -0.26596558687E+03  0.45475374760E+03  0.10100000352E+00 0.  1.
</event>
<event>
 5   0  0.3744875E-03  0.1083960E+04  0.7818609E-02  0.9220968E-01
        2   -1    0    0  501    0  0.00000000000E+00  0.00000000000E+00  0.66441697162E+03  0.66441697162E+03  0.25500000920E-02 0. -1.
       -2   -1    0    0    0  501  0.00000000000E+00  0.00000000000E+00 -0.44210535317E+03  0.44210535318E+03  0.25500000920E-02 0.  1.
    10030    2    1    2    0    0  0.00000000000E+00  0.00000000000E+00  0.22231161845E+03  0.11065223248E+04  0.10839599622E+04 0.  0.
        2    1    3    3  502    0  0.31792350857E+03 -0.43495257098E+03  0.50908678433E+02  0.54115689948E+03  0.25500000920E-02 0. -1.
       -2    1    3    3    0  502 -0.31792350857E+03  0.43495257098E+03  0.17140294001E+03  0.56536542533E+03  0.25500000920E-02 0.  1.
</event>
<event>
 5   0  0.3962999E-03  0.1109335E+04  0.7818609E-02  0.9196141E-01
       -2   -1    0    0    0  501  0.00000000000E+00  0.00000000000E+00  0.21043252998E+03  0.21043253000E+03  0.25500000920E-02 0.  1.
        2   -1    0    0  501    0  0.00000000000E+00  0.00000000000E+00 -0.14620168860E+04  0.14620168860E+04  0.25500000920E-02 0. -1.
    10030    2    1    2    0    0  0.00000000000E+00  0.00000000000E+00 -0.12515843560E+04  0.16724494160E+04  0.11093347776E+04 0.  0.
        3    1    3    3  502    0 -0.29962908289E+00 -0.10478339871E+03 -0.14469596815E+04  0.14507487655E+04  0.10100000352E+00 0. -1.
       -3    1    3    3    0  502  0.29962908289E+00  0.10478339871E+03  0.19537532550E+03  0.22170065051E+03  0.10100000352E+00 0.  1.
</event>
<event>
 5   0  0.3744875E-03  0.9543176E+03  0.7818609E-02  0.9360118E-01
       -2   -1    0    0    0  501  0.00000000000E+00  0.00000000000E+00  0.20206546766E+03  0.20206546768E+03  0.25500000920E-02 0. -1.
        2   -1    0    0  501    0  0.00000000000E+00  0.00000000000E+00 -0.11267661045E+04  0.11267661045E+04  0.25500000920E-02 0.  1.
    10030    2    1    2    0    0  0.00000000000E+00  0.00000000000E+00 -0.92470063688E+03  0.13288315722E+04  0.95431759886E+03 0.  0.
        2    1    3    3  502    0  0.80055830831E+02  0.45422777255E+03 -0.29210352985E+03  0.54594530639E+03  0.25500000920E-02 0. -1.
       -2    1    3    3    0  502 -0.80055830831E+02 -0.45422777255E+03 -0.63259710703E+03  0.78288626584E+03  0.25500000920E-02 0.  1.
</event>
<event>
 5   0  0.3962999E-03  0.1104038E+04  0.7818609E-02  0.9201265E-01
       -2   -1    0    0    0  501  0.00000000000E+00  0.00000000000E+00  0.49438066208E+03  0.49438066209E+03  0.25500000920E-02 0.  1.
        2   -1    0    0  501    0  0.00000000000E+00  0.00000000000E+00 -0.61637675561E+03  0.61637675562E+03  0.25500000920E-02 0. -1.
    10030    2    1    2    0    0  0.00000000000E+00  0.00000000000E+00 -0.12199609353E+03  0.11107574177E+04  0.11040375873E+04 0.  0.
        3    1    3    3  502    0  0.44825903656E+03 -0.32214323819E+03 -0.64527757263E+02  0.55576638206E+03  0.10100000352E+00 0.  1.
       -3    1    3    3    0  502 -0.44825903656E+03  0.32214323819E+03 -0.57468336269E+02  0.55499103564E+03  0.10100000352E+00 0. -1.
</event>
<event>
 5   0  0.3748901E-03  0.1086975E+04  0.7818609E-02  0.9217981E-01
        2   -1    0    0  501    0  0.00000000000E+00  0.00000000000E+00  0.54170143416E+03  0.54170143416E+03  0.25500000920E-02 0. -1.
       -2   -1    0    0    0  501  0.00000000000E+00  0.00000000000E+00 -0.54527950105E+03  0.54527950106E+03  0.25500000920E-02 0.  1.
    10030    2    1    2    0    0  0.00000000000E+00  0.00000000000E+00 -0.35780668968E+01  0.10869809352E+04  0.10869750462E+04 0.  0.
        5    1    3    3  502    0 -0.13455413448E+03  0.64773833265E+02 -0.52433959744E+03  0.54521057218E+03  0.46999998093E+01 0.  1.
       -5    1    3    3    0  502  0.13455413448E+03 -0.64773833265E+02  0.52076153054E+03  0.54177036304E+03  0.46999998093E+01 0. -1.
</event>
<event>
 5   0  0.3713158E-03  0.1100500E+04  0.7818609E-02  0.9204705E-01
       -2   -1    0    0    0  501  0.00000000000E+00  0.00000000000E+00  0.20175917981E+03  0.20175917982E+03  0.25500000920E-02 0. -1.
        2   -1    0    0  501    0  0.00000000000E+00  0.00000000000E+00 -0.15006748435E+04  0.15006748435E+04  0.25500000920E-02 0.  1.
    10030    2    1    2    0    0  0.00000000000E+00  0.00000000000E+00 -0.12989156637E+04  0.17024340233E+04  0.11004997512E+04 0.  0.
        4    1    3    3  502    0 -0.35562940289E+03  0.25702479853E+01  0.72807560218E-01  0.35564096582E+03  0.12699999809E+01 0. -1.
       -4    1    3    3    0  502  0.35562940289E+03 -0.25702479853E+01 -0.12989884712E+04  0.13467930575E+04  0.12699999809E+01 0.  1.
</event>
<event>
 5   0  0.3713158E-03  0.1093280E+04  0.7818609E-02  0.9211766E-01
       -2   -1    0    0    0  501  0.00000000000E+00  0.00000000000E+00  0.26579666933E+03  0.26579666935E+03  0.25500000920E-02 0.  1.
        2   -1    0    0  501    0  0.00000000000E+00  0.00000000000E+00 -0.11242252025E+04  0.11242252025E+04  0.25500000920E-02 0. -1.
    10030    2    1    2    0    0  0.00000000000E+00  0.00000000000E+00 -0.85842853314E+03  0.13900218718E+04  0.10932800454E+04 0.  0.
        4    1    3    3  502    0 -0.43257097006E+03 -0.17395201963E+02 -0.48683105017E+01  0.43294982450E+03  0.12699999809E+01 0.  1.
       -4    1    3    3    0  502  0.43257097006E+03  0.17395201963E+02 -0.85356022264E+03  0.95707204732E+03  0.12699999809E+01 0. -1.
</event>
<event>
 5   0  0.2298958E-03  0.1133464E+04  0.7818609E-02  0.9173176E-01
        1   -1    0    0  501    0  0.00000000000E+00  0.00000000000E+00  0.67335060330E+03  0.67335060332E+03  0.50400001928E-02 0.  1.
       -1   -1    0    0    0  501  0.00000000000E+00  0.00000000000E+00 -0.47699523040E+03  0.47699523042E+03  0.50400001928E-02 0. -1.
    10030    2    1    2    0    0  0.00000000000E+00  0.00000000000E+00  0.19635537290E+03  0.11503458337E+04  0.11334637642E+04 0.  0.
        1    1    3    3  502    0  0.14258744439E+03 -0.12051801694E+03  0.64124497556E+03  0.66787041439E+03  0.50400001928E-02 0.  1.
       -1    1    3    3    0  502 -0.14258744439E+03  0.12051801694E+03 -0.44488960266E+03  0.48247541936E+03  0.50400001928E-02 0. -1.
</event>
<event>
 5   0  0.3744875E-03  0.1117921E+04  0.7818609E-02  0.9187899E-01
        2   -1    0    0  501    0  0.00000000000E+00  0.00000000000E+00  0.54584514519E+03  0.54584514519E+03  0.25500000920E-02 0. -1.
       -2   -1    0    0    0  501  0.00000000000E+00  0.00000000000E+00 -0.57239090778E+03  0.57239090779E+03  0.25500000920E-02 0.  1.
    10030    2    1    2    0    0  0.00000000000E+00  0.00000000000E+00 -0.26545762595E+02  0.11182360530E+04  0.11179209242E+04 0.  0.
        2    1    3    3  502    0  0.17730948767E+02 -0.39667149290E+03  0.38025146187E+03  0.54977616726E+03  0.25500000920E-02 0. -1.
       -2    1    3    3    0  502 -0.17730948767E+02  0.39667149290E+03 -0.40679722447E+03  0.56845988572E+03  0.25500000920E-02 0.  1.
</event>
<event>
 5   0  0.2300702E-03  0.1087821E+04  0.7818609E-02  0.9217145E-01
       -1   -1    0    0    0  501  0.00000000000E+00  0.00000000000E+00  0.18795139894E+03  0.18795139901E+03  0.50400001928E-02 0. -1.
        1   -1    0    0  501    0  0.00000000000E+00  0.00000000000E+00 -0.15740153332E+04  0.15740153332E+04  0.50400001928E-02 0.  1.
    10030    2    1    2    0    0  0.00000000000E+00  0.00000000000E+00 -0.13860639343E+04  0.17619667322E+04  0.10878205438E+04 0.  0.
        5    1    3    3  502    0  0.23168320519E+03 -0.18859914199E+03  0.43130378247E+02  0.30187590737E+03  0.46999998093E+01 0. -1.
       -5    1    3    3    0  502 -0.23168320519E+03  0.18859914199E+03 -0.14291943125E+04  0.14600908249E+04  0.46999998093E+01 0.  1.
</event>
<event>
 5   0  0.2257667E-03  0.1101999E+04  0.7818609E-02  0.9203246E-01
       -1   -1    0    0    0  501  0.00000000000E+00  0.00000000000E+00  0.38360452245E+03  0.38360452249E+03  0.50400001928E-02 0. -1.
        1   -1    0    0  501    0  0.00000000000E+00  0.00000000000E+00 -0.79144084542E+03  0.79144084544E+03  0.50400001928E-02 0.  1.
    10030    2    1    2    0    0  0.00000000000E+00  0.00000000000E+00 -0.40783632297E+03  0.11750453679E+04  0.11019987071E+04 0.  0.
        4    1    3    3  502    0 -0.11864108053E+03  0.17076182160E+03  0.34016275212E+03  0.39868235042E+03  0.12699999809E+01 0. -1.
       -4    1    3    3    0  502  0.11864108053E+03 -0.17076182160E+03 -0.74799907509E+03  0.77636301750E+03  0.12699999809E+01 0.  1.
</event>
<event>
 5   0  0.2300702E-03  0.1107114E+04  0.7818609E-02  0.9198286E-01
        1   -1    0    0  501    0  0.00000000000E+00  0.00000000000E+00  0.13231928962E+04  0.13231928963E+04  0.50400001928E-02 0. -1.
       -1   -1    0    0    0  501  0.00000000000E+00  0.00000000000E+00 -0.23158022626E+03  0.23158022632E+03  0.50400001928E-02 0.  1.
    10030    2    1    2    0    0  0.00000000000E+00  0.00000000000E+00  0.10916126700E+04  0.15547731226E+04  0.11071139243E+04 0.  0.
        5    1    3    3  502    0  0.86774557118E+02  0.21199090658E+03 -0.16186971628E+03  0.28052426505E+03  0.46999998093E+01 0.  1.
       -5    1    3    3    0  502 -0.86774557118E+02 -0.21199090658E+03  0.12534823863E+04  0.12742488575E+04  0.46999998093E+01 0. -1.
</event>
<event>
 5   0  0.3992414E-03  0.1094196E+04  0.7818609E-02  0.9210867E-01
        2   -1    0    0  501    0  0.00000000000E+00  0.00000000000E+00  0.97363417693E+03  0.97363417693E+03  0.25500000920E-02 0. -1.
       -2   -1    0    0    0  501  0.00000000000E+00  0.00000000000E+00 -0.30742190735E+03  0.30742190736E+03  0.25500000920E-02 0.  1.
    10030    2    1    2    0    0  0.00000000000E+00  0.00000000000E+00  0.66621226958E+03  0.12810560843E+04  0.10941964645E+04 0.  0.
        1    1    3    3  502    0 -0.28698664772E+03 -0.34049153795E+03 -0.39009502462E+02  0.44700958009E+03  0.50400001928E-02 0.  1.
       -1    1    3    3    0  502  0.28698664772E+03  0.34049153795E+03  0.70522177204E+03  0.83404650420E+03  0.50400001928E-02 0. -1.
</event>
<event>
 5   0  0.3962999E-03  0.1102792E+04  0.7818609E-02  0.9202475E-01
       -2   -1    0    0    0  501  0.00000000000E+00  0.00000000000E+00  0.71834125309E+03  0.71834125309E+03  0.25500000920E-02 0.  1.
        2   -1    0    0  501    0  0.00000000000E+00  0.00000000000E+00 -0.42324952760E+03  0.42324952761E+03  0.25500000920E-02 0. -1.
    10030    2    1    2    0    0  0.00000000000E+00  0.00000000000E+00  0.29509172549E+03  0.11415907807E+04  0.11027920856E+04 0.  0.
        3    1    3    3  502    0  0.11025426077E+03  0.39612460929E+03  0.52784944195E+03  0.66910070369E+03  0.10100000352E+00 0.  1.
       -3    1    3    3    0  502 -0.11025426077E+03 -0.39612460929E+03 -0.23275771646E+03  0.47249007702E+03  0.10100000352E+00 0. -1.
</event>
<event>
 5   0  0.3748901E-03  0.1145784E+04  0.7818609E-02  0.9161682E-01
       -2   -1    0    0    0  501  0.00000000000E+00  0.00000000000E+00  0.20020945665E+03  0.20020945667E+03  0.25500000920E-02 0. -1.
        2   -1    0    0  501    0  0.00000000000E+00  0.00000000000E+00 -0.16393085276E+04  0.16393085276E+04  0.25500000920E-02 0.  1.
    10030    2    1    2    0    0  0.00000000000E+00  0.00000000000E+00 -0.14390990709E+04  0.18395179842E+04  0.11457836962E+04 0.  0.
        5    1    3    3  502    0  0.30793647040E+03  0.33235738656E+02  0.54168159656E+02  0.31446106857E+03  0.46999998093E+01 0. -1.
       -5    1    3    3    0  502 -0.30793647040E+03 -0.33235738656E+02 -0.14932672306E+04  0.15250569157E+04  0.46999998093E+01 0.  1.
</event>
<event>
 5   0  0.2300702E-03  0.1094458E+04  0.7818609E-02  0.9210610E-01
       -1   -1    0    0    0  501  0.00000000000E+00  0.00000000000E+00  0.45652535893E+03  0.45652535896E+03  0.50400001928E-02 0.  1.
        1   -1    0    0  501    0  0.00000000000E+00  0.00000000000E+00 -0.65595426585E+03  0.65595426587E+03  0.50400001928E-02 0. -1.
    10030    2    1    2    0    0  0.00000000000E+00  0.00000000000E+00 -0.19942890692E+03  0.11124796248E+04  0.10944583257E+04 0.  0.
        5    1    3    3  502    0  0.48634075940E+03 -0.53140408661E+02  0.14944710278E+03  0.51157381072E+03  0.46999998093E+01 0.  1.
       -5    1    3    3    0  502 -0.48634075940E+03  0.53140408661E+02 -0.34887600970E+03  0.60090581410E+03  0.46999998093E+01 0. -1.
</event>
<event>
 5   0  0.3962999E-03  0.1095685E+04  0.7818609E-02  0.9209407E-01
        2   -1    0    0  501    0  0.00000000000E+00  0.00000000000E+00  0.88188606332E+03  0.88188606333E+03  0.25500000920E-02 0. -1.
       -2   -1    0    0    0  501  0.00000000000E+00  0.00000000000E+00 -0.34032923812E+03  0.34032923813E+03  0.25500000920E-02 0.  1.
    10030    2    1    2    0    0  0.00000000000E+00  0.00000000000E+00  0.54155682520E+03  0.12222153015E+04  0.10956853783E+04 0.  0.
        3    1    3    3  502    0 -0.53311188265E+03  0.32146572449E+02  0.40689405497E+03  0.67141973736E+03  0.10100000352E+00 0. -1.
       -3    1    3    3    0  502  0.53311188265E+03 -0.32146572449E+02  0.13466277023E+03  0.55079556410E+03  0.10100000352E+00 0.  1.
</event>
<event>
 5   0  0.3713158E-03  0.1078176E+04  0.7818609E-02  0.9226728E-01
       -2   -1    0    0    0  501  0.00000000000E+00  0.00000000000E+00  0.32674508095E+03  0.32674508096E+03  0.25500000920E-02 0.  1.
        2   -1    0    0  501    0  0.00000000000E+00  0.00000000000E+00 -0.88942618232E+03  0.88942618232E+03  0.25500000920E-02 0. -1.
    10030    2    1    2    0    0  0.00000000000E+00  0.00000000000E+00 -0.56268110137E+03  0.12161712633E+04  0.10781755515E+04 0.  0.
        4    1    3    3  502    0 -0.41856896294E+03  0.27527957230E+03 -0.56773636992E+02  0.50418615453E+03  0.12699999809E+01 0.  1.
       -4    1    3    3    0  502  0.41856896294E+03 -0.27527957230E+03 -0.50590746438E+03  0.71198510875E+03  0.12699999809E+01 0. -1.
</event>
<event>
 5   0  0.3748901E-03  0.1109395E+04  0.7818609E-02  0.9196083E-01
       -2   -1    0    0    0  501  0.00000000000E+00  0.00000000000E+00  0.44519425208E+03  0.44519425208E+03  0.25500000920E-02 0.  1.
        2   -1    0    0  501    0  0.00000000000E+00  0.00000000000E+00 -0.69113438159E+03  0.69113438159E+03  0.25500000920E-02 0. -1.
    10030    2    1    2    0    0  0.00000000000E+00  0.00000000000E+00 -0.24594012951E+03  0.11363286337E+04  0.11093945269E+04 0.  0.
        5    1    3    3  502    0 -0.24197379711E+03  0.90915624793E+01  0.38817758944E+03  0.45753459534E+03  0.46999998093E+01 0.  1.
       -5    1    3    3    0  502  0.24197379711E+03 -0.90915624793E+01 -0.63411771895E+03  0.67879403833E+03  0.46999998093E+01 0. -1.
</event>
<event>
 5   0  0.2300702E-03  0.1101777E+04  0.7818609E-02  0.9203461E-01
       -1   -1    0    0    0  501  0.00000000000E+00  0.00000000000E+00  0.42016913390E+03  0.42016913393E+03  0.50400001928E-02 0.  1.
        1   -1    0    0  501    0  0.00000000000E+00  0.00000000000E+00 -0.72227646266E+03  0.72227646268E+03  0.50400001928E-02 0. -1.
    10030    2    1    2    0    0  0.00000000000E+00  0.00000000000E+00 -0.30210732876E+03  0.11424455966E+04  0.11017772475E+04 0.  0.
        5    1    3    3  502    0  0.25534686563E+03  0.84443653369E+02  0.34744467817E+03  0.43940032631E+03  0.46999998093E+01 0.  1.
       -5    1    3    3    0  502 -0.25534686563E+03 -0.84443653369E+02 -0.64955200693E+03  0.70304527030E+03  0.46999998093E+01 0. -1.
</event>
<event>
 5   0  0.3962999E-03  0.1098789E+04  0.7818609E-02  0.9206373E-01
        2   -1    0    0  501    0  0.00000000000E+00  0.00000000000E+00  0.89968493701E+03  0.89968493701E+03  0.25500000920E-02 0.  1.
       -2   -1    0    0    0  501  0.00000000000E+00  0.00000000000E+00 -0.33548877412E+03  0.33548877413E+03  0.25500000920E-02 0. -1.
    10030    2    1    2    0    0  0.00000000000E+00  0.00000000000E+00  0.56419616289E+03  0.12351737111E+04  0.10987887816E+04 0.  0.
        3    1    3    3  502    0  0.33101554620E+02  0.53401550108E+03  0.14184862275E+03  0.55352444416E+03  0.10100000352E+00 0. -1.
       -3    1    3    3    0  502 -0.33101554620E+02 -0.53401550108E+03  0.42234754014E+03  0.68164926698E+03  0.10100000352E+00 0.  1.
</event>
<event>
 5   0  0.3992414E-03  0.1096950E+04  0.7818609E-02  0.9208170E-01
        2   -1    0    0  501    0  0.00000000000E+00  0.00000000000E+00  0.12056633325E+04  0.12056633325E+04  0.25500000920E-02 0.  1.
       -2   -1    0    0    0  501  0.00000000000E+00  0.00000000000E+00 -0.24950975844E+03  0.24950975845E+03  0.25500000920E-02 0. -1.
    10030    2    1    2    0    0  0.00000000000E+00  0.00000000000E+00  0.95615357405E+03  0.14551730909E+04  0.10969498928E+04 0.  0.
        1    1    3    3  502    0  0.14785730674E+03 -0.63862743344E+02 -0.21743263483E+03  0.27058673999E+03  0.50400001928E-02 0. -1.
       -1    1    3    3    0  502 -0.14785730674E+03  0.63862743344E+02  0.11735862089E+04  0.11845863509E+04  0.50400001928E-02 0.  1.
</event>
<event>
 5   0  0.3713158E-03  0.1066938E+04  0.7818609E-02  0.9238029E-01
       -2   -1    0    0    0  501  0.00000000000E+00  0.00000000000E+00  0.16861533272E+03  0.16861533274E+03  0.25500000920E-02 0. -1.
        2   -1    0    0  501    0  0.00000000000E+00  0.00000000000E+00 -0.16878013786E+04  0.16878013786E+04  0.25500000920E-02 0.  1.
    10030    2    1    2    0    0  0.00000000000E+00  0.00000000000E+00 -0.15191860458E+04  0.18564167113E+04  0.10669380320E+04 0.  0.
        4    1    3    3  502    0 -0.26448731086E+03 -0.22078868994E+02  0.45584844050E+02  0.26929650010E+03  0.12699999809E+01 0. -1.
       -4    1    3    3    0  502  0.26448731086E+03  0.22078868994E+02 -0.15647708899E+04  0.15871202112E+04  0.12699999809E+01 0.  1.
</event>
<event>
 5   0  0.3992414E-03  0.1080767E+04  0.7818609E-02  0.9224143E-01
        2   -1    0    0  501    0  0.00000000000E+00  0.00000000000E+00  0.12385911772E+04  0.12385911772E+04  0.25500000920E-02 0. -1.
       -2   -1    0    0    0  501  0.00000000000E+00  0.00000000000E+00 -0.23576335065E+03  0.23576335067E+03  0.25500000920E-02 0.  1.
    10030    2    1    2    0    0  0.00000000000E+00  0.00000000000E+00  0.10028278265E+04  0.14743545279E+04  0.10807671461E+04 0.  0.
        1    1    3    3  502    0  0.39010144155E+03 -0.21756528309E+03  0.86515176156E+02  0.45497105714E+03  0.50400001928E-02 0.  1.
       -1    1    3    3    0  502 -0.39010144155E+03  0.21756528309E+03  0.91631265037E+03  0.10193834707E+04  0.50400001928E-02 0. -1.
</event>
<event>
 5   0  0.3962999E-03  0.1111808E+04  0.7818609E-02  0.9193758E-01
       -2   -1    0    0    0  501  0.00000000000E+00  0.00000000000E+00  0.34962305174E+03  0.34962305175E+03  0.25500000920E-02 0.  1.
        2   -1    0    0  501    0  0.00000000000E+00  0.00000000000E+00 -0.88389326631E+03  0.88389326632E+03  0.25500000920E-02 0. -1.
    10030    2    1    2    0    0  0.00000000000E+00  0.00000000000E+00 -0.53427021457E+03  0.12335163181E+04  0.11118083669E+04 0.  0.
        3    1    3    3  502    0 -0.41213921465E+03  0.36036491952E+03 -0.16009673465E+03  0.57039686371E+03  0.10100000352E+00 0.  1.
       -3    1    3    3    0  502  0.41213921465E+03 -0.36036491952E+03 -0.37417347992E+03  0.66311945436E+03  0.10100000352E+00 0. -1.
</event>
<event>
 5   0  0.3744875E-03  0.1110136E+04  0.7818609E-02  0.9195368E-01
       -2   -1    0    0    0  501  0.00000000000E+00  0.00000000000E+00  0.75974881220E+03  0.75974881220E+03  0.25500000920E-02 0.  1.
        2   -1    0    0  501    0  0.00000000000E+00  0.00000000000E+00 -0.40552974884E+03  0.40552974885E+03  0.25500000920E-02 0. -1.
    10030    2    1    2    0    0  0.00000000000E+00  0.00000000000E+00  0.35421906336E+03  0.11652785610E+04  0.11101364691E+04 0.  0.
        2    1    3    3  502    0  0.19456685436E+03 -0.48152423103E+03 -0.28526702895E+02  0.52013038622E+03  0.25500000920E-02 0. -1.
       -2    1    3    3    0  502 -0.19456685436E+03  0.48152423103E+03  0.38274576626E+03  0.64514817483E+03  0.25500000920E-02 0.  1.
</event>
<event>
 5   0  0.3992414E-03  0.1108010E+04  0.7818609E-02  0.9197420E-01
       -2   -1    0    0    0  501  0.00000000000E+00  0.00000000000E+00  0.94261422957E+03  0.94261422957E+03  0.25500000920E-02 0.  1.
        2   -1    0    0  501    0  0.00000000000E+00  0.00000000000E+00 -0.32560646493E+03  0.32560646494E+03  0.25500000920E-02 0. -1.
    10030    2    1    2    0    0  0.00000000000E+00  0.00000000000E+00  0.61700776464E+03  0.12682206945E+04  0.11080095434E+04 0.  0.
        1    1    3    3  502    0  0.30153279025E+03  0.46410493037E+03  0.33667756353E+03  0.64781725185E+03  0.50400001928E-02 0.  1.
       -1    1    3    3    0  502 -0.30153279025E+03 -0.46410493037E+03  0.28033020110E+03  0.62040344266E+03  0.50400001928E-02 0. -1.
</event>
<event>
 5   0  0.3744875E-03  0.1105569E+04  0.7818609E-02  0.9199780E-01
       -2   -1    0    0    0  501  0.00000000000E+00  0.00000000000E+00  0.66400981128E+03  0.66400981129E+03  0.25500000920E-02 0.  1.
        2   -1    0    0  501    0  0.00000000000E+00  0.00000000000E+00 -0.46019044556E+03  0.46019044556E+03  0.25500000920E-02 0. -1.
    10030    2    1    2    0    0  0.00000000000E+00  0.00000000000E+00  0.20381936573E+03  0.11242002568E+04  0.11055694839E+04 0.  0.
        2    1    3    3  502    0 -0.35357925510E+03 -0.76068787503E+02  0.52700506287E+03  0.63917062382E+03  0.25500000920E-02 0.  1.
       -2    1    3    3    0  502  0.35357925510E+03  0.76068787503E+02 -0.32318569714E+03  0.48502963302E+03  0.25500000920E-02 0. -1.
</event>
<event>
 5   0  0.2298958E-03  0.1118281E+04  0.7818609E-02  0.9187555E-01
       -1   -1    0    0    0  501  0.00000000000E+00  0.00000000000E+00  0.74621924796E+03  0.74621924798E+03  0.50400001928E-02 0.  1.
        1   -1    0    0  501    0  0.00000000000E+00  0.00000000000E+00 -0.41896266616E+03  0.41896266619E+03  0.50400001928E-02 0. -1.
    10030    2    1    2    0    0  0.00000000000E+00  0.00000000000E+00  0.32725658180E+03  0.11651819142E+04  0.11182808336E+04 0.  0.
        1    1    3    3  502    0  0.23742627190E+03 -0.20243370767E+03  0.64707891435E+03  0.71837438848E+03  0.50400001928E-02 0.  1.
       -1    1    3    3    0  502 -0.23742627190E+03  0.20243370767E+03 -0.31982233256E+03  0.44680752569E+03  0.50400001928E-02 0. -1.
</event>
<event>
 5   0  0.2374100E-03  0.1109643E+04  0.7818609E-02  0.9195843E-01
        1   -1    0    0  501    0  0.00000000000E+00  0.00000000000E+00  0.11369848821E+04  0.11369848821E+04  0.50400001928E-02 0.  1.
       -1   -1    0    0    0  501  0.00000000000E+00  0.00000000000E+00 -0.27073982603E+03  0.27073982608E+03  0.50400001928E-02 0. -1.
    10030    2    1    2    0    0  0.00000000000E+00  0.00000000000E+00  0.86624505602E+03  0.14077247081E+04  0.11096433467E+04 0.  0.
        2    1    3    3  502    0  0.20462471938E+03  0.50893271000E+03  0.32741215600E+03  0.63881335223E+03  0.25500000920E-02 0. -1.
       -2    1    3    3    0  502 -0.20462471938E+03 -0.50893271000E+03  0.53883290002E+03  0.76891135591E+03  0.25500000920E-02 0.  1.
</event>
<event>
 5   0  0.2257667E-03  0.1093330E+04  0.7818609E-02  0.9211718E-01
       -1   -1    0    0    0  501  0.00000000000E+00  0.00000000000E+00  0.14410251762E+03  0.14410251771E+03  0.50400001928E-02 0. -1.
        1   -1    0    0  501    0  0.00000000000E+00  0.00000000000E+00 -0.20738178300E+04  0.20738178300E+04  0.50400001928E-02 0.  1.
    10030    2    1    2    0    0  0.00000000000E+00  0.00000000000E+00 -0.19297153124E+04  0.22179203477E+04  0.10933295395E+04 0.  0.
        4    1    3    3  502    0  0.18647384389E+03 -0.38285465276E+03 -0.16601963276E+04  0.17139438843E+04  0.12699999809E+01 0.  1.
       -4    1    3    3    0  502 -0.18647384389E+03  0.38285465276E+03 -0.26951898481E+03  0.50397646341E+03  0.12699999809E+01 0. -1.
</event>
<event>
 5   0  0.2300702E-03  0.1080286E+04  0.7818609E-02  0.9224622E-01
        1   -1    0    0  501    0  0.00000000000E+00  0.00000000000E+00  0.65770197118E+03  0.65770197120E+03  0.50400001928E-02 0.  1.
       -1   -1    0    0    0  501  0.00000000000E+00  0.00000000000E+00 -0.44359702264E+03  0.44359702267E+03  0.50400001928E-02 0. -1.
    10030    2    1    2    0    0  0.00000000000E+00  0.00000000000E+00  0.21410494854E+03  0.11012989939E+04  0.10802863254E+04 0.  0.
        5    1    3    3  502    0 -0.55658634569E+02 -0.35870430405E+03 -0.30068445713E+03  0.47138083765E+03  0.46999998093E+01 0. -1.
       -5    1    3    3    0  502  0.55658634569E+02  0.35870430405E+03  0.51478940567E+03  0.62991815622E+03  0.46999998093E+01 0.  1.
</event>
<event>
 5   0  0.3962999E-03  0.1087696E+04  0.7818609E-02  0.9217268E-01
        2   -1    0    0  501    0  0.00000000000E+00  0.00000000000E+00  0.22825525486E+03  0.22825525487E+03  0.25500000920E-02 0.  1.
       -2   -1    0    0    0  501  0.00000000000E+00  0.00000000000E+00 -0.12957882045E+04  0.12957882045E+04  0.25500000920E-02 0. -1.
    10030    2    1    2    0    0  0.00000000000E+00  0.00000000000E+00 -0.10675329496E+04  0.15240434594E+04  0.10876956686E+04 0.  0.
        3    1    3    3  502    0  0.32964408621E+03 -0.22486459762E+03 -0.16014547893E+02  0.39935671621E+03  0.10100000352E+00 0.  1.
       -3    1    3    3    0  502 -0.32964408621E+03  0.22486459762E+03 -0.10515184018E+04  0.11246867432E+04  0.10100000352E+00 0. -1.
</event>
<event>
 5   0  0.1508625E-03  0.1139266E+04  0.7818609E-02  0.9167744E-01
        3   -1    0    0  501    0  0.00000000000E+00  0.00000000000E+00  0.80845922582E+03  0.80845923212E+03  0.10100000352E+00 0. -1.
       -3   -1    0    0    0  501  0.00000000000E+00  0.00000000000E+00 -0.40135819547E+03  0.40135820817E+03  0.10100000352E+00 0.  1.
    10030    2    1    2    0    0  0.00000000000E+00  0.00000000000E+00  0.40710103035E+03  0.12098174403E+04  0.11392659874E+04 0.  0.
        4    1    3    3  502    0  0.18543320086E+03 -0.92458904670E+02 -0.35991767079E+03  0.41530285778E+03  0.12699999809E+01 0.  1.
       -4    1    3    3    0  502 -0.18543320086E+03  0.92458904670E+02  0.76701870114E+03  0.79451458252E+03  0.12699999809E+01 0. -1.
</event>
<event>
 5   0  0.3962999E-03  0.1014817E+04  0.7818609E-02  0.9292441E-01
        2   -1    0    0  501    0  0.00000000000E+00  0.00000000000E+00  0.27118863233E+03  0.27118863234E+03  0.25500000920E-02 0.  1.
       -2   -1    0    0    0  501  0.00000000000E+00  0.00000000000E+00 -0.94938914555E+03  0.94938914555E+03  0.25500000920E-02 0. -1.
    10030    2    1    2    0    0  0.00000000000E+00  0.00000000000E+00 -0.67820051322E+03  0.12205777779E+04  0.10148173115E+04 0.  0.
        3    1    3    3  502    0  0.47316296794E+03  0.15506805667E+03 -0.45654148102E+03  0.67554380355E+03  0.10100000352E+00 0. -1.
       -3    1    3    3    0  502 -0.47316296794E+03 -0.15506805667E+03 -0.22165903220E+03  0.54503397434E+03  0.10100000352E+00 0.  1.
</event>
<event>
 5   0  0.2255788E-03  0.1099639E+04  0.7818609E-02  0.9205544E-01
       -1   -1    0    0    0  501  0.00000000000E+00  0.00000000000E+00  0.16905721571E+03  0.16905721578E+03  0.50400001928E-02 0.  1.
        1   -1    0    0  501    0  0.00000000000E+00  0.00000000000E+00 -0.17881598197E+04  0.17881598197E+04  0.50400001928E-02 0. -1.
    10030    2    1    2    0    0  0.00000000000E+00  0.00000000000E+00 -0.16191026040E+04  0.19572170355E+04  0.10996387051E+04 0.  0.
        3    1    3    3  502    0  0.17312929737E+03  0.52008413613E+03 -0.73320226874E+03  0.91544898238E+03  0.10100000352E+00 0. -1.
       -3    1    3    3    0  502 -0.17312929737E+03 -0.52008413613E+03 -0.88590033523E+03  0.10417680531E+04  0.10100000352E+00 0.  1.
</event>
<event>
 5   0  0.2374100E-03  0.1099914E+04  0.7818609E-02  0.9205276E-01
        1   -1    0    0  501    0  0.00000000000E+00  0.00000000000E+00  0.32476638148E+03  0.32476638151E+03  0.50400001928E-02 0. -1.
       -1   -1    0    0    0  501  0.00000000000E+00  0.00000000000E+00 -0.93129230793E+03  0.93129230794E+03  0.50400001928E-02 0.  1.
    10030    2    1    2    0    0  0.00000000000E+00  0.00000000000E+00 -0.60652592645E+03  0.12560586895E+04  0.10999135111E+04 0.  0.
        2    1    3    3  502    0 -0.98026344366E+02  0.31655463958E+03  0.19794804950E+03  0.38600444860E+03  0.25500000920E-02 0. -1.
       -2    1    3    3    0  502  0.98026344366E+02 -0.31655463958E+03 -0.80447397596E+03  0.87005424086E+03  0.25500000920E-02 0.  1.
</event>
<event>
 5   0  0.2300702E-03  0.1101629E+04  0.7818609E-02  0.9203606E-01
       -1   -1    0    0    0  501  0.00000000000E+00  0.00000000000E+00  0.48775414856E+03  0.48775414858E+03  0.50400001928E-02 0. -1.
        1   -1    0    0  501    0  0.00000000000E+00  0.00000000000E+00 -0.62202735190E+03  0.62202735192E+03  0.50400001928E-02 0.  1.
    10030    2    1    2    0    0  0.00000000000E+00  0.00000000000E+00 -0.13427320334E+03  0.11097815005E+04  0.11016286515E+04 0.  0.
        5    1    3    3  502    0 -0.35742754918E+03 -0.41677495263E+03 -0.23011560184E+02  0.54955203207E+03  0.46999998093E+01 0.  1.
       -5    1    3    3    0  502  0.35742754918E+03  0.41677495263E+03 -0.11126164316E+03  0.56022946843E+03  0.46999998093E+01 0. -1.
</event>
<event>
 5   0  0.3713158E-03  0.1105425E+04  0.7818609E-02  0.9199920E-01
       -2   -1    0    0    0  501  0.00000000000E+00  0.00000000000E+00  0.44687499938E+03  0.44687499939E+03  0.25500000920E-02 0. -1.
        2   -1    0    0  501    0  0.00000000000E+00  0.00000000000E+00 -0.68361665245E+03  0.68361665246E+03  0.25500000920E-02 0.  1.
    10030    2    1    2    0    0  0.00000000000E+00  0.00000000000E+00 -0.23674165307E+03  0.11304916518E+04  0.11054251511E+04 0.  0.
        4    1    3    3  502    0  0.99115419622E+02 -0.36983502455E+03  0.28927523247E+03  0.47987871886E+03  0.12699999809E+01 0. -1.
       -4    1    3    3    0  502 -0.99115419622E+02  0.36983502455E+03 -0.52601688554E+03  0.65061293299E+03  0.12699999809E+01 0.  1.
</event>
<event>
 5   0  0.3713158E-03  0.1010202E+04  0.7818609E-02  0.9297426E-01
        2   -1    0    0  501    0  0.00000000000E+00  0.00000000000E+00  0.77038199231E+03  0.77038199232E+03  0.25500000920E-02 0.  1.
       -2   -1    0    0    0  501  0.00000000000E+00  0.00000000000E+00 -0.33116920888E+03  0.33116920889E+03  0.25500000920E-02 0. -1.
    10030    2    1    2    0    0  0.00000000000E+00  0.00000000000E+00  0.43921278343E+03  0.11015512012E+04  0.10102015540E+04 0.  0.
        4    1    3    3  502    0 -0.42127004838E+03 -0.44362446787E+02 -0.80387342525E+02  0.43116147565E+03  0.12699999809E+01 0. -1.
       -4    1    3    3    0  502  0.42127004838E+03  0.44362446787E+02  0.51960012595E+03  0.67038972556E+03  0.12699999809E+01 0.  1.
</event>
<event>
 5   0  0.3962999E-03  0.1108146E+04  0.7818609E-02  0.9197288E-01
       -2   -1    0    0    0  501  0.00000000000E+00  0.00000000000E+00  0.19115603506E+03  0.19115603508E+03  0.25500000920E-02 0. -1.
        2   -1    0    0  501    0  0.00000000000E+00  0.00000000000E+00 -0.16060021682E+04  0.16060021682E+04  0.25500000920E-02 0.  1.
    10030    2    1    2    0    0  0.00000000000E+00  0.00000000000E+00 -0.14148461332E+04  0.17971582033E+04  0.11081462120E+04 0.  0.
        3    1    3    3  502    0 -0.20070004261E+03  0.23976099202E+03 -0.14492496989E+04  0.14825958789E+04  0.10100000352E+00 0.  1.
       -3    1    3    3    0  502  0.20070004261E+03 -0.23976099202E+03  0.34403565669E+02  0.31456232439E+03  0.10100000352E+00 0. -1.
</event>
<event>
 5   0  0.2298958E-03  0.9656276E+03  0.7818609E-02  0.9347069E-01
        1   -1    0    0  501    0  0.00000000000E+00  0.00000000000E+00  0.65390425688E+03  0.65390425690E+03  0.50400001928E-02 0. -1.
       -1   -1    0    0    0  501  0.00000000000E+00  0.00000000000E+00 -0.35648821818E+03  0.35648821821E+03  0.50400001928E-02 0.  1.
    10030    2    1    2    0    0  0.00000000000E+00  0.00000000000E+00  0.29741603870E+03  0.10103924751E+04  0.96562759575E+03 0.  0.
        1    1    3    3  502    0  0.44561228786E+03  0.70565383913E+02 -0.31190706241E+02  0.45224179891E+03  0.50400001928E-02 0.  1.
       -1    1    3    3    0  502 -0.44561228786E+03 -0.70565383913E+02  0.32860674494E+03  0.55815067620E+03  0.50400001928E-02 0. -1.
</event>
<event>
 5   0  0.3713158E-03  0.1093631E+04  0.7818609E-02  0.9211422E-01
        2   -1    0    0  501    0  0.00000000000E+00  0.00000000000E+00  0.84315012236E+03  0.84315012236E+03  0.25500000920E-02 0. -1.
       -2   -1    0    0    0  501  0.00000000000E+00  0.00000000000E+00 -0.35463069974E+03  0.35463069975E+03  0.25500000920E-02 0.  1.
    10030    2    1    2    0    0  0.00000000000E+00  0.00000000000E+00  0.48851942262E+03  0.11977808221E+04  0.10936305005E+04 0.  0.
        4    1    3    3  502    0 -0.18461269262E+03 -0.12774327719E+03  0.79034662628E+03  0.82161401748E+03  0.12699999809E+01 0. -1.
       -4    1    3    3    0  502  0.18461269262E+03  0.12774327719E+03 -0.30182720366E+03  0.37616680464E+03  0.12699999809E+01 0.  1.
</event>
<event>
 5   0  0.2257667E-03  0.1095483E+04  0.7818609E-02  0.9209605E-01
        1   -1    0    0  501    0  0.00000000000E+00  0.00000000000E+00  0.77645498207E+03  0.77645498209E+03  0.50400001928E-02 0.  1.
       -1   -1    0    0    0  501  0.00000000000E+00  0.00000000000E+00 -0.38639837015E+03  0.38639837019E+03  0.50400001928E-02 0. -1.
    10030    2    1    2    0    0  0.00000000000E+00  0.00000000000E+00  0.39005661192E+03  0.11628533523E+04  0.10954833446E+04 0.  0.
        4    1    3    3  502    0  0.45189947666E+03 -0.22250554074E+03  0.42342920996E+03  0.65803933121E+03  0.12699999809E+01 0.  1.
       -4    1    3    3    0  502 -0.45189947666E+03  0.22250554074E+03 -0.33372598043E+02  0.50481402107E+03  0.12699999809E+01 0. -1.
</event>
<event>
 5   0  0.3992414E-03  0.1038947E+04  0.7818609E-02  0.9266831E-01
        2   -1    0    0  501    0  0.00000000000E+00  0.00000000000E+00  0.79372285882E+03  0.79372285883E+03  0.25500000920E-02 0.  1.
       -2   -1    0    0    0  501  0.00000000000E+00  0.00000000000E+00 -0.33998350194E+03  0.33998350195E+03  0.25500000920E-02 0. -1.
    10030    2    1    2    0    0  0.00000000000E+00  0.00000000000E+00  0.45373935688E+03  0.11337063608E+04  0.10389469228E+04 0.  0.
        1    1    3    3  502    0 -0.35506447667E+03 -0.37479009599E+03  0.16404913081E+03  0.54171073092E+03  0.50400001928E-02 0.  1.
       -1    1    3    3    0  502  0.35506447667E+03  0.37479009599E+03  0.28969022608E+03  0.59199562985E+03  0.50400001928E-02 0. -1.
</event>
<event>
 5   0  0.3748901E-03  0.1097777E+04  0.7818609E-02  0.9207361E-01
       -2   -1    0    0    0  501  0.00000000000E+00  0.00000000000E+00  0.69459327642E+03  0.69459327643E+03  0.25500000920E-02 0.  1.
        2   -1    0    0  501    0  0.00000000000E+00  0.00000000000E+00 -0.43374821638E+03  0.43374821639E+03  0.25500000920E-02 0. -1.
    10030    2    1    2    0    0  0.00000000000E+00  0.00000000000E+00  0.26084506004E+03  0.11283414928E+04  0.10977770170E+04 0.  0.
        5    1    3    3  502    0  0.13158554009E+03 -0.30755515591E+03 -0.31683832256E+03  0.46077493522E+03  0.46999998093E+01 0. -1.
       -5    1    3    3    0  502 -0.13158554009E+03  0.30755515591E+03  0.57768338260E+03  0.66756655760E+03  0.46999998093E+01 0.  1.
</event>
<event>
 5   0  0.2257667E-03  0.1098575E+04  0.7818609E-02  0.9206582E-01
        1   -1    0    0  501    0  0.00000000000E+00  0.00000000000E+00  0.39674348682E+03  0.39674348685E+03  0.50400001928E-02 0.  1.
       -1   -1    0    0    0  501  0.00000000000E+00  0.00000000000E+00 -0.76048324423E+03  0.76048324425E+03  0.50400001928E-02 0. -1.
    10030    2    1    2    0    0  0.00000000000E+00  0.00000000000E+00 -0.36373975742E+03  0.11572267311E+04  0.10985750298E+04 0.  0.
        4    1    3    3  502    0 -0.22035090564E+03  0.71057008649E+02  0.34283151360E+03  0.41368910998E+03  0.12699999809E+01 0.  1.
       -4    1    3    3    0  502  0.22035090564E+03 -0.71057008649E+02 -0.70657127102E+03  0.74353762112E+03  0.12699999809E+01 0. -1.
</event>
<event>
 5   0  0.2298958E-03  0.1115754E+04  0.7818609E-02  0.9189971E-01
       -1   -1    0    0    0  501  0.00000000000E+00  0.00000000000E+00  0.46188511887E+03  0.46188511889E+03  0.50400001928E-02 0. -1.
        1   -1    0    0  501    0  0.00000000000E+00  0.00000000000E+00 -0.67381866325E+03  0.67381866327E+03  0.50400001928E-02 0.  1.
    10030    2    1    2    0    0  0.00000000000E+00  0.00000000000E+00 -0.21193354439E+03  0.11357037822E+04  0.11157541188E+04 0.  0.
        1    1    3    3  502    0 -0.33092908195E+03 -0.38647661614E+03  0.12692225750E+03  0.52439249763E+03  0.50400001928E-02 0. -1.
       -1    1    3    3    0  502  0.33092908195E+03  0.38647661614E+03 -0.33885580189E+03  0.61131128453E+03  0.50400001928E-02 0.  1.
</event>
<event>
 5   0  0.2257667E-03  0.1066007E+04  0.7818609E-02  0.9238973E-01
       -1   -1    0    0    0  501  0.00000000000E+00  0.00000000000E+00  0.37163314218E+03  0.37163314222E+03  0.50400001928E-02 0. -1.
        1   -1    0    0  501    0  0.00000000000E+00  0.00000000000E+00 -0.76444331473E+03  0.76444331474E+03  0.50400001928E-02 0.  1.
    10030    2    1    2    0    0  0.00000000000E+00  0.00000000000E+00 -0.39281017254E+03  0.11360764570E+04  0.10660065124E+04 0.  0.
        4    1    3    3  502    0  0.36696023203E+03  0.16644645706E+03  0.17542154288E+03  0.43947532987E+03  0.12699999809E+01 0. -1.
       -4    1    3    3    0  502 -0.36696023203E+03 -0.16644645706E+03 -0.56823171542E+03  0.69660112709E+03  0.12699999809E+01 0.  1.
</event>
<event>
 5   0  0.3713158E-03  0.1107096E+04  0.7818609E-02  0.9198303E-01
        2   -1    0    0  501    0  0.00000000000E+00  0.00000000000E+00  0.10083463453E+04  0.10083463453E+04  0.25500000920E-02 0. -1.
       -2   -1    0    0    0  501  0.00000000000E+00  0.00000000000E+00 -0.30387928897E+03  0.30387928898E+03  0.25500000920E-02 0.  1.
    10030    2    1    2    0    0  0.00000000000E+00  0.00000000000E+00  0.70446705631E+03  0.13122256343E+04  0.11070963290E+04 0.  0.
        4    1    3    3  502    0  0.14236312143E+03  0.77518553398E+02  0.97958191799E+03  0.99290419045E+03  0.12699999809E+01 0. -1.
       -4    1    3    3    0  502 -0.14236312143E+03 -0.77518553398E+02 -0.27511486168E+03  0.31932144381E+03  0.12699999809E+01 0.  1.
</event>
<event>
 5   0  0.2298958E-03  0.1217163E+04  0.7818609E-02  0.9097965E-01
        1   -1    0    0  501    0  0.00000000000E+00  0.00000000000E+00  0.10120528691E+04  0.10120528691E+04  0.50400001928E-02 0.  1.
       -1   -1    0    0    0  501  0.00000000000E+00  0.00000000000E+00 -0.36596055948E+03  0.36596055951E+03  0.50400001928E-02 0. -1.
    10030    2    1    2    0    0  0.00000000000E+00  0.00000000000E+00  0.64609230963E+03  0.13780134286E+04  0.12171629870E+04 0.  0.
        1    1    3    3  502    0 -0.35886481360E+03  0.44734383294E+03  0.55360237037E+03  0.79710478848E+03  0.50400001928E-02 0.  1.
       -1    1    3    3    0  502  0.35886481360E+03 -0.44734383294E+03  0.92489939266E+02  0.58090864015E+03  0.50400001928E-02 0. -1.
</event>
<event>
 5   0  0.3713158E-03  0.1084001E+04  0.7818609E-02  0.9220928E-01
       -2   -1    0    0    0  501  0.00000000000E+00  0.00000000000E+00  0.62610478471E+03  0.62610478471E+03  0.25500000920E-02 0. -1.
        2   -1    0    0  501    0  0.00000000000E+00  0.00000000000E+00 -0.46919365095E+03  0.46919365095E+03  0.25500000920E-02 0.  1.
    10030    2    1    2    0    0  0.00000000000E+00  0.00000000000E+00  0.15691113376E+03  0.10952984357E+04  0.10840007192E+04 0.  0.
        4    1    3    3  502    0  0.51843231494E+03 -0.15637840608E+03  0.55051564665E+02  0.54429638868E+03  0.12699999809E+01 0. -1.
       -4    1    3    3    0  502 -0.51843231494E+03  0.15637840608E+03  0.10185956909E+03  0.55100204698E+03  0.12699999809E+01 0.  1.
</event>
<event>
 5   0  0.1508625E-03  0.1154927E+04  0.7818609E-02  0.9153250E-01
       -3   -1    0    0    0  501  0.00000000000E+00  0.00000000000E+00  0.70482257356E+03  0.70482258080E+03  0.10100000352E+00 0.  1.
        3   -1    0    0  501    0  0.00000000000E+00  0.00000000000E+00 -0.47311809139E+03  0.47311810217E+03  0.10100000352E+00 0. -1.
    10030    2    1    2    0    0  0.00000000000E+00  0.00000000000E+00  0.23170448217E+03  0.11779406830E+04  0.11549273940E+04 0.  0.
        2    1    3    3  502    0 -0.67255178372E+02 -0.13399940931E+03  0.68462477199E+03  0.70084961236E+03  0.25500000920E-02 0.  1.
       -2    1    3    3    0  502  0.67255178372E+02  0.13399940931E+03 -0.45292028982E+03  0.47709107060E+03  0.25500000920E-02 0. -1.
</event>
<event>
 5   0  0.2300702E-03  0.1103623E+04  0.7818609E-02  0.9201668E-01
        1   -1    0    0  501    0  0.00000000000E+00  0.00000000000E+00  0.13401432996E+04  0.13401432996E+04  0.50400001928E-02 0. -1.
       -1   -1    0    0    0  501  0.00000000000E+00  0.00000000000E+00 -0.22721143017E+03  0.22721143023E+03  0.50400001928E-02 0.  1.
    10030    2    1    2    0    0  0.00000000000E+00  0.00000000000E+00  0.11129318694E+04  0.15673547298E+04  0.11036228990E+04 0.  0.
        5    1    3    3  502    0  0.54848825806E+01 -0.61040555310E+02 -0.22233439945E+03  0.23067446436E+03  0.46999998093E+01 0.  1.
       -5    1    3    3    0  502 -0.54848825806E+01  0.61040555310E+02  0.13352662688E+04  0.13366802654E+04  0.46999998093E+01 0. -1.
</event>
<event>
 5   0  0.3962999E-03  0.1180489E+04  0.7818609E-02  0.9130108E-01
        2   -1    0    0  501    0  0.00000000000E+00  0.00000000000E+00  0.14993414788E+04  0.14993414788E+04  0.25500000920E-02 0. -1.
       -2   -1    0    0    0  501  0.00000000000E+00  0.00000000000E+00 -0.23236101266E+03  0.23236101268E+03  0.25500000920E-02 0.  1.
    10030    2    1    2    0    0  0.00000000000E+00  0.00000000000E+00  0.12669804661E+04  0.17317024915E+04  0.11804888892E+04 0.  0.
        3    1    3    3  502    0 -0.11651710749E+03 -0.29153025607E+03 -0.99717501945E+02  0.32940813126E+03  0.10100000352E+00 0.  1.
       -3    1    3    3    0  502  0.11651710749E+03  0.29153025607E+03  0.13666979681E+04  0.14022943602E+04  0.10100000352E+00 0. -1.
</event>
<event>
 5   0  0.2298958E-03  0.1124978E+04  0.7818609E-02  0.9181183E-01
       -1   -1    0    0    0  501  0.00000000000E+00  0.00000000000E+00  0.16076463846E+03  0.16076463854E+03  0.50400001928E-02 0. -1.
        1   -1    0    0  501    0  0.00000000000E+00  0.00000000000E+00 -0.19680547981E+04  0.19680547981E+04  0.50400001928E-02 0.  1.
    10030    2    1    2    0    0  0.00000000000E+00  0.00000000000E+00 -0.18072901597E+04  0.21288194367E+04  0.11249775432E+04 0.  0.
        1    1    3    3  502    0 -0.48111195082E+03  0.26445640736E+03 -0.11353113057E+04  0.12610859057E+04  0.50400001928E-02 0.  1.
       -1    1    3    3    0  502  0.48111195082E+03 -0.26445640736E+03 -0.67197885393E+03  0.86773353097E+03  0.50400001928E-02 0. -1.
</event>
<event>
 5   0  0.2300702E-03  0.1094938E+04  0.7818609E-02  0.9210140E-01
        1   -1    0    0  501    0  0.00000000000E+00  0.00000000000E+00  0.20365617740E+04  0.20365617740E+04  0.50400001928E-02 0. -1.
       -1   -1    0    0    0  501  0.00000000000E+00  0.00000000000E+00 -0.14717061416E+03  0.14717061425E+03  0.50400001928E-02 0.  1.
    10030    2    1    2    0    0  0.00000000000E+00  0.00000000000E+00  0.18893911598E+04  0.21837323882E+04  0.10949375273E+04 0.  0.
        5    1    3    3  502    0 -0.13098258899E+03 -0.49378832196E+03  0.13371224582E+04  0.14313985831E+04  0.46999998093E+01 0. -1.
       -5    1    3    3    0  502  0.13098258899E+03  0.49378832196E+03  0.55226870160E+03  0.75233380509E+03  0.46999998093E+01 0.  1.
</event>
<event>
 5   0  0.1508625E-03  0.1088633E+04  0.7818609E-02  0.9216342E-01
        3   -1    0    0  501    0  0.00000000000E+00  0.00000000000E+00  0.64522936821E+03  0.64522937612E+03  0.10100000352E+00 0.  1.
       -3   -1    0    0    0  501  0.00000000000E+00  0.00000000000E+00 -0.45918617244E+03  0.45918618354E+03  0.10100000352E+00 0. -1.
    10030    2    1    2    0    0  0.00000000000E+00  0.00000000000E+00  0.18604319578E+03  0.11044155597E+04  0.10886329307E+04 0.  0.
        1    1    3    3  502    0  0.50239000573E+02  0.26829023462E+03  0.57078085714E+03  0.63268822818E+03  0.50400001928E-02 0.  1.
       -1    1    3    3    0  502 -0.50239000573E+02 -0.26829023462E+03 -0.38473766136E+03  0.47172733148E+03  0.50400001928E-02 0. -1.
</event>
<event>
 5   0  0.3748901E-03  0.1131235E+04  0.7818609E-02  0.9175272E-01
        2   -1    0    0  501    0  0.00000000000E+00  0.00000000000E+00  0.69713218515E+03  0.69713218516E+03  0.25500000920E-02 0.  1.
       -2   -1    0    0    0  501  0.00000000000E+00  0.00000000000E+00 -0.45891289507E+03  0.45891289508E+03  0.25500000920E-02 0. -1.
    10030    2    1    2    0    0  0.00000000000E+00  0.00000000000E+00  0.23821929008E+03  0.11560450802E+04  0.11312346341E+04 0.  0.
        5    1    3    3  502    0 -0.13500006234E+02 -0.49579584362E+03 -0.15870763411E+03  0.52077439630E+03  0.46999998093E+01 0. -1.
       -5    1    3    3    0  502  0.13500006234E+02  0.49579584362E+03  0.39692692419E+03  0.63527068393E+03  0.46999998093E+01 0.  1.
</event>
<event>
 5   0  0.2298958E-03  0.1098230E+04  0.7818609E-02  0.9206919E-01
        1   -1    0    0  501    0  0.00000000000E+00  0.00000000000E+00  0.62477503461E+03  0.62477503463E+03  0.50400001928E-02 0.  1.
       -1   -1    0    0    0  501  0.00000000000E+00  0.00000000000E+00 -0.48261701031E+03  0.48261701033E+03  0.50400001928E-02 0. -1.
    10030    2    1    2    0    0  0.00000000000E+00  0.00000000000E+00  0.14215802431E+03  0.11073920450E+04  0.10982295923E+04 0.  0.
        1    1    3    3  502    0  0.49922490359E+03  0.17290595660E+02 -0.15886428046E+03  0.52417776440E+03  0.50400001928E-02 0. -1.
       -1    1    3    3    0  502 -0.49922490359E+03 -0.17290595660E+02  0.30102230477E+03  0.58321428056E+03  0.50400001928E-02 0.  1.
</event>
<event>
 5   0  0.2300702E-03  0.1087811E+04  0.7818609E-02  0.9217154E-01
        1   -1    0    0  501    0  0.00000000000E+00  0.00000000000E+00  0.42531690553E+03  0.42531690556E+03  0.50400001928E-02 0.  1.
       -1   -1    0    0    0  501  0.00000000000E+00  0.00000000000E+00 -0.69556000521E+03  0.69556000523E+03  0.50400001928E-02 0. -1.
    10030    2    1    2    0    0  0.00000000000E+00  0.00000000000E+00 -0.27024309968E+03  0.11208769108E+04  0.10878114341E+04 0.  0.
        5    1    3    3  502    0 -0.31378088570E+03  0.23689563466E+03  0.25211196547E+03  0.46707656662E+03  0.46999998093E+01 0.  1.
       -5    1    3    3    0  502  0.31378088570E+03 -0.23689563466E+03 -0.52235506514E+03  0.65380034417E+03  0.46999998093E+01 0. -1.
</event>
<event>
 5   0  0.2255788E-03  0.1083266E+04  0.7818609E-02  0.9221658E-01
        1   -1    0    0  501    0  0.00000000000E+00  0.00000000000E+00  0.38192800588E+03  0.38192800591E+03  0.50400001928E-02 0.  1.
       -1   -1    0    0    0  501  0.00000000000E+00  0.00000000000E+00 -0.76811878674E+03  0.76811878675E+03  0.50400001928E-02 0. -1.
    10030    2    1    2    0    0  0.00000000000E+00  0.00000000000E+00 -0.38619078086E+03  0.11500467927E+04  0.10832655751E+04 0.  0.
        3    1    3    3  502    0 -0.37992955800E+03 -0.36092489591E+03 -0.47712324072E+02  0.52620312200E+03  0.10100000352E+00 0.  1.
       -3    1    3    3    0  502  0.37992955800E+03  0.36092489591E+03 -0.33847845678E+03  0.62384367067E+03  0.10100000352E+00 0. -1.
</event>
<event>
 5   0  0.3713158E-03  0.1052628E+04  0.7818609E-02  0.9252635E-01
       -2   -1    0    0    0  501  0.00000000000E+00  0.00000000000E+00  0.38362061333E+03  0.38362061334E+03  0.25500000920E-02 0. -1.
        2   -1    0    0  501    0  0.00000000000E+00  0.00000000000E+00 -0.72208471663E+03  0.72208471663E+03  0.25500000920E-02 0.  1.
    10030    2    1    2    0    0  0.00000000000E+00  0.00000000000E+00 -0.33846410330E+03  0.11057053300E+04  0.10526282950E+04 0.  0.
        4    1    3    3  502    0 -0.71833150642E+02  0.32704670068E+03 -0.59576785794E+03  0.68341824633E+03  0.12699999809E+01 0.  1.
       -4    1    3    3    0  502  0.71833150642E+02 -0.32704670068E+03  0.25730375464E+03  0.42228708364E+03  0.12699999809E+01 0. -1.
</event>
<event>
 5   0  0.2374100E-03  0.1135023E+04  0.7818609E-02  0.9171712E-01
        1   -1    0    0  501    0  0.00000000000E+00  0.00000000000E+00  0.71347612597E+03  0.71347612599E+03  0.50400001928E-02 0.  1.
       -1   -1    0    0    0  501  0.00000000000E+00  0.00000000000E+00 -0.45140892010E+03  0.45140892013E+03  0.50400001928E-02 0. -1.
    10030    2    1    2    0    0  0.00000000000E+00  0.00000000000E+00  0.26206720587E+03  0.11648850461E+04  0.11350233259E+04 0.  0.
        2    1    3    3  502    0  0.21335104004E+03 -0.29552618095E+03  0.57746648638E+03  0.68287768511E+03  0.25500000920E-02 0.  1.
       -2    1    3    3    0  502 -0.21335104004E+03  0.29552618095E+03 -0.31539928051E+03  0.48200736101E+03  0.25500000920E-02 0. -1.
</event>
<event>
 5   0  0.1508625E-03  0.1088979E+04  0.7818609E-02  0.9216001E-01
        3   -1    0    0  501    0  0.00000000000E+00  0.00000000000E+00  0.47439976348E+03  0.47439977424E+03  0.10100000352E+00 0.  1.
       -3   -1    0    0    0  501  0.00000000000E+00  0.00000000000E+00 -0.62493435691E+03  0.62493436507E+03  0.10100000352E+00 0. -1.
    10030    2    1    2    0    0  0.00000000000E+00  0.00000000000E+00 -0.15053459342E+03  0.10993341393E+04  0.10889788272E+04 0.  0.
        2    1    3    3  502    0 -0.49797131363E+03  0.21890117616E+03 -0.99486416972E+02  0.55298345481E+03  0.25500000920E-02 0.  1.
       -2    1    3    3    0  502  0.49797131363E+03 -0.21890117616E+03 -0.51048176452E+02  0.54635068450E+03  0.25500000920E-02 0. -1.
</event>
<event>
 5   0  0.3992414E-03  0.1142167E+04  0.7818609E-02  0.9165040E-01
        2   -1    0    0  501    0  0.00000000000E+00  0.00000000000E+00  0.99488923803E+03  0.99488923804E+03  0.25500000920E-02 0.  1.
       -2   -1    0    0    0  501  0.00000000000E+00  0.00000000000E+00 -0.32781175517E+03  0.32781175518E+03  0.25500000920E-02 0. -1.
    10030    2    1    2    0    0  0.00000000000E+00  0.00000000000E+00  0.66707748286E+03  0.13227009932E+04  0.11421670409E+04 0.  0.
        1    1    3    3  502    0  0.10425574626E+03 -0.55842217336E+03  0.26569758706E+03  0.62713618308E+03  0.50400001928E-02 0. -1.
       -1    1    3    3    0  502 -0.10425574626E+03  0.55842217336E+03  0.40137989580E+03  0.69556481014E+03  0.50400001928E-02 0.  1.
</event>
<event>
 5   0  0.3713158E-03  0.1098546E+04  0.7818609E-02  0.9206610E-01
       -2   -1    0    0    0  501  0.00000000000E+00  0.00000000000E+00  0.28273693416E+03  0.28273693417E+03  0.25500000920E-02 0. -1.
        2   -1    0    0  501    0  0.00000000000E+00  0.00000000000E+00 -0.10670722017E+04  0.10670722017E+04  0.25500000920E-02 0.  1.
    10030    2    1    2    0    0  0.00000000000E+00  0.00000000000E+00 -0.78433526758E+03  0.13498091359E+04  0.10985458076E+04 0.  0.
        4    1    3    3  502    0 -0.69805733876E+02 -0.11866262909E+03  0.26119155690E+03  0.29525633324E+03  0.12699999809E+01 0. -1.
       -4    1    3    3    0  502  0.69805733876E+02  0.11866262909E+03 -0.10455268245E+04  0.10545528027E+04  0.12699999809E+01 0.  1.
</event>
<event>
 5   0  0.3713158E-03  0.1096679E+04  0.7818609E-02  0.9208435E-01
       -2   -1    0    0    0  501  0.00000000000E+00  0.00000000000E+00  0.60000571312E+03  0.60000571313E+03  0.25500000920E-02 0.  1.
        2   -1    0    0  501    0  0.00000000000E+00  0.00000000000E+00 -0.50112203699E+03  0.50112203699E+03  0.25500000920E-02 0. -1.
    10030    2    1    2    0    0  0.00000000000E+00  0.00000000000E+00  0.98883676136E+02  0.11011277501E+04  0.10966787773E+04 0.  0.
        4    1    3    3  502    0 -0.20969429319E+03  0.45566956608E+03  0.27185349478E+03  0.57053692744E+03  0.12699999809E+01 0.  1.
       -4    1    3    3    0  502  0.20969429319E+03 -0.45566956608E+03 -0.17296981864E+03  0.53059082268E+03  0.12699999809E+01 0. -1.
</event>
<event>
 5   0  0.3744875E-03  0.1086807E+04  0.7818609E-02  0.9218147E-01
       -2   -1    0    0    0  501  0.00000000000E+00  0.00000000000E+00  0.53367387967E+03  0.53367387967E+03  0.25500000920E-02 0. -1.
        2   -1    0    0  501    0  0.00000000000E+00  0.00000000000E+00 -0.55331034605E+03  0.55331034606E+03  0.25500000920E-02 0.  1.
    10030    2    1    2    0    0  0.00000000000E+00  0.00000000000E+00 -0.19636466384E+02  0.10869842257E+04  0.10868068440E+04 0.  0.
        2    1    3    3  502    0  0.20361760135E+03 -0.39231957760E+03  0.30632274378E+03  0.53778099809E+03  0.25500000920E-02 0. -1.
       -2    1    3    3    0  502 -0.20361760135E+03  0.39231957760E+03 -0.32595921016E+03  0.54920322763E+03  0.25500000920E-02 0.  1.
</event>
<event>
 5   0  0.3962999E-03  0.1113307E+04  0.7818609E-02  0.9192318E-01
       -2   -1    0    0    0  501  0.00000000000E+00  0.00000000000E+00  0.23701186960E+03  0.23701186961E+03  0.25500000920E-02 0. -1.
        2   -1    0    0  501    0  0.00000000000E+00  0.00000000000E+00 -0.13073731276E+04  0.13073731276E+04  0.25500000920E-02 0.  1.
    10030    2    1    2    0    0  0.00000000000E+00  0.00000000000E+00 -0.10703612580E+04  0.15443849973E+04  0.11133066950E+04 0.  0.
        3    1    3    3  502    0 -0.36718873313E+03 -0.41256942106E+03 -0.43885376384E+03  0.70543159071E+03  0.10100000352E+00 0. -1.
       -3    1    3    3    0  502  0.36718873313E+03  0.41256942106E+03 -0.63150749420E+03  0.83895340655E+03  0.10100000352E+00 0.  1.
</event>
<event>
 5   0  0.2255788E-03  0.1099956E+04  0.7818609E-02  0.9205235E-01
        1   -1    0    0  501    0  0.00000000000E+00  0.00000000000E+00  0.12671109935E+04  0.12671109935E+04  0.50400001928E-02 0.  1.
       -1   -1    0    0    0  501  0.00000000000E+00  0.00000000000E+00 -0.23871283336E+03  0.23871283342E+03  0.50400001928E-02 0. -1.
    10030    2    1    2    0    0  0.00000000000E+00  0.00000000000E+00  0.10283981601E+04  0.15058238269E+04  0.10999557364E+04 0.  0.
        3    1    3    3  502    0  0.26203184251E+03  0.37640171914E+03  0.98656728218E+02  0.46911842948E+03  0.10100000352E+00 0. -1.
       -3    1    3    3    0  502 -0.26203184251E+03 -0.37640171914E+03  0.92974143187E+03  0.10367053974E+04  0.10100000352E+00 0.  1.
</event>
<event>
 5   0  0.2257667E-03  0.1189297E+04  0.7818609E-02  0.9122276E-01
        1   -1    0    0  501    0  0.00000000000E+00  0.00000000000E+00  0.35405464719E+03  0.35405464723E+03  0.50400001928E-02 0. -1.
       -1   -1    0    0    0  501  0.00000000000E+00  0.00000000000E+00 -0.99873601455E+03  0.99873601456E+03  0.50400001928E-02 0.  1.
    10030    2    1    2    0    0  0.00000000000E+00  0.00000000000E+00 -0.64468136735E+03  0.13527906618E+04  0.11892974856E+04 0.  0.
        4    1    3    3  502    0  0.13987363232E+03  0.45809620318E+03 -0.72319007080E+03  0.86742276647E+03  0.12699999809E+01 0.  1.
       -4    1    3    3    0  502 -0.13987363232E+03 -0.45809620318E+03  0.78508703446E+02  0.48536789532E+03  0.12699999809E+01 0. -1.
</event>
<event>
 5   0  0.3962999E-03  0.1185047E+04  0.7818609E-02  0.9126046E-01
        2   -1    0    0  501    0  0.00000000000E+00  0.00000000000E+00  0.48781154558E+03  0.48781154559E+03  0.25500000920E-02 0. -1.
       -2   -1    0    0    0  501  0.00000000000E+00  0.00000000000E+00 -0.71971297489E+03  0.71971297490E+03  0.25500000920E-02 0.  1.
    10030    2    1    2    0    0  0.00000000000E+00  0.00000000000E+00 -0.23190142931E+03  0.12075245205E+04  0.11850473386E+04 0.  0.
        3    1    3    3  502    0  0.70229738821E+02  0.44376803977E+03  0.27766885861E+03  0.52816881258E+03  0.10100000352E+00 0. -1.
       -3    1    3    3    0  502 -0.70229738821E+02 -0.44376803977E+03 -0.50957028792E+03  0.67935570791E+03  0.10100000352E+00 0.  1.
</event>
<event>
 5   0  0.3744875E-03  0.1094857E+04  0.7818609E-02  0.9210219E-01
       -2   -1    0    0    0  501  0.00000000000E+00  0.00000000000E+00  0.51710921080E+03  0.51710921080E+03  0.25500000920E-02 0. -1.
        2   -1    0    0  501    0  0.00000000000E+00  0.00000000000E+00 -0.57952583888E+03  0.57952583889E+03  0.25500000920E-02 0.  1.
    10030    2    1    2    0    0  0.00000000000E+00  0.00000000000E+00 -0.62416628086E+02  0.10966350497E+04  0.10948573408E+04 0.  0.
        2    1    3    3  502    0 -0.77115714513E+02 -0.13846275764E+03  0.49362661521E+03  0.51844575794E+03  0.25500000920E-02 0. -1.
       -2    1    3    3    0  502  0.77115714513E+02  0.13846275764E+03 -0.55604324329E+03  0.57818929175E+03  0.25500000920E-02 0.  1.
</event>
<event>
 5   0  0.2298958E-03  0.1094507E+04  0.7818609E-02  0.9210563E-01
       -1   -1    0    0    0  501  0.00000000000E+00  0.00000000000E+00  0.16776059601E+03  0.16776059609E+03  0.50400001928E-02 0.  1.
        1   -1    0    0  501    0  0.00000000000E+00  0.00000000000E+00 -0.17851999226E+04  0.17851999226E+04  0.50400001928E-02 0. -1.
    10030    2    1    2    0    0  0.00000000000E+00  0.00000000000E+00 -0.16174393266E+04  0.19529605187E+04  0.10945066525E+04 0.  0.
        1    1    3    3  502    0  0.20845483259E+03 -0.48022496149E+03 -0.10931888665E+04  0.12120772784E+04  0.50400001928E-02 0. -1.
       -1    1    3    3    0  502 -0.20845483259E+03  0.48022496149E+03 -0.52425046004E+03  0.74088324029E+03  0.50400001928E-02 0.  1.
</event>
<event>
 5   0  0.3992414E-03  0.1061616E+04  0.7818609E-02  0.9243433E-01
        2   -1    0    0  501    0  0.00000000000E+00  0.00000000000E+00  0.91468002509E+03  0.91468002510E+03  0.25500000920E-02 0. -1.
       -2   -1    0    0    0  501  0.00000000000E+00  0.00000000000E+00 -0.30803887704E+03  0.30803887705E+03  0.25500000920E-02 0.  1.
    10030    2    1    2    0    0  0.00000000000E+00  0.00000000000E+00  0.60664114806E+03  0.12227189021E+04  0.10616157644E+04 0.  0.
        1    1    3    3  502    0 -0.50924260560E+03 -0.96566918010E+02  0.43516385647E+03  0.67677232731E+03  0.50400001928E-02 0.  1.
       -1    1    3    3    0  502  0.50924260560E+03  0.96566918010E+02  0.17147729158E+03  0.54594657483E+03  0.50400001928E-02 0. -1.
</event>
<event>
 5   0  0.2374100E-03  0.1099034E+04  0.7818609E-02  0.9206134E-01
        1   -1    0    0  501    0  0.00000000000E+00  0.00000000000E+00  0.33850243672E+03  0.33850243676E+03  0.50400001928E-02 0.  1.
       -1   -1    0    0    0  501  0.00000000000E+00  0.00000000000E+00 -0.89207335537E+03  0.89207335538E+03  0.50400001928E-02 0. -1.
    10030    2    1    2    0    0  0.00000000000E+00  0.00000000000E+00 -0.55357091865E+03  0.12305757921E+04  0.10990341297E+04 0.  0.
        2    1    3    3  502    0  0.56623695443E+02 -0.11081982813E+03  0.32251643628E+03  0.34569369227E+03  0.25500000920E-02 0.  1.
       -2    1    3    3    0  502 -0.56623695443E+02  0.11081982813E+03 -0.87608735493E+03  0.88488209987E+03  0.25500000920E-02 0. -1.
</event>
<event>
 5   0  0.3748901E-03  0.1093957E+04  0.7818609E-02  0.9211102E-01
       -2   -1    0    0    0  501  0.00000000000E+00  0.00000000000E+00  0.29623284636E+03  0.29623284637E+03  0.25500000920E-02 0.  1.
        2   -1    0    0  501    0  0.00000000000E+00  0.00000000000E+00 -0.10099670371E+04  0.10099670371E+04  0.25500000920E-02 0. -1.
    10030    2    1    2    0    0  0.00000000000E+00  0.00000000000E+00 -0.71373419073E+03  0.13061998835E+04  0.10939568732E+04 0.  0.
        5    1    3    3  502    0  0.76421318711E+02  0.45980043586E+03 -0.15148154746E+02  0.46637776036E+03  0.46999998093E+01 0.  1.
       -5    1    3    3    0  502 -0.76421318711E+02 -0.45980043586E+03 -0.69858603599E+03  0.83982212310E+03  0.46999998093E+01 0. -1.
</event>
<event>
 5   0  0.2374100E-03  0.1088649E+04  0.7818609E-02  0.9216327E-01
       -1   -1    0    0    0  501  0.00000000000E+00  0.00000000000E+00  0.40959667766E+03  0.40959667769E+03  0.50400001928E-02 0.  1.
        1   -1    0    0  501    0  0.00000000000E+00  0.00000000000E+00 -0.72336741729E+03  0.72336741730E+03  0.50400001928E-02 0. -1.
    10030    2    1    2    0    0  0.00000000000E+00  0.00000000000E+00 -0.31377073962E+03  0.11329640950E+04  0.10886485032E+04 0.  0.
        2    1    3    3  502    0  0.12175924696E+03  0.52989072231E+03 -0.18401169329E+03  0.57399459500E+03  0.25500000920E-02 0. -1.
       -2    1    3    3    0  502 -0.12175924696E+03 -0.52989072231E+03 -0.12975904633E+03  0.55896949999E+03  0.25500000920E-02 0.  1.
</event>
<event>
 5   0  0.2298958E-03  0.1105559E+04  0.7818609E-02  0.9199791E-01
        1   -1    0    0  501    0  0.00000000000E+00  0.00000000000E+00  0.62230289415E+03  0.62230289417E+03  0.50400001928E-02 0.  1.
       -1   -1    0    0    0  501  0.00000000000E+00  0.00000000000E+00 -0.49102305487E+03  0.49102305489E+03  0.50400001928E-02 0. -1.
    10030    2    1    2    0    0  0.00000000000E+00  0.00000000000E+00  0.13127983928E+03  0.11133259491E+04  0.11055588056E+04 0.  0.
        1    1    3    3  502    0 -0.46100040910E+03  0.20254045733E+03  0.29532355718E+03  0.58374653532E+03  0.50400001928E-02 0. -1.
       -1    1    3    3    0  502  0.46100040910E+03 -0.20254045733E+03 -0.16404371790E+03  0.52957941374E+03  0.50400001928E-02 0.  1.
</event>
<event>
 5   0  0.2300702E-03  0.1100552E+04  0.7818609E-02  0.9204654E-01
        1   -1    0    0  501    0  0.00000000000E+00  0.00000000000E+00  0.74601100355E+03  0.74601100357E+03  0.50400001928E-02 0. -1.
       -1   -1    0    0    0  501  0.00000000000E+00  0.00000000000E+00 -0.40589730643E+03  0.40589730646E+03  0.50400001928E-02 0.  1.
    10030    2    1    2    0    0  0.00000000000E+00  0.00000000000E+00  0.34011369712E+03  0.11519083100E+04  0.11005523285E+04 0.  0.
        5    1    3    3  502    0 -0.39409286023E+02 -0.42048375139E+03 -0.19913827860E+03  0.46694520129E+03  0.46999998093E+01 0.  1.
       -5    1    3    3    0  502  0.39409286023E+02  0.42048375139E+03  0.53925197572E+03  0.68496310873E+03  0.46999998093E+01 0. -1.
</event>
<event>
 5   0  0.3992414E-03  0.1091381E+04  0.7818609E-02  0.9213633E-01
        2   -1    0    0  501    0  0.00000000000E+00  0.00000000000E+00  0.48318499101E+03  0.48318499102E+03  0.25500000920E-02 0. -1.
       -2   -1    0    0    0  501  0.00000000000E+00  0.00000000000E+00 -0.61628183767E+03  0.61628183767E+03  0.25500000920E-02 0.  1.
    10030    2    1    2    0    0  0.00000000000E+00  0.00000000000E+00 -0.13309684666E+03  0.10994668287E+04  0.10913810227E+04 0.  0.
        1    1    3    3  502    0  0.34685201987E+03 -0.34968873947E+03 -0.30321358953E+03  0.57838310755E+03  0.50400001928E-02 0.  1.
       -1    1    3    3    0  502 -0.34685201987E+03  0.34968873947E+03  0.17011674287E+03  0.52108372114E+03  0.50400001928E-02 0. -1.
</event>
<event>
 5   0  0.2255788E-03  0.1111732E+04  0.7818609E-02  0.9193832E-01
       -1   -1    0    0    0  501  0.00000000000E+00  0.00000000000E+00  0.49789128004E+03  0.49789128006E+03  0.50400001928E-02 0. -1.
        1   -1    0    0  501    0  0.00000000000E+00  0.00000000000E+00 -0.62059138917E+03  0.62059138919E+03  0.50400001928E-02 0.  1.
    10030    2    1    2    0    0  0.00000000000E+00  0.00000000000E+00 -0.12270010914E+03  0.11184826693E+04  0.11117320561E+04 0.  0.
        3    1    3    3  502    0  0.15035160723E+03 -0.53187394688E+02  0.47437985201E+03  0.50047053754E+03  0.10100000352E+00 0. -1.
       -3    1    3    3    0  502 -0.15035160723E+03  0.53187394688E+02 -0.59707996114E+03  0.61801213172E+03  0.10100000352E+00 0.  1.
</event>
<event>
 5   0  0.3744875E-03  0.1112427E+04  0.7818609E-02  0.9193164E-01
        2   -1    0    0  501    0  0.00000000000E+00  0.00000000000E+00  0.40632963387E+03  0.40632963388E+03  0.25500000920E-02 0. -1.
       -2   -1    0    0    0  501  0.00000000000E+00  0.00000000000E+00 -0.76138545176E+03  0.76138545177E+03  0.25500000920E-02 0.  1.
    10030    2    1    2    0    0  0.00000000000E+00  0.00000000000E+00 -0.35505581789E+03  0.11677150856E+04  0.11124270257E+04 0.  0.
        2    1    3    3  502    0  0.29322125895E+03 -0.13647969868E+03 -0.65253103125E+03  0.72828714227E+03  0.25500000920E-02 0.  1.
       -2    1    3    3    0  502 -0.29322125895E+03  0.13647969868E+03  0.29747521336E+03  0.43942794338E+03  0.25500000920E-02 0. -1.
</event>
<event>
 5   0  0.2257667E-03  0.1061099E+04  0.7818609E-02  0.9243959E-01
       -1   -1    0    0    0  501  0.00000000000E+00  0.00000000000E+00  0.19293259848E+03  0.19293259855E+03  0.50400001928E-02 0.  1.
        1   -1    0    0  501    0  0.00000000000E+00  0.00000000000E+00 -0.14589696300E+04  0.14589696300E+04  0.50400001928E-02 0. -1.
    10030    2    1    2    0    0  0.00000000000E+00  0.00000000000E+00 -0.12660370315E+04  0.16519022286E+04  0.10610990564E+04 0.  0.
        4    1    3    3  502    0  0.32030047182E+03  0.42291387271E+03 -0.62412261361E+03  0.81913319167E+03  0.12699999809E+01 0.  1.
       -4    1    3    3    0  502 -0.32030047182E+03 -0.42291387271E+03 -0.64191441792E+03  0.83276903690E+03  0.12699999809E+01 0. -1.
</event>
<event>
 5   0  0.2300702E-03  0.1109842E+04  0.7818609E-02  0.9195652E-01
       -1   -1    0    0    0  501  0.00000000000E+00  0.00000000000E+00  0.12504398143E+03  0.12504398153E+03  0.50400001928E-02 0.  1.
        1   -1    0    0  501    0  0.00000000000E+00  0.00000000000E+00 -0.24626335439E+04  0.24626335439E+04  0.50400001928E-02 0. -1.
    10030    2    1    2    0    0  0.00000000000E+00  0.00000000000E+00 -0.23375895624E+04  0.25876775254E+04  0.11098423370E+04 0.  0.
        5    1    3    3  502    0  0.19801174046E+03  0.27874922637E+03 -0.21877895476E+04  0.22143520441E+04  0.46999998093E+01 0. -1.
       -5    1    3    3    0  502 -0.19801174046E+03 -0.27874922637E+03 -0.14980001484E+03  0.37332548133E+03  0.46999998093E+01 0.  1.
</event>
<event>
 5   0  0.3748901E-03  0.1106085E+04  0.7818609E-02  0.9199282E-01
        2   -1    0    0  501    0  0.00000000000E+00  0.00000000000E+00  0.14048150188E+04  0.14048150188E+04  0.25500000920E-02 0. -1.
       -2   -1    0    0    0  501  0.00000000000E+00  0.00000000000E+00 -0.21771962128E+03  0.21771962130E+03  0.25500000920E-02 0.  1.
    10030    2    1    2    0    0  0.00000000000E+00  0.00000000000E+00  0.11870953975E+04  0.16225346401E+04  0.11060846150E+04 0.  0.
        5    1    3    3  502    0  0.41945774965E+03  0.33835361507E+03  0.41147418008E+03  0.67805682907E+03  0.46999998093E+01 0.  1.
       -5    1    3    3    0  502 -0.41945774965E+03 -0.33835361507E+03  0.77562121740E+03  0.94447781099E+03  0.46999998093E+01 0. -1.
</event>
<event>
 5   0  0.2300702E-03  0.1065729E+04  0.7818609E-02  0.9239254E-01
        1   -1    0    0  501    0  0.00000000000E+00  0.00000000000E+00  0.46892737686E+03  0.46892737689E+03  0.50400001928E-02 0.  1.
       -1   -1    0    0    0  501  0.00000000000E+00  0.00000000000E+00 -0.60551882974E+03  0.60551882976E+03  0.50400001928E-02 0. -1.
    10030    2    1    2    0    0  0.00000000000E+00  0.00000000000E+00 -0.13659145288E+03  0.10744462067E+04  0.10657285893E+04 0.  0.
        5    1    3    3  502    0 -0.18493918473E+03 -0.36964283337E+03 -0.40732603642E+03  0.58032311366E+03  0.46999998093E+01 0. -1.
       -5    1    3    3    0  502  0.18493918473E+03  0.36964283337E+03  0.27073458354E+03  0.49412309299E+03  0.46999998093E+01 0.  1.
</event>
<event>
 5   0  0.1508625E-03  0.1095778E+04  0.7818609E-02  0.9209317E-01
        4   -1    0    0  501    0  0.00000000000E+00  0.00000000000E+00  0.10769187104E+04  0.10769194593E+04  0.12699999809E+01 0. -1.
       -4   -1    0    0    0  501  0.00000000000E+00  0.00000000000E+00 -0.27873966476E+03  0.27874255794E+03  0.12699999809E+01 0.  1.
    10030    2    1    2    0    0  0.00000000000E+00  0.00000000000E+00  0.79817904564E+03  0.13556620172E+04  0.10957781326E+04 0.  0.
        3    1    3    3  502    0 -0.36345321119E+02  0.32702493603E+03 -0.14289206739E+03  0.35872614105E+03  0.10100000352E+00 0.  1.
       -3    1    3    3    0  502  0.36345321119E+02 -0.32702493603E+03  0.94107111303E+03  0.99693587614E+03  0.10100000352E+00 0. -1.
</event>
<event>
 5   0  0.3992414E-03  0.1186138E+04  0.7818609E-02  0.9125077E-01
       -2   -1    0    0    0  501  0.00000000000E+00  0.00000000000E+00  0.14688856338E+04  0.14688856338E+04  0.25500000920E-02 0.  1.
        2   -1    0    0  501    0  0.00000000000E+00  0.00000000000E+00 -0.23945435522E+03  0.23945435524E+03  0.25500000920E-02 0. -1.
    10030    2    1    2    0    0  0.00000000000E+00  0.00000000000E+00  0.12294312786E+04  0.17083399891E+04  0.11861383770E+04 0.  0.
        1    1    3    3  502    0  0.50545590189E+02  0.25722367947E+03  0.13809145252E+04  0.14055759687E+04  0.50400001928E-02 0.  1.
       -1    1    3    3    0  502 -0.50545590189E+02 -0.25722367947E+03 -0.15148324661E+03  0.30276402031E+03  0.50400001928E-02 0. -1.
</event>
<event>
 5   0  0.2257667E-03  0.1048620E+04  0.7818609E-02  0.9256770E-01
        1   -1    0    0  501    0  0.00000000000E+00  0.00000000000E+00  0.71318506034E+03  0.71318506036E+03  0.50400001928E-02 0. -1.
       -1   -1    0    0    0  501  0.00000000000E+00  0.00000000000E+00 -0.38545546513E+03  0.38545546516E+03  0.50400001928E-02 0.  1.
    10030    2    1    2    0    0  0.00000000000E+00  0.00000000000E+00  0.32772959522E+03  0.10986405255E+04  0.10486201966E+04 0.  0.
        4    1    3    3  502    0 -0.14451401377E+03 -0.95014172130E+02 -0.35470752761E+03  0.39462771839E+03  0.12699999809E+01 0.  1.
       -4    1    3    3    0  502  0.14451401377E+03  0.95014172130E+02  0.68243712283E+03  0.70401280712E+03  0.12699999809E+01 0. -1.
</event>
<event>
 5   0  0.3992414E-03  0.1101718E+04  0.7818609E-02  0.9203519E-01
        2   -1    0    0  501    0  0.00000000000E+00  0.00000000000E+00  0.14890200850E+04  0.14890200850E+04  0.25500000920E-02 0.  1.
       -2   -1    0    0    0  501  0.00000000000E+00  0.00000000000E+00 -0.20378896881E+03  0.20378896882E+03  0.25500000920E-02 0. -1.
    10030    2    1    2    0    0  0.00000000000E+00  0.00000000000E+00  0.12852311161E+04  0.16928090538E+04  0.11017184171E+04 0.  0.
        1    1    3    3  502    0 -0.26698723079E+03 -0.88006760451E+02 -0.85276008686E+02  0.29376754241E+03  0.50400001928E-02 0. -1.
       -1    1    3    3    0  502  0.26698723079E+03  0.88006760451E+02  0.13705071248E+04  0.13990415114E+04  0.50400001928E-02 0.  1.
</event>
<event>
 5   0  0.3992414E-03  0.1099688E+04  0.7818609E-02  0.9205496E-01
       -2   -1    0    0    0  501  0.00000000000E+00  0.00000000000E+00  0.27953746242E+03  0.27953746243E+03  0.25500000920E-02 0.  1.
        2   -1    0    0  501    0  0.00000000000E+00  0.00000000000E+00 -0.10815311024E+04  0.10815311024E+04  0.25500000920E-02 0. -1.
    10030    2    1    2    0    0  0.00000000000E+00  0.00000000000E+00 -0.80199363997E+03  0.13610685648E+04  0.10996880647E+04 0.  0.
        1    1    3    3  502    0  0.35337801483E+03  0.41809198504E+03 -0.33726463472E+03  0.64298084200E+03  0.50400001928E-02 0.  1.
       -1    1    3    3    0  502 -0.35337801483E+03 -0.41809198504E+03 -0.46472900526E+03  0.71808772282E+03  0.50400001928E-02 0. -1.
</event>
<event>
 5   0  0.2257667E-03  0.1090517E+04  0.7818609E-02  0.9214484E-01
        1   -1    0    0  501    0  0.00000000000E+00  0.00000000000E+00  0.40080125160E+03  0.40080125163E+03  0.50400001928E-02 0. -1.
       -1   -1    0    0    0  501  0.00000000000E+00  0.00000000000E+00 -0.74178155728E+03  0.74178155730E+03  0.50400001928E-02 0.  1.
    10030    2    1    2    0    0  0.00000000000E+00  0.00000000000E+00 -0.34098030568E+03  0.11425828089E+04  0.10905172655E+04 0.  0.
        4    1    3    3  502    0  0.29446331875E+03 -0.13983926200E+03 -0.62844137755E+03  0.70795751511E+03  0.12699999809E+01 0.  1.
       -4    1    3    3    0  502 -0.29446331875E+03  0.13983926200E+03  0.28746107187E+03  0.43462529382E+03  0.12699999809E+01 0. -1.
</event>
<event>
 5   0  0.2255788E-03  0.1113172E+04  0.7818609E-02  0.9192448E-01
        1   -1    0    0  501    0  0.00000000000E+00  0.00000000000E+00  0.71125804373E+03  0.71125804375E+03  0.50400001928E-02 0.  1.
       -1   -1    0    0    0  501  0.00000000000E+00  0.00000000000E+00 -0.43554913108E+03  0.43554913111E+03  0.50400001928E-02 0. -1.
    10030    2    1    2    0    0  0.00000000000E+00  0.00000000000E+00  0.27570891265E+03  0.11468071749E+04  0.11131717261E+04 0.  0.
        3    1    3    3  502    0  0.48631177242E+03  0.20354998029E+03  0.32173017762E+03  0.61760995123E+03  0.10100000352E+00 0.  1.
       -3    1    3    3    0  502 -0.48631177242E+03 -0.20354998029E+03 -0.46021264964E+02  0.52919722363E+03  0.10100000352E+00 0. -1.
</event>
<event>
 5   0  0.1508625E-03  0.1103824E+04  0.7818609E-02  0.9201473E-01
       -3   -1    0    0    0  501  0.00000000000E+00  0.00000000000E+00  0.27189844982E+03  0.27189846858E+03  0.10100000352E+00 0.  1.
        3   -1    0    0  501    0  0.00000000000E+00  0.00000000000E+00 -0.11202955858E+04  0.11202955904E+04  0.10100000352E+00 0. -1.
    10030    2    1    2    0    0  0.00000000000E+00  0.00000000000E+00 -0.84839713601E+03  0.13921940590E+04  0.11038236261E+04 0.  0.
        5    1    3    3  502    0  0.46876298809E+03  0.29057236264E+03 -0.39855079711E+03  0.68046738703E+03  0.46999998093E+01 0.  1.
       -5    1    3    3    0  502 -0.46876298809E+03 -0.29057236264E+03 -0.44984633890E+03  0.71172667194E+03  0.46999998093E+01 0. -1.
</event>
<event>
 5   0  0.3713158E-03  0.1101808E+04  0.7818609E-02  0.9203432E-01
        2   -1    0    0  501    0  0.00000000000E+00  0.00000000000E+00  0.42956871593E+03  0.42956871594E+03  0.25500000920E-02 0. -1.
       -2   -1    0    0    0  501  0.00000000000E+00  0.00000000000E+00 -0.70651101491E+03  0.70651101491E+03  0.25500000920E-02 0.  1.
    10030    2    1    2    0    0  0.00000000000E+00  0.00000000000E+00 -0.27694229898E+03  0.11360797309E+04  0.11018076592E+04 0.  0.
        4    1    3    3  502    0  0.35944884217E+03  0.41458127773E+03 -0.18911417412E+03  0.58038512191E+03  0.12699999809E+01 0.  1.
       -4    1    3    3    0  502 -0.35944884217E+03 -0.41458127773E+03 -0.87828124861E+02  0.55569460894E+03  0.12699999809E+01 0. -1.
</event>
<event>
 5   0  0.2257667E-03  0.1097561E+04  0.7818609E-02  0.9207572E-01
        1   -1    0    0  501    0  0.00000000000E+00  0.00000000000E+00  0.17670917143E+04  0.17670917143E+04  0.50400001928E-02 0.  1.
       -1   -1    0    0    0  501  0.00000000000E+00  0.00000000000E+00 -0.17042692951E+03  0.17042692959E+03  0.50400001928E-02 0. -1.
    10030    2    1    2    0    0  0.00000000000E+00  0.00000000000E+00  0.15966647848E+04  0.19375186439E+04  0.10975609598E+04 0.  0.
        4    1    3    3  502    0 -0.19051225987E+03 -0.57036024795E+02 -0.10457814064E+03  0.22469140990E+03  0.12699999809E+01 0. -1.
       -4    1    3    3    0  502  0.19051225987E+03  0.57036024795E+02  0.17012429255E+04  0.17128272340E+04  0.12699999809E+01 0.  1.
</event>
<event>
 5   0  0.2298958E-03  0.1092708E+04  0.7818609E-02  0.9212329E-01
       -1   -1    0    0    0  501  0.00000000000E+00  0.00000000000E+00  0.26345917261E+03  0.26345917266E+03  0.50400001928E-02 0. -1.
        1   -1    0    0  501    0  0.00000000000E+00  0.00000000000E+00 -0.11330128612E+04  0.11330128612E+04  0.50400001928E-02 0.  1.
    10030    2    1    2    0    0  0.00000000000E+00  0.00000000000E+00 -0.86955368858E+03  0.13964720339E+04  0.10927078860E+04 0.  0.
        1    1    3    3  502    0  0.11629812005E+03  0.80707934781E+02  0.23961512193E+03  0.27830636023E+03  0.50400001928E-02 0. -1.
       -1    1    3    3    0  502 -0.11629812005E+03 -0.80707934781E+02 -0.11091688105E+04  0.11181656736E+04  0.50400001928E-02 0.  1.
</event>
<event>
 5   0  0.2300702E-03  0.1092030E+04  0.7818609E-02  0.9212995E-01
       -1   -1    0    0    0  501  0.00000000000E+00  0.00000000000E+00  0.12661785913E+03  0.12661785923E+03  0.50400001928E-02 0.  1.
        1   -1    0    0  501    0  0.00000000000E+00  0.00000000000E+00 -0.23545823339E+04  0.23545823339E+04  0.50400001928E-02 0. -1.
    10030    2    1    2    0    0  0.00000000000E+00  0.00000000000E+00 -0.22279644748E+04  0.24812001931E+04  0.10920296231E+04 0.  0.
        5    1    3    3  502    0  0.34707785540E+03 -0.40676994366E+03 -0.13647921983E+04  0.14658119454E+04  0.46999998093E+01 0.  1.
       -5    1    3    3    0  502 -0.34707785540E+03  0.40676994366E+03 -0.86317227646E+03  0.10153882477E+04  0.46999998093E+01 0. -1.
</event>
<event>
 5   0  0.3713158E-03  0.1098766E+04  0.7818609E-02  0.9206395E-01
        2   -1    0    0  501    0  0.00000000000E+00  0.00000000000E+00  0.75954030811E+03  0.75954030811E+03  0.25500000920E-02 0.  1.
       -2   -1    0    0    0  501  0.00000000000E+00  0.00000000000E+00 -0.39737433050E+03  0.39737433051E+03  0.25500000920E-02 0. -1.
    10030    2    1    2    0    0  0.00000000000E+00  0.00000000000E+00  0.36216597761E+03  0.11569146386E+04  0.10987662562E+04 0.  0.
        4    1    3    3  502    0  0.25950132422E+03  0.46426129409E+03  0.32599162479E+03  0.62382019749E+03  0.12699999809E+01 0.  1.
       -4    1    3    3    0  502 -0.25950132422E+03 -0.46426129409E+03  0.36174352818E+02  0.53309444113E+03  0.12699999809E+01 0. -1.
</event>
<event>
 5   0  0.3744875E-03  0.1116281E+04  0.7818609E-02  0.9189467E-01
       -2   -1    0    0    0  501  0.00000000000E+00  0.00000000000E+00  0.35326879995E+03  0.35326879996E+03  0.25500000920E-02 0.  1.
        2   -1    0    0  501    0  0.00000000000E+00  0.00000000000E+00 -0.88182351906E+03  0.88182351906E+03  0.25500000920E-02 0. -1.
    10030    2    1    2    0    0  0.00000000000E+00  0.00000000000E+00 -0.52855471911E+03  0.12350923190E+04  0.11162808542E+04 0.  0.
        2    1    3    3  502    0 -0.44426930676E+03  0.12749972386E+03 -0.61045072055E+03  0.76569019763E+03  0.25500000920E-02 0. -1.
       -2    1    3    3    0  502  0.44426930676E+03 -0.12749972386E+03  0.81896001442E+02  0.46940212140E+03  0.25500000920E-02 0.  1.
</event>
<event>
 5   0  0.2300702E-03  0.1079681E+04  0.7818609E-02  0.9225226E-01
       -1   -1    0    0    0  501  0.00000000000E+00  0.00000000000E+00  0.23355788537E+03  0.23355788542E+03  0.50400001928E-02 0. -1.
        1   -1    0    0  501    0  0.00000000000E+00  0.00000000000E+00 -0.12477746497E+04  0.12477746497E+04  0.50400001928E-02 0.  1.
    10030    2    1    2    0    0  0.00000000000E+00  0.00000000000E+00 -0.10142167644E+04  0.14813325352E+04  0.10796807096E+04 0.  0.
        5    1    3    3  502    0 -0.13493563440E+03 -0.44492640454E+03 -0.13077134634E+03  0.48300141398E+03  0.46999998093E+01 0. -1.
       -5    1    3    3    0  502  0.13493563440E+03  0.44492640454E+03 -0.88344541802E+03  0.99833112117E+03  0.46999998093E+01 0.  1.
</event>
<event>
 5   0  0.2298958E-03  0.1065906E+04  0.7818609E-02  0.9239074E-01
        1   -1    0    0  501    0  0.00000000000E+00  0.00000000000E+00  0.10009118593E+04  0.10009118593E+04  0.50400001928E-02 0.  1.
       -1   -1    0    0    0  501  0.00000000000E+00  0.00000000000E+00 -0.28378026727E+03  0.28378026731E+03  0.50400001928E-02 0. -1.
    10030    2    1    2    0    0  0.00000000000E+00  0.00000000000E+00  0.71713159204E+03  0.12846921266E+04  0.10659062529E+04 0.  0.
        1    1    3    3  502    0  0.42413668673E+03  0.10075573395E+03 -0.10950269528E+02  0.43607746489E+03  0.50400001928E-02 0. -1.
       -1    1    3    3    0  502 -0.42413668673E+03 -0.10075573395E+03  0.72808186157E+03  0.84861466174E+03  0.50400001928E-02 0.  1.
</event>
<event>
 5   0  0.3962999E-03  0.9006065E+03  0.7818609E-02  0.9424824E-01
        2   -1    0    0  501    0  0.00000000000E+00  0.00000000000E+00  0.37576580565E+03  0.37576580565E+03  0.25500000920E-02 0. -1.
       -2   -1    0    0    0  501  0.00000000000E+00  0.00000000000E+00 -0.53962600952E+03  0.53962600952E+03  0.25500000920E-02 0.  1.
    10030    2    1    2    0    0  0.00000000000E+00  0.00000000000E+00 -0.16386020387E+03  0.91539181518E+03  0.90060646727E+03 0.  0.
        3    1    3    3  502    0  0.44005991918E+03  0.25240374269E+01 -0.17896407769E+03  0.47506552657E+03  0.10100000352E+00 0.  1.
       -3    1    3    3    0  502 -0.44005991918E+03 -0.25240374269E+01  0.15103873816E+02  0.44032628861E+03  0.10100000352E+00 0. -1.
</event>
<event>
 5   0  0.3713158E-03  0.1086653E+04  0.7818609E-02  0.9218300E-01
        2   -1    0    0  501    0  0.00000000000E+00  0.00000000000E+00  0.55205684792E+03  0.55205684792E+03  0.25500000920E-02 0. -1.
       -2   -1    0    0    0  501  0.00000000000E+00  0.00000000000E+00 -0.53473377307E+03  0.53473377307E+03  0.25500000920E-02 0.  1.
    10030    2    1    2    0    0  0.00000000000E+00  0.00000000000E+00  0.17323074850E+02  0.10867906210E+04  0.10866525502E+04 0.  0.
        4    1    3    3  502    0 -0.46098157434E+03  0.75315683172E+02  0.28623123921E+03  0.54781967765E+03  0.12699999809E+01 0. -1.
       -4    1    3    3    0  502  0.46098157434E+03 -0.75315683172E+02 -0.26890816436E+03  0.53897094335E+03  0.12699999809E+01 0.  1.
</event>
<event>
 5   0  0.3713158E-03  0.1123179E+04  0.7818609E-02  0.9182890E-01
        2   -1    0    0  501    0  0.00000000000E+00  0.00000000000E+00  0.94666204890E+03  0.94666204891E+03  0.25500000920E-02 0. -1.
       -2   -1    0    0    0  501  0.00000000000E+00  0.00000000000E+00 -0.33315224171E+03  0.33315224172E+03  0.25500000920E-02 0.  1.
    10030    2    1    2    0    0  0.00000000000E+00  0.00000000000E+00  0.61350980719E+03  0.12798142906E+04  0.11231786746E+04 0.  0.
        4    1    3    3  502    0 -0.31271142507E+03  0.45333135373E+03  0.18150152966E+03  0.57986392353E+03  0.12699999809E+01 0.  1.
       -4    1    3    3    0  502  0.31271142507E+03 -0.45333135373E+03  0.43200827753E+03  0.69995036710E+03  0.12699999809E+01 0. -1.
</event>
<event>
 5   0  0.2255788E-03  0.1074005E+04  0.7818609E-02  0.9230905E-01
       -1   -1    0    0    0  501  0.00000000000E+00  0.00000000000E+00  0.37749487059E+03  0.37749487063E+03  0.50400001928E-02 0. -1.
        1   -1    0    0  501    0  0.00000000000E+00  0.00000000000E+00 -0.76390940604E+03  0.76390940605E+03  0.50400001928E-02 0.  1.
    10030    2    1    2    0    0  0.00000000000E+00  0.00000000000E+00 -0.38641453544E+03  0.11414042767E+04  0.10740053676E+04 0.  0.
        3    1    3    3  502    0 -0.12149813565E+03 -0.16959316739E+03  0.33266652807E+03  0.39267119641E+03  0.10100000352E+00 0. -1.
       -3    1    3    3    0  502  0.12149813565E+03  0.16959316739E+03 -0.71908106351E+03  0.74873308027E+03  0.10100000352E+00 0.  1.
</event>
<event>
 5   0  0.2255788E-03  0.1090879E+04  0.7818609E-02  0.9214128E-01
       -1   -1    0    0    0  501  0.00000000000E+00  0.00000000000E+00  0.13781418150E+03  0.13781418159E+03  0.50400001928E-02 0. -1.
        1   -1    0    0  501    0  0.00000000000E+00  0.00000000000E+00 -0.21587339472E+04  0.21587339472E+04  0.50400001928E-02 0.  1.
    10030    2    1    2    0    0  0.00000000000E+00  0.00000000000E+00 -0.20209197657E+04  0.22965481288E+04  0.10908788239E+04 0.  0.
        3    1    3    3  502    0  0.43052735729E+03  0.28711175207E+03 -0.13733731336E+04  0.14676309951E+04  0.10100000352E+00 0.  1.
       -3    1    3    3    0  502 -0.43052735729E+03 -0.28711175207E+03 -0.64754663206E+03  0.82891713364E+03  0.10100000352E+00 0. -1.
</event>
<event>
 5   0  0.2298958E-03  0.1089087E+04  0.7818609E-02  0.9215894E-01
        1   -1    0    0  501    0  0.00000000000E+00  0.00000000000E+00  0.73079217629E+03  0.73079217630E+03  0.50400001928E-02 0.  1.
       -1   -1    0    0    0  501  0.00000000000E+00  0.00000000000E+00 -0.40576224134E+03  0.40576224137E+03  0.50400001928E-02 0. -1.
    10030    2    1    2    0    0  0.00000000000E+00  0.00000000000E+00  0.32502993495E+03  0.11365544177E+04  0.10890874555E+04 0.  0.
        1    1    3    3  502    0  0.22822264058E+03 -0.32224323464E+03 -0.22879652512E+03  0.45637060146E+03  0.50400001928E-02 0. -1.
       -1    1    3    3    0  502 -0.22822264058E+03  0.32224323464E+03  0.55382646007E+03  0.68018381621E+03  0.50400001928E-02 0.  1.
</event>
<event>
 5   0  0.1508625E-03  0.1033451E+04  0.7818609E-02  0.9272599E-01
        4   -1    0    0  501    0  0.00000000000E+00  0.00000000000E+00  0.52482393711E+03  0.52482547372E+03  0.12699999809E+01 0. -1.
       -4   -1    0    0    0  501  0.00000000000E+00  0.00000000000E+00 -0.50874899545E+03  0.50875058061E+03  0.12699999809E+01 0.  1.
    10030    2    1    2    0    0  0.00000000000E+00  0.00000000000E+00  0.16074941662E+02  0.10335760543E+04  0.10334510421E+04 0.  0.
        1    1    3    3  502    0 -0.46364135856E+02 -0.19839135571E+03 -0.46688469015E+03  0.50940168535E+03  0.50400001928E-02 0.  1.
       -1    1    3    3    0  502  0.46364135856E+02  0.19839135571E+03  0.48295963181E+03  0.52417436899E+03  0.50400001928E-02 0. -1.
</event>
<event>
 5   0  0.3962999E-03  0.1104922E+04  0.7818609E-02  0.9200408E-01
        2   -1    0    0  501    0  0.00000000000E+00  0.00000000000E+00  0.53725967374E+03  0.53725967374E+03  0.25500000920E-02 0.  1.
       -2   -1    0    0    0  501  0.00000000000E+00  0.00000000000E+00 -0.56809274158E+03  0.56809274158E+03  0.25500000920E-02 0. -1.
    10030    2    1    2    0    0  0.00000000000E+00  0.00000000000E+00 -0.30833067839E+02  0.11053524153E+04  0.11049222977E+04 0.  0.
        3    1    3    3  502    0 -0.48249816981E+03 -0.26908857974E+03 -0.15820641523E+02  0.55268747997E+03  0.10100000352E+00 0. -1.
       -3    1    3    3    0  502  0.48249816981E+03  0.26908857974E+03 -0.15012426317E+02  0.55266493535E+03  0.10100000352E+00 0.  1.
</event>
<event>
 5   0  0.3962999E-03  0.1111310E+04  0.7818609E-02  0.9194238E-01
       -2   -1    0    0    0  501  0.00000000000E+00  0.00000000000E+00  0.17935717966E+03  0.17935717968E+03  0.25500000920E-02 0. -1.
        2   -1    0    0  501    0  0.00000000000E+00  0.00000000000E+00 -0.17214386783E+04  0.17214386783E+04  0.25500000920E-02 0.  1.
    10030    2    1    2    0    0  0.00000000000E+00  0.00000000000E+00 -0.15420814986E+04  0.19007958580E+04  0.11113098332E+04 0.  0.
        3    1    3    3  502    0  0.48319845480E+03 -0.18256075276E+03 -0.42074803437E+03  0.66621174847E+03  0.10100000352E+00 0. -1.
       -3    1    3    3    0  502 -0.48319845480E+03  0.18256075276E+03 -0.11213334643E+04  0.12345841095E+04  0.10100000352E+00 0.  1.
</event>
<event>
 5   0  0.2255788E-03  0.1098979E+04  0.7818609E-02  0.9206187E-01
       -1   -1    0    0    0  501  0.00000000000E+00  0.00000000000E+00  0.57819867825E+03  0.57819867828E+03  0.50400001928E-02 0. -1.
        1   -1    0    0  501    0  0.00000000000E+00  0.00000000000E+00 -0.52220626687E+03  0.52220626690E+03  0.50400001928E-02 0.  1.
    10030    2    1    2    0    0  0.00000000000E+00  0.00000000000E+00  0.55992411381E+02  0.11004049452E+04  0.10989794781E+04 0.  0.
        3    1    3    3  502    0  0.14812725214E+03  0.17556746431E+03 -0.47182392372E+03  0.52476989486E+03  0.10100000352E+00 0.  1.
       -3    1    3    3    0  502 -0.14812725214E+03 -0.17556746431E+03  0.52781633510E+03  0.57563505032E+03  0.10100000352E+00 0. -1.
</event>
<event>
 5   0  0.3744875E-03  0.1106346E+04  0.7818609E-02  0.9199029E-01
        2   -1    0    0  501    0  0.00000000000E+00  0.00000000000E+00  0.73588392901E+03  0.73588392902E+03  0.25500000920E-02 0.  1.
       -2   -1    0    0    0  501  0.00000000000E+00  0.00000000000E+00 -0.41582680493E+03  0.41582680494E+03  0.25500000920E-02 0. -1.
    10030    2    1    2    0    0  0.00000000000E+00  0.00000000000E+00  0.32005712408E+03  0.11517107340E+04  0.11063458103E+04 0.  0.
        2    1    3    3  502    0 -0.38693931645E+03  0.36444403559E+03  0.58566815615E+00  0.53154664208E+03  0.25500000920E-02 0. -1.
       -2    1    3    3    0  502  0.38693931645E+03 -0.36444403559E+03  0.31947145593E+03  0.62016409187E+03  0.25500000920E-02 0.  1.
</event>
<event>
 5   0  0.3992414E-03  0.1042544E+04  0.7818609E-02  0.9263076E-01
       -2   -1    0    0    0  501  0.00000000000E+00  0.00000000000E+00  0.15081829569E+03  0.15081829571E+03  0.25500000920E-02 0. -1.
        2   -1    0    0  501    0  0.00000000000E+00  0.00000000000E+00 -0.18016685923E+04  0.18016685923E+04  0.25500000920E-02 0.  1.
    10030    2    1    2    0    0  0.00000000000E+00  0.00000000000E+00 -0.16508502966E+04  0.19524868880E+04  0.10425441698E+04 0.  0.
        1    1    3    3  502    0 -0.42466840359E+03  0.13902764669E+03 -0.32271386623E+03  0.55119522770E+03  0.50400001928E-02 0.  1.
       -1    1    3    3    0  502  0.42466840359E+03 -0.13902764669E+03 -0.13281364303E+04  0.14012916603E+04  0.50400001928E-02 0. -1.
</event>
<event>
 5   0  0.3713158E-03  0.1099405E+04  0.7818609E-02  0.9205772E-01
        2   -1    0    0  501    0  0.00000000000E+00  0.00000000000E+00  0.90950893436E+03  0.90950893436E+03  0.25500000920E-02 0.  1.
       -2   -1    0    0    0  501  0.00000000000E+00  0.00000000000E+00 -0.33223726167E+03  0.33223726168E+03  0.25500000920E-02 0. -1.
    10030    2    1    2    0    0  0.00000000000E+00  0.00000000000E+00  0.57727167269E+03  0.12417461960E+04  0.10994048532E+04 0.  0.
        4    1    3    3  502    0 -0.10176410482E+03 -0.14537877970E+03  0.87626514790E+03  0.89405432997E+03  0.12699999809E+01 0.  1.
       -4    1    3    3    0  502  0.10176410482E+03  0.14537877970E+03 -0.29899347521E+03  0.34769186607E+03  0.12699999809E+01 0. -1.
</event>
<event>
 5   0  0.2300702E-03  0.1112656E+04  0.7818609E-02  0.9192944E-01
        1   -1    0    0  501    0  0.00000000000E+00  0.00000000000E+00  0.80777941845E+03  0.80777941846E+03  0.50400001928E-02 0. -1.
       -1   -1    0    0    0  501  0.00000000000E+00  0.00000000000E+00 -0.38315016212E+03  0.38315016216E+03  0.50400001928E-02 0.  1.
    10030    2    1    2    0    0  0.00000000000E+00  0.00000000000E+00  0.42462925632E+03  0.11909295806E+04  0.11126559489E+04 0.  0.
        5    1    3    3  502    0 -0.16556930235E+03  0.51365047417E+03  0.35682642306E+03  0.64699087296E+03  0.46999998093E+01 0. -1.
       -5    1    3    3    0  502  0.16556930235E+03 -0.51365047417E+03  0.67802833266E+02  0.54393870766E+03  0.46999998093E+01 0.  1.
</event>
<event>
 5   0  0.3992414E-03  0.1098587E+04  0.7818609E-02  0.9206570E-01
       -2   -1    0    0    0  501  0.00000000000E+00  0.00000000000E+00  0.30281292762E+03  0.30281292763E+03  0.25500000920E-02 0. -1.
        2   -1    0    0  501    0  0.00000000000E+00  0.00000000000E+00 -0.99640171888E+03  0.99640171888E+03  0.25500000920E-02 0.  1.
    10030    2    1    2    0    0  0.00000000000E+00  0.00000000000E+00 -0.69358879126E+03  0.12992146465E+04  0.10985869498E+04 0.  0.
        1    1    3    3  502    0 -0.15722949941E+03 -0.22841668980E+03  0.21395871564E+03  0.35024795744E+03  0.50400001928E-02 0. -1.
       -1    1    3    3    0  502  0.15722949941E+03  0.22841668980E+03 -0.90754750690E+03  0.94896668907E+03  0.50400001928E-02 0.  1.
</event>
<event>
 5   0  0.3962999E-03  0.1113023E+04  0.7818609E-02  0.9192591E-01
       -2   -1    0    0    0  501  0.00000000000E+00  0.00000000000E+00  0.24116569411E+03  0.24116569412E+03  0.25500000920E-02 0. -1.
        2   -1    0    0  501    0  0.00000000000E+00  0.00000000000E+00 -0.12842011675E+04  0.12842011675E+04  0.25500000920E-02 0.  1.
    10030    2    1    2    0    0  0.00000000000E+00  0.00000000000E+00 -0.10430354734E+04  0.15253668616E+04  0.11130233887E+04 0.  0.
        3    1    3    3  502    0  0.51547026590E+03  0.97857903645E+02 -0.77577434016E+03  0.93654236497E+03  0.10100000352E+00 0.  1.
       -3    1    3    3    0  502 -0.51547026590E+03 -0.97857903645E+02 -0.26726113325E+03  0.58882449667E+03  0.10100000352E+00 0. -1.
</event>
<event>
 5   0  0.2257667E-03  0.1105095E+04  0.7818609E-02  0.9200240E-01
        1   -1    0    0  501    0  0.00000000000E+00  0.00000000000E+00  0.96220717376E+03  0.96220717377E+03  0.50400001928E-02 0. -1.
       -1   -1    0    0    0  501  0.00000000000E+00  0.00000000000E+00 -0.31730051413E+03  0.31730051417E+03  0.50400001928E-02 0.  1.
    10030    2    1    2    0    0  0.00000000000E+00  0.00000000000E+00  0.64490665963E+03  0.12795076879E+04  0.11050951651E+04 0.  0.
        4    1    3    3  502    0  0.43174165295E+03  0.10062905761E+03  0.70432554404E+03  0.83222782158E+03  0.12699999809E+01 0. -1.
       -4    1    3    3    0  502 -0.43174165295E+03 -0.10062905761E+03 -0.59418884412E+02  0.44727986636E+03  0.12699999809E+01 0.  1.
</event>
<event>
 5   0  0.3748901E-03  0.1103883E+04  0.7818609E-02  0.9201416E-01
        2   -1    0    0  501    0  0.00000000000E+00  0.00000000000E+00  0.12974335811E+04  0.12974335811E+04  0.25500000920E-02 0.  1.
       -2   -1    0    0    0  501  0.00000000000E+00  0.00000000000E+00 -0.23480134305E+03  0.23480134306E+03  0.25500000920E-02 0. -1.
    10030    2    1    2    0    0  0.00000000000E+00  0.00000000000E+00  0.10626322380E+04  0.15322349241E+04  0.11038825071E+04 0.  0.
        5    1    3    3  502    0 -0.13088035716E+03  0.42013236894E+03  0.99371566124E+03  0.10867997887E+04  0.46999998093E+01 0.  1.
       -5    1    3    3    0  502  0.13088035716E+03 -0.42013236894E+03  0.68916576776E+02  0.44543513543E+03  0.46999998093E+01 0. -1.
</event>
<event>
 5   0  0.3744875E-03  0.1069991E+04  0.7818609E-02  0.9234945E-01
       -2   -1    0    0    0  501  0.00000000000E+00  0.00000000000E+00  0.80088244698E+03  0.80088244698E+03  0.25500000920E-02 0. -1.
        2   -1    0    0  501    0  0.00000000000E+00  0.00000000000E+00 -0.35738072081E+03  0.35738072081E+03  0.25500000920E-02 0.  1.
    10030    2    1    2    0    0  0.00000000000E+00  0.00000000000E+00  0.44350172617E+03  0.11582631678E+04  0.10699905536E+04 0.  0.
        2    1    3    3  502    0  0.29329804381E+03  0.44088837159E+03  0.13921329863E+03  0.54752775384E+03  0.25500000920E-02 0.  1.
       -2    1    3    3    0  502 -0.29329804381E+03 -0.44088837159E+03  0.30428842755E+03  0.61073541395E+03  0.25500000920E-02 0. -1.
</event>
<event>
 5   0  0.3744875E-03  0.1095281E+04  0.7818609E-02  0.9209803E-01
       -2   -1    0    0    0  501  0.00000000000E+00  0.00000000000E+00  0.68123672479E+03  0.68123672480E+03  0.25500000920E-02 0.  1.
        2   -1    0    0  501    0  0.00000000000E+00  0.00000000000E+00 -0.44024370556E+03  0.44024370557E+03  0.25500000920E-02 0. -1.
    10030    2    1    2    0    0  0.00000000000E+00  0.00000000000E+00  0.24099301923E+03  0.11214804304E+04  0.10952811148E+04 0.  0.
        2    1    3    3  502    0 -0.12173017546E+03  0.59212594687E+02 -0.42284324879E+03  0.44398286008E+03  0.25500000920E-02 0. -1.
       -2    1    3    3    0  502  0.12173017546E+03 -0.59212594687E+02  0.66383626803E+03  0.67749757028E+03  0.25500000920E-02 0.  1.
</event>
<event>
 5   0  0.2255788E-03  0.1093044E+04  0.7818609E-02  0.9211999E-01
       -1   -1    0    0    0  501  0.00000000000E+00  0.00000000000E+00  0.38936627060E+03  0.38936627063E+03  0.50400001928E-02 0.  1.
        1   -1    0    0  501    0  0.00000000000E+00  0.00000000000E+00 -0.76710824018E+03  0.76710824020E+03  0.50400001928E-02 0. -1.
    10030    2    1    2    0    0  0.00000000000E+00  0.00000000000E+00 -0.37774196958E+03  0.11564745108E+04  0.10930435941E+04 0.  0.
        3    1    3    3  502    0 -0.42378618057E+02  0.25971382029E+02  0.38696996871E+03  0.39014898031E+03  0.10100000352E+00 0.  1.
       -3    1    3    3    0  502  0.42378618057E+02 -0.25971382029E+02 -0.76471193829E+03  0.76632553052E+03  0.10100000352E+00 0. -1.
</event>
<event>
 5   0  0.2374100E-03  0.1098254E+04  0.7818609E-02  0.9206895E-01
        1   -1    0    0  501    0  0.00000000000E+00  0.00000000000E+00  0.10552643804E+04  0.10552643804E+04  0.50400001928E-02 0. -1.
       -1   -1    0    0    0  501  0.00000000000E+00  0.00000000000E+00 -0.28574873373E+03  0.28574873377E+03  0.50400001928E-02 0.  1.
    10030    2    1    2    0    0  0.00000000000E+00  0.00000000000E+00  0.76951564666E+03  0.13410131142E+04  0.10982539970E+04 0.  0.
        2    1    3    3  502    0  0.52432442288E+02 -0.53200958531E+03  0.53803178633E+03  0.75845999431E+03  0.25500000920E-02 0.  1.
       -2    1    3    3    0  502 -0.52432442288E+02  0.53200958531E+03  0.23148386033E+03  0.58255311986E+03  0.25500000920E-02 0. -1.
</event>
<event>
 5   0  0.3992414E-03  0.1089938E+04  0.7818609E-02  0.9215055E-01
       -2   -1    0    0    0  501  0.00000000000E+00  0.00000000000E+00  0.25888778320E+03  0.25888778322E+03  0.25500000920E-02 0.  1.
        2   -1    0    0  501    0  0.00000000000E+00  0.00000000000E+00 -0.11471806639E+04  0.11471806639E+04  0.25500000920E-02 0. -1.
    10030    2    1    2    0    0  0.00000000000E+00  0.00000000000E+00 -0.88829288073E+03  0.14060684471E+04  0.10899377212E+04 0.  0.
        1    1    3    3  502    0 -0.14197825243E+03 -0.28559787922E+03  0.12591189764E+03  0.34289616325E+03  0.50400001928E-02 0.  1.
       -1    1    3    3    0  502  0.14197825243E+03  0.28559787922E+03 -0.10142047784E+04  0.10631722839E+04  0.50400001928E-02 0. -1.
</event>
<event>
 5   0  0.1508625E-03  0.1086489E+04  0.7818609E-02  0.9218462E-01
        4   -1    0    0  501    0  0.00000000000E+00  0.00000000000E+00  0.22850660665E+03  0.22851013585E+03  0.12699999809E+01 0. -1.
       -4   -1    0    0    0  501  0.00000000000E+00  0.00000000000E+00 -0.12914779870E+04  0.12914786115E+04  0.12699999809E+01 0.  1.
    10030    2    1    2    0    0  0.00000000000E+00  0.00000000000E+00 -0.10629713804E+04  0.15199887473E+04  0.10864886730E+04 0.  0.
        4    1    3    3  502    0 -0.53235315867E+03 -0.10617626729E+03 -0.50215650402E+03  0.73948363925E+03  0.12699999809E+01 0. -1.
       -4    1    3    3    0  502  0.53235315867E+03  0.10617626729E+03 -0.56081487635E+03  0.78050510807E+03  0.12699999809E+01 0.  1.
</event>
<event>
 5   0  0.2300702E-03  0.1095909E+04  0.7818609E-02  0.9209189E-01
        1   -1    0    0  501    0  0.00000000000E+00  0.00000000000E+00  0.67357815401E+03  0.67357815403E+03  0.50400001928E-02 0.  1.
       -1   -1    0    0    0  501  0.00000000000E+00  0.00000000000E+00 -0.44575974194E+03  0.44575974197E+03  0.50400001928E-02 0. -1.
    10030    2    1    2    0    0  0.00000000000E+00  0.00000000000E+00  0.22781841207E+03  0.11193378960E+04  0.10959087994E+04 0.  0.
        5    1    3    3  502    0  0.29055686483E+03 -0.44364471681E+03 -0.26833693094E+02  0.53102359979E+03  0.46999998093E+01 0. -1.
       -5    1    3    3    0  502 -0.29055686483E+03  0.44364471681E+03  0.25465210517E+03  0.58831429620E+03  0.46999998093E+01 0.  1.
</event>
<event>
 5   0  0.3748901E-03  0.1092220E+04  0.7818609E-02  0.9212808E-01
        2   -1    0    0  501    0  0.00000000000E+00  0.00000000000E+00  0.89938637954E+03  0.89938637954E+03  0.25500000920E-02 0. -1.
       -2   -1    0    0    0  501  0.00000000000E+00  0.00000000000E+00 -0.33159950793E+03  0.33159950794E+03  0.25500000920E-02 0.  1.
    10030    2    1    2    0    0  0.00000000000E+00  0.00000000000E+00  0.56778687161E+03  0.12309858875E+04  0.10922199063E+04 0.  0.
        5    1    3    3  502    0  0.45834847042E+03 -0.21047803932E+03  0.51984728407E+03  0.72432562713E+03  0.46999998093E+01 0. -1.
       -5    1    3    3    0  502 -0.45834847042E+03  0.21047803932E+03  0.47939587538E+02  0.50666026035E+03  0.46999998093E+01 0.  1.
</event>
<event>
 5   0  0.1508625E-03  0.1077675E+04  0.7818609E-02  0.9227229E-01
       -4   -1    0    0    0  501  0.00000000000E+00  0.00000000000E+00  0.48377614042E+03  0.48377780741E+03  0.12699999809E+01 0.  1.
        4   -1    0    0  501    0  0.00000000000E+00  0.00000000000E+00 -0.60016228601E+03  0.60016362973E+03  0.12699999809E+01 0. -1.
    10030    2    1    2    0    0  0.00000000000E+00  0.00000000000E+00 -0.11638614559E+03  0.10839414371E+04  0.10776749530E+04 0.  0.
        4    1    3    3  502    0  0.27636496141E+02 -0.43439387197E+03 -0.37765987542E+03  0.57627285753E+03  0.12699999809E+01 0. -1.
       -4    1    3    3    0  502 -0.27636496141E+02  0.43439387197E+03  0.26127372983E+03  0.50766857961E+03  0.12699999809E+01 0.  1.
</event>
<event>
 5   0  0.2255788E-03  0.1091956E+04  0.7818609E-02  0.9213068E-01
       -1   -1    0    0    0  501  0.00000000000E+00  0.00000000000E+00  0.29960966075E+03  0.29960966079E+03  0.50400001928E-02 0. -1.
        1   -1    0    0  501    0  0.00000000000E+00  0.00000000000E+00 -0.99493364079E+03  0.99493364080E+03  0.50400001928E-02 0.  1.
    10030    2    1    2    0    0  0.00000000000E+00  0.00000000000E+00 -0.69532398004E+03  0.12945433016E+04  0.10919555497E+04 0.  0.
        3    1    3    3  502    0  0.45283224924E+03  0.17688542571E+03 -0.53072795990E+02  0.48904215734E+03  0.10100000352E+00 0. -1.
       -3    1    3    3    0  502 -0.45283224924E+03 -0.17688542571E+03 -0.64225118405E+03  0.80550114425E+03  0.10100000352E+00 0.  1.
</event>
<event>
 5   0  0.2255788E-03  0.1102662E+04  0.7818609E-02  0.9202601E-01
        1   -1    0    0  501    0  0.00000000000E+00  0.00000000000E+00  0.12724099803E+04  0.12724099803E+04  0.50400001928E-02 0. -1.
       -1   -1    0    0    0  501  0.00000000000E+00  0.00000000000E+00 -0.23888982917E+03  0.23888982923E+03  0.50400001928E-02 0.  1.
    10030    2    1    2    0    0  0.00000000000E+00  0.00000000000E+00  0.10335201511E+04  0.15112998095E+04  0.11026618754E+04 0.  0.
        3    1    3    3  502    0 -0.19064284607E+03 -0.33284995047E+03 -0.26022153930E+02  0.38446189276E+03  0.10100000352E+00 0.  1.
       -3    1    3    3    0  502  0.19064284607E+03  0.33284995047E+03  0.10595423051E+04  0.11268379168E+04  0.10100000352E+00 0. -1.
</event>
<event>
 5   0  0.3744875E-03  0.1072808E+04  0.7818609E-02  0.9232108E-01
        2   -1    0    0  501    0  0.00000000000E+00  0.00000000000E+00  0.23322788377E+03  0.23322788378E+03  0.25500000920E-02 0. -1.
       -2   -1    0    0    0  501  0.00000000000E+00  0.00000000000E+00 -0.12336823033E+04  0.12336823033E+04  0.25500000920E-02 0.  1.
    10030    2    1    2    0    0  0.00000000000E+00  0.00000000000E+00 -0.10004544195E+04  0.14669101871E+04  0.10728077420E+04 0.  0.
        2    1    3    3  502    0  0.93606174711E+01  0.14175409516E+03  0.20703733279E+03  0.25109022648E+03  0.25500000920E-02 0. -1.
       -2    1    3    3    0  502 -0.93606174711E+01 -0.14175409516E+03 -0.12074917523E+04  0.12158199606E+04  0.25500000920E-02 0.  1.
</event>
<event>
 5   0  0.3992414E-03  0.1107838E+04  0.7818609E-02  0.9197586E-01
       -2   -1    0    0    0  501  0.00000000000E+00  0.00000000000E+00  0.18758115493E+03  0.18758115495E+03  0.25500000920E-02 0.  1.
        2   -1    0    0  501    0  0.00000000000E+00  0.00000000000E+00 -0.16356999992E+04  0.16356999992E+04  0.25500000920E-02 0. -1.
    10030    2    1    2    0    0  0.00000000000E+00  0.00000000000E+00 -0.14481188443E+04  0.18232811541E+04  0.11078384268E+04 0.  0.
        1    1    3    3  502    0 -0.23377298519E+02  0.21178134381E+03  0.11743998768E+03  0.24328992253E+03  0.50400001928E-02 0.  1.
       -1    1    3    3    0  502  0.23377298519E+02 -0.21178134381E+03 -0.15655588320E+04  0.15799912316E+04  0.50400001928E-02 0. -1.
</event>
<event>
 5   0  0.2298958E-03  0.1109135E+04  0.7818609E-02  0.9196334E-01
       -1   -1    0    0    0  501  0.00000000000E+00  0.00000000000E+00  0.42937762942E+03  0.42937762945E+03  0.50400001928E-02 0. -1.
        1   -1    0    0  501    0  0.00000000000E+00  0.00000000000E+00 -0.71625754455E+03  0.71625754456E+03  0.50400001928E-02 0.  1.
    10030    2    1    2    0    0  0.00000000000E+00  0.00000000000E+00 -0.28687991513E+03  0.11456351740E+04  0.11091347376E+04 0.  0.
        1    1    3    3  502    0 -0.24023195480E+03 -0.26127725860E+03  0.29669048633E+03  0.46260398040E+03  0.50400001928E-02 0. -1.
       -1    1    3    3    0  502  0.24023195480E+03  0.26127725860E+03 -0.58357040146E+03  0.68303119362E+03  0.50400001928E-02 0.  1.
</event>
<event>
 5   0  0.3992414E-03  0.1069671E+04  0.7818609E-02  0.9235267E-01
        2   -1    0    0  501    0  0.00000000000E+00  0.00000000000E+00  0.22192626220E+04  0.22192626220E+04  0.25500000920E-02 0. -1.
       -2   -1    0    0    0  501  0.00000000000E+00  0.00000000000E+00 -0.12889367912E+03  0.12889367914E+03  0.25500000920E-02 0.  1.
    10030    2    1    2    0    0  0.00000000000E+00  0.00000000000E+00  0.20903689429E+04  0.23481563011E+04  0.10696708359E+04 0.  0.
        1    1    3    3  502    0 -0.40365386676E+03  0.29927254656E+03  0.14472648700E+04  0.15320170055E+04  0.50400001928E-02 0. -1.
       -1    1    3    3    0  502  0.40365386676E+03 -0.29927254656E+03  0.64310407290E+03  0.81613929563E+03  0.50400001928E-02 0.  1.
</event>
<event>
 5   0  0.3992414E-03  0.1108054E+04  0.7818609E-02  0.9197377E-01
        2   -1    0    0  501    0  0.00000000000E+00  0.00000000000E+00  0.70882802175E+03  0.70882802176E+03  0.25500000920E-02 0.  1.
       -2   -1    0    0    0  501  0.00000000000E+00  0.00000000000E+00 -0.43303326383E+03  0.43303326384E+03  0.25500000920E-02 0. -1.
    10030    2    1    2    0    0  0.00000000000E+00  0.00000000000E+00  0.27579475792E+03  0.11418612856E+04  0.11080543520E+04 0.  0.
        1    1    3    3  502    0 -0.31934460628E+02  0.52572114047E+03  0.31502401621E+03  0.61371219487E+03  0.50400001928E-02 0.  1.
       -1    1    3    3    0  502  0.31934460628E+02 -0.52572114047E+03 -0.39229258289E+02  0.52814909074E+03  0.50400001928E-02 0. -1.
</event>
<event>
 5   0  0.3748901E-03  0.1088633E+04  0.7818609E-02  0.9216342E-01
       -2   -1    0    0    0  501  0.00000000000E+00  0.00000000000E+00  0.10662632326E+03  0.10662632329E+03  0.25500000920E-02 0.  1.
        2   -1    0    0  501    0  0.00000000000E+00  0.00000000000E+00 -0.27786795509E+04  0.27786795509E+04  0.25500000920E-02 0. -1.
    10030    2    1    2    0    0  0.00000000000E+00  0.00000000000E+00 -0.26720532277E+04  0.28853058742E+04  0.10886328749E+04 0.  0.
        5    1    3    3  502    0  0.51322413248E+03  0.63420578279E+02 -0.17861030886E+04  0.18594643081E+04  0.46999998093E+01 0. -1.
       -5    1    3    3    0  502 -0.51322413248E+03 -0.63420578279E+02 -0.88595013909E+03  0.10258415662E+04  0.46999998093E+01 0.  1.
</event>
<event>
 5   0  0.3992414E-03  0.1116887E+04  0.7818609E-02  0.9188888E-01
        2   -1    0    0  501    0  0.00000000000E+00  0.00000000000E+00  0.16485673294E+04  0.16485673294E+04  0.25500000920E-02 0.  1.
       -2   -1    0    0    0  501  0.00000000000E+00  0.00000000000E+00 -0.18916968593E+03  0.18916968595E+03  0.25500000920E-02 0. -1.
    10030    2    1    2    0    0  0.00000000000E+00  0.00000000000E+00  0.14593976434E+04  0.18377370153E+04  0.11168866799E+04 0.  0.
        1    1    3    3  502    0 -0.47935941858E+03  0.21763061778E+03  0.42314677298E+03  0.67542707192E+03  0.50400001928E-02 0. -1.
       -1    1    3    3    0  502  0.47935941858E+03 -0.21763061778E+03  0.10362508705E+04  0.11623099434E+04  0.50400001928E-02 0.  1.
</event>
<event>
 5   0  0.2257667E-03  0.1107699E+04  0.7818609E-02  0.9197720E-01
        1   -1    0    0  501    0  0.00000000000E+00  0.00000000000E+00  0.62615227432E+03  0.62615227434E+03  0.50400001928E-02 0.  1.
       -1   -1    0    0    0  501  0.00000000000E+00  0.00000000000E+00 -0.48989568438E+03  0.48989568440E+03  0.50400001928E-02 0. -1.
    10030    2    1    2    0    0  0.00000000000E+00  0.00000000000E+00  0.13625658994E+03  0.11160479587E+04  0.11076990511E+04 0.  0.
        4    1    3    3  502    0 -0.37565977144E+03  0.33048303466E+03  0.30742289749E+03  0.58723909175E+03  0.12699999809E+01 0.  1.
       -4    1    3    3    0  502  0.37565977144E+03 -0.33048303466E+03 -0.17116630755E+03  0.52880886700E+03  0.12699999809E+01 0. -1.
</event>
<event>
 5   0  0.2298958E-03  0.1103159E+04  0.7818609E-02  0.9202118E-01
        1   -1    0    0  501    0  0.00000000000E+00  0.00000000000E+00  0.41453540772E+03  0.41453540775E+03  0.50400001928E-02 0. -1.
       -1   -1    0    0    0  501  0.00000000000E+00  0.00000000000E+00 -0.73393004975E+03  0.73393004977E+03  0.50400001928E-02 0.  1.
    10030    2    1    2    0    0  0.00000000000E+00  0.00000000000E+00 -0.31939464203E+03  0.11484654575E+04  0.11031590863E+04 0.  0.
        1    1    3    3  502    0  0.50997547484E+03  0.17624960085E+03 -0.27885812762E+03  0.60737201294E+03  0.50400001928E-02 0. -1.
       -1    1    3    3    0  502 -0.50997547484E+03 -0.17624960085E+03 -0.40536514408E+02  0.54109344458E+03  0.50400001928E-02 0.  1.
</event>
<event>
 5   0  0.2298958E-03  0.1024531E+04  0.7818609E-02  0.9282042E-01
       -1   -1    0    0    0  501  0.00000000000E+00  0.00000000000E+00  0.13446483505E+03  0.13446483514E+03  0.50400001928E-02 0.  1.
        1   -1    0    0  501    0  0.00000000000E+00  0.00000000000E+00 -0.19515562838E+04  0.19515562838E+04  0.50400001928E-02 0. -1.
    10030    2    1    2    0    0  0.00000000000E+00  0.00000000000E+00 -0.18170914488E+04  0.20860211190E+04  0.10245305147E+04 0.  0.
        1    1    3    3  502    0 -0.53468752442E+02 -0.39821360580E+03 -0.15555651425E+04  0.16066162877E+04  0.50400001928E-02 0. -1.
       -1    1    3    3    0  502  0.53468752442E+02  0.39821360580E+03 -0.26152630626E+03  0.47940483125E+03  0.50400001928E-02 0.  1.
</event>
<event>
 5   0  0.3748901E-03  0.1107497E+04  0.7818609E-02  0.9197916E-01
       -2   -1    0    0    0  501  0.00000000000E+00  0.00000000000E+00  0.43642354053E+03  0.43642354054E+03  0.25500000920E-02 0.  1.
        2   -1    0    0  501    0  0.00000000000E+00  0.00000000000E+00 -0.70261411443E+03  0.70261411444E+03  0.25500000920E-02 0. -1.
    10030    2    1    2    0    0  0.00000000000E+00  0.00000000000E+00 -0.26619057390E+03  0.11390376550E+04  0.11074968884E+04 0.  0.
        5    1    3    3  502    0  0.37425054416E+03  0.23002610590E+03  0.21361022032E+03  0.48849451934E+03  0.46999998093E+01 0.  1.
       -5    1    3    3    0  502 -0.37425054416E+03 -0.23002610590E+03 -0.47980079422E+03  0.65054313564E+03  0.46999998093E+01 0. -1.
</event>
<event>
 5   0  0.3992414E-03  0.1097582E+04  0.7818609E-02  0.9207552E-01
       -2   -1    0    0    0  501  0.00000000000E+00  0.00000000000E+00  0.29890363419E+03  0.29890363421E+03  0.25500000920E-02 0.  1.
        2   -1    0    0  501    0  0.00000000000E+00  0.00000000000E+00 -0.10075873209E+04  0.10075873209E+04  0.25500000920E-02 0. -1.
    10030    2    1    2    0    0  0.00000000000E+00  0.00000000000E+00 -0.70868368666E+03  0.13064909551E+04  0.10975819094E+04 0.  0.
        1    1    3    3  502    0  0.41871630493E+03  0.14461470696E+03  0.31251157812E+02  0.44408714502E+03  0.50400001928E-02 0. -1.
       -1    1    3    3    0  502 -0.41871630493E+03 -0.14461470696E+03 -0.73993484448E+03  0.86240381004E+03  0.50400001928E-02 0.  1.
</event>
<event>
 5   0  0.2255788E-03  0.1103733E+04  0.7818609E-02  0.9201561E-01
       -1   -1    0    0    0  501  0.00000000000E+00  0.00000000000E+00  0.19731035247E+03  0.19731035253E+03  0.50400001928E-02 0. -1.
        1   -1    0    0  501    0  0.00000000000E+00  0.00000000000E+00 -0.15435420407E+04  0.15435420407E+04  0.50400001928E-02 0.  1.
    10030    2    1    2    0    0  0.00000000000E+00  0.00000000000E+00 -0.13462316882E+04  0.17408523932E+04  0.11037333449E+04 0.  0.
        3    1    3    3  502    0 -0.18594994721E+03  0.38415346212E+01 -0.14926201782E+04  0.15041632713E+04  0.10100000352E+00 0.  1.
       -3    1    3    3    0  502  0.18594994721E+03 -0.38415346212E+01  0.14638848994E+03  0.23668912194E+03  0.10100000352E+00 0. -1.
</event>
<event>
 5   0  0.2255788E-03  0.1109806E+04  0.7818609E-02  0.9195687E-01
       -1   -1    0    0    0  501  0.00000000000E+00  0.00000000000E+00  0.10214179596E+04  0.10214179596E+04  0.50400001928E-02 0.  1.
        1   -1    0    0  501    0  0.00000000000E+00  0.00000000000E+00 -0.30146057077E+03  0.30146057081E+03  0.50400001928E-02 0. -1.
    10030    2    1    2    0    0  0.00000000000E+00  0.00000000000E+00  0.71995738880E+03  0.13228785304E+04  0.11098058229E+04 0.  0.
        3    1    3    3  502    0  0.44516448233E+03 -0.74501561720E+02  0.74474505920E+03  0.87084275988E+03  0.10100000352E+00 0.  1.
       -3    1    3    3    0  502 -0.44516448233E+03  0.74501561720E+02 -0.24787670400E+02  0.45203577052E+03  0.10100000352E+00 0. -1.
</event>
<event>
 5   0  0.3992414E-03  0.1059897E+04  0.7818609E-02  0.9245185E-01
        2   -1    0    0  501    0  0.00000000000E+00  0.00000000000E+00  0.15292471558E+04  0.15292471558E+04  0.25500000920E-02 0.  1.
       -2   -1    0    0    0  501  0.00000000000E+00  0.00000000000E+00 -0.18364956715E+03  0.18364956716E+03  0.25500000920E-02 0. -1.
    10030    2    1    2    0    0  0.00000000000E+00  0.00000000000E+00  0.13455975887E+04  0.17128967230E+04  0.10598973125E+04 0.  0.
        1    1    3    3  502    0 -0.81448233563E+02 -0.26569288914E+03  0.14020490554E+04  0.14293243438E+04  0.50400001928E-02 0.  1.
       -1    1    3    3    0  502  0.81448233563E+02  0.26569288914E+03 -0.56451466738E+02  0.28357237914E+03  0.50400001928E-02 0. -1.
</event>
<event>
 5   0  0.2298958E-03  0.1080658E+04  0.7818609E-02  0.9224251E-01
       -1   -1    0    0    0  501  0.00000000000E+00  0.00000000000E+00  0.51071793091E+03  0.51071793094E+03  0.50400001928E-02 0.  1.
        1   -1    0    0  501    0  0.00000000000E+00  0.00000000000E+00 -0.57165734758E+03  0.57165734760E+03  0.50400001928E-02 0. -1.
    10030    2    1    2    0    0  0.00000000000E+00  0.00000000000E+00 -0.60939416664E+02  0.10823752785E+04  0.10806584248E+04 0.  0.
        1    1    3    3  502    0  0.26371614786E+03  0.16478979042E+03 -0.47304701511E+03  0.56610543205E+03  0.50400001928E-02 0. -1.
       -1    1    3    3    0  502 -0.26371614786E+03 -0.16478979042E+03  0.41210759844E+03  0.51626984649E+03  0.50400001928E-02 0.  1.
</event>
<event>
 5   0  0.2374100E-03  0.1097463E+04  0.7818609E-02  0.9207668E-01
       -1   -1    0    0    0  501  0.00000000000E+00  0.00000000000E+00  0.20974197104E+03  0.20974197110E+03  0.50400001928E-02 0. -1.
        1   -1    0    0  501    0  0.00000000000E+00  0.00000000000E+00 -0.14356033264E+04  0.14356033264E+04  0.50400001928E-02 0.  1.
    10030    2    1    2    0    0  0.00000000000E+00  0.00000000000E+00 -0.12258613554E+04  0.16453452975E+04  0.10974630224E+04 0.  0.
        2    1    3    3  502    0  0.16759370203E+03  0.45063069649E+02 -0.13933753884E+04  0.14041414823E+04  0.25500000920E-02 0.  1.
       -2    1    3    3    0  502 -0.16759370203E+03 -0.45063069649E+02  0.16751403305E+03  0.24120381523E+03  0.25500000920E-02 0. -1.
</event>
<event>
 5   0  0.2257667E-03  0.1098400E+04  0.7818609E-02  0.9206752E-01
        1   -1    0    0  501    0  0.00000000000E+00  0.00000000000E+00  0.37887855847E+03  0.37887855850E+03  0.50400001928E-02 0. -1.
       -1   -1    0    0    0  501  0.00000000000E+00  0.00000000000E+00 -0.79608862951E+03  0.79608862953E+03  0.50400001928E-02 0.  1.
    10030    2    1    2    0    0  0.00000000000E+00  0.00000000000E+00 -0.41721007105E+03  0.11749671880E+04  0.10984004960E+04 0.  0.
        4    1    3    3  502    0  0.20575181353E+03  0.69179200100E+02  0.33104061432E+03  0.39586496653E+03  0.12699999809E+01 0. -1.
       -4    1    3    3    0  502 -0.20575181353E+03 -0.69179200100E+02 -0.74825068537E+03  0.77910222150E+03  0.12699999809E+01 0.  1.
</event>
<event>
 5   0  0.2374100E-03  0.1105597E+04  0.7818609E-02  0.9199754E-01
       -1   -1    0    0    0  501  0.00000000000E+00  0.00000000000E+00  0.39752666401E+03  0.39752666404E+03  0.50400001928E-02 0.  1.
        1   -1    0    0  501    0  0.00000000000E+00  0.00000000000E+00 -0.76871880034E+03  0.76871880036E+03  0.50400001928E-02 0. -1.
    10030    2    1    2    0    0  0.00000000000E+00  0.00000000000E+00 -0.37119213633E+03  0.11662454644E+04  0.11055970700E+04 0.  0.
        2    1    3    3  502    0 -0.32969274222E+02  0.28896192545E+03  0.31029864019E+03  0.42528956431E+03  0.25500000920E-02 0.  1.
       -2    1    3    3    0  502  0.32969274222E+02 -0.28896192545E+03 -0.68149077651E+03  0.74095590009E+03  0.25500000920E-02 0. -1.
</event>
<event>
 5   0  0.2298958E-03  0.1100481E+04  0.7818609E-02  0.9204723E-01
        1   -1    0    0  501    0  0.00000000000E+00  0.00000000000E+00  0.39840297954E+03  0.39840297957E+03  0.50400001928E-02 0. -1.
       -1   -1    0    0    0  501  0.00000000000E+00  0.00000000000E+00 -0.75994618424E+03  0.75994618425E+03  0.50400001928E-02 0.  1.
    10030    2    1    2    0    0  0.00000000000E+00  0.00000000000E+00 -0.36154320470E+03  0.11583491638E+04  0.11004813931E+04 0.  0.
        1    1    3    3  502    0  0.43318180089E+03 -0.33805794428E+03 -0.21119069464E+03  0.58866896966E+03  0.50400001928E-02 0.  1.
       -1    1    3    3    0  502 -0.43318180089E+03  0.33805794428E+03 -0.15035251006E+03  0.56968019416E+03  0.50400001928E-02 0. -1.
</event>
<event>
 5   0  0.2255788E-03  0.1077691E+04  0.7818609E-02  0.9227212E-01
       -1   -1    0    0    0  501  0.00000000000E+00  0.00000000000E+00  0.47770643540E+03  0.47770643543E+03  0.50400001928E-02 0.  1.
        1   -1    0    0  501    0  0.00000000000E+00  0.00000000000E+00 -0.60780988610E+03  0.60780988612E+03  0.50400001928E-02 0. -1.
    10030    2    1    2    0    0  0.00000000000E+00  0.00000000000E+00 -0.13010345070E+03  0.10855163216E+04  0.10776914106E+04 0.  0.
        3    1    3    3  502    0 -0.17195175817E+03 -0.24994822270E+03  0.38350534513E+03  0.48899681095E+03  0.10100000352E+00 0.  1.
       -3    1    3    3    0  502  0.17195175817E+03  0.24994822270E+03 -0.51360879584E+03  0.59651951060E+03  0.10100000352E+00 0. -1.
</event>
<event>
 5   0  0.2257667E-03  0.1096688E+04  0.7818609E-02  0.9208426E-01
       -1   -1    0    0    0  501  0.00000000000E+00  0.00000000000E+00  0.63749060584E+03  0.63749060586E+03  0.50400001928E-02 0.  1.
        1   -1    0    0  501    0  0.00000000000E+00  0.00000000000E+00 -0.47166377946E+03  0.47166377949E+03  0.50400001928E-02 0. -1.
    10030    2    1    2    0    0  0.00000000000E+00  0.00000000000E+00  0.16582682638E+03  0.11091543853E+04  0.10966881572E+04 0.  0.
        4    1    3    3  502    0 -0.47704645097E+03 -0.13672931822E+03 -0.15300061623E+03  0.51930629142E+03  0.12699999809E+01 0. -1.
       -4    1    3    3    0  502  0.47704645097E+03  0.13672931822E+03  0.31882744261E+03  0.58984809392E+03  0.12699999809E+01 0.  1.
</event>
<event>
 5   0  0.3962999E-03  0.1107404E+04  0.7818609E-02  0.9198006E-01
        2   -1    0    0  501    0  0.00000000000E+00  0.00000000000E+00  0.20176490209E+04  0.20176490209E+04  0.25500000920E-02 0.  1.
       -2   -1    0    0    0  501  0.00000000000E+00  0.00000000000E+00 -0.15195200204E+03  0.15195200206E+03  0.25500000920E-02 0. -1.
    10030    2    1    2    0    0  0.00000000000E+00  0.00000000000E+00  0.18656970189E+04  0.21696010230E+04  0.11074038255E+04 0.  0.
        3    1    3    3  502    0  0.23517657955E+03  0.46452296238E+03  0.13019660971E+04  0.14022144395E+04  0.10100000352E+00 0.  1.
       -3    1    3    3    0  502 -0.23517657955E+03 -0.46452296238E+03  0.56373092178E+03  0.76738658349E+03  0.10100000352E+00 0. -1.
</event>
<event>
 5   0  0.2374100E-03  0.1093098E+04  0.7818609E-02  0.9211945E-01
       -1   -1    0    0    0  501  0.00000000000E+00  0.00000000000E+00  0.29637257255E+03  0.29637257259E+03  0.50400001928E-02 0.  1.
        1   -1    0    0  501    0  0.00000000000E+00  0.00000000000E+00 -0.10079062674E+04  0.10079062674E+04  0.50400001928E-02 0. -1.
    10030    2    1    2    0    0  0.00000000000E+00  0.00000000000E+00 -0.71153369485E+03  0.13042788400E+04  0.10930979341E+04 0.  0.
        2    1    3    3  502    0  0.30333505184E+03 -0.32617556721E+03  0.22144769441E+02  0.44597426511E+03  0.25500000920E-02 0.  1.
       -2    1    3    3    0  502 -0.30333505184E+03  0.32617556721E+03 -0.73367846429E+03  0.85830457490E+03  0.25500000920E-02 0. -1.
</event>
<event>
 5   0  0.2255788E-03  0.1099622E+04  0.7818609E-02  0.9205560E-01
       -1   -1    0    0    0  501  0.00000000000E+00  0.00000000000E+00  0.23028553561E+03  0.23028553566E+03  0.50400001928E-02 0. -1.
        1   -1    0    0  501    0  0.00000000000E+00  0.00000000000E+00 -0.13126848562E+04  0.13126848562E+04  0.50400001928E-02 0.  1.
    10030    2    1    2    0    0  0.00000000000E+00  0.00000000000E+00 -0.10823993206E+04  0.15429703918E+04  0.10996223629E+04 0.  0.
        3    1    3    3  502    0 -0.30667758049E+03 -0.63499255612E+02 -0.11752905324E+04  0.12163022402E+04  0.10100000352E+00 0.  1.
       -3    1    3    3    0  502  0.30667758049E+03  0.63499255612E+02  0.92891211836E+02  0.32666815161E+03  0.10100000352E+00 0. -1.
</event>
<event>
 5   0  0.1508625E-03  0.1088266E+04  0.7818609E-02  0.9216704E-01
       -4   -1    0    0    0  501  0.00000000000E+00  0.00000000000E+00  0.28110551444E+03  0.28110838328E+03  0.12699999809E+01 0. -1.
        4   -1    0    0  501    0  0.00000000000E+00  0.00000000000E+00 -0.10532643630E+04  0.10532651287E+04  0.12699999809E+01 0.  1.
    10030    2    1    2    0    0  0.00000000000E+00  0.00000000000E+00 -0.77215884859E+03  0.13343735120E+04  0.10882662275E+04 0.  0.
        1    1    3    3  502    0  0.14260206921E+03  0.25984211343E+03 -0.94559396510E+03  0.99095974737E+03  0.50400001928E-02 0.  1.
       -1    1    3    3    0  502 -0.14260206921E+03 -0.25984211343E+03  0.17343511651E+03  0.34341376461E+03  0.50400001928E-02 0. -1.
</event>
<event>
 5   0  0.3992414E-03  0.1095489E+04  0.7818609E-02  0.9209600E-01
       -2   -1    0    0    0  501  0.00000000000E+00  0.00000000000E+00  0.19210154871E+03  0.19210154873E+03  0.25500000920E-02 0.  1.
        2   -1    0    0  501    0  0.00000000000E+00  0.00000000000E+00 -0.15617997916E+04  0.15617997916E+04  0.25500000920E-02 0. -1.
    10030    2    1    2    0    0  0.00000000000E+00  0.00000000000E+00 -0.13696982429E+04  0.17539013403E+04  0.10954892218E+04 0.  0.
        1    1    3    3  502    0 -0.51543602281E+03  0.18380217199E+03 -0.72295970204E+03  0.90671288887E+03  0.50400001928E-02 0. -1.
       -1    1    3    3    0  502  0.51543602281E+03 -0.18380217199E+03 -0.64673854084E+03  0.84718845145E+03  0.50400001928E-02 0.  1.
</event>
<event>
 5   0  0.2298958E-03  0.1105157E+04  0.7818609E-02  0.9200180E-01
        1   -1    0    0  501    0  0.00000000000E+00  0.00000000000E+00  0.16563919441E+04  0.16563919441E+04  0.50400001928E-02 0. -1.
       -1   -1    0    0    0  501  0.00000000000E+00  0.00000000000E+00 -0.18434213133E+03  0.18434213140E+03  0.50400001928E-02 0.  1.
    10030    2    1    2    0    0  0.00000000000E+00  0.00000000000E+00  0.14720498127E+04  0.18407340755E+04  0.11051566791E+04 0.  0.
        1    1    3    3  502    0 -0.27915799148E+02  0.25227575476E+03 -0.81505760841E+02  0.26658120218E+03  0.50400001928E-02 0.  1.
       -1    1    3    3    0  502  0.27915799148E+02 -0.25227575476E+03  0.15535555736E+04  0.15741528733E+04  0.50400001928E-02 0. -1.
</event>
<event>
 5   0  0.3744875E-03  0.1095052E+04  0.7818609E-02  0.9210028E-01
        2   -1    0    0  501    0  0.00000000000E+00  0.00000000000E+00  0.31601948443E+03  0.31601948444E+03  0.25500000920E-02 0. -1.
       -2   -1    0    0    0  501  0.00000000000E+00  0.00000000000E+00 -0.94862796437E+03  0.94862796437E+03  0.25500000920E-02 0.  1.
    10030    2    1    2    0    0  0.00000000000E+00  0.00000000000E+00 -0.63260847994E+03  0.12646474488E+04  0.10950523644E+04 0.  0.
        2    1    3    3  502    0 -0.26928924817E+03  0.16919296286E+03 -0.83102310205E+03  0.88979905260E+03  0.25500000920E-02 0.  1.
       -2    1    3    3    0  502  0.26928924817E+03 -0.16919296286E+03  0.19841462211E+03  0.37484839620E+03  0.25500000920E-02 0. -1.
</event>
<event>
 5   0  0.2300702E-03  0.1108813E+04  0.7818609E-02  0.9196644E-01
        1   -1    0    0  501    0  0.00000000000E+00  0.00000000000E+00  0.46995572789E+03  0.46995572791E+03  0.50400001928E-02 0.  1.
       -1   -1    0    0    0  501  0.00000000000E+00  0.00000000000E+00 -0.65403356994E+03  0.65403356996E+03  0.50400001928E-02 0. -1.
    10030    2    1    2    0    0  0.00000000000E+00  0.00000000000E+00 -0.18407784206E+03  0.11239892979E+04  0.11088134603E+04 0.  0.
        5    1    3    3  502    0 -0.90773414467E+02 -0.54556766394E+03 -0.53294821810E+02  0.55564945491E+03  0.46999998093E+01 0. -1.
       -5    1    3    3    0  502  0.90773414467E+02  0.54556766394E+03 -0.13078302025E+03  0.56833984296E+03  0.46999998093E+01 0.  1.
</event>
<event>
 5   0  0.2257667E-03  0.1094857E+04  0.7818609E-02  0.9210219E-01
       -1   -1    0    0    0  501  0.00000000000E+00  0.00000000000E+00  0.10969570892E+04  0.10969570892E+04  0.50400001928E-02 0.  1.
        1   -1    0    0  501    0  0.00000000000E+00  0.00000000000E+00 -0.27319021935E+03  0.27319021939E+03  0.50400001928E-02 0. -1.
    10030    2    1    2    0    0  0.00000000000E+00  0.00000000000E+00  0.82376686982E+03  0.13701473086E+04  0.10948569730E+04 0.  0.
        4    1    3    3  502    0  0.32101185878E+03 -0.34900861683E+03  0.69572496852E+02  0.47926774701E+03  0.12699999809E+01 0.  1.
       -4    1    3    3    0  502 -0.32101185878E+03  0.34900861683E+03  0.75419437297E+03  0.89087956157E+03  0.12699999809E+01 0. -1.
</event>
<event>
 5   0  0.2255788E-03  0.1072441E+04  0.7818609E-02  0.9232477E-01
        1   -1    0    0  501    0  0.00000000000E+00  0.00000000000E+00  0.76114063924E+03  0.76114063925E+03  0.50400001928E-02 0. -1.
       -1   -1    0    0    0  501  0.00000000000E+00  0.00000000000E+00 -0.37776529566E+03  0.37776529570E+03  0.50400001928E-02 0.  1.
    10030    2    1    2    0    0  0.00000000000E+00  0.00000000000E+00  0.38337534357E+03  0.11389059349E+04  0.10724411754E+04 0.  0.
        3    1    3    3  502    0  0.32582167698E+03 -0.19493448123E+03  0.59380103283E+03  0.70481124704E+03  0.10100000352E+00 0. -1.
       -3    1    3    3    0  502 -0.32582167698E+03  0.19493448123E+03 -0.21042568926E+03  0.43409468791E+03  0.10100000352E+00 0.  1.
</event>
<event>
 5   0  0.1508625E-03  0.9358737E+03  0.7818609E-02  0.9381816E-01
        3   -1    0    0  501    0  0.00000000000E+00  0.00000000000E+00  0.19244070894E+03  0.19244073545E+03  0.10100000352E+00 0.  1.
       -3   -1    0    0    0  501  0.00000000000E+00  0.00000000000E+00 -0.11378302803E+04  0.11378302848E+04  0.10100000352E+00 0. -1.
    10030    2    1    2    0    0  0.00000000000E+00  0.00000000000E+00 -0.94538957139E+03  0.13302710203E+04  0.93587368040E+03 0.  0.
        1    1    3    3  502    0  0.31356441717E+03  0.26068065687E+03 -0.14642407825E+03  0.43326326788E+03  0.50400001928E-02 0.  1.
       -1    1    3    3    0  502 -0.31356441717E+03 -0.26068065687E+03 -0.79896549314E+03  0.89700775238E+03  0.50400001928E-02 0. -1.
</event>
<event>
 5   0  0.3962999E-03  0.1095234E+04  0.7818609E-02  0.9209850E-01
        2   -1    0    0  501    0  0.00000000000E+00  0.00000000000E+00  0.10905120831E+04  0.10905120832E+04  0.25500000920E-02 0. -1.
       -2   -1    0    0    0  501  0.00000000000E+00  0.00000000000E+00 -0.27499397820E+03  0.27499397821E+03  0.25500000920E-02 0.  1.
    10030    2    1    2    0    0  0.00000000000E+00  0.00000000000E+00  0.81551810495E+03  0.13655060614E+04  0.10952337760E+04 0.  0.
        3    1    3    3  502    0  0.34412456780E+03 -0.55509182955E+02 -0.11881737679E+03  0.36826697759E+03  0.10100000352E+00 0.  1.
       -3    1    3    3    0  502 -0.34412456780E+03  0.55509182955E+02  0.93433548174E+03  0.99723908377E+03  0.10100000352E+00 0. -1.
</event>
<event>
 5   0  0.3713158E-03  0.1108870E+04  0.7818609E-02  0.9196590E-01
       -2   -1    0    0    0  501  0.00000000000E+00  0.00000000000E+00  0.31735800455E+03  0.31735800456E+03  0.25500000920E-02 0. -1.
        2   -1    0    0  501    0  0.00000000000E+00  0.00000000000E+00 -0.96861610959E+03  0.96861610959E+03  0.25500000920E-02 0.  1.
    10030    2    1    2    0    0  0.00000000000E+00  0.00000000000E+00 -0.65125810504E+03  0.12859741142E+04  0.11088698314E+04 0.  0.
        4    1    3    3  502    0  0.32915906195E+03  0.41263366450E+03 -0.52238550993E+03  0.74263077167E+03  0.12699999809E+01 0.  1.
       -4    1    3    3    0  502 -0.32915906195E+03 -0.41263366450E+03 -0.12887259511E+03  0.54334334248E+03  0.12699999809E+01 0. -1.
</event>
<event>
 5   0  0.2257667E-03  0.1081896E+04  0.7818609E-02  0.9223019E-01
       -1   -1    0    0    0  501  0.00000000000E+00  0.00000000000E+00  0.27343976316E+03  0.27343976320E+03  0.50400001928E-02 0.  1.
        1   -1    0    0  501    0  0.00000000000E+00  0.00000000000E+00 -0.10701619398E+04  0.10701619398E+04  0.50400001928E-02 0. -1.
    10030    2    1    2    0    0  0.00000000000E+00  0.00000000000E+00 -0.79672217661E+03  0.13436017030E+04  0.10818961639E+04 0.  0.
        4    1    3    3  502    0  0.14185288056E+03 -0.11221438613E+03  0.23477277951E+03  0.29636831659E+03  0.12699999809E+01 0.  1.
       -4    1    3    3    0  502 -0.14185288056E+03  0.11221438613E+03 -0.10314949561E+04  0.10472333864E+04  0.12699999809E+01 0. -1.
</event>
<event>
 5   0  0.2300702E-03  0.1100054E+04  0.7818609E-02  0.9205139E-01
       -1   -1    0    0    0  501  0.00000000000E+00  0.00000000000E+00  0.33100489682E+03  0.33100489686E+03  0.50400001928E-02 0.  1.
        1   -1    0    0  501    0  0.00000000000E+00  0.00000000000E+00 -0.91397398711E+03  0.91397398712E+03  0.50400001928E-02 0. -1.
    10030    2    1    2    0    0  0.00000000000E+00  0.00000000000E+00 -0.58296909029E+03  0.12449788840E+04  0.11000542993E+04 0.  0.
        5    1    3    3  502    0  0.45463839539E+03  0.18066314792E+03 -0.70305721597E+01  0.48929210347E+03  0.46999998093E+01 0.  1.
       -5    1    3    3    0  502 -0.45463839539E+03 -0.18066314792E+03 -0.57593851813E+03  0.75568678051E+03  0.46999998093E+01 0. -1.
</event>
<event>
 5   0  0.3962999E-03  0.1097602E+04  0.7818609E-02  0.9207532E-01
        2   -1    0    0  501    0  0.00000000000E+00  0.00000000000E+00  0.28982061926E+03  0.28982061927E+03  0.25500000920E-02 0. -1.
       -2   -1    0    0    0  501  0.00000000000E+00  0.00000000000E+00 -0.10392028780E+04  0.10392028780E+04  0.25500000920E-02 0.  1.
    10030    2    1    2    0    0  0.00000000000E+00  0.00000000000E+00 -0.74938225873E+03  0.13290234973E+04  0.10976017887E+04 0.  0.
        3    1    3    3  502    0 -0.39030764563E+03  0.66121639584E+02  0.85541190204E+02  0.40500547512E+03  0.10100000352E+00 0. -1.
       -3    1    3    3    0  502  0.39030764563E+03 -0.66121639584E+02 -0.83492344894E+03  0.92401802214E+03  0.10100000352E+00 0.  1.
</event>
<event>
 5   0  0.2257667E-03  0.1099163E+04  0.7818609E-02  0.9206008E-01
       -1   -1    0    0    0  501  0.00000000000E+00  0.00000000000E+00  0.75649392054E+03  0.75649392056E+03  0.50400001928E-02 0. -1.
        1   -1    0    0  501    0  0.00000000000E+00  0.00000000000E+00 -0.39926259641E+03  0.39926259644E+03  0.50400001928E-02 0.  1.
    10030    2    1    2    0    0  0.00000000000E+00  0.00000000000E+00  0.35723132413E+03  0.11557565170E+04  0.10991628213E+04 0.  0.
        4    1    3    3  502    0 -0.13799749019E+03 -0.13763355291E+03  0.71893299150E+03  0.74488426038E+03  0.12699999809E+01 0. -1.
       -4    1    3    3    0  502  0.13799749019E+03  0.13763355291E+03 -0.36170166737E+03  0.41087225663E+03  0.12699999809E+01 0.  1.
</event>
<event>
 5   0  0.3962999E-03  0.1112867E+04  0.7818609E-02  0.9192741E-01
       -2   -1    0    0    0  501  0.00000000000E+00  0.00000000000E+00  0.22592841245E+03  0.22592841246E+03  0.25500000920E-02 0.  1.
        2   -1    0    0  501    0  0.00000000000E+00  0.00000000000E+00 -0.13704264025E+04  0.13704264025E+04  0.25500000920E-02 0. -1.
    10030    2    1    2    0    0  0.00000000000E+00  0.00000000000E+00 -0.11444979900E+04  0.15963548149E+04  0.11128670388E+04 0.  0.
        3    1    3    3  502    0  0.15183243287E+03  0.52590059079E+03 -0.71564927573E+03  0.90098746668E+03  0.10100000352E+00 0. -1.
       -3    1    3    3    0  502 -0.15183243287E+03 -0.52590059079E+03 -0.42884871429E+03  0.69536734825E+03  0.10100000352E+00 0.  1.
</event>
<event>
 5   0  0.2300702E-03  0.1086541E+04  0.7818609E-02  0.9218410E-01
        1   -1    0    0  501    0  0.00000000000E+00  0.00000000000E+00  0.12465898913E+04  0.12465898913E+04  0.50400001928E-02 0.  1.
       -1   -1    0    0    0  501  0.00000000000E+00  0.00000000000E+00 -0.23676013338E+03  0.23676013343E+03  0.50400001928E-02 0. -1.
    10030    2    1    2    0    0  0.00000000000E+00  0.00000000000E+00  0.10098297579E+04  0.14833500247E+04  0.10865409131E+04 0.  0.
        5    1    3    3  502    0  0.21768058544E+03 -0.71922626801E+02 -0.16745745377E+03  0.28393976535E+03  0.46999998093E+01 0. -1.
       -5    1    3    3    0  502 -0.21768058544E+03  0.71922626801E+02  0.11772872117E+04  0.11994102594E+04  0.46999998093E+01 0.  1.
</event>
<event>
 5   0  0.2374100E-03  0.1108385E+04  0.7818609E-02  0.9197058E-01
        1   -1    0    0  501    0  0.00000000000E+00  0.00000000000E+00  0.69416665370E+03  0.69416665372E+03  0.50400001928E-02 0.  1.
       -1   -1    0    0    0  501  0.00000000000E+00  0.00000000000E+00 -0.44244317711E+03  0.44244317714E+03  0.50400001928E-02 0. -1.
    10030    2    1    2    0    0  0.00000000000E+00  0.00000000000E+00  0.25172347659E+03  0.11366098309E+04  0.11083849507E+04 0.  0.
        2    1    3    3  502    0 -0.39677781938E+03 -0.38226625815E+03  0.18712560214E+03  0.58187294236E+03  0.25500000920E-02 0.  1.
       -2    1    3    3    0  502  0.39677781938E+03  0.38226625815E+03  0.64597874450E+02  0.55473688850E+03  0.25500000920E-02 0. -1.
</event>
<event>
 5   0  0.3748901E-03  0.1102790E+04  0.7818609E-02  0.9202477E-01
        2   -1    0    0  501    0  0.00000000000E+00  0.00000000000E+00  0.30876936508E+03  0.30876936510E+03  0.25500000920E-02 0.  1.
       -2   -1    0    0    0  501  0.00000000000E+00  0.00000000000E+00 -0.98467110407E+03  0.98467110408E+03  0.25500000920E-02 0. -1.
    10030    2    1    2    0    0  0.00000000000E+00  0.00000000000E+00 -0.67590173899E+03  0.12934404692E+04  0.11027896837E+04 0.  0.
        5    1    3    3  502    0 -0.28794051537E+03 -0.31602466894E+03 -0.74633034542E+03  0.86012348315E+03  0.46999998093E+01 0. -1.
       -5    1    3    3    0  502  0.28794051537E+03  0.31602466894E+03  0.70428606435E+02  0.43331698602E+03  0.46999998093E+01 0.  1.
</event>
<event>
 5   0  0.2298958E-03  0.1035828E+04  0.7818609E-02  0.9270099E-01
       -1   -1    0    0    0  501  0.00000000000E+00  0.00000000000E+00  0.93191121670E+03  0.93191121672E+03  0.50400001928E-02 0.  1.
        1   -1    0    0  501    0  0.00000000000E+00  0.00000000000E+00 -0.28783307424E+03  0.28783307428E+03  0.50400001928E-02 0. -1.
    10030    2    1    2    0    0  0.00000000000E+00  0.00000000000E+00  0.64407814247E+03  0.12197442910E+04  0.10358279209E+04 0.  0.
        1    1    3    3  502    0  0.30383292366E+03 -0.23223277515E+02  0.81518173975E+03  0.87027296578E+03  0.50400001928E-02 0.  1.
       -1    1    3    3    0  502 -0.30383292366E+03  0.23223277515E+02 -0.17110359728E+03  0.34947132522E+03  0.50400001928E-02 0. -1.
</event>
<event>
 5   0  0.2298958E-03  0.1101573E+04  0.7818609E-02  0.9203661E-01
       -1   -1    0    0    0  501  0.00000000000E+00  0.00000000000E+00  0.97023364162E+03  0.97023364163E+03  0.50400001928E-02 0.  1.
        1   -1    0    0  501    0  0.00000000000E+00  0.00000000000E+00 -0.31267265154E+03  0.31267265158E+03  0.50400001928E-02 0. -1.
    10030    2    1    2    0    0  0.00000000000E+00  0.00000000000E+00  0.65756099008E+03  0.12829062932E+04  0.11015725584E+04 0.  0.
        1    1    3    3  502    0  0.46776806484E+03  0.27998659827E+03  0.23733001923E+03  0.59457967990E+03  0.50400001928E-02 0.  1.
       -1    1    3    3    0  502 -0.46776806484E+03 -0.27998659827E+03  0.42023097086E+03  0.68832661331E+03  0.50400001928E-02 0. -1.
</event>
<event>
 5   0  0.3962999E-03  0.1090988E+04  0.7818609E-02  0.9214021E-01
       -2   -1    0    0    0  501  0.00000000000E+00  0.00000000000E+00  0.48547012500E+03  0.48547012501E+03  0.25500000920E-02 0. -1.
        2   -1    0    0  501    0  0.00000000000E+00  0.00000000000E+00 -0.61293881227E+03  0.61293881227E+03  0.25500000920E-02 0.  1.
    10030    2    1    2    0    0  0.00000000000E+00  0.00000000000E+00 -0.12746868726E+03  0.10984089373E+04  0.10909875926E+04 0.  0.
        3    1    3    3  502    0 -0.10221931360E+03 -0.46659971287E+03 -0.32896399693E+03  0.57998396668E+03  0.10100000352E+00 0.  1.
       -3    1    3    3    0  502  0.10221931360E+03  0.46659971287E+03  0.20149530967E+03  0.51842497060E+03  0.10100000352E+00 0. -1.
</event>
<event>
 5   0  0.2257667E-03  0.1104507E+04  0.7818609E-02  0.9200810E-01
        1   -1    0    0  501    0  0.00000000000E+00  0.00000000000E+00  0.35800036245E+03  0.35800036249E+03  0.50400001928E-02 0.  1.
       -1   -1    0    0    0  501  0.00000000000E+00  0.00000000000E+00 -0.85191019080E+03  0.85191019082E+03  0.50400001928E-02 0. -1.
    10030    2    1    2    0    0  0.00000000000E+00  0.00000000000E+00 -0.49390982835E+03  0.12099105533E+04  0.11045074144E+04 0.  0.
        4    1    3    3  502    0  0.16069834003E+03 -0.38796987895E+03 -0.63984331069E+03  0.76534022408E+03  0.12699999809E+01 0. -1.
       -4    1    3    3    0  502 -0.16069834003E+03  0.38796987895E+03  0.14593348234E+03  0.44457032923E+03  0.12699999809E+01 0.  1.
</event>
<event>
 5   0  0.2298958E-03  0.1120416E+04  0.7818609E-02  0.9185519E-01
        1   -1    0    0  501    0  0.00000000000E+00  0.00000000000E+00  0.61700485472E+03  0.61700485474E+03  0.50400001928E-02 0.  1.
       -1   -1    0    0    0  501  0.00000000000E+00  0.00000000000E+00 -0.50863921764E+03  0.50863921767E+03  0.50400001928E-02 0. -1.
    10030    2    1    2    0    0  0.00000000000E+00  0.00000000000E+00  0.10836563708E+03  0.11256440724E+04  0.11204157561E+04 0.  0.
        1    1    3    3  502    0  0.40887194099E+03  0.37736503295E+03 -0.11330632501E+02  0.55651506313E+03  0.50400001928E-02 0. -1.
       -1    1    3    3    0  502 -0.40887194099E+03 -0.37736503295E+03  0.11969626958E+03  0.56912900928E+03  0.50400001928E-02 0.  1.
</event>
<event>
 5   0  0.3748901E-03  0.1089836E+04  0.7818609E-02  0.9215156E-01
       -2   -1    0    0    0  501  0.00000000000E+00  0.00000000000E+00  0.26176111610E+03  0.26176111611E+03  0.25500000920E-02 0.  1.
        2   -1    0    0  501    0  0.00000000000E+00  0.00000000000E+00 -0.11343753861E+04  0.11343753861E+04  0.25500000920E-02 0. -1.
    10030    2    1    2    0    0  0.00000000000E+00  0.00000000000E+00 -0.87261426997E+03  0.13961365022E+04  0.10898355236E+04 0.  0.
        5    1    3    3  502    0  0.16118101810E+03  0.36846099483E+03  0.34678655625E+02  0.40369236364E+03  0.46999998093E+01 0.  1.
       -5    1    3    3    0  502 -0.16118101810E+03 -0.36846099483E+03 -0.90729292559E+03  0.99244413854E+03  0.46999998093E+01 0. -1.
</event>
<event>
 5   0  0.2300702E-03  0.1104349E+04  0.7818609E-02  0.9200963E-01
        1   -1    0    0  501    0  0.00000000000E+00  0.00000000000E+00  0.20668771986E+03  0.20668771992E+03  0.50400001928E-02 0. -1.
       -1   -1    0    0    0  501  0.00000000000E+00  0.00000000000E+00 -0.14751571156E+04  0.14751571156E+04  0.50400001928E-02 0.  1.
    10030    2    1    2    0    0  0.00000000000E+00  0.00000000000E+00 -0.12684693957E+04  0.16818448355E+04  0.11043493301E+04 0.  0.
        5    1    3    3  502    0  0.14900673653E+03  0.42777722217E+03 -0.11150519120E+04  0.12035610561E+04  0.46999998093E+01 0.  1.
       -5    1    3    3    0  502 -0.14900673653E+03 -0.42777722217E+03 -0.15341748375E+03  0.47828377943E+03  0.46999998093E+01 0. -1.
</event>
<event>
 5   0  0.3962999E-03  0.1109616E+04  0.7818609E-02  0.9195870E-01
       -2   -1    0    0    0  501  0.00000000000E+00  0.00000000000E+00  0.84215861710E+03  0.84215861710E+03  0.25500000920E-02 0.  1.
        2   -1    0    0  501    0  0.00000000000E+00  0.00000000000E+00 -0.36550370862E+03  0.36550370863E+03  0.25500000920E-02 0. -1.
    10030    2    1    2    0    0  0.00000000000E+00  0.00000000000E+00  0.47665490848E+03  0.12076623257E+04  0.11096163261E+04 0.  0.
        3    1    3    3  502    0 -0.52278663616E+03  0.60526542070E+02  0.47188464613E+02  0.52839009324E+03  0.10100000352E+00 0. -1.
       -3    1    3    3    0  502  0.52278663616E+03 -0.60526542070E+02  0.42946644386E+03  0.67927223250E+03  0.10100000352E+00 0.  1.
</event>
<event>
 5   0  0.2374100E-03  0.1094573E+04  0.7818609E-02  0.9210498E-01
       -1   -1    0    0    0  501  0.00000000000E+00  0.00000000000E+00  0.53591085693E+03  0.53591085695E+03  0.50400001928E-02 0.  1.
        1   -1    0    0  501    0  0.00000000000E+00  0.00000000000E+00 -0.55890320232E+03  0.55890320234E+03  0.50400001928E-02 0. -1.
    10030    2    1    2    0    0  0.00000000000E+00  0.00000000000E+00 -0.22992345389E+02  0.10948140593E+04  0.10945725999E+04 0.  0.
        2    1    3    3  502    0 -0.51229576555E+03  0.44153483428E+02 -0.19895633277E+03  0.55134390707E+03  0.25500000920E-02 0. -1.
       -2    1    3    3    0  502  0.51229576555E+03 -0.44153483428E+02  0.17596398738E+03  0.54347015223E+03  0.25500000920E-02 0.  1.
</event>
<event>
 5   0  0.2257667E-03  0.1104972E+04  0.7818609E-02  0.9200359E-01
       -1   -1    0    0    0  501  0.00000000000E+00  0.00000000000E+00  0.42470246624E+03  0.42470246627E+03  0.50400001928E-02 0.  1.
        1   -1    0    0  501    0  0.00000000000E+00  0.00000000000E+00 -0.71871661162E+03  0.71871661163E+03  0.50400001928E-02 0. -1.
    10030    2    1    2    0    0  0.00000000000E+00  0.00000000000E+00 -0.29401414538E+03  0.11434190779E+04  0.11049718865E+04 0.  0.
        4    1    3    3  502    0 -0.37695208669E+03 -0.26926280894E+03 -0.45855379208E+03  0.65181939912E+03  0.12699999809E+01 0. -1.
       -4    1    3    3    0  502  0.37695208669E+03  0.26926280894E+03  0.16453964670E+03  0.49159967878E+03  0.12699999809E+01 0.  1.
</event>
<event>
 5   0  0.2298958E-03  0.1101807E+04  0.7818609E-02  0.9203432E-01
       -1   -1    0    0    0  501  0.00000000000E+00  0.00000000000E+00  0.25144378896E+03  0.25144378901E+03  0.50400001928E-02 0. -1.
        1   -1    0    0  501    0  0.00000000000E+00  0.00000000000E+00 -0.12070085675E+04  0.12070085675E+04  0.50400001928E-02 0.  1.
    10030    2    1    2    0    0  0.00000000000E+00  0.00000000000E+00 -0.95556477854E+03  0.14584523565E+04  0.11018072564E+04 0.  0.
        1    1    3    3  502    0  0.27222380246E+03  0.46843635422E+03 -0.34570222844E+03  0.64268845280E+03  0.50400001928E-02 0.  1.
       -1    1    3    3    0  502 -0.27222380246E+03 -0.46843635422E+03 -0.60986255010E+03  0.81576390373E+03  0.50400001928E-02 0. -1.
</event>
<event>
 5   0  0.2257667E-03  0.1103049E+04  0.7818609E-02  0.9202225E-01
        1   -1    0    0  501    0  0.00000000000E+00  0.00000000000E+00  0.11087743887E+04  0.11087743887E+04  0.50400001928E-02 0.  1.
       -1   -1    0    0    0  501  0.00000000000E+00  0.00000000000E+00 -0.27433819280E+03  0.27433819284E+03  0.50400001928E-02 0. -1.
    10030    2    1    2    0    0  0.00000000000E+00  0.00000000000E+00  0.83443619589E+03  0.13831125815E+04  0.11030487968E+04 0.  0.
        4    1    3    3  502    0 -0.29002734612E+03 -0.11932147336E+03  0.98608529487E+03  0.10347556703E+04  0.12699999809E+01 0.  1.
       -4    1    3    3    0  502  0.29002734612E+03  0.11932147336E+03 -0.15164909898E+03  0.34835691127E+03  0.12699999809E+01 0. -1.
</event>
<event>
 5   0  0.3744875E-03  0.1092854E+04  0.7818609E-02  0.9212185E-01
       -2   -1    0    0    0  501  0.00000000000E+00  0.00000000000E+00  0.20139851999E+03  0.20139852001E+03  0.25500000920E-02 0.  1.
        2   -1    0    0  501    0  0.00000000000E+00  0.00000000000E+00 -0.14825442266E+04  0.14825442266E+04  0.25500000920E-02 0. -1.
    10030    2    1    2    0    0  0.00000000000E+00  0.00000000000E+00 -0.12811457066E+04  0.16839427466E+04  0.10928535365E+04 0.  0.
        2    1    3    3  502    0  0.36698944733E+03  0.29931871059E+03 -0.10606091796E+04  0.11615355255E+04  0.25500000920E-02 0. -1.
       -2    1    3    3    0  502 -0.36698944733E+03 -0.29931871059E+03 -0.22053652693E+03  0.52240722112E+03  0.25500000920E-02 0.  1.
</event>
<event>
 5   0  0.3992414E-03  0.1094792E+04  0.7818609E-02  0.9210283E-01
       -2   -1    0    0    0  501  0.00000000000E+00  0.00000000000E+00  0.26824009239E+03  0.26824009240E+03  0.25500000920E-02 0.  1.
        2   -1    0    0  501    0  0.00000000000E+00  0.00000000000E+00 -0.11170685145E+04  0.11170685145E+04  0.25500000920E-02 0. -1.
    10030    2    1    2    0    0  0.00000000000E+00  0.00000000000E+00 -0.84882842216E+03  0.13853086069E+04  0.10947923302E+04 0.  0.
        1    1    3    3  502    0  0.40859601658E+01 -0.51125676001E+03 -0.67186412646E+03  0.84427576903E+03  0.50400001928E-02 0.  1.
       -1    1    3    3    0  502 -0.40859601658E+01  0.51125676001E+03 -0.17696429570E+03  0.54103283791E+03  0.50400001928E-02 0. -1.
</event>
<event>
 5   0  0.3962999E-03  0.1099668E+04  0.7818609E-02  0.9205515E-01
        2   -1    0    0  501    0  0.00000000000E+00  0.00000000000E+00  0.12366790549E+04  0.12366790549E+04  0.25500000920E-02 0. -1.
       -2   -1    0    0    0  501  0.00000000000E+00  0.00000000000E+00 -0.24445921387E+03  0.24445921389E+03  0.25500000920E-02 0.  1.
    10030    2    1    2    0    0  0.00000000000E+00  0.00000000000E+00  0.99221984098E+03  0.14811382687E+04  0.10996682947E+04 0.  0.
        3    1    3    3  502    0 -0.15130537470E+03  0.22286488175E+02  0.12074538427E+04  0.12171009804E+04  0.10100000352E+00 0. -1.
       -3    1    3    3    0  502  0.15130537470E+03 -0.22286488175E+02 -0.21523400171E+03  0.26403728839E+03  0.10100000352E+00 0.  1.
</event>
<event>
 5   0  0.3992414E-03  0.1141735E+04  0.7818609E-02  0.9165442E-01
       -2   -1    0    0    0  501  0.00000000000E+00  0.00000000000E+00  0.80568340619E+03  0.80568340620E+03  0.25500000920E-02 0.  1.
        2   -1    0    0  501    0  0.00000000000E+00  0.00000000000E+00 -0.40448868923E+03  0.40448868924E+03  0.25500000920E-02 0. -1.
    10030    2    1    2    0    0  0.00000000000E+00  0.00000000000E+00  0.40119471696E+03  0.12101720954E+04  0.11417352143E+04 0.  0.
        1    1    3    3  502    0 -0.22324845860E+03  0.25281027413E+03  0.68878846535E+03  0.76693054379E+03  0.50400001928E-02 0.  1.
       -1    1    3    3    0  502  0.22324845860E+03 -0.25281027413E+03 -0.28759374839E+03  0.44324155165E+03  0.50400001928E-02 0. -1.
</event>
<event>
 5   0  0.3713158E-03  0.1114173E+04  0.7818609E-02  0.9191487E-01
       -2   -1    0    0    0  501  0.00000000000E+00  0.00000000000E+00  0.41468969475E+03  0.41468969475E+03  0.25500000920E-02 0. -1.
        2   -1    0    0  501    0  0.00000000000E+00  0.00000000000E+00 -0.74837947332E+03  0.74837947332E+03  0.25500000920E-02 0.  1.
    10030    2    1    2    0    0  0.00000000000E+00  0.00000000000E+00 -0.33368977857E+03  0.11630691681E+04  0.11141727969E+04 0.  0.
        4    1    3    3  502    0 -0.46909693565E+03 -0.29197381631E+02  0.14534367804E+03  0.49196627910E+03  0.12699999809E+01 0. -1.
       -4    1    3    3    0  502  0.46909693565E+03  0.29197381631E+02 -0.47903345661E+03  0.67110288897E+03  0.12699999809E+01 0.  1.
</event>
<event>
 5   0  0.2255788E-03  0.1102439E+04  0.7818609E-02  0.9202818E-01
       -1   -1    0    0    0  501  0.00000000000E+00  0.00000000000E+00  0.29156764358E+03  0.29156764362E+03  0.50400001928E-02 0.  1.
        1   -1    0    0  501    0  0.00000000000E+00  0.00000000000E+00 -0.10421003305E+04  0.10421003306E+04  0.50400001928E-02 0. -1.
    10030    2    1    2    0    0  0.00000000000E+00  0.00000000000E+00 -0.75053268696E+03  0.13336679742E+04  0.11024386383E+04 0.  0.
        3    1    3    3  502    0  0.32648754980E+03  0.21887570396E+02  0.16136030236E+03  0.36484290220E+03  0.10100000352E+00 0.  1.
       -3    1    3    3    0  502 -0.32648754980E+03 -0.21887570396E+02 -0.91189298932E+03  0.96882507197E+03  0.10100000352E+00 0. -1.
</event>
<event>
 5   0  0.2298958E-03  0.1057280E+04  0.7818609E-02  0.9247860E-01
       -1   -1    0    0    0  501  0.00000000000E+00  0.00000000000E+00  0.20153781193E+03  0.20153781199E+03  0.50400001928E-02 0.  1.
        1   -1    0    0  501    0  0.00000000000E+00  0.00000000000E+00 -0.13866395133E+04  0.13866395133E+04  0.50400001928E-02 0. -1.
    10030    2    1    2    0    0  0.00000000000E+00  0.00000000000E+00 -0.11851017014E+04  0.15881773253E+04  0.10572800831E+04 0.  0.
        1    1    3    3  502    0 -0.22116788151E+02 -0.35869345733E+03 -0.11749263379E+04  0.12286586378E+04  0.50400001928E-02 0. -1.
       -1    1    3    3    0  502  0.22116788151E+02  0.35869345733E+03 -0.10175363482E+02  0.35951868755E+03  0.50400001928E-02 0.  1.
</event>
<event>
 5   0  0.2300702E-03  0.1085903E+04  0.7818609E-02  0.9219042E-01
       -1   -1    0    0    0  501  0.00000000000E+00  0.00000000000E+00  0.14257806249E+03  0.14257806258E+03  0.50400001928E-02 0. -1.
        1   -1    0    0  501    0  0.00000000000E+00  0.00000000000E+00 -0.20676133482E+04  0.20676133482E+04  0.50400001928E-02 0.  1.
    10030    2    1    2    0    0  0.00000000000E+00  0.00000000000E+00 -0.19250352857E+04  0.22101914108E+04  0.10859029520E+04 0.  0.
        5    1    3    3  502    0  0.31668915005E+03 -0.70174834300E+02 -0.76362877910E+02  0.33327151731E+03  0.46999998093E+01 0. -1.
       -5    1    3    3    0  502 -0.31668915005E+03  0.70174834300E+02 -0.18486724078E+04  0.18769198935E+04  0.46999998093E+01 0.  1.
</event>
<event>
 5   0  0.2298958E-03  0.1104092E+04  0.7818609E-02  0.9201213E-01
        1   -1    0    0  501    0  0.00000000000E+00  0.00000000000E+00  0.67960471858E+03  0.67960471859E+03  0.50400001928E-02 0. -1.
       -1   -1    0    0    0  501  0.00000000000E+00  0.00000000000E+00 -0.44842944225E+03  0.44842944227E+03  0.50400001928E-02 0.  1.
    10030    2    1    2    0    0  0.00000000000E+00  0.00000000000E+00  0.23117527633E+03  0.11280341609E+04  0.11040919616E+04 0.  0.
        1    1    3    3  502    0  0.20127449621E+02 -0.52743455403E+03 -0.49667945404E+02  0.53015019367E+03  0.50400001928E-02 0.  1.
       -1    1    3    3    0  502 -0.20127449621E+02  0.52743455403E+03  0.28084322173E+03  0.59788396720E+03  0.50400001928E-02 0. -1.
</event>
<event>
 5   0  0.2257667E-03  0.1092472E+04  0.7818609E-02  0.9212561E-01
        1   -1    0    0  501    0  0.00000000000E+00  0.00000000000E+00  0.79954122844E+03  0.79954122845E+03  0.50400001928E-02 0. -1.
       -1   -1    0    0    0  501  0.00000000000E+00  0.00000000000E+00 -0.37318099931E+03  0.37318099935E+03  0.50400001928E-02 0.  1.
    10030    2    1    2    0    0  0.00000000000E+00  0.00000000000E+00  0.42636022912E+03  0.11727222278E+04  0.10924716832E+04 0.  0.
        4    1    3    3  502    0  0.53125568348E+02  0.16608841657E+03  0.76885840764E+03  0.78838604252E+03  0.12699999809E+01 0. -1.
       -4    1    3    3    0  502 -0.53125568348E+02 -0.16608841657E+03 -0.34249817852E+03  0.38433618528E+03  0.12699999809E+01 0.  1.
</event>
<event>
 5   0  0.2255788E-03  0.1102800E+04  0.7818609E-02  0.9202467E-01
       -1   -1    0    0    0  501  0.00000000000E+00  0.00000000000E+00  0.97963796210E+03  0.97963796211E+03  0.50400001928E-02 0. -1.
        1   -1    0    0  501    0  0.00000000000E+00  0.00000000000E+00 -0.31036163298E+03  0.31036163302E+03  0.50400001928E-02 0.  1.
    10030    2    1    2    0    0  0.00000000000E+00  0.00000000000E+00  0.66927632912E+03  0.12899995951E+04  0.11028001409E+04 0.  0.
        3    1    3    3  502    0  0.12131545119E+02  0.32850285096E+03 -0.18320642918E+03  0.37633217158E+03  0.10100000352E+00 0.  1.
       -3    1    3    3    0  502 -0.12131545119E+02 -0.32850285096E+03  0.85248275829E+03  0.91366742355E+03  0.10100000352E+00 0. -1.
</event>
<event>
 5   0  0.3713158E-03  0.1094576E+04  0.7818609E-02  0.9210495E-01
        2   -1    0    0  501    0  0.00000000000E+00  0.00000000000E+00  0.11228853598E+04  0.11228853598E+04  0.25500000920E-02 0. -1.
       -2   -1    0    0    0  501  0.00000000000E+00  0.00000000000E+00 -0.26674514137E+03  0.26674514138E+03  0.25500000920E-02 0.  1.
    10030    2    1    2    0    0  0.00000000000E+00  0.00000000000E+00  0.85614021841E+03  0.13896305012E+04  0.10945761080E+04 0.  0.
        4    1    3    3  502    0  0.11873335882E+03  0.34061324692E+03 -0.94470235116E+02  0.37288233090E+03  0.12699999809E+01 0.  1.
       -4    1    3    3    0  502 -0.11873335882E+03 -0.34061324692E+03  0.95061045353E+03  0.10167481703E+04  0.12699999809E+01 0. -1.
</event>
<event>
 5   0  0.2374100E-03  0.1197995E+04  0.7818609E-02  0.9114614E-01
        1   -1    0    0  501    0  0.00000000000E+00  0.00000000000E+00  0.65910326688E+03  0.65910326690E+03  0.50400001928E-02 0. -1.
       -1   -1    0    0    0  501  0.00000000000E+00  0.00000000000E+00 -0.54437272999E+03  0.54437273001E+03  0.50400001928E-02 0.  1.
    10030    2    1    2    0    0  0.00000000000E+00  0.00000000000E+00  0.11473053689E+03  0.12034759969E+04  0.11979947325E+04 0.  0.
        2    1    3    3  502    0  0.49319940100E+03 -0.32982670405E+03  0.14000062025E+03  0.60961584422E+03  0.25500000920E-02 0.  1.
       -2    1    3    3    0  502 -0.49319940100E+03  0.32982670405E+03 -0.25270083355E+02  0.59386015270E+03  0.25500000920E-02 0. -1.
</event>
<event>
 5   0  0.2255788E-03  0.1092401E+04  0.7818609E-02  0.9212630E-01
       -1   -1    0    0    0  501  0.00000000000E+00  0.00000000000E+00  0.29010613654E+03  0.29010613658E+03  0.50400001928E-02 0.  1.
        1   -1    0    0  501    0  0.00000000000E+00  0.00000000000E+00 -0.10283650536E+04  0.10283650536E+04  0.50400001928E-02 0. -1.
    10030    2    1    2    0    0  0.00000000000E+00  0.00000000000E+00 -0.73825891702E+03  0.13184711902E+04  0.10924010485E+04 0.  0.
        3    1    3    3  502    0  0.29130093304E+03 -0.15940978791E+02 -0.92645281686E+03  0.97130076726E+03  0.10100000352E+00 0. -1.
       -3    1    3    3    0  502 -0.29130093304E+03  0.15940978791E+02  0.18819389984E+03  0.34717042290E+03  0.10100000352E+00 0.  1.
</event>
<event>
 5   0  0.3748901E-03  0.1094294E+04  0.7818609E-02  0.9210771E-01
        2   -1    0    0  501    0  0.00000000000E+00  0.00000000000E+00  0.20386007073E+04  0.20386007073E+04  0.25500000920E-02 0.  1.
       -2   -1    0    0    0  501  0.00000000000E+00  0.00000000000E+00 -0.14685075041E+03  0.14685075043E+03  0.25500000920E-02 0. -1.
    10030    2    1    2    0    0  0.00000000000E+00  0.00000000000E+00  0.18917499569E+04  0.21854514577E+04  0.10942943730E+04 0.  0.
        5    1    3    3  502    0  0.10449276535E+03 -0.53498040937E+03  0.85166664873E+03  0.10111779997E+04  0.46999998093E+01 0. -1.
       -5    1    3    3    0  502 -0.10449276535E+03  0.53498040937E+03  0.10400833081E+04  0.11742734581E+04  0.46999998093E+01 0.  1.
</event>
<event>
 5   0  0.2374100E-03  0.1097989E+04  0.7818609E-02  0.9207154E-01
        1   -1    0    0  501    0  0.00000000000E+00  0.00000000000E+00  0.13078738335E+04  0.13078738335E+04  0.50400001928E-02 0.  1.
       -1   -1    0    0    0  501  0.00000000000E+00  0.00000000000E+00 -0.23044637157E+03  0.23044637163E+03  0.50400001928E-02 0. -1.
    10030    2    1    2    0    0  0.00000000000E+00  0.00000000000E+00  0.10774274619E+04  0.15383202052E+04  0.10979886693E+04 0.  0.
        2    1    3    3  502    0 -0.19469152833E+03 -0.10308595307E+03  0.12432311976E+04  0.12625986360E+04  0.25500000920E-02 0.  1.
       -2    1    3    3    0  502  0.19469152833E+03  0.10308595307E+03 -0.16580373567E+03  0.27572156915E+03  0.25500000920E-02 0. -1.
</event>
<event>
 5   0  0.2255788E-03  0.1103883E+04  0.7818609E-02  0.9201416E-01
       -1   -1    0    0    0  501  0.00000000000E+00  0.00000000000E+00  0.58623059840E+03  0.58623059842E+03  0.50400001928E-02 0.  1.
        1   -1    0    0  501    0  0.00000000000E+00  0.00000000000E+00 -0.51965775451E+03  0.51965775454E+03  0.50400001928E-02 0. -1.
    10030    2    1    2    0    0  0.00000000000E+00  0.00000000000E+00  0.66572843890E+02  0.11058883530E+04  0.11038827409E+04 0.  0.
        3    1    3    3  502    0  0.43285468321E+03  0.13626269580E+03  0.34803644083E+03  0.57189166229E+03  0.10100000352E+00 0.  1.
       -3    1    3    3    0  502 -0.43285468321E+03 -0.13626269580E+03 -0.28146359694E+03  0.53399669067E+03  0.10100000352E+00 0. -1.
</event>
<event>
 5   0  0.2300702E-03  0.1093181E+04  0.7818609E-02  0.9211863E-01
       -1   -1    0    0    0  501  0.00000000000E+00  0.00000000000E+00  0.60520933419E+03  0.60520933421E+03  0.50400001928E-02 0.  1.
        1   -1    0    0  501    0  0.00000000000E+00  0.00000000000E+00 -0.49364956804E+03  0.49364956807E+03  0.50400001928E-02 0. -1.
    10030    2    1    2    0    0  0.00000000000E+00  0.00000000000E+00  0.11155976615E+03  0.10988589023E+04  0.10931812776E+04 0.  0.
        5    1    3    3  502    0 -0.16434576352E+03  0.18729763565E+03  0.54477256515E+03  0.59907359485E+03  0.46999998093E+01 0.  1.
       -5    1    3    3    0  502  0.16434576352E+03 -0.18729763565E+03 -0.43321279900E+03  0.49978530743E+03  0.46999998093E+01 0. -1.
</event>
<event>
 5   0  0.3744875E-03  0.1101309E+04  0.7818609E-02  0.9203917E-01
        2   -1    0    0  501    0  0.00000000000E+00  0.00000000000E+00  0.90797746088E+03  0.90797746088E+03  0.25500000920E-02 0. -1.
       -2   -1    0    0    0  501  0.00000000000E+00  0.00000000000E+00 -0.33395116758E+03  0.33395116759E+03  0.25500000920E-02 0.  1.
    10030    2    1    2    0    0  0.00000000000E+00  0.00000000000E+00  0.57402629330E+03  0.12419286285E+04  0.11013085548E+04 0.  0.
        2    1    3    3  502    0 -0.24274117267E+03  0.18307439252E+03 -0.23071642015E+03  0.38166683985E+03  0.25500000920E-02 0.  1.
       -2    1    3    3    0  502  0.24274117267E+03 -0.18307439252E+03  0.80474271345E+03  0.86026178862E+03  0.25500000920E-02 0. -1.
</event>
<event>
 5   0  0.3744875E-03  0.1099157E+04  0.7818609E-02  0.9206014E-01
       -2   -1    0    0    0  501  0.00000000000E+00  0.00000000000E+00  0.31156347716E+03  0.31156347717E+03  0.25500000920E-02 0.  1.
        2   -1    0    0  501    0  0.00000000000E+00  0.00000000000E+00 -0.96942200948E+03  0.96942200948E+03  0.25500000920E-02 0. -1.
    10030    2    1    2    0    0  0.00000000000E+00  0.00000000000E+00 -0.65785853232E+03  0.12809854866E+04  0.10991569353E+04 0.  0.
        2    1    3    3  502    0 -0.19307206313E+03 -0.46878648377E+03 -0.81708203483E+02  0.51353073857E+03  0.25500000920E-02 0.  1.
       -2    1    3    3    0  502  0.19307206313E+03  0.46878648377E+03 -0.57615032883E+03  0.76745474808E+03  0.25500000920E-02 0. -1.
</event>
<event>
 5   0  0.3962999E-03  0.1116432E+04  0.7818609E-02  0.9189323E-01
       -2   -1    0    0    0  501  0.00000000000E+00  0.00000000000E+00  0.19083469989E+03  0.19083469991E+03  0.25500000920E-02 0.  1.
        2   -1    0    0  501    0  0.00000000000E+00  0.00000000000E+00 -0.16328524261E+04  0.16328524261E+04  0.25500000920E-02 0. -1.
    10030    2    1    2    0    0  0.00000000000E+00  0.00000000000E+00 -0.14420177262E+04  0.18236871260E+04  0.11164316418E+04 0.  0.
        3    1    3    3  502    0  0.19294581745E+03 -0.68696473049E+02  0.12724242324E+03  0.24111810043E+03  0.10100000352E+00 0.  1.
       -3    1    3    3    0  502 -0.19294581745E+03  0.68696473049E+02 -0.15692601495E+04  0.15825690256E+04  0.10100000352E+00 0. -1.
</event>
<event>
 5   0  0.3713158E-03  0.9920087E+03  0.7818609E-02  0.9317353E-01
       -2   -1    0    0    0  501  0.00000000000E+00  0.00000000000E+00  0.94832048735E+02  0.94832048769E+02  0.25500000920E-02 0.  1.
        2   -1    0    0  501    0  0.00000000000E+00  0.00000000000E+00 -0.25942740924E+04  0.25942740924E+04  0.25500000920E-02 0. -1.
    10030    2    1    2    0    0  0.00000000000E+00  0.00000000000E+00 -0.24994420437E+04  0.26891061412E+04  0.99200872417E+03 0.  0.
        4    1    3    3  502    0 -0.39321188651E+03 -0.30000791877E+03 -0.11483522174E+04  0.12503338623E+04  0.12699999809E+01 0. -1.
       -4    1    3    3    0  502  0.39321188651E+03  0.30000791877E+03 -0.13510898263E+04  0.14387722789E+04  0.12699999809E+01 0.  1.
</event>
<event>
 5   0  0.2298958E-03  0.1090515E+04  0.7818609E-02  0.9214486E-01
        1   -1    0    0  501    0  0.00000000000E+00  0.00000000000E+00  0.32639282437E+03  0.32639282441E+03  0.50400001928E-02 0.  1.
       -1   -1    0    0    0  501  0.00000000000E+00  0.00000000000E+00 -0.91088339119E+03  0.91088339121E+03  0.50400001928E-02 0. -1.
    10030    2    1    2    0    0  0.00000000000E+00  0.00000000000E+00 -0.58449056683E+03  0.12372762156E+04  0.10905151127E+04 0.  0.
        1    1    3    3  502    0 -0.57334318976E+01  0.20682871607E+03  0.28012152792E+03  0.34825143282E+03  0.50400001928E-02 0.  1.
       -1    1    3    3    0  502  0.57334318976E+01 -0.20682871607E+03 -0.86461209474E+03  0.88902478280E+03  0.50400001928E-02 0. -1.
</event>
<event>
 5   0  0.3713158E-03  0.1113889E+04  0.7818609E-02  0.9191760E-01
        2   -1    0    0  501    0  0.00000000000E+00  0.00000000000E+00  0.27626027371E+03  0.27626027373E+03  0.25500000920E-02 0. -1.
       -2   -1    0    0    0  501  0.00000000000E+00  0.00000000000E+00 -0.11228075801E+04  0.11228075801E+04  0.25500000920E-02 0.  1.
    10030    2    1    2    0    0  0.00000000000E+00  0.00000000000E+00 -0.84654730639E+03  0.13990678538E+04  0.11138889162E+04 0.  0.
        4    1    3    3  502    0  0.25282261882E+03  0.11910229901E+03 -0.10283589206E+04  0.10656586305E+04  0.12699999809E+01 0.  1.
       -4    1    3    3    0  502 -0.25282261882E+03 -0.11910229901E+03  0.18181161426E+03  0.33340922332E+03  0.12699999809E+01 0. -1.
</event>
<event>
 5   0  0.2257667E-03  0.1091050E+04  0.7818609E-02  0.9213959E-01
       -1   -1    0    0    0  501  0.00000000000E+00  0.00000000000E+00  0.53644916499E+03  0.53644916501E+03  0.50400001928E-02 0. -1.
        1   -1    0    0  501    0  0.00000000000E+00  0.00000000000E+00 -0.55475444243E+03  0.55475444245E+03  0.50400001928E-02 0.  1.
    10030    2    1    2    0    0  0.00000000000E+00  0.00000000000E+00 -0.18305277443E+02  0.10912036075E+04  0.10910500583E+04 0.  0.
        4    1    3    3  502    0  0.43662923217E+03  0.11781394836E+03  0.29596525689E+03  0.54048335682E+03  0.12699999809E+01 0. -1.
       -4    1    3    3    0  502 -0.43662923217E+03 -0.11781394836E+03 -0.31427053434E+03  0.55072025064E+03  0.12699999809E+01 0.  1.
</event>
<event>
 5   0  0.3992414E-03  0.1108108E+04  0.7818609E-02  0.9197326E-01
       -2   -1    0    0    0  501  0.00000000000E+00  0.00000000000E+00  0.26791816866E+03  0.26791816867E+03  0.25500000920E-02 0. -1.
        2   -1    0    0  501    0  0.00000000000E+00  0.00000000000E+00 -0.11457812392E+04  0.11457812392E+04  0.25500000920E-02 0.  1.
    10030    2    1    2    0    0  0.00000000000E+00  0.00000000000E+00 -0.87786307051E+03  0.14136994078E+04  0.11081075964E+04 0.  0.
        1    1    3    3  502    0  0.48280173142E+03  0.15352797369E+03 -0.15278369061E+03  0.52916085145E+03  0.50400001928E-02 0. -1.
       -1    1    3    3    0  502 -0.48280173142E+03 -0.15352797369E+03 -0.72507937989E+03  0.88453855639E+03  0.50400001928E-02 0.  1.
</event>
<event>
 5   0  0.2255788E-03  0.1132918E+04  0.7818609E-02  0.9173688E-01
        1   -1    0    0  501    0  0.00000000000E+00  0.00000000000E+00  0.92418491508E+03  0.92418491509E+03  0.50400001928E-02 0.  1.
       -1   -1    0    0    0  501  0.00000000000E+00  0.00000000000E+00 -0.34719892495E+03  0.34719892499E+03  0.50400001928E-02 0. -1.
    10030    2    1    2    0    0  0.00000000000E+00  0.00000000000E+00  0.57698599013E+03  0.12713838401E+04  0.11329183713E+04 0.  0.
        3    1    3    3  502    0  0.73454031248E+02  0.33464404932E+03 -0.21774382243E+03  0.40594890918E+03  0.10100000352E+00 0. -1.
       -3    1    3    3    0  502 -0.73454031248E+02 -0.33464404932E+03  0.79472981256E+03  0.86543493090E+03  0.10100000352E+00 0.  1.
</event>
<event>
 5   0  0.3962999E-03  0.1085361E+04  0.7818609E-02  0.9219579E-01
       -2   -1    0    0    0  501  0.00000000000E+00  0.00000000000E+00  0.16850669279E+03  0.16850669281E+03  0.25500000920E-02 0. -1.
        2   -1    0    0  501    0  0.00000000000E+00  0.00000000000E+00 -0.17477161717E+04  0.17477161717E+04  0.25500000920E-02 0.  1.
    10030    2    1    2    0    0  0.00000000000E+00  0.00000000000E+00 -0.15792094789E+04  0.19162228645E+04  0.10853605337E+04 0.  0.
        3    1    3    3  502    0 -0.21308176582E+03  0.20626992567E+03  0.12785007679E+02  0.29684101432E+03  0.10100000352E+00 0. -1.
       -3    1    3    3    0  502  0.21308176582E+03 -0.20626992567E+03 -0.15919944865E+04  0.16193818501E+04  0.10100000352E+00 0.  1.
</event>
<event>
 5   0  0.2300702E-03  0.1078671E+04  0.7818609E-02  0.9226233E-01
       -1   -1    0    0    0  501  0.00000000000E+00  0.00000000000E+00  0.51768594199E+03  0.51768594201E+03  0.50400001928E-02 0.  1.
        1   -1    0    0  501    0  0.00000000000E+00  0.00000000000E+00 -0.56189063487E+03  0.56189063489E+03  0.50400001928E-02 0. -1.
    10030    2    1    2    0    0  0.00000000000E+00  0.00000000000E+00 -0.44204692880E+02  0.10795765769E+04  0.10786711874E+04 0.  0.
        5    1    3    3  502    0 -0.27113544541E+03  0.28554502946E+03 -0.39093629464E+03  0.55489068299E+03  0.46999998093E+01 0. -1.
       -5    1    3    3    0  502  0.27113544541E+03 -0.28554502946E+03  0.34673160176E+03  0.52468589391E+03  0.46999998093E+01 0.  1.
</event>
<event>
 5   0  0.3992414E-03  0.1105680E+04  0.7818609E-02  0.9199674E-01
       -2   -1    0    0    0  501  0.00000000000E+00  0.00000000000E+00  0.18384751515E+03  0.18384751517E+03  0.25500000920E-02 0. -1.
        2   -1    0    0  501    0  0.00000000000E+00  0.00000000000E+00 -0.16624202313E+04  0.16624202313E+04  0.25500000920E-02 0.  1.
    10030    2    1    2    0    0  0.00000000000E+00  0.00000000000E+00 -0.14785727162E+04  0.18462677465E+04  0.11056795715E+04 0.  0.
        1    1    3    3  502    0 -0.13507478409E+03 -0.53467304112E+03 -0.80420222517E+03  0.97512136537E+03  0.50400001928E-02 0. -1.
       -1    1    3    3    0  502  0.13507478409E+03  0.53467304112E+03 -0.67437049099E+03  0.87114638113E+03  0.50400001928E-02 0.  1.
</event>
<event>
 5   0  0.3962999E-03  0.1091335E+04  0.7818609E-02  0.9213679E-01
        2   -1    0    0  501    0  0.00000000000E+00  0.00000000000E+00  0.35043964886E+03  0.35043964887E+03  0.25500000920E-02 0. -1.
       -2   -1    0    0    0  501  0.00000000000E+00  0.00000000000E+00 -0.84965497309E+03  0.84965497309E+03  0.25500000920E-02 0.  1.
    10030    2    1    2    0    0  0.00000000000E+00  0.00000000000E+00 -0.49921532423E+03  0.12000946220E+04  0.10913345783E+04 0.  0.
        3    1    3    3  502    0  0.27481346501E+03  0.46535641544E+03 -0.33243859055E+03  0.63450331806E+03  0.10100000352E+00 0. -1.
       -3    1    3    3    0  502 -0.27481346501E+03 -0.46535641544E+03 -0.16677673367E+03  0.56559130390E+03  0.10100000352E+00 0.  1.
</event>
<event>
 5   0  0.2300702E-03  0.1071967E+04  0.7818609E-02  0.9232954E-01
       -1   -1    0    0    0  501  0.00000000000E+00  0.00000000000E+00  0.78141734944E+03  0.78141734946E+03  0.50400001928E-02 0.  1.
        1   -1    0    0  501    0  0.00000000000E+00  0.00000000000E+00 -0.36763759774E+03  0.36763759777E+03  0.50400001928E-02 0. -1.
    10030    2    1    2    0    0  0.00000000000E+00  0.00000000000E+00  0.41377975171E+03  0.11490549472E+04  0.10719671585E+04 0.  0.
        5    1    3    3  502    0  0.21125210830E+03  0.36802576290E+03 -0.14404629214E+03  0.44815381254E+03  0.46999998093E+01 0. -1.
       -5    1    3    3    0  502 -0.21125210830E+03 -0.36802576290E+03  0.55782604384E+03  0.70090113469E+03  0.46999998093E+01 0.  1.
</event>
<event>
 5   0  0.2257667E-03  0.1106261E+04  0.7818609E-02  0.9199111E-01
       -1   -1    0    0    0  501  0.00000000000E+00  0.00000000000E+00  0.56963689665E+03  0.56963689667E+03  0.50400001928E-02 0. -1.
        1   -1    0    0  501    0  0.00000000000E+00  0.00000000000E+00 -0.53710195063E+03  0.53710195065E+03  0.50400001928E-02 0.  1.
    10030    2    1    2    0    0  0.00000000000E+00  0.00000000000E+00  0.32534946021E+02  0.11067388473E+04  0.11062605269E+04 0.  0.
        4    1    3    3  502    0 -0.28316717670E+03 -0.10510433670E+03  0.47984769728E+03  0.56699735188E+03  0.12699999809E+01 0. -1.
       -4    1    3    3    0  502  0.28316717670E+03  0.10510433670E+03 -0.44731275126E+03  0.53974149544E+03  0.12699999809E+01 0.  1.
</event>
<event>
 5   0  0.2374100E-03  0.1071607E+04  0.7818609E-02  0.9233316E-01
       -1   -1    0    0    0  501  0.00000000000E+00  0.00000000000E+00  0.79616488231E+03  0.79616488233E+03  0.50400001928E-02 0.  1.
        1   -1    0    0  501    0  0.00000000000E+00  0.00000000000E+00 -0.36058538221E+03  0.36058538224E+03  0.50400001928E-02 0. -1.
    10030    2    1    2    0    0  0.00000000000E+00  0.00000000000E+00  0.43557950010E+03  0.11567502646E+04  0.10716070519E+04 0.  0.
        2    1    3    3  502    0 -0.13242780611E+03 -0.14421161887E+03  0.75616703411E+03  0.78110351320E+03  0.25500000920E-02 0.  1.
       -2    1    3    3    0  502  0.13242780611E+03  0.14421161887E+03 -0.32058753401E+03  0.37564675137E+03  0.25500000920E-02 0. -1.
</event>
<event>
 5   0  0.3713158E-03  0.1097700E+04  0.7818609E-02  0.9207437E-01
        2   -1    0    0  501    0  0.00000000000E+00  0.00000000000E+00  0.80456390777E+03  0.80456390778E+03  0.25500000920E-02 0. -1.
       -2   -1    0    0    0  501  0.00000000000E+00  0.00000000000E+00 -0.37440912956E+03  0.37440912957E+03  0.25500000920E-02 0.  1.
    10030    2    1    2    0    0  0.00000000000E+00  0.00000000000E+00  0.43015477822E+03  0.11789730373E+04  0.10976995443E+04 0.  0.
        4    1    3    3  502    0  0.35794637971E+03 -0.35278688689E+03 -0.21821474371E+02  0.50305266917E+03  0.12699999809E+01 0.  1.
       -4    1    3    3    0  502 -0.35794637971E+03  0.35278688689E+03  0.45197625259E+03  0.67592036818E+03  0.12699999809E+01 0. -1.
</event>
<event>
 5   0  0.3992414E-03  0.1095286E+04  0.7818609E-02  0.9209799E-01
        2   -1    0    0  501    0  0.00000000000E+00  0.00000000000E+00  0.98354393027E+03  0.98354393027E+03  0.25500000920E-02 0. -1.
       -2   -1    0    0    0  501  0.00000000000E+00  0.00000000000E+00 -0.30493079346E+03  0.30493079348E+03  0.25500000920E-02 0.  1.
    10030    2    1    2    0    0  0.00000000000E+00  0.00000000000E+00  0.67861313680E+03  0.12884747237E+04  0.10952859555E+04 0.  0.
        1    1    3    3  502    0 -0.50810696403E+03  0.55177160730E+02  0.10789806279E+03  0.52235926137E+03  0.50400001928E-02 0.  1.
       -1    1    3    3    0  502  0.50810696403E+03 -0.55177160730E+02  0.57071507402E+03  0.76611546238E+03  0.50400001928E-02 0. -1.
</event>
<event>
 5   0  0.2298958E-03  0.1106709E+04  0.7818609E-02  0.9198678E-01
        1   -1    0    0  501    0  0.00000000000E+00  0.00000000000E+00  0.11071079773E+04  0.11071079774E+04  0.50400001928E-02 0.  1.
       -1   -1    0    0    0  501  0.00000000000E+00  0.00000000000E+00 -0.27657741416E+03  0.27657741421E+03  0.50400001928E-02 0. -1.
    10030    2    1    2    0    0  0.00000000000E+00  0.00000000000E+00  0.83053056318E+03  0.13836853916E+04  0.11067087451E+04 0.  0.
        1    1    3    3  502    0 -0.40919826267E+03 -0.29755289118E+03  0.13508156696E+03  0.52366780594E+03  0.50400001928E-02 0. -1.
       -1    1    3    3    0  502  0.40919826267E+03  0.29755289118E+03  0.69544899622E+03  0.86001758562E+03  0.50400001928E-02 0.  1.
</event>
<event>
 5   0  0.3748901E-03  0.1082105E+04  0.7818609E-02  0.9222811E-01
        2   -1    0    0  501    0  0.00000000000E+00  0.00000000000E+00  0.10370129671E+04  0.10370129671E+04  0.25500000920E-02 0.  1.
       -2   -1    0    0    0  501  0.00000000000E+00  0.00000000000E+00 -0.28228929234E+03  0.28228929235E+03  0.25500000920E-02 0. -1.
    10030    2    1    2    0    0  0.00000000000E+00  0.00000000000E+00  0.75472367473E+03  0.13193022594E+04  0.10821047207E+04 0.  0.
        5    1    3    3  502    0  0.43796382444E+03  0.82269025279E+02  0.75142997929E+03  0.87364157857E+03  0.46999998093E+01 0.  1.
       -5    1    3    3    0  502 -0.43796382444E+03 -0.82269025279E+02  0.32936954475E+01  0.44566068086E+03  0.46999998093E+01 0. -1.
</event>
<event>
 5   0  0.2257667E-03  0.1101829E+04  0.7818609E-02  0.9203411E-01
       -1   -1    0    0    0  501  0.00000000000E+00  0.00000000000E+00  0.38193161473E+03  0.38193161477E+03  0.50400001928E-02 0.  1.
        1   -1    0    0  501    0  0.00000000000E+00  0.00000000000E+00 -0.79466287366E+03  0.79466287368E+03  0.50400001928E-02 0. -1.
    10030    2    1    2    0    0  0.00000000000E+00  0.00000000000E+00 -0.41273125893E+03  0.11765944884E+04  0.11018291601E+04 0.  0.
        4    1    3    3  502    0  0.48838392944E+03 -0.18592530826E+01  0.65849483853E+02  0.49280836719E+03  0.12699999809E+01 0. -1.
       -4    1    3    3    0  502 -0.48838392944E+03  0.18592530826E+01 -0.47858074278E+03  0.68378612125E+03  0.12699999809E+01 0.  1.
</event>
<event>
 5   0  0.2255788E-03  0.1106509E+04  0.7818609E-02  0.9198871E-01
       -1   -1    0    0    0  501  0.00000000000E+00  0.00000000000E+00  0.90380785436E+03  0.90380785438E+03  0.50400001928E-02 0.  1.
        1   -1    0    0  501    0  0.00000000000E+00  0.00000000000E+00 -0.33866779693E+03  0.33866779697E+03  0.50400001928E-02 0. -1.
    10030    2    1    2    0    0  0.00000000000E+00  0.00000000000E+00  0.56514005744E+03  0.12424756513E+04  0.11065091322E+04 0.  0.
        3    1    3    3  502    0  0.81022685134E+02 -0.30486018130E+03  0.79293814663E+03  0.85337876715E+03  0.10100000352E+00 0.  1.
       -3    1    3    3    0  502 -0.81022685134E+02  0.30486018130E+03 -0.22779808919E+03  0.38909688419E+03  0.10100000352E+00 0. -1.
</event>
<event>
 5   0  0.1508625E-03  0.1103674E+04  0.7818609E-02  0.9201619E-01
        3   -1    0    0  501    0  0.00000000000E+00  0.00000000000E+00  0.63753186240E+03  0.63753187040E+03  0.10100000352E+00 0.  1.
       -3   -1    0    0    0  501  0.00000000000E+00  0.00000000000E+00 -0.47766071881E+03  0.47766072949E+03  0.10100000352E+00 0. -1.
    10030    2    1    2    0    0  0.00000000000E+00  0.00000000000E+00  0.15987114359E+03  0.11151925999E+04  0.11036737527E+04 0.  0.
        1    1    3    3  502    0  0.23304726241E+03  0.16017710803E+03 -0.39888378087E+03  0.48895398875E+03  0.50400001928E-02 0. -1.
       -1    1    3    3    0  502 -0.23304726241E+03 -0.16017710803E+03  0.55875492446E+03  0.62623861114E+03  0.50400001928E-02 0.  1.
</event>
<event>
 5   0  0.2374100E-03  0.1104671E+04  0.7818609E-02  0.9200651E-01
       -1   -1    0    0    0  501  0.00000000000E+00  0.00000000000E+00  0.20550400427E+03  0.20550400433E+03  0.50400001928E-02 0. -1.
        1   -1    0    0  501    0  0.00000000000E+00  0.00000000000E+00 -0.14845179045E+04  0.14845179045E+04  0.50400001928E-02 0.  1.
    10030    2    1    2    0    0  0.00000000000E+00  0.00000000000E+00 -0.12790139002E+04  0.16900219088E+04  0.11046707633E+04 0.  0.
        2    1    3    3  502    0  0.44332906540E+03 -0.51134206628E+02 -0.11374118774E+04  0.12218269706E+04  0.25500000920E-02 0.  1.
       -2    1    3    3    0  502 -0.44332906540E+03  0.51134206628E+02 -0.14160202287E+03  0.46819493825E+03  0.25500000920E-02 0. -1.
</event>
<event>
 5   0  0.1508625E-03  0.1106516E+04  0.7818609E-02  0.9198864E-01
        3   -1    0    0  501    0  0.00000000000E+00  0.00000000000E+00  0.31602524678E+03  0.31602526292E+03  0.10100000352E+00 0.  1.
       -3   -1    0    0    0  501  0.00000000000E+00  0.00000000000E+00 -0.96857541445E+03  0.96857541972E+03  0.10100000352E+00 0. -1.
    10030    2    1    2    0    0  0.00000000000E+00  0.00000000000E+00 -0.65255016767E+03  0.12846006826E+04  0.11065157895E+04 0.  0.
        5    1    3    3  502    0  0.95576134846E+02 -0.26504461418E+03 -0.87902098313E+03  0.92308364942E+03  0.46999998093E+01 0. -1.
       -5    1    3    3    0  502 -0.95576134846E+02  0.26504461418E+03  0.22647081546E+03  0.36151703322E+03  0.46999998093E+01 0.  1.
</event>
<event>
 5   0  0.3713158E-03  0.1086879E+04  0.7818609E-02  0.9218076E-01
        2   -1    0    0  501    0  0.00000000000E+00  0.00000000000E+00  0.64744832765E+03  0.64744832765E+03  0.25500000920E-02 0. -1.
       -2   -1    0    0    0  501  0.00000000000E+00  0.00000000000E+00 -0.45613886163E+03  0.45613886164E+03  0.25500000920E-02 0.  1.
    10030    2    1    2    0    0  0.00000000000E+00  0.00000000000E+00  0.19130946601E+03  0.11035871893E+04  0.10868787295E+04 0.  0.
        4    1    3    3  502    0 -0.39909622375E+03 -0.14172623487E+03 -0.25011008741E+03  0.49185444004E+03  0.12699999809E+01 0.  1.
       -4    1    3    3    0  502  0.39909622375E+03  0.14172623487E+03  0.44141955343E+03  0.61173274925E+03  0.12699999809E+01 0. -1.
</event>
<event>
 5   0  0.2298958E-03  0.1107675E+04  0.7818609E-02  0.9197743E-01
       -1   -1    0    0    0  501  0.00000000000E+00  0.00000000000E+00  0.47405474486E+03  0.47405474489E+03  0.50400001928E-02 0. -1.
        1   -1    0    0  501    0  0.00000000000E+00  0.00000000000E+00 -0.64704800450E+03  0.64704800452E+03  0.50400001928E-02 0.  1.
    10030    2    1    2    0    0  0.00000000000E+00  0.00000000000E+00 -0.17299325963E+03  0.11211027494E+04  0.11076753617E+04 0.  0.
        1    1    3    3  502    0 -0.46030950279E+03  0.29535413275E+03  0.18383528148E+01  0.54692072703E+03  0.50400001928E-02 0. -1.
       -1    1    3    3    0  502  0.46030950279E+03 -0.29535413275E+03 -0.17483161245E+03  0.57418202238E+03  0.50400001928E-02 0.  1.
</event>
<event>
 5   0  0.2255788E-03  0.1079557E+04  0.7818609E-02  0.9225349E-01
        1   -1    0    0  501    0  0.00000000000E+00  0.00000000000E+00  0.70833592810E+03  0.70833592812E+03  0.50400001928E-02 0. -1.
       -1   -1    0    0    0  501  0.00000000000E+00  0.00000000000E+00 -0.41133123905E+03  0.41133123908E+03  0.50400001928E-02 0.  1.
    10030    2    1    2    0    0  0.00000000000E+00  0.00000000000E+00  0.29700468905E+03  0.11196671672E+04  0.10795567516E+04 0.  0.
        3    1    3    3  502    0 -0.86352724342E+02  0.24135943169E+03 -0.34417281863E+03  0.42914578823E+03  0.10100000352E+00 0.  1.
       -3    1    3    3    0  502  0.86352724342E+02 -0.24135943169E+03  0.64117750768E+03  0.69052137897E+03  0.10100000352E+00 0. -1.
</event>
<event>
 5   0  0.3744875E-03  0.1099111E+04  0.7818609E-02  0.9206059E-01
        2   -1    0    0  501    0  0.00000000000E+00  0.00000000000E+00  0.77619286248E+03  0.77619286248E+03  0.25500000920E-02 0.  1.
       -2   -1    0    0    0  501  0.00000000000E+00  0.00000000000E+00 -0.38909320444E+03  0.38909320445E+03  0.25500000920E-02 0. -1.
    10030    2    1    2    0    0  0.00000000000E+00  0.00000000000E+00  0.38709965803E+03  0.11652860669E+04  0.10991112194E+04 0.  0.
        2    1    3    3  502    0  0.43355696654E+03 -0.25469038519E+03 -0.41549939265E+02  0.50454457980E+03  0.25500000920E-02 0. -1.
       -2    1    3    3    0  502 -0.43355696654E+03  0.25469038519E+03  0.42864959730E+03  0.66074148713E+03  0.25500000920E-02 0.  1.
</event>
<event>
 5   0  0.3713158E-03  0.1106442E+04  0.7818609E-02  0.9198935E-01
        2   -1    0    0  501    0  0.00000000000E+00  0.00000000000E+00  0.18628185140E+04  0.18628185140E+04  0.25500000920E-02 0. -1.
       -2   -1    0    0    0  501  0.00000000000E+00  0.00000000000E+00 -0.16429605410E+03  0.16429605412E+03  0.25500000920E-02 0.  1.
    10030    2    1    2    0    0  0.00000000000E+00  0.00000000000E+00  0.16985224599E+04  0.20271145681E+04  0.11064424637E+04 0.  0.
        4    1    3    3  502    0 -0.13814789028E+03  0.24518810085E+03 -0.23346231986E+02  0.28239813001E+03  0.12699999809E+01 0.  1.
       -4    1    3    3    0  502  0.13814789028E+03 -0.24518810085E+03  0.17218686919E+04  0.17447164381E+04  0.12699999809E+01 0. -1.
</event>
<event>
 5   0  0.2300702E-03  0.1113999E+04  0.7818609E-02  0.9191654E-01
       -1   -1    0    0    0  501  0.00000000000E+00  0.00000000000E+00  0.19731309893E+03  0.19731309899E+03  0.50400001928E-02 0. -1.
        1   -1    0    0  501    0  0.00000000000E+00  0.00000000000E+00 -0.15723671360E+04  0.15723671360E+04  0.50400001928E-02 0.  1.
    10030    2    1    2    0    0  0.00000000000E+00  0.00000000000E+00 -0.13750540371E+04  0.17696802350E+04  0.11139993399E+04 0.  0.
        5    1    3    3  502    0  0.32152473525E+03  0.45348213948E+03 -0.74261068159E+03  0.92764051260E+03  0.46999998093E+01 0.  1.
       -5    1    3    3    0  502 -0.32152473525E+03 -0.45348213948E+03 -0.63244335548E+03  0.84203972240E+03  0.46999998093E+01 0. -1.
</event>
<event>
 5   0  0.3713158E-03  0.1109967E+04  0.7818609E-02  0.9195532E-01
        2   -1    0    0  501    0  0.00000000000E+00  0.00000000000E+00  0.23788147206E+04  0.23788147206E+04  0.25500000920E-02 0.  1.
       -2   -1    0    0    0  501  0.00000000000E+00  0.00000000000E+00 -0.12947904136E+03  0.12947904139E+03  0.25500000920E-02 0. -1.
    10030    2    1    2    0    0  0.00000000000E+00  0.00000000000E+00  0.22493356793E+04  0.25082937620E+04  0.11099669358E+04 0.  0.
        4    1    3    3  502    0  0.26999644085E+03  0.47704937129E+03  0.92856199903E+03  0.10782871508E+04  0.12699999809E+01 0.  1.
       -4    1    3    3    0  502 -0.26999644085E+03 -0.47704937129E+03  0.13207736802E+04  0.14300066112E+04  0.12699999809E+01 0. -1.
</event>
<event>
 5   0  0.2374100E-03  0.1094748E+04  0.7818609E-02  0.9210326E-01
       -1   -1    0    0    0  501  0.00000000000E+00  0.00000000000E+00  0.35047165911E+03  0.35047165914E+03  0.50400001928E-02 0. -1.
        1   -1    0    0  501    0  0.00000000000E+00  0.00000000000E+00 -0.85490036941E+03  0.85490036942E+03  0.50400001928E-02 0.  1.
    10030    2    1    2    0    0  0.00000000000E+00  0.00000000000E+00 -0.50442871030E+03  0.12053720286E+04  0.10947481005E+04 0.  0.
        2    1    3    3  502    0  0.18684039030E+03 -0.33112120132E+03  0.18136408519E+03  0.42124044537E+03  0.25500000920E-02 0. -1.
       -2    1    3    3    0  502 -0.18684039030E+03  0.33112120132E+03 -0.68579279549E+03  0.78413158319E+03  0.25500000920E-02 0.  1.
</event>
<event>
 5   0  0.3748901E-03  0.1116989E+04  0.7818609E-02  0.9188790E-01
       -2   -1    0    0    0  501  0.00000000000E+00  0.00000000000E+00  0.24887331526E+03  0.24887331528E+03  0.25500000920E-02 0.  1.
        2   -1    0    0  501    0  0.00000000000E+00  0.00000000000E+00 -0.12533116677E+04  0.12533116677E+04  0.25500000920E-02 0. -1.
    10030    2    1    2    0    0  0.00000000000E+00  0.00000000000E+00 -0.10044383524E+04  0.15021849830E+04  0.11169885045E+04 0.  0.
        5    1    3    3  502    0 -0.45991431947E+03 -0.25634047610E+02 -0.92689344564E+03  0.10350516099E+04  0.46999998093E+01 0. -1.
       -5    1    3    3    0  502  0.45991431947E+03  0.25634047610E+02 -0.77544906804E+02  0.46713337305E+03  0.46999998093E+01 0.  1.
</event>
<event>
 5   0  0.2374100E-03  0.1104724E+04  0.7818609E-02  0.9200600E-01
       -1   -1    0    0    0  501  0.00000000000E+00  0.00000000000E+00  0.16211258473E+03  0.16211258481E+03  0.50400001928E-02 0.  1.
        1   -1    0    0  501    0  0.00000000000E+00  0.00000000000E+00 -0.18820488101E+04  0.18820488101E+04  0.50400001928E-02 0. -1.
    10030    2    1    2    0    0  0.00000000000E+00  0.00000000000E+00 -0.17199362254E+04  0.20441613950E+04  0.11047240330E+04 0.  0.
        2    1    3    3  502    0 -0.25597293821E+03  0.61758617418E+02  0.38501457130E+02  0.26611770728E+03  0.25500000920E-02 0.  1.
       -2    1    3    3    0  502  0.25597293821E+03 -0.61758617418E+02 -0.17584376825E+04  0.17780436877E+04  0.25500000920E-02 0. -1.
</event>
<event>
 5   0  0.3962999E-03  0.1103333E+04  0.7818609E-02  0.9201950E-01
       -2   -1    0    0    0  501  0.00000000000E+00  0.00000000000E+00  0.22562802034E+03  0.22562802035E+03  0.25500000920E-02 0.  1.
        2   -1    0    0  501    0  0.00000000000E+00  0.00000000000E+00 -0.13488387637E+04  0.13488387637E+04  0.25500000920E-02 0. -1.
    10030    2    1    2    0    0  0.00000000000E+00  0.00000000000E+00 -0.11232107434E+04  0.15744667841E+04  0.11033328057E+04 0.  0.
        3    1    3    3  502    0  0.95432670051E+02 -0.51317541200E+03 -0.30681552256E+03  0.60546855664E+03  0.10100000352E+00 0.  1.
       -3    1    3    3    0  502 -0.95432670051E+02  0.51317541200E+03 -0.81639522083E+03  0.96899822745E+03  0.10100000352E+00 0. -1.
</event>
<event>
 5   0  0.3748901E-03  0.1094710E+04  0.7818609E-02  0.9210363E-01
        2   -1    0    0  501    0  0.00000000000E+00  0.00000000000E+00  0.81280507015E+03  0.81280507016E+03  0.25500000920E-02 0. -1.
       -2   -1    0    0    0  501  0.00000000000E+00  0.00000000000E+00 -0.36859685629E+03  0.36859685630E+03  0.25500000920E-02 0.  1.
    10030    2    1    2    0    0  0.00000000000E+00  0.00000000000E+00  0.44420821386E+03  0.11814019265E+04  0.10947098130E+04 0.  0.
        5    1    3    3  502    0  0.36855542481E+03 -0.38323431541E+03  0.36228968477E+03  0.64341086978E+03  0.46999998093E+01 0. -1.
       -5    1    3    3    0  502 -0.36855542481E+03  0.38323431541E+03  0.81918529088E+02  0.53799105668E+03  0.46999998093E+01 0.  1.
</event>
<event>
 5   0  0.3744875E-03  0.1259965E+04  0.7818609E-02  0.9061930E-01
        2   -1    0    0  501    0  0.00000000000E+00  0.00000000000E+00  0.10717240593E+04  0.10717240593E+04  0.25500000920E-02 0.  1.
       -2   -1    0    0    0  501  0.00000000000E+00  0.00000000000E+00 -0.37031711309E+03  0.37031711310E+03  0.25500000920E-02 0. -1.
    10030    2    1    2    0    0  0.00000000000E+00  0.00000000000E+00  0.70140694622E+03  0.14420411724E+04  0.12599646974E+04 0.  0.
        2    1    3    3  502    0  0.35924626020E+02  0.23000219457E+03 -0.31928537370E+03  0.39513888461E+03  0.25500000920E-02 0. -1.
       -2    1    3    3    0  502 -0.35924626020E+02 -0.23000219457E+03  0.10206923199E+04  0.10469022878E+04  0.25500000920E-02 0.  1.
</event>
<event>
 5   0  0.1508625E-03  0.1104705E+04  0.7818609E-02  0.9200618E-01
       -3   -1    0    0    0  501  0.00000000000E+00  0.00000000000E+00  0.58337936014E+03  0.58337936888E+03  0.10100000352E+00 0.  1.
        3   -1    0    0  501    0  0.00000000000E+00  0.00000000000E+00 -0.52297573884E+03  0.52297574860E+03  0.10100000352E+00 0. -1.
    10030    2    1    2    0    0  0.00000000000E+00  0.00000000000E+00  0.60403621297E+02  0.11063551175E+04  0.11047049599E+04 0.  0.
        2    1    3    3  502    0  0.96796409829E+02 -0.18216787814E+03  0.54335237656E+03  0.58119401744E+03  0.25500000920E-02 0.  1.
       -2    1    3    3    0  502 -0.96796409829E+02  0.18216787814E+03 -0.48294875527E+03  0.52516110005E+03  0.25500000920E-02 0. -1.
</event>
<event>
 5   0  0.3713158E-03  0.1077355E+04  0.7818609E-02  0.9227549E-01
        2   -1    0    0  501    0  0.00000000000E+00  0.00000000000E+00  0.12641568300E+04  0.12641568300E+04  0.25500000920E-02 0. -1.
       -2   -1    0    0    0  501  0.00000000000E+00  0.00000000000E+00 -0.22953915054E+03  0.22953915055E+03  0.25500000920E-02 0.  1.
    10030    2    1    2    0    0  0.00000000000E+00  0.00000000000E+00  0.10346176794E+04  0.14936959805E+04  0.10773550666E+04 0.  0.
        4    1    3    3  502    0 -0.50117187975E+03  0.97162650362E+02  0.75567311038E+03  0.91195246385E+03  0.12699999809E+01 0.  1.
       -4    1    3    3    0  502  0.50117187975E+03 -0.97162650362E+02  0.27894456905E+03  0.58174351666E+03  0.12699999809E+01 0. -1.
</event>
<event>
 5   0  0.3748901E-03  0.1092862E+04  0.7818609E-02  0.9212177E-01
       -2   -1    0    0    0  501  0.00000000000E+00  0.00000000000E+00  0.28239342430E+03  0.28239342431E+03  0.25500000920E-02 0. -1.
        2   -1    0    0  501    0  0.00000000000E+00  0.00000000000E+00 -0.10573430864E+04  0.10573430864E+04  0.25500000920E-02 0.  1.
    10030    2    1    2    0    0  0.00000000000E+00  0.00000000000E+00 -0.77494966207E+03  0.13397365107E+04  0.10928618116E+04 0.  0.
        5    1    3    3  502    0 -0.54265676251E+03 -0.38070122941E+02 -0.32449962253E+03  0.63344122946E+03  0.46999998093E+01 0. -1.
       -5    1    3    3    0  502  0.54265676251E+03  0.38070122941E+02 -0.45045003954E+03  0.70629528123E+03  0.46999998093E+01 0.  1.
</event>
<event>
 5   0  0.2257667E-03  0.1108421E+04  0.7818609E-02  0.9197023E-01
       -1   -1    0    0    0  501  0.00000000000E+00  0.00000000000E+00  0.36162637297E+03  0.36162637300E+03  0.50400001928E-02 0.  1.
        1   -1    0    0  501    0  0.00000000000E+00  0.00000000000E+00 -0.84935496382E+03  0.84935496383E+03  0.50400001928E-02 0. -1.
    10030    2    1    2    0    0  0.00000000000E+00  0.00000000000E+00 -0.48772859085E+03  0.12109813368E+04  0.11084207774E+04 0.  0.
        4    1    3    3  502    0 -0.66186972003E+02  0.31234652127E+03 -0.73877668343E+03  0.80481902655E+03  0.12699999809E+01 0. -1.
       -4    1    3    3    0  502  0.66186972003E+02 -0.31234652127E+03  0.25104809258E+03  0.40616231029E+03  0.12699999809E+01 0.  1.
</event>
<event>
 5   0  0.1508625E-03  0.1102678E+04  0.7818609E-02  0.9202585E-01
        4   -1    0    0  501    0  0.00000000000E+00  0.00000000000E+00  0.74420922154E+03  0.74421030517E+03  0.12699999809E+01 0. -1.
       -4   -1    0    0    0  501  0.00000000000E+00  0.00000000000E+00 -0.40845122370E+03  0.40845319810E+03  0.12699999809E+01 0.  1.
    10030    2    1    2    0    0  0.00000000000E+00  0.00000000000E+00  0.33575799784E+03  0.11526635033E+04  0.11026784294E+04 0.  0.
        2    1    3    3  502    0 -0.45425941859E+03  0.21150451475E+03 -0.72522382635E+02  0.50630551560E+03  0.25500000920E-02 0.  1.
       -2    1    3    3    0  502  0.45425941859E+03 -0.21150451475E+03  0.40828038047E+03  0.64635798767E+03  0.25500000920E-02 0. -1.
</event>
<event>
 5   0  0.3748901E-03  0.1067755E+04  0.7818609E-02  0.9237203E-01
       -2   -1    0    0    0  501  0.00000000000E+00  0.00000000000E+00  0.99768223319E+03  0.99768223319E+03  0.25500000920E-02 0.  1.
        2   -1    0    0  501    0  0.00000000000E+00  0.00000000000E+00 -0.28568741980E+03  0.28568741981E+03  0.25500000920E-02 0. -1.
    10030    2    1    2    0    0  0.00000000000E+00  0.00000000000E+00  0.71199481338E+03  0.12833696530E+04  0.10677551461E+04 0.  0.
        5    1    3    3  502    0 -0.19369369393E+02 -0.68248414618E+02 -0.27997161401E+03  0.28885846572E+03  0.46999998093E+01 0. -1.
       -5    1    3    3    0  502  0.19369369393E+02  0.68248414618E+02  0.99196642739E+03  0.99451118729E+03  0.46999998093E+01 0.  1.
</event>
<event>
 5   0  0.2255788E-03  0.1102484E+04  0.7818609E-02  0.9202774E-01
       -1   -1    0    0    0  501  0.00000000000E+00  0.00000000000E+00  0.11009545388E+04  0.11009545388E+04  0.50400001928E-02 0.  1.
        1   -1    0    0  501    0  0.00000000000E+00  0.00000000000E+00 -0.27600398362E+03  0.27600398366E+03  0.50400001928E-02 0. -1.
    10030    2    1    2    0    0  0.00000000000E+00  0.00000000000E+00  0.82495055520E+03  0.13769585225E+04  0.11024841741E+04 0.  0.
        3    1    3    3  502    0 -0.23423345413E+03 -0.36493784673E+03  0.83753082079E+03  0.94313457629E+03  0.10100000352E+00 0.  1.
       -3    1    3    3    0  502  0.23423345413E+03  0.36493784673E+03 -0.12580265596E+02  0.43382394620E+03  0.10100000352E+00 0. -1.
</event>
<event>
 5   0  0.3992414E-03  0.1117126E+04  0.7818609E-02  0.9188658E-01
        2   -1    0    0  501    0  0.00000000000E+00  0.00000000000E+00  0.88111319033E+03  0.88111319034E+03  0.25500000920E-02 0.  1.
       -2   -1    0    0    0  501  0.00000000000E+00  0.00000000000E+00 -0.35408942962E+03  0.35408942963E+03  0.25500000920E-02 0. -1.
    10030    2    1    2    0    0  0.00000000000E+00  0.00000000000E+00  0.52702376071E+03  0.12352026200E+04  0.11171264333E+04 0.  0.
        1    1    3    3  502    0  0.79125055781E+02  0.47562616261E+03 -0.48270662045E+02  0.48457308825E+03  0.50400001928E-02 0. -1.
       -1    1    3    3    0  502 -0.79125055781E+02 -0.47562616261E+03  0.57529442275E+03  0.75062953172E+03  0.50400001928E-02 0.  1.
</event>
<event>
 5   0  0.2298958E-03  0.1101493E+04  0.7818609E-02  0.9203738E-01
        1   -1    0    0  501    0  0.00000000000E+00  0.00000000000E+00  0.14401183612E+03  0.14401183621E+03  0.50400001928E-02 0.  1.
       -1   -1    0    0    0  501  0.00000000000E+00  0.00000000000E+00 -0.21062272543E+04  0.21062272543E+04  0.50400001928E-02 0. -1.
    10030    2    1    2    0    0  0.00000000000E+00  0.00000000000E+00 -0.19622154182E+04  0.22502390905E+04  0.11014929038E+04 0.  0.
        1    1    3    3  502    0  0.41737027778E+03 -0.18028425976E+03 -0.34609359295E+03  0.57138528000E+03  0.50400001928E-02 0.  1.
       -1    1    3    3    0  502 -0.41737027778E+03  0.18028425976E+03 -0.16161218252E+04  0.16788538105E+04  0.50400001928E-02 0. -1.
</event>
<event>
 5   0  0.3992414E-03  0.1101965E+04  0.7818609E-02  0.9203279E-01
       -2   -1    0    0    0  501  0.00000000000E+00  0.00000000000E+00  0.75296261206E+03  0.75296261206E+03  0.25500000920E-02 0. -1.
        2   -1    0    0  501    0  0.00000000000E+00  0.00000000000E+00 -0.40318268648E+03  0.40318268649E+03  0.25500000920E-02 0.  1.
    10030    2    1    2    0    0  0.00000000000E+00  0.00000000000E+00  0.34977992557E+03  0.11561452986E+04  0.11019645888E+04 0.  0.
        1    1    3    3  502    0  0.10000021559E+03 -0.22682751561E+03  0.69115145066E+03  0.73426227789E+03  0.50400001928E-02 0. -1.
       -1    1    3    3    0  502 -0.10000021559E+03  0.22682751561E+03 -0.34137152509E+03  0.42188302066E+03  0.50400001928E-02 0.  1.
</event>
<event>
 5   0  0.3992414E-03  0.1093252E+04  0.7818609E-02  0.9211794E-01
       -2   -1    0    0    0  501  0.00000000000E+00  0.00000000000E+00  0.21281954452E+03  0.21281954454E+03  0.25500000920E-02 0.  1.
        2   -1    0    0  501    0  0.00000000000E+00  0.00000000000E+00 -0.14040066884E+04  0.14040066884E+04  0.25500000920E-02 0. -1.
    10030    2    1    2    0    0  0.00000000000E+00  0.00000000000E+00 -0.11911871439E+04  0.16168262329E+04  0.10932521465E+04 0.  0.
        1    1    3    3  502    0  0.17909460921E+02 -0.40076106329E+03 -0.46460354371E+02  0.40384247324E+03  0.50400001928E-02 0.  1.
       -1    1    3    3    0  502 -0.17909460921E+02  0.40076106329E+03 -0.11447267895E+04  0.12129837597E+04  0.50400001928E-02 0. -1.
</event>
<event>
 5   0  0.3748901E-03  0.1106414E+04  0.7818609E-02  0.9198963E-01
       -2   -1    0    0    0  501  0.00000000000E+00  0.00000000000E+00  0.19956881007E+03  0.19956881008E+03  0.25500000920E-02 0. -1.
        2   -1    0    0  501    0  0.00000000000E+00  0.00000000000E+00 -0.15334947424E+04  0.15334947424E+04  0.25500000920E-02 0.  1.
    10030    2    1    2    0    0  0.00000000000E+00  0.00000000000E+00 -0.13339259323E+04  0.17330635525E+04  0.11064135231E+04 0.  0.
        5    1    3    3  502    0  0.54787739230E+03 -0.64439987498E+02 -0.73142252206E+03  0.91614580977E+03  0.46999998093E+01 0. -1.
       -5    1    3    3    0  502 -0.54787739230E+03  0.64439987498E+02 -0.60250341029E+03  0.81691774273E+03  0.46999998093E+01 0.  1.
</event>
<event>
 5   0  0.3962999E-03  0.1080512E+04  0.7818609E-02  0.9224397E-01
        2   -1    0    0  501    0  0.00000000000E+00  0.00000000000E+00  0.17731899602E+04  0.17731899602E+04  0.25500000920E-02 0. -1.
       -2   -1    0    0    0  501  0.00000000000E+00  0.00000000000E+00 -0.16460536796E+03  0.16460536798E+03  0.25500000920E-02 0.  1.
    10030    2    1    2    0    0  0.00000000000E+00  0.00000000000E+00  0.16085845923E+04  0.19377953282E+04  0.10805120747E+04 0.  0.
        3    1    3    3  502    0  0.49422209926E+03  0.16201385692E+03  0.54210781378E+03  0.75125552590E+03  0.10100000352E+00 0.  1.
       -3    1    3    3    0  502 -0.49422209926E+03 -0.16201385692E+03  0.10664767785E+04  0.11865398023E+04  0.10100000352E+00 0. -1.
</event>
<event>
 5   0  0.2374100E-03  0.1037225E+04  0.7818609E-02  0.9268633E-01
        1   -1    0    0  501    0  0.00000000000E+00  0.00000000000E+00  0.41583301769E+03  0.41583301772E+03  0.50400001928E-02 0. -1.
       -1   -1    0    0    0  501  0.00000000000E+00  0.00000000000E+00 -0.64679585925E+03  0.64679585927E+03  0.50400001928E-02 0.  1.
    10030    2    1    2    0    0  0.00000000000E+00  0.00000000000E+00 -0.23096284157E+03  0.10626288770E+04  0.10372252870E+04 0.  0.
        2    1    3    3  502    0  0.49984201668E+03  0.11750051158E+03 -0.40822302949E+02  0.51508724725E+03  0.25500000920E-02 0.  1.
       -2    1    3    3    0  502 -0.49984201668E+03 -0.11750051158E+03 -0.19014053862E+03  0.54754162973E+03  0.25500000920E-02 0. -1.
</event>
<event>
 5   0  0.2255788E-03  0.1095137E+04  0.7818609E-02  0.9209944E-01
       -1   -1    0    0    0  501  0.00000000000E+00  0.00000000000E+00  0.38719990129E+03  0.38719990132E+03  0.50400001928E-02 0.  1.
        1   -1    0    0  501    0  0.00000000000E+00  0.00000000000E+00 -0.77435840544E+03  0.77435840545E+03  0.50400001928E-02 0. -1.
    10030    2    1    2    0    0  0.00000000000E+00  0.00000000000E+00 -0.38715850415E+03  0.11615583068E+04  0.10951374310E+04 0.  0.
        3    1    3    3  502    0  0.35495011080E+03  0.13618238498E+03 -0.61155674533E+03  0.72009505351E+03  0.10100000352E+00 0. -1.
       -3    1    3    3    0  502 -0.35495011080E+03 -0.13618238498E+03  0.22439824118E+03  0.44146325326E+03  0.10100000352E+00 0.  1.
</event>
<event>
 5   0  0.1508625E-03  0.1099545E+04  0.7818609E-02  0.9205636E-01
        3   -1    0    0  501    0  0.00000000000E+00  0.00000000000E+00  0.10932064314E+04  0.10932064361E+04  0.10100000352E+00 0.  1.
       -3   -1    0    0    0  501  0.00000000000E+00  0.00000000000E+00 -0.27648002142E+03  0.27648003987E+03  0.10100000352E+00 0. -1.
    10030    2    1    2    0    0  0.00000000000E+00  0.00000000000E+00  0.81672640998E+03  0.13696864759E+04  0.10995449120E+04 0.  0.
        2    1    3    3  502    0  0.11588762023E+03 -0.51468466062E+03  0.21570639681E+03  0.56996446383E+03  0.25500000920E-02 0.  1.
       -2    1    3    3    0  502 -0.11588762023E+03  0.51468466062E+03  0.60102001317E+03  0.79972201210E+03  0.25500000920E-02 0. -1.
</event>
<event>
 5   0  0.2374100E-03  0.1106412E+04  0.7818609E-02  0.9198964E-01
        1   -1    0    0  501    0  0.00000000000E+00  0.00000000000E+00  0.90272175206E+03  0.90272175207E+03  0.50400001928E-02 0.  1.
       -1   -1    0    0    0  501  0.00000000000E+00  0.00000000000E+00 -0.33901603206E+03  0.33901603210E+03  0.50400001928E-02 0. -1.
    10030    2    1    2    0    0  0.00000000000E+00  0.00000000000E+00  0.56370572000E+03  0.12417377842E+04  0.11064124845E+04 0.  0.
        2    1    3    3  502    0 -0.52433758588E+03 -0.16237306555E+03  0.35913944879E+03  0.65595431249E+03  0.25500000920E-02 0.  1.
       -2    1    3    3    0  502  0.52433758588E+03  0.16237306555E+03  0.20456627120E+03  0.58578347169E+03  0.25500000920E-02 0. -1.
</event>
<event>
 5   0  0.2298958E-03  0.1125933E+04  0.7818609E-02  0.9180278E-01
       -1   -1    0    0    0  501  0.00000000000E+00  0.00000000000E+00  0.49540109018E+03  0.49540109020E+03  0.50400001928E-02 0. -1.
        1   -1    0    0  501    0  0.00000000000E+00  0.00000000000E+00 -0.63974639062E+03  0.63974639064E+03  0.50400001928E-02 0.  1.
    10030    2    1    2    0    0  0.00000000000E+00  0.00000000000E+00 -0.14434530045E+03  0.11351474808E+04  0.11259326079E+04 0.  0.
        1    1    3    3  502    0  0.22164126798E+03  0.34907653357E+03 -0.45733567875E+03  0.61655105307E+03  0.50400001928E-02 0.  1.
       -1    1    3    3    0  502 -0.22164126798E+03 -0.34907653357E+03  0.31299037831E+03  0.51859642777E+03  0.50400001928E-02 0. -1.
</event>
<event>
 5   0  0.3713158E-03  0.1095975E+04  0.7818609E-02  0.9209123E-01
       -2   -1    0    0    0  501  0.00000000000E+00  0.00000000000E+00  0.45285495351E+03  0.45285495352E+03  0.25500000920E-02 0.  1.
        2   -1    0    0  501    0  0.00000000000E+00  0.00000000000E+00 -0.66310531535E+03  0.66310531536E+03  0.25500000920E-02 0. -1.
    10030    2    1    2    0    0  0.00000000000E+00  0.00000000000E+00 -0.21025036184E+03  0.11159602689E+04  0.10959754135E+04 0.  0.
        4    1    3    3  502    0  0.37713055227E+03  0.39378094328E+03 -0.49372488575E+02  0.54747615498E+03  0.12699999809E+01 0.  1.
       -4    1    3    3    0  502 -0.37713055227E+03 -0.39378094328E+03 -0.16087787327E+03  0.56848411390E+03  0.12699999809E+01 0. -1.
</event>
<event>
 5   0  0.2255788E-03  0.1099795E+04  0.7818609E-02  0.9205392E-01
        1   -1    0    0  501    0  0.00000000000E+00  0.00000000000E+00  0.81465743220E+03  0.81465743222E+03  0.50400001928E-02 0.  1.
       -1   -1    0    0    0  501  0.00000000000E+00  0.00000000000E+00 -0.37118305239E+03  0.37118305243E+03  0.50400001928E-02 0. -1.
    10030    2    1    2    0    0  0.00000000000E+00  0.00000000000E+00  0.44347437981E+03  0.11858404846E+04  0.10997945851E+04 0.  0.
        3    1    3    3  502    0  0.19567077796E+03  0.15159303242E+03 -0.30772003917E+03  0.39491661592E+03  0.10100000352E+00 0. -1.
       -3    1    3    3    0  502 -0.19567077796E+03 -0.15159303242E+03  0.75119441897E+03  0.79092386873E+03  0.10100000352E+00 0.  1.
</event>
<event>
 5   0  0.3744875E-03  0.1118164E+04  0.7818609E-02  0.9187667E-01
        2   -1    0    0  501    0  0.00000000000E+00  0.00000000000E+00  0.11047286710E+04  0.11047286710E+04  0.25500000920E-02 0. -1.
       -2   -1    0    0    0  501  0.00000000000E+00  0.00000000000E+00 -0.28294061966E+03  0.28294061967E+03  0.25500000920E-02 0.  1.
    10030    2    1    2    0    0  0.00000000000E+00  0.00000000000E+00  0.82178805129E+03  0.13876692906E+04  0.11181638784E+04 0.  0.
        2    1    3    3  502    0  0.67246588673E+01 -0.39549893109E+03 -0.79441188304E+02  0.40345449302E+03  0.25500000920E-02 0.  1.
       -2    1    3    3    0  502 -0.67246588673E+01  0.39549893109E+03  0.90122923959E+03  0.98421479761E+03  0.25500000920E-02 0. -1.
</event>
<event>
 5   0  0.2300702E-03  0.1083568E+04  0.7818609E-02  0.9221358E-01
       -1   -1    0    0    0  501  0.00000000000E+00  0.00000000000E+00  0.76246278509E+03  0.76246278511E+03  0.50400001928E-02 0.  1.
        1   -1    0    0  501    0  0.00000000000E+00  0.00000000000E+00 -0.38497573998E+03  0.38497574001E+03  0.50400001928E-02 0. -1.
    10030    2    1    2    0    0  0.00000000000E+00  0.00000000000E+00  0.37748704511E+03  0.11474385251E+04  0.10835675797E+04 0.  0.
        5    1    3    3  502    0 -0.39472129206E+03  0.32720150530E+03  0.33771305049E+01  0.51273698763E+03  0.46999998093E+01 0. -1.
       -5    1    3    3    0  502  0.39472129206E+03 -0.32720150530E+03  0.37410991461E+03  0.63470153748E+03  0.46999998093E+01 0.  1.
</event>
<event>
 5   0  0.3713158E-03  0.1091087E+04  0.7818609E-02  0.9213923E-01
        2   -1    0    0  501    0  0.00000000000E+00  0.00000000000E+00  0.21602618056E+04  0.21602618056E+04  0.25500000920E-02 0.  1.
       -2   -1    0    0    0  501  0.00000000000E+00  0.00000000000E+00 -0.13776924805E+03  0.13776924807E+03  0.25500000920E-02 0. -1.
    10030    2    1    2    0    0  0.00000000000E+00  0.00000000000E+00  0.20224925576E+04  0.22980310537E+04  0.10910868794E+04 0.  0.
        4    1    3    3  502    0 -0.30226698520E+03  0.21595931283E+03  0.18526989739E+04  0.18895763694E+04  0.12699999809E+01 0.  1.
       -4    1    3    3    0  502  0.30226698520E+03 -0.21595931283E+03  0.16979358369E+03  0.40845468427E+03  0.12699999809E+01 0. -1.
</event>
<event>
 5   0  0.3992414E-03  0.1100284E+04  0.7818609E-02  0.9204915E-01
       -2   -1    0    0    0  501  0.00000000000E+00  0.00000000000E+00  0.29709638013E+03  0.29709638014E+03  0.25500000920E-02 0.  1.
        2   -1    0    0  501    0  0.00000000000E+00  0.00000000000E+00 -0.10187137466E+04  0.10187137466E+04  0.25500000920E-02 0. -1.
    10030    2    1    2    0    0  0.00000000000E+00  0.00000000000E+00 -0.72161736649E+03  0.13158101268E+04  0.11002839025E+04 0.  0.
        1    1    3    3  502    0 -0.47396299608E+03  0.80107395971E+02 -0.68080064017E+03  0.83339524130E+03  0.50400001928E-02 0.  1.
       -1    1    3    3    0  502  0.47396299608E+03 -0.80107395971E+02 -0.40816726316E+02  0.48241488546E+03  0.50400001928E-02 0. -1.
</event>
<event>
 5   0  0.3992414E-03  0.1095892E+04  0.7818609E-02  0.9209205E-01
        2   -1    0    0  501    0  0.00000000000E+00  0.00000000000E+00  0.14641188615E+04  0.14641188615E+04  0.25500000920E-02 0. -1.
       -2   -1    0    0    0  501  0.00000000000E+00  0.00000000000E+00 -0.20506853262E+03  0.20506853263E+03  0.25500000920E-02 0.  1.
    10030    2    1    2    0    0  0.00000000000E+00  0.00000000000E+00  0.12590503289E+04  0.16691873941E+04  0.10958917949E+04 0.  0.
        1    1    3    3  502    0 -0.50581982191E+03 -0.75302988921E+02  0.32981066460E+03  0.60852223204E+03  0.50400001928E-02 0. -1.
       -1    1    3    3    0  502  0.50581982191E+03  0.75302988921E+02  0.92923966429E+03  0.10606651621E+04  0.50400001928E-02 0.  1.
</event>
<event>
 5   0  0.2257667E-03  0.1118797E+04  0.7818609E-02  0.9187062E-01
        1   -1    0    0  501    0  0.00000000000E+00  0.00000000000E+00  0.48428628911E+03  0.48428628913E+03  0.50400001928E-02 0. -1.
       -1   -1    0    0    0  501  0.00000000000E+00  0.00000000000E+00 -0.64616073073E+03  0.64616073075E+03  0.50400001928E-02 0.  1.
    10030    2    1    2    0    0  0.00000000000E+00  0.00000000000E+00 -0.16187444163E+03  0.11304470199E+04  0.11187971800E+04 0.  0.
        4    1    3    3  502    0 -0.40260903813E+03  0.31962469115E+03  0.14197548693E+03  0.53330350886E+03  0.12699999809E+01 0.  1.
       -4    1    3    3    0  502  0.40260903813E+03 -0.31962469115E+03 -0.30384992856E+03  0.59714351102E+03  0.12699999809E+01 0. -1.
</event>
<event>
 5   0  0.3713158E-03  0.1091191E+04  0.7818609E-02  0.9213820E-01
        2   -1    0    0  501    0  0.00000000000E+00  0.00000000000E+00  0.41674082144E+03  0.41674082145E+03  0.25500000920E-02 0.  1.
       -2   -1    0    0    0  501  0.00000000000E+00  0.00000000000E+00 -0.71429193870E+03  0.71429193871E+03  0.25500000920E-02 0. -1.
    10030    2    1    2    0    0  0.00000000000E+00  0.00000000000E+00 -0.29755111726E+03  0.11310327602E+04  0.10911912927E+04 0.  0.
        4    1    3    3  502    0 -0.36331133302E+03  0.14309763472E+03  0.24618979817E+03  0.46160923668E+03  0.12699999809E+01 0.  1.
       -4    1    3    3    0  502  0.36331133302E+03 -0.14309763472E+03 -0.54374091544E+03  0.66942352348E+03  0.12699999809E+01 0. -1.
</event>
<event>
 5   0  0.3713158E-03  0.1098872E+04  0.7818609E-02  0.9206292E-01
       -2   -1    0    0    0  501  0.00000000000E+00  0.00000000000E+00  0.59799147275E+03  0.59799147275E+03  0.25500000920E-02 0.  1.
        2   -1    0    0  501    0  0.00000000000E+00  0.00000000000E+00 -0.50482284465E+03  0.50482284465E+03  0.25500000920E-02 0. -1.
    10030    2    1    2    0    0  0.00000000000E+00  0.00000000000E+00  0.93168628100E+02  0.11028143174E+04  0.10988717056E+04 0.  0.
        4    1    3    3  502    0 -0.11877161296E+03  0.39412345742E+03 -0.31864191037E+03  0.52055189528E+03  0.12699999809E+01 0. -1.
       -4    1    3    3    0  502  0.11877161296E+03 -0.39412345742E+03  0.41181053847E+03  0.58226242213E+03  0.12699999809E+01 0.  1.
</event>
<event>
 5   0  0.1508625E-03  0.1071907E+04  0.7818609E-02  0.9233014E-01
        4   -1    0    0  501    0  0.00000000000E+00  0.00000000000E+00  0.16288984322E+03  0.16289479404E+03  0.12699999809E+01 0. -1.
       -4   -1    0    0    0  501  0.00000000000E+00  0.00000000000E+00 -0.17634072731E+04  0.17634077304E+04  0.12699999809E+01 0.  1.
    10030    2    1    2    0    0  0.00000000000E+00  0.00000000000E+00 -0.16005174299E+04  0.19263025245E+04  0.10719073525E+04 0.  0.
        4    1    3    3  502    0  0.18758754424E+03 -0.14993881832E+03  0.60791717230E+02  0.24772561792E+03  0.12699999809E+01 0. -1.
       -4    1    3    3    0  502 -0.18758754424E+03  0.14993881832E+03 -0.16613091471E+04  0.16785769066E+04  0.12699999809E+01 0.  1.
</event>
<event>
 5   0  0.3713158E-03  0.1099639E+04  0.7818609E-02  0.9205544E-01
        2   -1    0    0  501    0  0.00000000000E+00  0.00000000000E+00  0.12899059270E+04  0.12899059270E+04  0.25500000920E-02 0. -1.
       -2   -1    0    0    0  501  0.00000000000E+00  0.00000000000E+00 -0.23435938188E+03  0.23435938190E+03  0.25500000920E-02 0.  1.
    10030    2    1    2    0    0  0.00000000000E+00  0.00000000000E+00  0.10555465452E+04  0.15242653089E+04  0.10996391331E+04 0.  0.
        4    1    3    3  502    0  0.28437476318E+03 -0.43412581826E+03  0.27609738944E+03  0.58784829112E+03  0.12699999809E+01 0.  1.
       -4    1    3    3    0  502 -0.28437476318E+03  0.43412581826E+03  0.77944915571E+03  0.93641701781E+03  0.12699999809E+01 0. -1.
</event>
<event>
 5   0  0.2255788E-03  0.1119734E+04  0.7818609E-02  0.9186169E-01
       -1   -1    0    0    0  501  0.00000000000E+00  0.00000000000E+00  0.46358325644E+03  0.46358325647E+03  0.50400001928E-02 0.  1.
        1   -1    0    0  501    0  0.00000000000E+00  0.00000000000E+00 -0.67614805258E+03  0.67614805260E+03  0.50400001928E-02 0. -1.
    10030    2    1    2    0    0  0.00000000000E+00  0.00000000000E+00 -0.21256479613E+03  0.11397313091E+04  0.11197337471E+04 0.  0.
        3    1    3    3  502    0 -0.45186517354E+03 -0.32905110392E+03 -0.13837551400E+03  0.57585115883E+03  0.10100000352E+00 0. -1.
       -3    1    3    3    0  502  0.45186517354E+03  0.32905110392E+03 -0.74189282130E+02  0.56388015024E+03  0.10100000352E+00 0.  1.
</event>
<event>
 5   0  0.2300702E-03  0.1102683E+04  0.7818609E-02  0.9202581E-01
       -1   -1    0    0    0  501  0.00000000000E+00  0.00000000000E+00  0.27305955180E+03  0.27305955185E+03  0.50400001928E-02 0.  1.
        1   -1    0    0  501    0  0.00000000000E+00  0.00000000000E+00 -0.11132278569E+04  0.11132278569E+04  0.50400001928E-02 0. -1.
    10030    2    1    2    0    0  0.00000000000E+00  0.00000000000E+00 -0.84016830506E+03  0.13862874087E+04  0.11026830908E+04 0.  0.
        5    1    3    3  502    0  0.34515651170E+03 -0.17382196367E+03 -0.91441645450E+03  0.99273694143E+03  0.46999998093E+01 0. -1.
       -5    1    3    3    0  502 -0.34515651170E+03  0.17382196367E+03  0.74248149436E+02  0.39355046730E+03  0.46999998093E+01 0.  1.
</event>
<event>
 5   0  0.2300702E-03  0.1020130E+04  0.7818609E-02  0.9286738E-01
       -1   -1    0    0    0  501  0.00000000000E+00  0.00000000000E+00  0.37588756305E+03  0.37588756308E+03  0.50400001928E-02 0.  1.
        1   -1    0    0  501    0  0.00000000000E+00  0.00000000000E+00 -0.69213918058E+03  0.69213918059E+03  0.50400001928E-02 0. -1.
    10030    2    1    2    0    0  0.00000000000E+00  0.00000000000E+00 -0.31625161753E+03  0.10680267437E+04  0.10201304032E+04 0.  0.
        5    1    3    3  502    0  0.19646934458E+03 -0.93699896772E+02  0.32479516416E+03  0.39101644809E+03  0.46999998093E+01 0.  1.
       -5    1    3    3    0  502 -0.19646934458E+03  0.93699896772E+02 -0.64104678169E+03  0.67701029559E+03  0.46999998093E+01 0. -1.
</event>
<event>
 5   0  0.1508625E-03  0.1097449E+04  0.7818609E-02  0.9207682E-01
        4   -1    0    0  501    0  0.00000000000E+00  0.00000000000E+00  0.42742319409E+03  0.42742508086E+03  0.12699999809E+01 0.  1.
       -4   -1    0    0    0  501  0.00000000000E+00  0.00000000000E+00 -0.70444682940E+03  0.70444797419E+03  0.12699999809E+01 0. -1.
    10030    2    1    2    0    0  0.00000000000E+00  0.00000000000E+00 -0.27702363530E+03  0.11318730551E+04  0.10974490960E+04 0.  0.
        3    1    3    3  502    0  0.33483747523E+03  0.13593561500E+03 -0.56438531431E+03  0.67016820236E+03  0.10100000352E+00 0. -1.
       -3    1    3    3    0  502 -0.33483747523E+03 -0.13593561500E+03  0.28736167901E+03  0.46170485270E+03  0.10100000352E+00 0.  1.
</event>
<event>
 5   0  0.3962999E-03  0.1096078E+04  0.7818609E-02  0.9209023E-01
        2   -1    0    0  501    0  0.00000000000E+00  0.00000000000E+00  0.10139661745E+04  0.10139661745E+04  0.25500000920E-02 0. -1.
       -2   -1    0    0    0  501  0.00000000000E+00  0.00000000000E+00 -0.29620984736E+03  0.29620984737E+03  0.25500000920E-02 0.  1.
    10030    2    1    2    0    0  0.00000000000E+00  0.00000000000E+00  0.71775632716E+03  0.13101760219E+04  0.10960780370E+04 0.  0.
        3    1    3    3  502    0 -0.17170597539E+03  0.25639347113E+03 -0.18249751419E+03  0.35850510025E+03  0.10100000352E+00 0.  1.
       -3    1    3    3    0  502  0.17170597539E+03 -0.25639347113E+03  0.90025384135E+03  0.95167092164E+03  0.10100000352E+00 0. -1.
</event>
<event>
 5   0  0.3748901E-03  0.1100171E+04  0.7818609E-02  0.9205025E-01
       -2   -1    0    0    0  501  0.00000000000E+00  0.00000000000E+00  0.32359905754E+03  0.32359905755E+03  0.25500000920E-02 0. -1.
        2   -1    0    0  501    0  0.00000000000E+00  0.00000000000E+00 -0.93509014793E+03  0.93509014793E+03  0.25500000920E-02 0.  1.
    10030    2    1    2    0    0  0.00000000000E+00  0.00000000000E+00 -0.61149109039E+03  0.12586892055E+04  0.11001714241E+04 0.  0.
        5    1    3    3  502    0 -0.10402558427E+03  0.53020230964E+03 -0.18775281264E+03  0.57202187019E+03  0.46999998093E+01 0. -1.
       -5    1    3    3    0  502  0.10402558427E+03 -0.53020230964E+03 -0.42373827775E+03  0.68666733529E+03  0.46999998093E+01 0.  1.
</event>
<event>
 5   0  0.3744875E-03  0.1096578E+04  0.7818609E-02  0.9208533E-01
        2   -1    0    0  501    0  0.00000000000E+00  0.00000000000E+00  0.14096192349E+04  0.14096192349E+04  0.25500000920E-02 0. -1.
       -2   -1    0    0    0  501  0.00000000000E+00  0.00000000000E+00 -0.21326392190E+03  0.21326392191E+03  0.25500000920E-02 0.  1.
    10030    2    1    2    0    0  0.00000000000E+00  0.00000000000E+00  0.11963553130E+04  0.16228831568E+04  0.10965781804E+04 0.  0.
        2    1    3    3  502    0 -0.35842597222E+03 -0.16037299971E+03  0.11645030303E+04  0.12289247269E+04  0.25500000920E-02 0. -1.
       -2    1    3    3    0  502  0.35842597222E+03  0.16037299971E+03  0.31852282634E+02  0.39395842993E+03  0.25500000920E-02 0.  1.
</event>
<event>
 5   0  0.2374100E-03  0.1122704E+04  0.7818609E-02  0.9183341E-01
        1   -1    0    0  501    0  0.00000000000E+00  0.00000000000E+00  0.67776098172E+03  0.67776098174E+03  0.50400001928E-02 0.  1.
       -1   -1    0    0    0  501  0.00000000000E+00  0.00000000000E+00 -0.46493713539E+03  0.46493713542E+03  0.50400001928E-02 0. -1.
    10030    2    1    2    0    0  0.00000000000E+00  0.00000000000E+00  0.21282384633E+03  0.11426981172E+04  0.11227043232E+04 0.  0.
        2    1    3    3  502    0  0.34134352341E+03 -0.19335782221E+03  0.51507646386E+03  0.64746151392E+03  0.25500000920E-02 0.  1.
       -2    1    3    3    0  502 -0.34134352341E+03  0.19335782221E+03 -0.30225261753E+03  0.49523660324E+03  0.25500000920E-02 0. -1.
</event>
<event>
 5   0  0.3992414E-03  0.1101627E+04  0.7818609E-02  0.9203607E-01
       -2   -1    0    0    0  501  0.00000000000E+00  0.00000000000E+00  0.68992992900E+03  0.68992992901E+03  0.25500000920E-02 0. -1.
        2   -1    0    0  501    0  0.00000000000E+00  0.00000000000E+00 -0.43974839715E+03  0.43974839716E+03  0.25500000920E-02 0.  1.
    10030    2    1    2    0    0  0.00000000000E+00  0.00000000000E+00  0.25018153185E+03  0.11296783262E+04  0.11016271246E+04 0.  0.
        1    1    3    3  502    0 -0.31892172507E+03 -0.21434736176E+03 -0.27959681192E+03  0.47521598824E+03  0.50400001928E-02 0.  1.
       -1    1    3    3    0  502  0.31892172507E+03  0.21434736176E+03  0.52977834377E+03  0.65446233793E+03  0.50400001928E-02 0. -1.
</event>
<event>
 5   0  0.1508625E-03  0.1099636E+04  0.7818609E-02  0.9205547E-01
        3   -1    0    0  501    0  0.00000000000E+00  0.00000000000E+00  0.18953955604E+03  0.18953958295E+03  0.10100000352E+00 0.  1.
       -3   -1    0    0    0  501  0.00000000000E+00  0.00000000000E+00 -0.15949158823E+04  0.15949158855E+04  0.10100000352E+00 0. -1.
    10030    2    1    2    0    0  0.00000000000E+00  0.00000000000E+00 -0.14053763263E+04  0.17844554685E+04  0.10996357126E+04 0.  0.
        4    1    3    3  502    0  0.30618586457E+03 -0.12530417762E+03  0.99408203954E+01  0.33098542778E+03  0.12699999809E+01 0.  1.
       -4    1    3    3    0  502 -0.30618586457E+03  0.12530417762E+03 -0.14153171467E+04  0.14534700407E+04  0.12699999809E+01 0. -1.
</event>
<event>
 5   0  0.1508625E-03  0.1103197E+04  0.7818609E-02  0.9202082E-01
       -4   -1    0    0    0  501  0.00000000000E+00  0.00000000000E+00  0.77600359160E+03  0.77600463083E+03  0.12699999809E+01 0. -1.
        4   -1    0    0  501    0  0.00000000000E+00  0.00000000000E+00 -0.39208456371E+03  0.39208662053E+03  0.12699999809E+01 0.  1.
    10030    2    1    2    0    0  0.00000000000E+00  0.00000000000E+00  0.38391902789E+03  0.11680912514E+04  0.11031968780E+04 0.  0.
        2    1    3    3  502    0  0.20143822200E+03  0.50965569903E+03  0.25837528642E+03  0.60587463842E+03  0.25500000920E-02 0. -1.
       -2    1    3    3    0  502 -0.20143822200E+03 -0.50965569903E+03  0.12554374147E+03  0.56221661294E+03  0.25500000920E-02 0.  1.
</event>
<event>
 5   0  0.2298958E-03  0.1102418E+04  0.7818609E-02  0.9202838E-01
       -1   -1    0    0    0  501  0.00000000000E+00  0.00000000000E+00  0.10043654619E+04  0.10043654619E+04  0.50400001928E-02 0.  1.
        1   -1    0    0  501    0  0.00000000000E+00  0.00000000000E+00 -0.30251101204E+03  0.30251101208E+03  0.50400001928E-02 0. -1.
    10030    2    1    2    0    0  0.00000000000E+00  0.00000000000E+00  0.70185444986E+03  0.13068764740E+04  0.11024184548E+04 0.  0.
        1    1    3    3  502    0  0.22545208138E+03 -0.40172740568E+03  0.70974885736E+03  0.84614241710E+03  0.50400001928E-02 0.  1.
       -1    1    3    3    0  502 -0.22545208138E+03  0.40172740568E+03 -0.78944075039E+01  0.46073405688E+03  0.50400001928E-02 0. -1.
</event>
<event>
 5   0  0.2255788E-03  0.1101151E+04  0.7818609E-02  0.9204071E-01
       -1   -1    0    0    0  501  0.00000000000E+00  0.00000000000E+00  0.40542215841E+03  0.40542215844E+03  0.50400001928E-02 0.  1.
        1   -1    0    0  501    0  0.00000000000E+00  0.00000000000E+00 -0.74769814878E+03  0.74769814879E+03  0.50400001928E-02 0. -1.
    10030    2    1    2    0    0  0.00000000000E+00  0.00000000000E+00 -0.34227599037E+03  0.11531203072E+04  0.11011510293E+04 0.  0.
        3    1    3    3  502    0  0.93608136425E+02 -0.23120722375E+03  0.34285696656E+03  0.42399312876E+03  0.10100000352E+00 0.  1.
       -3    1    3    3    0  502 -0.93608136425E+02  0.23120722375E+03 -0.68513295693E+03  0.72912717847E+03  0.10100000352E+00 0. -1.
</event>
<event>
 5   0  0.2374100E-03  0.1110121E+04  0.7818609E-02  0.9195383E-01
       -1   -1    0    0    0  501  0.00000000000E+00  0.00000000000E+00  0.38815336659E+03  0.38815336662E+03  0.50400001928E-02 0. -1.
        1   -1    0    0  501    0  0.00000000000E+00  0.00000000000E+00 -0.79373877802E+03  0.79373877804E+03  0.50400001928E-02 0.  1.
    10030    2    1    2    0    0  0.00000000000E+00  0.00000000000E+00 -0.40558541143E+03  0.11818921447E+04  0.11101213968E+04 0.  0.
        2    1    3    3  502    0  0.28200170326E+03  0.29706620956E+03 -0.60160243557E+03  0.72780408352E+03  0.25500000920E-02 0. -1.
       -2    1    3    3    0  502 -0.28200170326E+03 -0.29706620956E+03  0.19601702414E+03  0.45408806114E+03  0.25500000920E-02 0.  1.
</event>
<event>
 5   0  0.2255788E-03  0.1092307E+04  0.7818609E-02  0.9212723E-01
        1   -1    0    0  501    0  0.00000000000E+00  0.00000000000E+00  0.69731347428E+03  0.69731347430E+03  0.50400001928E-02 0. -1.
       -1   -1    0    0    0  501  0.00000000000E+00  0.00000000000E+00 -0.42776120927E+03  0.42776120930E+03  0.50400001928E-02 0.  1.
    10030    2    1    2    0    0  0.00000000000E+00  0.00000000000E+00  0.26955226501E+03  0.11250746836E+04  0.10923070173E+04 0.  0.
        3    1    3    3  502    0  0.20794415105E+03 -0.43311942638E+03  0.40227935223E+03  0.62662739718E+03  0.10100000352E+00 0. -1.
       -3    1    3    3    0  502 -0.20794415105E+03  0.43311942638E+03 -0.13272708722E+03  0.49844728642E+03  0.10100000352E+00 0.  1.
</event>
<event>
 5   0  0.2257667E-03  0.1096693E+04  0.7818609E-02  0.9208421E-01
       -1   -1    0    0    0  501  0.00000000000E+00  0.00000000000E+00  0.15924664134E+03  0.15924664142E+03  0.50400001928E-02 0.  1.
        1   -1    0    0  501    0  0.00000000000E+00  0.00000000000E+00 -0.18881657257E+04  0.18881657257E+04  0.50400001928E-02 0. -1.
    10030    2    1    2    0    0  0.00000000000E+00  0.00000000000E+00 -0.17289190844E+04  0.20474123671E+04  0.10966933030E+04 0.  0.
        4    1    3    3  502    0  0.13134493619E+03  0.46955493990E+03 -0.39606167880E+03  0.62817179192E+03  0.12699999809E+01 0.  1.
       -4    1    3    3    0  502 -0.13134493619E+03 -0.46955493990E+03 -0.13328574056E+04  0.14192405752E+04  0.12699999809E+01 0. -1.
</event>
<event>
 5   0  0.1508625E-03  0.1101289E+04  0.7818609E-02  0.9203936E-01
       -4   -1    0    0    0  501  0.00000000000E+00  0.00000000000E+00  0.36984433817E+03  0.36984651868E+03  0.12699999809E+01 0.  1.
        4   -1    0    0  501    0  0.00000000000E+00  0.00000000000E+00 -0.81982509392E+03  0.81982607760E+03  0.12699999809E+01 0. -1.
    10030    2    1    2    0    0  0.00000000000E+00  0.00000000000E+00 -0.44998075575E+03  0.11896725963E+04  0.11012893379E+04 0.  0.
        5    1    3    3  502    0 -0.30752784621E+03 -0.17200681305E+03 -0.68206403261E+03  0.76771945039E+03  0.46999998093E+01 0. -1.
       -5    1    3    3    0  502  0.30752784621E+03  0.17200681305E+03  0.23208327686E+03  0.42195314589E+03  0.46999998093E+01 0.  1.
</event>
<event>
 5   0  0.3744875E-03  0.1109746E+04  0.7818609E-02  0.9195744E-01
       -2   -1    0    0    0  501  0.00000000000E+00  0.00000000000E+00  0.30674100148E+03  0.30674100149E+03  0.25500000920E-02 0.  1.
        2   -1    0    0  501    0  0.00000000000E+00  0.00000000000E+00 -0.10037267635E+04  0.10037267635E+04  0.25500000920E-02 0. -1.
    10030    2    1    2    0    0  0.00000000000E+00  0.00000000000E+00 -0.69698576201E+03  0.13104677650E+04  0.11097461920E+04 0.  0.
        2    1    3    3  502    0 -0.87089388001E+02  0.26508716592E+03  0.21786819069E+03  0.35400892017E+03  0.25500000920E-02 0.  1.
       -2    1    3    3    0  502  0.87089388001E+02 -0.26508716592E+03 -0.91485395270E+03  0.95645884481E+03  0.25500000920E-02 0. -1.
</event>
<event>
 5   0  0.2374100E-03  0.1103604E+04  0.7818609E-02  0.9201687E-01
        1   -1    0    0  501    0  0.00000000000E+00  0.00000000000E+00  0.39783167086E+03  0.39783167089E+03  0.50400001928E-02 0. -1.
       -1   -1    0    0    0  501  0.00000000000E+00  0.00000000000E+00 -0.76536201033E+03  0.76536201035E+03  0.50400001928E-02 0.  1.
    10030    2    1    2    0    0  0.00000000000E+00  0.00000000000E+00 -0.36753033947E+03  0.11631936812E+04  0.11036036379E+04 0.  0.
        2    1    3    3  502    0  0.27926621377E+03 -0.23059009471E+03  0.25503628519E+03  0.44295024179E+03  0.25500000920E-02 0. -1.
       -2    1    3    3    0  502 -0.27926621377E+03  0.23059009471E+03 -0.62256662466E+03  0.72024343945E+03  0.25500000920E-02 0.  1.
</event>
<event>
 5   0  0.2300702E-03  0.9905411E+03  0.7818609E-02  0.9318980E-01
       -1   -1    0    0    0  501  0.00000000000E+00  0.00000000000E+00  0.37027492826E+03  0.37027492829E+03  0.50400001928E-02 0. -1.
        1   -1    0    0  501    0  0.00000000000E+00  0.00000000000E+00 -0.66246161842E+03  0.66246161844E+03  0.50400001928E-02 0.  1.
    10030    2    1    2    0    0  0.00000000000E+00  0.00000000000E+00 -0.29218669016E+03  0.10327365467E+04  0.99054112133E+03 0.  0.
        5    1    3    3  502    0  0.48478639148E+03 -0.67932388754E+02 -0.67806888177E+02  0.49421910009E+03  0.46999998093E+01 0.  1.
       -5    1    3    3    0  502 -0.48478639148E+03  0.67932388754E+02 -0.22437980199E+03  0.53851744665E+03  0.46999998093E+01 0. -1.
</event>
<event>
 5   0  0.1508625E-03  0.1093696E+04  0.7818609E-02  0.9211358E-01
       -3   -1    0    0    0  501  0.00000000000E+00  0.00000000000E+00  0.11971666926E+04  0.11971666969E+04  0.10100000352E+00 0. -1.
        3   -1    0    0  501    0  0.00000000000E+00  0.00000000000E+00 -0.24979184993E+03  0.24979187035E+03  0.10100000352E+00 0.  1.
    10030    2    1    2    0    0  0.00000000000E+00  0.00000000000E+00  0.94737484271E+03  0.14469585673E+04  0.10936955713E+04 0.  0.
        2    1    3    3  502    0 -0.16182414745E+02  0.14093517876E+03  0.11723988383E+04  0.11809503085E+04  0.25500000920E-02 0. -1.
       -2    1    3    3    0  502  0.16182414745E+02 -0.14093517876E+03 -0.22502399554E+03  0.26600825877E+03  0.25500000920E-02 0.  1.
</event>
<event>
 5   0  0.3962999E-03  0.1108741E+04  0.7818609E-02  0.9196714E-01
        2   -1    0    0  501    0  0.00000000000E+00  0.00000000000E+00  0.14026961373E+04  0.14026961373E+04  0.25500000920E-02 0. -1.
       -2   -1    0    0    0  501  0.00000000000E+00  0.00000000000E+00 -0.21909694048E+03  0.21909694050E+03  0.25500000920E-02 0.  1.
    10030    2    1    2    0    0  0.00000000000E+00  0.00000000000E+00  0.11835991969E+04  0.16217930778E+04  0.11087406047E+04 0.  0.
        3    1    3    3  502    0 -0.78010702498E+02 -0.21078515156E+03 -0.14946245742E+03  0.26991681349E+03  0.10100000352E+00 0.  1.
       -3    1    3    3    0  502  0.78010702498E+02  0.21078515156E+03  0.13330616543E+04  0.13518762644E+04  0.10100000352E+00 0. -1.
</event>
<event>
 5   0  0.3962999E-03  0.1075105E+04  0.7818609E-02  0.9229802E-01
        2   -1    0    0  501    0  0.00000000000E+00  0.00000000000E+00  0.98340433306E+03  0.98340433306E+03  0.25500000920E-02 0.  1.
       -2   -1    0    0    0  501  0.00000000000E+00  0.00000000000E+00 -0.29383924697E+03  0.29383924699E+03  0.25500000920E-02 0. -1.
    10030    2    1    2    0    0  0.00000000000E+00  0.00000000000E+00  0.68956508608E+03  0.12772435800E+04  0.10751051831E+04 0.  0.
        3    1    3    3  502    0  0.27835492126E+03  0.32868029263E+03  0.72689327989E+03  0.84491777559E+03  0.10100000352E+00 0.  1.
       -3    1    3    3    0  502 -0.27835492126E+03 -0.32868029263E+03 -0.37328193809E+02  0.43232580446E+03  0.10100000352E+00 0. -1.
</event>
<event>
 5   0  0.3713158E-03  0.1087817E+04  0.7818609E-02  0.9217148E-01
       -2   -1    0    0    0  501  0.00000000000E+00  0.00000000000E+00  0.19803342093E+03  0.19803342095E+03  0.25500000920E-02 0. -1.
        2   -1    0    0  501    0  0.00000000000E+00  0.00000000000E+00 -0.14938707759E+04  0.14938707759E+04  0.25500000920E-02 0.  1.
    10030    2    1    2    0    0  0.00000000000E+00  0.00000000000E+00 -0.12958373549E+04  0.16919041968E+04  0.10878167864E+04 0.  0.
        4    1    3    3  502    0  0.26555246962E+03  0.46201210401E+03 -0.47852838539E+03  0.71621527971E+03  0.12699999809E+01 0. -1.
       -4    1    3    3    0  502 -0.26555246962E+03 -0.46201210401E+03 -0.81730896956E+03  0.97568891712E+03  0.12699999809E+01 0.  1.
</event>
<event>
 5   0  0.3962999E-03  0.1100895E+04  0.7818609E-02  0.9204320E-01
       -2   -1    0    0    0  501  0.00000000000E+00  0.00000000000E+00  0.14738028253E+03  0.14738028255E+03  0.25500000920E-02 0. -1.
        2   -1    0    0  501    0  0.00000000000E+00  0.00000000000E+00 -0.20558560905E+04  0.20558560905E+04  0.25500000920E-02 0.  1.
    10030    2    1    2    0    0  0.00000000000E+00  0.00000000000E+00 -0.19084758080E+04  0.22032363730E+04  0.11008953656E+04 0.  0.
        3    1    3    3  502    0  0.10729849225E+03 -0.12695401976E+03  0.95950770072E+02  0.19192928398E+03  0.10100000352E+00 0. -1.
       -3    1    3    3    0  502 -0.10729849225E+03  0.12695401976E+03 -0.20044265780E+04  0.20113070891E+04  0.10100000352E+00 0.  1.
</event>
<event>
 5   0  0.3992414E-03  0.1102546E+04  0.7818609E-02  0.9202714E-01
       -2   -1    0    0    0  501  0.00000000000E+00  0.00000000000E+00  0.10917870995E+04  0.10917870995E+04  0.25500000920E-02 0. -1.
        2   -1    0    0  501    0  0.00000000000E+00  0.00000000000E+00 -0.27835263001E+03  0.27835263002E+03  0.25500000920E-02 0.  1.
    10030    2    1    2    0    0  0.00000000000E+00  0.00000000000E+00  0.81343446949E+03  0.13701397295E+04  0.11025458005E+04 0.  0.
        1    1    3    3  502    0  0.23269860628E+03  0.48589349546E+03  0.55196330242E+03  0.77130060128E+03  0.50400001928E-02 0. -1.
       -1    1    3    3    0  502 -0.23269860628E+03 -0.48589349546E+03  0.26147116708E+03  0.59883912825E+03  0.50400001928E-02 0.  1.
</event>
<event>
 5   0  0.3962999E-03  0.1099008E+04  0.7818609E-02  0.9206159E-01
        2   -1    0    0  501    0  0.00000000000E+00  0.00000000000E+00  0.64940503374E+03  0.64940503375E+03  0.25500000920E-02 0. -1.
       -2   -1    0    0    0  501  0.00000000000E+00  0.00000000000E+00 -0.46497123321E+03  0.46497123321E+03  0.25500000920E-02 0.  1.
    10030    2    1    2    0    0  0.00000000000E+00  0.00000000000E+00  0.18443380054E+03  0.11143762670E+04  0.10990080243E+04 0.  0.
        3    1    3    3  502    0 -0.14481604645E+03  0.32452421325E+01  0.62969756405E+03  0.64614336743E+03  0.10100000352E+00 0. -1.
       -3    1    3    3    0  502  0.14481604645E+03 -0.32452421325E+01 -0.44526376351E+03  0.46823289953E+03  0.10100000352E+00 0.  1.
</event>
<event>
 5   0  0.3748901E-03  0.1096058E+04  0.7818609E-02  0.9209042E-01
        2   -1    0    0  501    0  0.00000000000E+00  0.00000000000E+00  0.86964976519E+03  0.86964976519E+03  0.25500000920E-02 0. -1.
       -2   -1    0    0    0  501  0.00000000000E+00  0.00000000000E+00 -0.34535267747E+03  0.34535267748E+03  0.25500000920E-02 0.  1.
    10030    2    1    2    0    0  0.00000000000E+00  0.00000000000E+00  0.52429708772E+03  0.12150024427E+04  0.10960581643E+04 0.  0.
        5    1    3    3  502    0  0.19062947993E+03 -0.54614389939E+02  0.82846175574E+03  0.85187634133E+03  0.46999998093E+01 0. -1.
       -5    1    3    3    0  502 -0.19062947993E+03  0.54614389939E+02 -0.30416466801E+03  0.36312610134E+03  0.46999998093E+01 0.  1.
</event>
<event>
 5   0  0.2255788E-03  0.1099035E+04  0.7818609E-02  0.9206133E-01
        1   -1    0    0  501    0  0.00000000000E+00  0.00000000000E+00  0.34691381499E+03  0.34691381502E+03  0.50400001928E-02 0.  1.
       -1   -1    0    0    0  501  0.00000000000E+00  0.00000000000E+00 -0.87044464453E+03  0.87044464454E+03  0.50400001928E-02 0. -1.
    10030    2    1    2    0    0  0.00000000000E+00  0.00000000000E+00 -0.52353082954E+03  0.12173584596E+04  0.10990346171E+04 0.  0.
        3    1    3    3  502    0 -0.50739834199E+03  0.19314494146E+03 -0.16770402993E+03  0.56822768123E+03  0.10100000352E+00 0.  1.
       -3    1    3    3    0  502  0.50739834199E+03 -0.19314494146E+03 -0.35582679961E+03  0.64913077833E+03  0.10100000352E+00 0. -1.
</event>
<event>
 5   0  0.2298958E-03  0.1104909E+04  0.7818609E-02  0.9200421E-01
       -1   -1    0    0    0  501  0.00000000000E+00  0.00000000000E+00  0.18896608438E+03  0.18896608444E+03  0.50400001928E-02 0.  1.
        1   -1    0    0  501    0  0.00000000000E+00  0.00000000000E+00 -0.16151350366E+04  0.16151350366E+04  0.50400001928E-02 0. -1.
    10030    2    1    2    0    0  0.00000000000E+00  0.00000000000E+00 -0.14261689523E+04  0.18041011211E+04  0.11049085821E+04 0.  0.
        1    1    3    3  502    0  0.27458631104E+03 -0.18923415105E+02 -0.14952137948E+04  0.15203354992E+04  0.50400001928E-02 0. -1.
       -1    1    3    3    0  502 -0.27458631104E+03  0.18923415105E+02  0.69044842574E+02  0.28376562188E+03  0.50400001928E-02 0.  1.
</event>
<event>
 5   0  0.2255788E-03  0.1097127E+04  0.7818609E-02  0.9207996E-01
        1   -1    0    0  501    0  0.00000000000E+00  0.00000000000E+00  0.21302504797E+04  0.21302504797E+04  0.50400001928E-02 0.  1.
       -1   -1    0    0    0  501  0.00000000000E+00  0.00000000000E+00 -0.14126141056E+03  0.14126141065E+03  0.50400001928E-02 0. -1.
    10030    2    1    2    0    0  0.00000000000E+00  0.00000000000E+00  0.19889890692E+04  0.22715118904E+04  0.10971274998E+04 0.  0.
        3    1    3    3  502    0  0.31563363551E+02  0.51870562703E+03  0.63072269963E+03  0.81722879750E+03  0.10100000352E+00 0.  1.
       -3    1    3    3    0  502 -0.31563363551E+02 -0.51870562703E+03  0.13582663695E+04  0.14542830929E+04  0.10100000352E+00 0. -1.
</event>
<event>
 5   0  0.2257667E-03  0.1098247E+04  0.7818609E-02  0.9206903E-01
       -1   -1    0    0    0  501  0.00000000000E+00  0.00000000000E+00  0.13761914531E+03  0.13761914540E+03  0.50400001928E-02 0. -1.
        1   -1    0    0  501    0  0.00000000000E+00  0.00000000000E+00 -0.21910932228E+04  0.21910932228E+04  0.50400001928E-02 0.  1.
    10030    2    1    2    0    0  0.00000000000E+00  0.00000000000E+00 -0.20534740775E+04  0.23287123682E+04  0.10982465602E+04 0.  0.
        4    1    3    3  502    0  0.49049992586E+03 -0.16174449578E+03 -0.63127808013E+03  0.81563784031E+03  0.12699999809E+01 0. -1.
       -4    1    3    3    0  502 -0.49049992586E+03  0.16174449578E+03 -0.14221959973E+04  0.15130745279E+04  0.12699999809E+01 0.  1.
</event>
<event>
 5   0  0.2257667E-03  0.1098238E+04  0.7818609E-02  0.9206911E-01
       -1   -1    0    0    0  501  0.00000000000E+00  0.00000000000E+00  0.13528493724E+04  0.13528493724E+04  0.50400001928E-02 0. -1.
        1   -1    0    0  501    0  0.00000000000E+00  0.00000000000E+00 -0.22288642191E+03  0.22288642196E+03  0.50400001928E-02 0.  1.
    10030    2    1    2    0    0  0.00000000000E+00  0.00000000000E+00  0.11299629505E+04  0.15757357944E+04  0.10982381455E+04 0.  0.
        4    1    3    3  502    0 -0.57489505968E+02 -0.51876112305E+03  0.32017501419E+03  0.61231674704E+03  0.12699999809E+01 0.  1.
       -4    1    3    3    0  502  0.57489505968E+02  0.51876112305E+03  0.80978793630E+03  0.96341904733E+03  0.12699999809E+01 0. -1.
</event>
<event>
 5   0  0.3713158E-03  0.1085578E+04  0.7818609E-02  0.9219364E-01
        2   -1    0    0  501    0  0.00000000000E+00  0.00000000000E+00  0.12122513428E+04  0.12122513428E+04  0.25500000920E-02 0. -1.
       -2   -1    0    0    0  501  0.00000000000E+00  0.00000000000E+00 -0.24303515097E+03  0.24303515099E+03  0.25500000920E-02 0.  1.
    10030    2    1    2    0    0  0.00000000000E+00  0.00000000000E+00  0.96921619181E+03  0.14552864938E+04  0.10855776124E+04 0.  0.
        4    1    3    3  502    0 -0.37652283610E+03  0.30399123808E+03  0.15504201655E+03  0.50815328271E+03  0.12699999809E+01 0.  1.
       -4    1    3    3    0  502  0.37652283610E+03 -0.30399123808E+03  0.81417417526E+03  0.94713321106E+03  0.12699999809E+01 0. -1.
</event>
<event>
 5   0  0.3748901E-03  0.1108191E+04  0.7818609E-02  0.9197245E-01
       -2   -1    0    0    0  501  0.00000000000E+00  0.00000000000E+00  0.40138636016E+03  0.40138636016E+03  0.25500000920E-02 0.  1.
        2   -1    0    0  501    0  0.00000000000E+00  0.00000000000E+00 -0.76490306170E+03  0.76490306170E+03  0.25500000920E-02 0. -1.
    10030    2    1    2    0    0  0.00000000000E+00  0.00000000000E+00 -0.36351670154E+03  0.11662894219E+04  0.11081906981E+04 0.  0.
        5    1    3    3  502    0 -0.99447629240E+02  0.51251334354E+03 -0.37706732278E+03  0.64401988648E+03  0.46999998093E+01 0. -1.
       -5    1    3    3    0  502  0.99447629240E+02 -0.51251334354E+03  0.13550621239E+02  0.52226953539E+03  0.46999998093E+01 0.  1.
</event>
<event>
 5   0  0.2257667E-03  0.9533950E+03  0.7818609E-02  0.9361191E-01
       -1   -1    0    0    0  501  0.00000000000E+00  0.00000000000E+00  0.13473525988E+03  0.13473525998E+03  0.50400001928E-02 0. -1.
        1   -1    0    0  501    0  0.00000000000E+00  0.00000000000E+00 -0.16865706011E+04  0.16865706011E+04  0.50400001928E-02 0.  1.
    10030    2    1    2    0    0  0.00000000000E+00  0.00000000000E+00 -0.15518353412E+04  0.18213058611E+04  0.95339504582E+03 0.  0.
        4    1    3    3  502    0  0.33817822560E+03 -0.33522289173E+03 -0.73320055081E+03  0.87425600370E+03  0.12699999809E+01 0. -1.
       -4    1    3    3    0  502 -0.33817822560E+03  0.33522289173E+03 -0.81863479044E+03  0.94704985741E+03  0.12699999809E+01 0.  1.
</event>
<event>
 5   0  0.3962999E-03  0.1099522E+04  0.7818609E-02  0.9205658E-01
        2   -1    0    0  501    0  0.00000000000E+00  0.00000000000E+00  0.12051345874E+04  0.12051345874E+04  0.25500000920E-02 0. -1.
       -2   -1    0    0    0  501  0.00000000000E+00  0.00000000000E+00 -0.25079130399E+03  0.25079130400E+03  0.25500000920E-02 0.  1.
    10030    2    1    2    0    0  0.00000000000E+00  0.00000000000E+00  0.95434328337E+03  0.14559258914E+04  0.10995222138E+04 0.  0.
        3    1    3    3  502    0 -0.67232319298E+02 -0.43732930597E+03  0.90921647342E+03  0.10111635438E+04  0.10100000352E+00 0.  1.
       -3    1    3    3    0  502  0.67232319298E+02  0.43732930597E+03  0.45126809949E+02  0.44476234755E+03  0.10100000352E+00 0. -1.
</event>
<event>
 5   0  0.3992414E-03  0.1108774E+04  0.7818609E-02  0.9196682E-01
        2   -1    0    0  501    0  0.00000000000E+00  0.00000000000E+00  0.12789307113E+04  0.12789307113E+04  0.25500000920E-02 0. -1.
       -2   -1    0    0    0  501  0.00000000000E+00  0.00000000000E+00 -0.24031419605E+03  0.24031419607E+03  0.25500000920E-02 0.  1.
    10030    2    1    2    0    0  0.00000000000E+00  0.00000000000E+00  0.10386165153E+04  0.15192449074E+04  0.11087744689E+04 0.  0.
        1    1    3    3  502    0 -0.14766201751E+03 -0.13632697521E+03 -0.18864484362E+03  0.27563742967E+03  0.50400001928E-02 0.  1.
       -1    1    3    3    0  502  0.14766201751E+03  0.13632697521E+03  0.12272613589E+04  0.12436074777E+04  0.50400001928E-02 0. -1.
</event>
<event>
 5   0  0.3744875E-03  0.1095616E+04  0.7818609E-02  0.9209476E-01
        2   -1    0    0  501    0  0.00000000000E+00  0.00000000000E+00  0.86541787147E+03  0.86541787148E+03  0.25500000920E-02 0.  1.
       -2   -1    0    0    0  501  0.00000000000E+00  0.00000000000E+00 -0.34676138489E+03  0.34676138490E+03  0.25500000920E-02 0. -1.
    10030    2    1    2    0    0  0.00000000000E+00  0.00000000000E+00  0.51865648659E+03  0.12121792564E+04  0.10956158079E+04 0.  0.
        2    1    3    3  502    0 -0.29575696507E+03 -0.18912414267E+02  0.76906547909E+03  0.82419146619E+03  0.25500000920E-02 0.  1.
       -2    1    3    3    0  502  0.29575696507E+03  0.18912414267E+02 -0.25040899251E+03  0.38798779019E+03  0.25500000920E-02 0. -1.
</event>
<event>
 5   0  0.1508625E-03  0.1100827E+04  0.7818609E-02  0.9204386E-01
       -4   -1    0    0    0  501  0.00000000000E+00  0.00000000000E+00  0.34610079081E+03  0.34610312090E+03  0.12699999809E+01 0.  1.
        4   -1    0    0  501    0  0.00000000000E+00  0.00000000000E+00 -0.87533147765E+03  0.87533239896E+03  0.12699999809E+01 0. -1.
    10030    2    1    2    0    0  0.00000000000E+00  0.00000000000E+00 -0.52923068684E+03  0.12214355199E+04  0.11008267844E+04 0.  0.
        4    1    3    3  502    0 -0.20619110745E+03  0.44925129739E+03  0.40081816868E+01  0.49432699645E+03  0.12699999809E+01 0.  1.
       -4    1    3    3    0  502  0.20619110745E+03 -0.44925129739E+03 -0.53323886853E+03  0.72710852341E+03  0.12699999809E+01 0. -1.
</event>
<event>
 5   0  0.2257667E-03  0.1117732E+04  0.7818609E-02  0.9188080E-01
        1   -1    0    0  501    0  0.00000000000E+00  0.00000000000E+00  0.29741483617E+03  0.29741483621E+03  0.50400001928E-02 0. -1.
       -1   -1    0    0    0  501  0.00000000000E+00  0.00000000000E+00 -0.10501525686E+04  0.10501525686E+04  0.50400001928E-02 0.  1.
    10030    2    1    2    0    0  0.00000000000E+00  0.00000000000E+00 -0.75273773243E+03  0.13475674048E+04  0.11177315495E+04 0.  0.
        4    1    3    3  502    0  0.64005754272E+02  0.52168412702E+03 -0.14736865748E+03  0.54586646633E+03  0.12699999809E+01 0. -1.
       -4    1    3    3    0  502 -0.64005754272E+02 -0.52168412702E+03 -0.60536907495E+03  0.80170093848E+03  0.12699999809E+01 0.  1.
</event>
<event>
 5   0  0.3748901E-03  0.1106742E+04  0.7818609E-02  0.9198645E-01
       -2   -1    0    0    0  501  0.00000000000E+00  0.00000000000E+00  0.29338399679E+03  0.29338399681E+03  0.25500000920E-02 0.  1.
        2   -1    0    0  501    0  0.00000000000E+00  0.00000000000E+00 -0.10437501600E+04  0.10437501600E+04  0.25500000920E-02 0. -1.
    10030    2    1    2    0    0  0.00000000000E+00  0.00000000000E+00 -0.75036616317E+03  0.13371341568E+04  0.11067422348E+04 0.  0.
        5    1    3    3  502    0  0.11678782656E+03 -0.50214099238E+03 -0.13230600636E+03  0.53227055336E+03  0.46999998093E+01 0.  1.
       -5    1    3    3    0  502 -0.11678782656E+03  0.50214099238E+03 -0.61806015682E+03  0.80486360341E+03  0.46999998093E+01 0. -1.
</event>
<event>
 5   0  0.3748901E-03  0.1085309E+04  0.7818609E-02  0.9219630E-01
       -2   -1    0    0    0  501  0.00000000000E+00  0.00000000000E+00  0.92903486029E+03  0.92903486029E+03  0.25500000920E-02 0. -1.
        2   -1    0    0  501    0  0.00000000000E+00  0.00000000000E+00 -0.31696764663E+03  0.31696764664E+03  0.25500000920E-02 0.  1.
    10030    2    1    2    0    0  0.00000000000E+00  0.00000000000E+00  0.61206721365E+03  0.12460025069E+04  0.10853091602E+04 0.  0.
        5    1    3    3  502    0 -0.51938227622E+03 -0.89647917462E+01  0.12591735454E+03  0.53452370061E+03  0.46999998093E+01 0.  1.
       -5    1    3    3    0  502  0.51938227622E+03  0.89647917462E+01  0.48614985911E+03  0.71147880633E+03  0.46999998093E+01 0. -1.
</event>
<event>
 5   0  0.2300702E-03  0.1093549E+04  0.7818609E-02  0.9211502E-01
       -1   -1    0    0    0  501  0.00000000000E+00  0.00000000000E+00  0.22404737476E+03  0.22404737482E+03  0.50400001928E-02 0. -1.
        1   -1    0    0  501    0  0.00000000000E+00  0.00000000000E+00 -0.13343713047E+04  0.13343713048E+04  0.50400001928E-02 0.  1.
    10030    2    1    2    0    0  0.00000000000E+00  0.00000000000E+00 -0.11103239300E+04  0.15584186796E+04  0.10935490622E+04 0.  0.
        5    1    3    3  502    0 -0.10148349759E+03 -0.48163825618E+03 -0.21592192611E+03  0.53751156106E+03  0.46999998093E+01 0.  1.
       -5    1    3    3    0  502  0.10148349759E+03  0.48163825618E+03 -0.89440200387E+03  0.10209071185E+04  0.46999998093E+01 0. -1.
</event>
<event>
 5   0  0.2257667E-03  0.1078856E+04  0.7818609E-02  0.9226048E-01
        1   -1    0    0  501    0  0.00000000000E+00  0.00000000000E+00  0.56520226449E+03  0.56520226452E+03  0.50400001928E-02 0. -1.
       -1   -1    0    0    0  501  0.00000000000E+00  0.00000000000E+00 -0.51482941618E+03  0.51482941620E+03  0.50400001928E-02 0.  1.
    10030    2    1    2    0    0  0.00000000000E+00  0.00000000000E+00  0.50372848313E+02  0.10800316807E+04  0.10788563424E+04 0.  0.
        4    1    3    3  502    0  0.47451958698E+02 -0.19885668912E+03 -0.47454220592E+03  0.51670841806E+03  0.12699999809E+01 0.  1.
       -4    1    3    3    0  502 -0.47451958698E+02  0.19885668912E+03  0.52491505423E+03  0.56332326266E+03  0.12699999809E+01 0. -1.
</event>
<event>
 5   0  0.2255788E-03  0.1093218E+04  0.7818609E-02  0.9211827E-01
        1   -1    0    0  501    0  0.00000000000E+00  0.00000000000E+00  0.76372469065E+03  0.76372469067E+03  0.50400001928E-02 0.  1.
       -1   -1    0    0    0  501  0.00000000000E+00  0.00000000000E+00 -0.39121638728E+03  0.39121638731E+03  0.50400001928E-02 0. -1.
    10030    2    1    2    0    0  0.00000000000E+00  0.00000000000E+00  0.37250830338E+03  0.11549410780E+04  0.10932183942E+04 0.  0.
        3    1    3    3  502    0 -0.33694381085E+03 -0.42591735149E+03  0.12074614010E+03  0.55634194748E+03  0.10100000352E+00 0. -1.
       -3    1    3    3    0  502  0.33694381085E+03  0.42591735149E+03  0.25176216328E+03  0.59859913050E+03  0.10100000352E+00 0.  1.
</event>
<event>
 5   0  0.1508625E-03  0.1089668E+04  0.7818609E-02  0.9215321E-01
       -3   -1    0    0    0  501  0.00000000000E+00  0.00000000000E+00  0.43303165984E+03  0.43303167161E+03  0.10100000352E+00 0. -1.
        3   -1    0    0  501    0  0.00000000000E+00  0.00000000000E+00 -0.68550225475E+03  0.68550226219E+03  0.10100000352E+00 0.  1.
    10030    2    1    2    0    0  0.00000000000E+00  0.00000000000E+00 -0.25247059492E+03  0.11185339338E+04  0.10896681879E+04 0.  0.
        1    1    3    3  502    0 -0.48914598812E+03 -0.33445959664E+02 -0.37014669682E+03  0.61432158281E+03  0.50400001928E-02 0.  1.
       -1    1    3    3    0  502  0.48914598812E+03  0.33445959664E+02  0.11767610190E+03  0.50421235100E+03  0.50400001928E-02 0. -1.
</event>
<event>
 5   0  0.2300702E-03  0.1104321E+04  0.7818609E-02  0.9200991E-01
        1   -1    0    0  501    0  0.00000000000E+00  0.00000000000E+00  0.16721606742E+04  0.16721606742E+04  0.50400001928E-02 0. -1.
       -1   -1    0    0    0  501  0.00000000000E+00  0.00000000000E+00 -0.18232763000E+03  0.18232763007E+03  0.50400001928E-02 0.  1.
    10030    2    1    2    0    0  0.00000000000E+00  0.00000000000E+00  0.14898330442E+04  0.18544883043E+04  0.11043207737E+04 0.  0.
        5    1    3    3  502    0 -0.23071984869E+03 -0.25343252775E+03  0.14718804278E+04  0.15112623130E+04  0.46999998093E+01 0. -1.
       -5    1    3    3    0  502  0.23071984869E+03  0.25343252775E+03  0.17952616387E+02  0.34322599135E+03  0.46999998093E+01 0.  1.
</event>
<event>
 5   0  0.2257667E-03  0.1099471E+04  0.7818609E-02  0.9205707E-01
       -1   -1    0    0    0  501  0.00000000000E+00  0.00000000000E+00  0.28918860319E+03  0.28918860323E+03  0.50400001928E-02 0.  1.
        1   -1    0    0  501    0  0.00000000000E+00  0.00000000000E+00 -0.10450249555E+04  0.10450249555E+04  0.50400001928E-02 0. -1.
    10030    2    1    2    0    0  0.00000000000E+00  0.00000000000E+00 -0.75583635234E+03  0.13342135588E+04  0.10994713406E+04 0.  0.
        4    1    3    3  502    0  0.53597818523E+03  0.49050210724E+02 -0.24208609759E+03  0.59015746184E+03  0.12699999809E+01 0.  1.
       -4    1    3    3    0  502 -0.53597818523E+03 -0.49050210724E+02 -0.51375025475E+03  0.74405609693E+03  0.12699999809E+01 0. -1.
</event>
<event>
 5   0  0.1508625E-03  0.1084724E+04  0.7818609E-02  0.9220210E-01
        3   -1    0    0  501    0  0.00000000000E+00  0.00000000000E+00  0.27131938438E+03  0.27131940318E+03  0.10100000352E+00 0.  1.
       -3   -1    0    0    0  501  0.00000000000E+00  0.00000000000E+00 -0.10841708921E+04  0.10841708968E+04  0.10100000352E+00 0. -1.
    10030    2    1    2    0    0  0.00000000000E+00  0.00000000000E+00 -0.81285150769E+03  0.13554903000E+04  0.10847241030E+04 0.  0.
        2    1    3    3  502    0 -0.54204676137E+03 -0.18460997116E+02 -0.40511812702E+03  0.67696100093E+03  0.25500000920E-02 0. -1.
       -2    1    3    3    0  502  0.54204676137E+03  0.18460997116E+02 -0.40773338066E+03  0.67852929903E+03  0.25500000920E-02 0.  1.
</event>
<event>
 5   0  0.3992414E-03  0.1131259E+04  0.7818609E-02  0.9175249E-01
        2   -1    0    0  501    0  0.00000000000E+00  0.00000000000E+00  0.77740923756E+03  0.77740923756E+03  0.25500000920E-02 0.  1.
       -2   -1    0    0    0  501  0.00000000000E+00  0.00000000000E+00 -0.41154196575E+03  0.41154196575E+03  0.25500000920E-02 0. -1.
    10030    2    1    2    0    0  0.00000000000E+00  0.00000000000E+00  0.36586727181E+03  0.11889512033E+04  0.11312586368E+04 0.  0.
        1    1    3    3  502    0  0.49783416481E+02 -0.22717067143E+02  0.77462069291E+03  0.77655113908E+03  0.50400001928E-02 0.  1.
       -1    1    3    3    0  502 -0.49783416481E+02  0.22717067143E+02 -0.40875342110E+03  0.41240006424E+03  0.50400001928E-02 0. -1.
</event>
<event>
 5   0  0.2298958E-03  0.1096199E+04  0.7818609E-02  0.9208905E-01
       -1   -1    0    0    0  501  0.00000000000E+00  0.00000000000E+00  0.97982977398E+03  0.97982977399E+03  0.50400001928E-02 0. -1.
        1   -1    0    0  501    0  0.00000000000E+00  0.00000000000E+00 -0.30659712661E+03  0.30659712665E+03  0.50400001928E-02 0.  1.
    10030    2    1    2    0    0  0.00000000000E+00  0.00000000000E+00  0.67323264737E+03  0.12864269006E+04  0.10961988748E+04 0.  0.
        1    1    3    3  502    0  0.23665888748E+03 -0.29879248370E+03  0.79882885954E+03  0.88510560059E+03  0.50400001928E-02 0. -1.
       -1    1    3    3    0  502 -0.23665888748E+03  0.29879248370E+03 -0.12559621217E+03  0.40132130005E+03  0.50400001928E-02 0.  1.
</event>
<event>
 5   0  0.3713158E-03  0.1025476E+04  0.7818609E-02  0.9281036E-01
       -2   -1    0    0    0  501  0.00000000000E+00  0.00000000000E+00  0.70307587080E+03  0.70307587080E+03  0.25500000920E-02 0. -1.
        2   -1    0    0  501    0  0.00000000000E+00  0.00000000000E+00 -0.37392906170E+03  0.37392906171E+03  0.25500000920E-02 0.  1.
    10030    2    1    2    0    0  0.00000000000E+00  0.00000000000E+00  0.32914680910E+03  0.10770049325E+04  0.10254764759E+04 0.  0.
        4    1    3    3  502    0 -0.21916078197E+03 -0.42066453227E+03  0.36905863978E+03  0.60099583156E+03  0.12699999809E+01 0. -1.
       -4    1    3    3    0  502  0.21916078197E+03  0.42066453227E+03 -0.39911830683E+02  0.47600910095E+03  0.12699999809E+01 0.  1.
</event>
<event>
 5   0  0.3748901E-03  0.1095051E+04  0.7818609E-02  0.9210029E-01
       -2   -1    0    0    0  501  0.00000000000E+00  0.00000000000E+00  0.45837802874E+03  0.45837802875E+03  0.25500000920E-02 0.  1.
        2   -1    0    0  501    0  0.00000000000E+00  0.00000000000E+00 -0.65401071916E+03  0.65401071916E+03  0.25500000920E-02 0. -1.
    10030    2    1    2    0    0  0.00000000000E+00  0.00000000000E+00 -0.19563269042E+03  0.11123887479E+04  0.10950509472E+04 0.  0.
        5    1    3    3  502    0 -0.88830756948E+02 -0.19132991515E+03 -0.61105228368E+03  0.64645573955E+03  0.46999998093E+01 0. -1.
       -5    1    3    3    0  502  0.88830756948E+02  0.19132991515E+03  0.41541959326E+03  0.46593300836E+03  0.46999998093E+01 0.  1.
</event>
<event>
 5   0  0.1508625E-03  0.1091640E+04  0.7818609E-02  0.9213378E-01
       -4   -1    0    0    0  501  0.00000000000E+00  0.00000000000E+00  0.77973917575E+03  0.77974021001E+03  0.12699999809E+01 0.  1.
        4   -1    0    0  501    0  0.00000000000E+00  0.00000000000E+00 -0.38207377048E+03  0.38207588119E+03  0.12699999809E+01 0. -1.
    10030    2    1    2    0    0  0.00000000000E+00  0.00000000000E+00  0.39766540527E+03  0.11618160912E+04  0.10916404423E+04 0.  0.
        3    1    3    3  502    0 -0.35427396938E+03  0.47690200924E+02  0.63782306909E+03  0.73116528795E+03  0.10100000352E+00 0.  1.
       -3    1    3    3    0  502  0.35427396938E+03 -0.47690200924E+02 -0.24015766381E+03  0.43065080324E+03  0.10100000352E+00 0. -1.
</event>
<event>
 5   0  0.2298958E-03  0.1020615E+04  0.7818609E-02  0.9286220E-01
        1   -1    0    0  501    0  0.00000000000E+00  0.00000000000E+00  0.21708339231E+03  0.21708339237E+03  0.50400001928E-02 0.  1.
       -1   -1    0    0    0  501  0.00000000000E+00  0.00000000000E+00 -0.11996012701E+04  0.11996012701E+04  0.50400001928E-02 0. -1.
    10030    2    1    2    0    0  0.00000000000E+00  0.00000000000E+00 -0.98251787780E+03  0.14166846625E+04  0.10206145466E+04 0.  0.
        1    1    3    3  502    0 -0.40051576156E+03 -0.31301866928E+03 -0.55364417333E+03  0.75160856386E+03  0.50400001928E-02 0. -1.
       -1    1    3    3    0  502  0.40051576156E+03  0.31301866928E+03 -0.42887370447E+03  0.66507609864E+03  0.50400001928E-02 0.  1.
</event>
<event>
 5   0  0.3744875E-03  0.1107428E+04  0.7818609E-02  0.9197982E-01
        2   -1    0    0  501    0  0.00000000000E+00  0.00000000000E+00  0.31183086776E+03  0.31183086777E+03  0.25500000920E-02 0.  1.
       -2   -1    0    0    0  501  0.00000000000E+00  0.00000000000E+00 -0.98322283548E+03  0.98322283548E+03  0.25500000920E-02 0. -1.
    10030    2    1    2    0    0  0.00000000000E+00  0.00000000000E+00 -0.67139196772E+03  0.12950537033E+04  0.11074280654E+04 0.  0.
        2    1    3    3  502    0 -0.20308783276E+02 -0.48590689633E+03 -0.64527622816E+03  0.80802188659E+03  0.25500000920E-02 0. -1.
       -2    1    3    3    0  502  0.20308783276E+02  0.48590689633E+03 -0.26115739563E+02  0.48703181666E+03  0.25500000920E-02 0.  1.
</event>
<event>
 5   0  0.2255788E-03  0.1100304E+04  0.7818609E-02  0.9204895E-01
       -1   -1    0    0    0  501  0.00000000000E+00  0.00000000000E+00  0.18732608019E+03  0.18732608025E+03  0.50400001928E-02 0. -1.
        1   -1    0    0  501    0  0.00000000000E+00  0.00000000000E+00 -0.16157242832E+04  0.16157242833E+04  0.50400001928E-02 0.  1.
    10030    2    1    2    0    0  0.00000000000E+00  0.00000000000E+00 -0.14283982031E+04  0.18030503635E+04  0.11003041338E+04 0.  0.
        3    1    3    3  502    0  0.22967585719E+03  0.66998990652E+02  0.97615122206E+02  0.25839618111E+03  0.10100000352E+00 0. -1.
       -3    1    3    3    0  502 -0.22967585719E+03 -0.66998990652E+02 -0.15260133253E+04  0.15446541824E+04  0.10100000352E+00 0.  1.
</event>
<event>
 5   0  0.2255788E-03  0.1080044E+04  0.7818609E-02  0.9224863E-01
        1   -1    0    0  501    0  0.00000000000E+00  0.00000000000E+00  0.66767529475E+03  0.66767529477E+03  0.50400001928E-02 0.  1.
       -1   -1    0    0    0  501  0.00000000000E+00  0.00000000000E+00 -0.43677518373E+03  0.43677518376E+03  0.50400001928E-02 0. -1.
    10030    2    1    2    0    0  0.00000000000E+00  0.00000000000E+00  0.23090011102E+03  0.11044504785E+04  0.10800444427E+04 0.  0.
        3    1    3    3  502    0  0.51686059224E+03  0.99107455877E+02 -0.83510841191E+01  0.52634295894E+03  0.10100000352E+00 0. -1.
       -3    1    3    3    0  502 -0.51686059224E+03 -0.99107455877E+02  0.23925119514E+03  0.57810751958E+03  0.10100000352E+00 0.  1.
</event>
<event>
 5   0  0.3744875E-03  0.1085719E+04  0.7818609E-02  0.9219224E-01
        2   -1    0    0  501    0  0.00000000000E+00  0.00000000000E+00  0.17441238363E+04  0.17441238363E+04  0.25500000920E-02 0.  1.
       -2   -1    0    0    0  501  0.00000000000E+00  0.00000000000E+00 -0.16896523128E+03  0.16896523130E+03  0.25500000920E-02 0. -1.
    10030    2    1    2    0    0  0.00000000000E+00  0.00000000000E+00  0.15751586050E+04  0.19130890676E+04  0.10857187249E+04 0.  0.
        2    1    3    3  502    0 -0.10608773815E+03  0.49264239279E+03  0.43190226074E+03  0.66369473269E+03  0.25500000920E-02 0. -1.
       -2    1    3    3    0  502  0.10608773815E+03 -0.49264239279E+03  0.11432563443E+04  0.12493943349E+04  0.25500000920E-02 0.  1.
</event>
<event>
 5   0  0.2255788E-03  0.1104590E+04  0.7818609E-02  0.9200730E-01
       -1   -1    0    0    0  501  0.00000000000E+00  0.00000000000E+00  0.38227908759E+03  0.38227908762E+03  0.50400001928E-02 0.  1.
        1   -1    0    0  501    0  0.00000000000E+00  0.00000000000E+00 -0.79792364300E+03  0.79792364301E+03  0.50400001928E-02 0. -1.
    10030    2    1    2    0    0  0.00000000000E+00  0.00000000000E+00 -0.41564455541E+03  0.11802027306E+04  0.11045895568E+04 0.  0.
        3    1    3    3  502    0 -0.63828575145E+02 -0.38139414454E+03 -0.62914259683E+03  0.73848222581E+03  0.10100000352E+00 0. -1.
       -3    1    3    3    0  502  0.63828575145E+02  0.38139414454E+03  0.21349804142E+03  0.44172050483E+03  0.10100000352E+00 0.  1.
</event>
<event>
 5   0  0.3962999E-03  0.1088014E+04  0.7818609E-02  0.9216954E-01
        2   -1    0    0  501    0  0.00000000000E+00  0.00000000000E+00  0.15191666064E+04  0.15191666064E+04  0.25500000920E-02 0.  1.
       -2   -1    0    0    0  501  0.00000000000E+00  0.00000000000E+00 -0.19480640469E+03  0.19480640470E+03  0.25500000920E-02 0. -1.
    10030    2    1    2    0    0  0.00000000000E+00  0.00000000000E+00  0.13243602017E+04  0.17139730111E+04  0.10880135748E+04 0.  0.
        3    1    3    3  502    0  0.37531406161E+03 -0.32950580683E+03  0.32244803058E+03  0.59448083586E+03  0.10100000352E+00 0. -1.
       -3    1    3    3    0  502 -0.37531406161E+03  0.32950580683E+03  0.10019121711E+04  0.11194921752E+04  0.10100000352E+00 0.  1.
</event>
<event>
 5   0  0.3962999E-03  0.1083172E+04  0.7818609E-02  0.9221751E-01
        2   -1    0    0  501    0  0.00000000000E+00  0.00000000000E+00  0.17363476159E+04  0.17363476159E+04  0.25500000920E-02 0.  1.
       -2   -1    0    0    0  501  0.00000000000E+00  0.00000000000E+00 -0.16892651014E+03  0.16892651016E+03  0.25500000920E-02 0. -1.
    10030    2    1    2    0    0  0.00000000000E+00  0.00000000000E+00  0.15674211057E+04  0.19052741260E+04  0.10831715343E+04 0.  0.
        3    1    3    3  502    0  0.10376268337E+03  0.44588950708E+03  0.12926936196E+04  0.13713646311E+04  0.10100000352E+00 0.  1.
       -3    1    3    3    0  502 -0.10376268337E+03 -0.44588950708E+03  0.27472748616E+03  0.53390949499E+03  0.10100000352E+00 0. -1.
</event>
<event>
 5   0  0.3744875E-03  0.1108193E+04  0.7818609E-02  0.9197243E-01
        2   -1    0    0  501    0  0.00000000000E+00  0.00000000000E+00  0.11265418746E+04  0.11265418746E+04  0.25500000920E-02 0. -1.
       -2   -1    0    0    0  501  0.00000000000E+00  0.00000000000E+00 -0.27253595847E+03  0.27253595849E+03  0.25500000920E-02 0.  1.
    10030    2    1    2    0    0  0.00000000000E+00  0.00000000000E+00  0.85400591612E+03  0.13990778331E+04  0.11081934300E+04 0.  0.
        2    1    3    3  502    0  0.14734723041E+02  0.17360992275E+03 -0.23705185261E+03  0.29419568007E+03  0.25500000920E-02 0.  1.
       -2    1    3    3    0  502 -0.14734723041E+02 -0.17360992275E+03  0.10910577687E+04  0.11048821530E+04  0.25500000920E-02 0. -1.
</event>
<event>
 5   0  0.2257667E-03  0.1100118E+04  0.7818609E-02  0.9205077E-01
       -1   -1    0    0    0  501  0.00000000000E+00  0.00000000000E+00  0.42525244883E+03  0.42525244886E+03  0.50400001928E-02 0.  1.
        1   -1    0    0  501    0  0.00000000000E+00  0.00000000000E+00 -0.71149427935E+03  0.71149427936E+03  0.50400001928E-02 0. -1.
    10030    2    1    2    0    0  0.00000000000E+00  0.00000000000E+00 -0.28624183052E+03  0.11367467282E+04  0.11001176022E+04 0.  0.
        4    1    3    3  502    0  0.32904407710E+03 -0.51401698253E+02 -0.59547661586E+03  0.68228011270E+03  0.12699999809E+01 0. -1.
       -4    1    3    3    0  502 -0.32904407710E+03  0.51401698253E+02  0.30923478534E+03  0.45446661552E+03  0.12699999809E+01 0.  1.
</event>
<event>
 5   0  0.3992414E-03  0.1104672E+04  0.7818609E-02  0.9200650E-01
       -2   -1    0    0    0  501  0.00000000000E+00  0.00000000000E+00  0.59068842412E+03  0.59068842412E+03  0.25500000920E-02 0.  1.
        2   -1    0    0  501    0  0.00000000000E+00  0.00000000000E+00 -0.51647407518E+03  0.51647407518E+03  0.25500000920E-02 0. -1.
    10030    2    1    2    0    0  0.00000000000E+00  0.00000000000E+00  0.74214348938E+02  0.11071624993E+04  0.11046723633E+04 0.  0.
        1    1    3    3  502    0  0.27985151155E+03 -0.18303971592E+03 -0.40349139320E+03  0.52404743157E+03  0.50400001928E-02 0.  1.
       -1    1    3    3    0  502 -0.27985151155E+03  0.18303971592E+03  0.47770574214E+03  0.58311506773E+03  0.50400001928E-02 0. -1.
</event>
<event>
 5   0  0.3744875E-03  0.1084390E+04  0.7818609E-02  0.9220541E-01
        2   -1    0    0  501    0  0.00000000000E+00  0.00000000000E+00  0.18391450554E+04  0.18391450554E+04  0.25500000920E-02 0.  1.
       -2   -1    0    0    0  501  0.00000000000E+00  0.00000000000E+00 -0.15984353682E+03  0.15984353684E+03  0.25500000920E-02 0. -1.
    10030    2    1    2    0    0  0.00000000000E+00  0.00000000000E+00  0.16793015185E+04  0.19989885922E+04  0.10843900597E+04 0.  0.
        2    1    3    3  502    0  0.72448495818E+02  0.30242637289E+03  0.16583978249E+04  0.16873037193E+04  0.25500000920E-02 0.  1.
       -2    1    3    3    0  502 -0.72448495818E+02 -0.30242637289E+03  0.20903693614E+02  0.31168487287E+03  0.25500000920E-02 0. -1.
</event>
<event>
 5   0  0.3713158E-03  0.1098106E+04  0.7818609E-02  0.9207040E-01
       -2   -1    0    0    0  501  0.00000000000E+00  0.00000000000E+00  0.12871614276E+03  0.12871614279E+03  0.25500000920E-02 0.  1.
        2   -1    0    0  501    0  0.00000000000E+00  0.00000000000E+00 -0.23420447868E+04  0.23420447868E+04  0.25500000920E-02 0. -1.
    10030    2    1    2    0    0  0.00000000000E+00  0.00000000000E+00 -0.22133286441E+04  0.24707609296E+04  0.10981055890E+04 0.  0.
        4    1    3    3  502    0 -0.54259938198E+03  0.95252517391E+00 -0.12954833619E+04  0.14045261658E+04  0.12699999809E+01 0. -1.
       -4    1    3    3    0  502  0.54259938198E+03 -0.95252517391E+00 -0.91784528220E+03  0.10662347638E+04  0.12699999809E+01 0.  1.
</event>
<event>
 5   0  0.3962999E-03  0.1098016E+04  0.7818609E-02  0.9207128E-01
       -2   -1    0    0    0  501  0.00000000000E+00  0.00000000000E+00  0.21575219631E+03  0.21575219633E+03  0.25500000920E-02 0. -1.
        2   -1    0    0  501    0  0.00000000000E+00  0.00000000000E+00 -0.13970179020E+04  0.13970179020E+04  0.25500000920E-02 0.  1.
    10030    2    1    2    0    0  0.00000000000E+00  0.00000000000E+00 -0.11812657057E+04  0.16127700984E+04  0.10980158117E+04 0.  0.
        3    1    3    3  502    0 -0.48984808898E+03 -0.12513578459E+03 -0.27629657904E+03  0.57615095648E+03  0.10100000352E+00 0. -1.
       -3    1    3    3    0  502  0.48984808898E+03  0.12513578459E+03 -0.90496912668E+03  0.10366191419E+04  0.10100000352E+00 0.  1.
</event>
<event>
 5   0  0.1508625E-03  0.1099899E+04  0.7818609E-02  0.9205290E-01
       -4   -1    0    0    0  501  0.00000000000E+00  0.00000000000E+00  0.73705067938E+03  0.73705177353E+03  0.12699999809E+01 0. -1.
        4   -1    0    0  501    0  0.00000000000E+00  0.00000000000E+00 -0.41034171809E+03  0.41034368339E+03  0.12699999809E+01 0.  1.
    10030    2    1    2    0    0  0.00000000000E+00  0.00000000000E+00  0.32670896129E+03  0.11473954569E+04  0.10998988995E+04 0.  0.
        1    1    3    3  502    0 -0.96055991231E+02  0.29916108639E+03  0.63419897812E+03  0.70776581787E+03  0.50400001928E-02 0. -1.
       -1    1    3    3    0  502  0.96055991231E+02 -0.29916108639E+03 -0.30749001683E+03  0.43962963906E+03  0.50400001928E-02 0.  1.
</event>
<event>
 5   0  0.3992414E-03  0.1110696E+04  0.7818609E-02  0.9194829E-01
       -2   -1    0    0    0  501  0.00000000000E+00  0.00000000000E+00  0.15165245333E+03  0.15165245335E+03  0.25500000920E-02 0. -1.
        2   -1    0    0  501    0  0.00000000000E+00  0.00000000000E+00 -0.20336710273E+04  0.20336710273E+04  0.25500000920E-02 0.  1.
    10030    2    1    2    0    0  0.00000000000E+00  0.00000000000E+00 -0.18820185740E+04  0.21853234806E+04  0.11106956389E+04 0.  0.
        1    1    3    3  502    0 -0.31454352885E+03 -0.21401070951E+01 -0.40515887693E+02  0.31714941082E+03  0.50400001928E-02 0. -1.
       -1    1    3    3    0  502  0.31454352885E+03  0.21401070951E+01 -0.18415026863E+04  0.18681740698E+04  0.50400001928E-02 0.  1.
</event>
<event>
 5   0  0.3713158E-03  0.1095195E+04  0.7818609E-02  0.9209888E-01
        2   -1    0    0  501    0  0.00000000000E+00  0.00000000000E+00  0.26726530428E+04  0.26726530428E+04  0.25500000920E-02 0. -1.
       -2   -1    0    0    0  501  0.00000000000E+00  0.00000000000E+00 -0.11219666764E+03  0.11219666766E+03  0.25500000920E-02 0.  1.
    10030    2    1    2    0    0  0.00000000000E+00  0.00000000000E+00  0.25604563752E+04  0.27848497105E+04  0.10951945310E+04 0.  0.
        4    1    3    3  502    0  0.17867234471E+03  0.31431987764E+02 -0.33558784507E+02  0.18449818844E+03  0.12699999809E+01 0.  1.
       -4    1    3    3    0  502 -0.17867234471E+03 -0.31431987764E+02  0.25940151597E+04  0.26003515220E+04  0.12699999809E+01 0. -1.
</event>
<event>
 5   0  0.2298958E-03  0.1117982E+04  0.7818609E-02  0.9187840E-01
        1   -1    0    0  501    0  0.00000000000E+00  0.00000000000E+00  0.95601555762E+03  0.95601555763E+03  0.50400001928E-02 0.  1.
       -1   -1    0    0    0  501  0.00000000000E+00  0.00000000000E+00 -0.32684728840E+03  0.32684728844E+03  0.50400001928E-02 0. -1.
    10030    2    1    2    0    0  0.00000000000E+00  0.00000000000E+00  0.62916826922E+03  0.12828628461E+04  0.11179822766E+04 0.  0.
        1    1    3    3  502    0 -0.15531977359E+03 -0.45863166937E+01 -0.30156675710E+03  0.33924589221E+03  0.50400001928E-02 0. -1.
       -1    1    3    3    0  502  0.15531977359E+03  0.45863166937E+01  0.93073502632E+03  0.94361695386E+03  0.50400001928E-02 0.  1.
</event>
<event>
 5   0  0.2374100E-03  0.1096858E+04  0.7818609E-02  0.9208260E-01
        1   -1    0    0  501    0  0.00000000000E+00  0.00000000000E+00  0.94260761883E+03  0.94260761884E+03  0.50400001928E-02 0. -1.
       -1   -1    0    0    0  501  0.00000000000E+00  0.00000000000E+00 -0.31908749042E+03  0.31908749046E+03  0.50400001928E-02 0.  1.
    10030    2    1    2    0    0  0.00000000000E+00  0.00000000000E+00  0.62352012841E+03  0.12616951093E+04  0.10968578752E+04 0.  0.
        2    1    3    3  502    0  0.24075163629E+03 -0.46627961552E+03  0.49507127422E+03  0.72143856065E+03  0.25500000920E-02 0. -1.
       -2    1    3    3    0  502 -0.24075163629E+03  0.46627961552E+03  0.12844885419E+03  0.54025654866E+03  0.25500000920E-02 0.  1.
</event>
<event>
 5   0  0.2300702E-03  0.1107029E+04  0.7818609E-02  0.9198367E-01
        1   -1    0    0  501    0  0.00000000000E+00  0.00000000000E+00  0.71161873390E+03  0.71161873391E+03  0.50400001928E-02 0. -1.
       -1   -1    0    0    0  501  0.00000000000E+00  0.00000000000E+00 -0.43053750042E+03  0.43053750045E+03  0.50400001928E-02 0.  1.
    10030    2    1    2    0    0  0.00000000000E+00  0.00000000000E+00  0.28108123348E+03  0.11421562344E+04  0.11070294503E+04 0.  0.
        5    1    3    3  502    0  0.17977214178E+03  0.26576673371E+03  0.60585741761E+03  0.68559119027E+03  0.46999998093E+01 0. -1.
       -5    1    3    3    0  502 -0.17977214178E+03 -0.26576673371E+03 -0.32477618413E+03  0.45656504409E+03  0.46999998093E+01 0.  1.
</event>
<event>
 5   0  0.1508625E-03  0.1109015E+04  0.7818609E-02  0.9196450E-01
        3   -1    0    0  501    0  0.00000000000E+00  0.00000000000E+00  0.10507215434E+04  0.10507215483E+04  0.10100000352E+00 0. -1.
       -3   -1    0    0    0  501  0.00000000000E+00  0.00000000000E+00 -0.29263556280E+03  0.29263558023E+03  0.10100000352E+00 0.  1.
    10030    2    1    2    0    0  0.00000000000E+00  0.00000000000E+00  0.75808598062E+03  0.13433571285E+04  0.11090148875E+04 0.  0.
        2    1    3    3  502    0 -0.30654718572E+03 -0.21339909037E+03 -0.11739794559E+03  0.39152602274E+03  0.25500000920E-02 0.  1.
       -2    1    3    3    0  502  0.30654718572E+03  0.21339909037E+03  0.87548392620E+03  0.95183110576E+03  0.25500000920E-02 0. -1.
</event>
<event>
 5   0  0.2255788E-03  0.1099794E+04  0.7818609E-02  0.9205393E-01
       -1   -1    0    0    0  501  0.00000000000E+00  0.00000000000E+00  0.40930022691E+03  0.40930022694E+03  0.50400001928E-02 0.  1.
        1   -1    0    0  501    0  0.00000000000E+00  0.00000000000E+00 -0.73878936324E+03  0.73878936326E+03  0.50400001928E-02 0. -1.
    10030    2    1    2    0    0  0.00000000000E+00  0.00000000000E+00 -0.32948913634E+03  0.11480895902E+04  0.10997938971E+04 0.  0.
        3    1    3    3  502    0 -0.11365559654E+03  0.18377552703E+03  0.36312436770E+03  0.42255219273E+03  0.10100000352E+00 0.  1.
       -3    1    3    3    0  502  0.11365559654E+03 -0.18377552703E+03 -0.69261350403E+03  0.72553739747E+03  0.10100000352E+00 0. -1.
</event>
<event>
 5   0  0.3713158E-03  0.9292230E+03  0.7818609E-02  0.9389771E-01
       -2   -1    0    0    0  501  0.00000000000E+00  0.00000000000E+00  0.25010221150E+03  0.25010221152E+03  0.25500000920E-02 0.  1.
        2   -1    0    0  501    0  0.00000000000E+00  0.00000000000E+00 -0.86310256129E+03  0.86310256129E+03  0.25500000920E-02 0. -1.
    10030    2    1    2    0    0  0.00000000000E+00  0.00000000000E+00 -0.61300034978E+03  0.11132047728E+04  0.92922302886E+03 0.  0.
        4    1    3    3  502    0 -0.18341095762E+03  0.82943918450E+02  0.19514804889E+03  0.28036341927E+03  0.12699999809E+01 0.  1.
       -4    1    3    3    0  502  0.18341095762E+03 -0.82943918450E+02 -0.80814839867E+03  0.83284135353E+03  0.12699999809E+01 0. -1.
</event>
<event>
 5   0  0.2298958E-03  0.1014156E+04  0.7818609E-02  0.9293153E-01
       -1   -1    0    0    0  501  0.00000000000E+00  0.00000000000E+00  0.57854008449E+03  0.57854008451E+03  0.50400001928E-02 0. -1.
        1   -1    0    0  501    0  0.00000000000E+00  0.00000000000E+00 -0.44444315014E+03  0.44444315017E+03  0.50400001928E-02 0.  1.
    10030    2    1    2    0    0  0.00000000000E+00  0.00000000000E+00  0.13409693435E+03  0.10229832347E+04  0.10141561569E+04 0.  0.
        1    1    3    3  502    0 -0.34079700581E+03  0.44578853397E+02 -0.30902131256E+03  0.46219481280E+03  0.50400001928E-02 0.  1.
       -1    1    3    3    0  502  0.34079700581E+03 -0.44578853397E+02  0.44311824692E+03  0.56078842188E+03  0.50400001928E-02 0. -1.
</event>
<event>
 5   0  0.3748901E-03  0.1085928E+04  0.7818609E-02  0.9219017E-01
        2   -1    0    0  501    0  0.00000000000E+00  0.00000000000E+00  0.65490197804E+03  0.65490197804E+03  0.25500000920E-02 0.  1.
       -2   -1    0    0    0  501  0.00000000000E+00  0.00000000000E+00 -0.45015892449E+03  0.45015892450E+03  0.25500000920E-02 0. -1.
    10030    2    1    2    0    0  0.00000000000E+00  0.00000000000E+00  0.20474305355E+03  0.11050609025E+04  0.10859281193E+04 0.  0.
        5    1    3    3  502    0  0.44502278407E+03 -0.27822220075E+02  0.41761749900E+03  0.61093847459E+03  0.46999998093E+01 0.  1.
       -5    1    3    3    0  502 -0.44502278407E+03  0.27822220075E+02 -0.21287444545E+03  0.49412242794E+03  0.46999998093E+01 0. -1.
</event>
<event>
 5   0  0.3748901E-03  0.1105794E+04  0.7818609E-02  0.9199563E-01
       -2   -1    0    0    0  501  0.00000000000E+00  0.00000000000E+00  0.16436022906E+03  0.16436022908E+03  0.25500000920E-02 0.  1.
        2   -1    0    0  501    0  0.00000000000E+00  0.00000000000E+00 -0.18599105476E+04  0.18599105476E+04  0.25500000920E-02 0. -1.
    10030    2    1    2    0    0  0.00000000000E+00  0.00000000000E+00 -0.16955503186E+04  0.20242707767E+04  0.11057944179E+04 0.  0.
        5    1    3    3  502    0  0.14381401892E+03  0.91135630733E+02  0.11513787547E+03  0.20558938590E+03  0.46999998093E+01 0.  1.
       -5    1    3    3    0  502 -0.14381401892E+03 -0.91135630733E+02 -0.18106881940E+04  0.18186813908E+04  0.46999998093E+01 0. -1.
</event>
<event>
 5   0  0.3748901E-03  0.1140988E+04  0.7818609E-02  0.9166138E-01
       -2   -1    0    0    0  501  0.00000000000E+00  0.00000000000E+00  0.80707938052E+03  0.80707938052E+03  0.25500000920E-02 0.  1.
        2   -1    0    0  501    0  0.00000000000E+00  0.00000000000E+00 -0.40326056640E+03  0.40326056641E+03  0.25500000920E-02 0. -1.
    10030    2    1    2    0    0  0.00000000000E+00  0.00000000000E+00  0.40381881411E+03  0.12103399469E+04  0.11409877968E+04 0.  0.
        5    1    3    3  502    0  0.16015034230E+03  0.20180374709E+03  0.74183450637E+03  0.78531102712E+03  0.46999998093E+01 0.  1.
       -5    1    3    3    0  502 -0.16015034230E+03 -0.20180374709E+03 -0.33801569225E+03  0.42502891982E+03  0.46999998093E+01 0. -1.
</event>
<event>
 5   0  0.3744875E-03  0.1090259E+04  0.7818609E-02  0.9214738E-01
        2   -1    0    0  501    0  0.00000000000E+00  0.00000000000E+00  0.39790412417E+03  0.39790412418E+03  0.25500000920E-02 0.  1.
       -2   -1    0    0    0  501  0.00000000000E+00  0.00000000000E+00 -0.74682916697E+03  0.74682916697E+03  0.25500000920E-02 0. -1.
    10030    2    1    2    0    0  0.00000000000E+00  0.00000000000E+00 -0.34892504280E+03  0.11447332912E+04  0.10902594289E+04 0.  0.
        2    1    3    3  502    0  0.33897765994E+03 -0.42658074269E+03 -0.15660011589E+03  0.56692202310E+03  0.25500000920E-02 0. -1.
       -2    1    3    3    0  502 -0.33897765994E+03  0.42658074269E+03 -0.19232492691E+03  0.57781126805E+03  0.25500000920E-02 0.  1.
</event>
<event>
 5   0  0.2257667E-03  0.1134423E+04  0.7818609E-02  0.9172276E-01
        1   -1    0    0  501    0  0.00000000000E+00  0.00000000000E+00  0.46697937205E+03  0.46697937208E+03  0.50400001928E-02 0.  1.
       -1   -1    0    0    0  501  0.00000000000E+00  0.00000000000E+00 -0.68895729614E+03  0.68895729616E+03  0.50400001928E-02 0. -1.
    10030    2    1    2    0    0  0.00000000000E+00  0.00000000000E+00 -0.22197792409E+03  0.11559366682E+04  0.11344229292E+04 0.  0.
        4    1    3    3  502    0  0.15129282877E+03 -0.33121332698E+03 -0.55413360837E+03  0.66306670617E+03  0.12699999809E+01 0. -1.
       -4    1    3    3    0  502 -0.15129282877E+03  0.33121332698E+03  0.33215568428E+03  0.49286996207E+03  0.12699999809E+01 0.  1.
</event>
<event>
 5   0  0.3992414E-03  0.1026538E+04  0.7818609E-02  0.9279908E-01
        2   -1    0    0  501    0  0.00000000000E+00  0.00000000000E+00  0.16298001139E+04  0.16298001139E+04  0.25500000920E-02 0.  1.
       -2   -1    0    0    0  501  0.00000000000E+00  0.00000000000E+00 -0.16164252295E+03  0.16164252297E+03  0.25500000920E-02 0. -1.
    10030    2    1    2    0    0  0.00000000000E+00  0.00000000000E+00  0.14681575910E+04  0.17914426369E+04  0.10265378753E+04 0.  0.
        1    1    3    3  502    0 -0.73205099902E+02  0.37159197732E+03  0.13386234086E+04  0.13911693694E+04  0.50400001928E-02 0.  1.
       -1    1    3    3    0  502  0.73205099902E+02 -0.37159197732E+03  0.12953418239E+03  0.40027326752E+03  0.50400001928E-02 0. -1.
</event>
<event>
 5   0  0.3748901E-03  0.1090902E+04  0.7818609E-02  0.9214105E-01
       -2   -1    0    0    0  501  0.00000000000E+00  0.00000000000E+00  0.14381680193E+03  0.14381680196E+03  0.25500000920E-02 0. -1.
        2   -1    0    0  501    0  0.00000000000E+00  0.00000000000E+00 -0.20687222072E+04  0.20687222072E+04  0.25500000920E-02 0.  1.
    10030    2    1    2    0    0  0.00000000000E+00  0.00000000000E+00 -0.19249054053E+04  0.22125390092E+04  0.10909024007E+04 0.  0.
        5    1    3    3  502    0 -0.47867383952E+02 -0.16012384821E+03 -0.20154711416E+04  0.20223938651E+04  0.46999998093E+01 0.  1.
       -5    1    3    3    0  502  0.47867383952E+02  0.16012384821E+03  0.90565736297E+02  0.19014514404E+03  0.46999998093E+01 0. -1.
</event>
<event>
 5   0  0.3713158E-03  0.1100346E+04  0.7818609E-02  0.9204854E-01
        2   -1    0    0  501    0  0.00000000000E+00  0.00000000000E+00  0.20909044274E+04  0.20909044274E+04  0.25500000920E-02 0. -1.
       -2   -1    0    0    0  501  0.00000000000E+00  0.00000000000E+00 -0.14476532748E+03  0.14476532750E+03  0.25500000920E-02 0.  1.
    10030    2    1    2    0    0  0.00000000000E+00  0.00000000000E+00  0.19461390999E+04  0.22356697549E+04  0.11003462440E+04 0.  0.
        4    1    3    3  502    0 -0.47437048343E+03  0.54224192159E+02  0.41767667977E+03  0.63436822137E+03  0.12699999809E+01 0.  1.
       -4    1    3    3    0  502  0.47437048343E+03 -0.54224192159E+02  0.15284624202E+04  0.16013015335E+04  0.12699999809E+01 0. -1.
</event>
<event>
 5   0  0.3962999E-03  0.1108799E+04  0.7818609E-02  0.9196658E-01
       -2   -1    0    0    0  501  0.00000000000E+00  0.00000000000E+00  0.31676171976E+03  0.31676171977E+03  0.25500000920E-02 0.  1.
        2   -1    0    0  501    0  0.00000000000E+00  0.00000000000E+00 -0.97031504379E+03  0.97031504380E+03  0.25500000920E-02 0. -1.
    10030    2    1    2    0    0  0.00000000000E+00  0.00000000000E+00 -0.65355332404E+03  0.12870767636E+04  0.11087987410E+04 0.  0.
        3    1    3    3  502    0  0.75552804409E+02 -0.47752442227E+03 -0.64173429958E+03  0.80346793438E+03  0.10100000352E+00 0. -1.
       -3    1    3    3    0  502 -0.75552804409E+02  0.47752442227E+03 -0.11819024453E+02  0.48360882918E+03  0.10100000352E+00 0.  1.
</event>
<event>
 5   0  0.3748901E-03  0.1106740E+04  0.7818609E-02  0.9198647E-01
        2   -1    0    0  501    0  0.00000000000E+00  0.00000000000E+00  0.91640993978E+03  0.91640993978E+03  0.25500000920E-02 0. -1.
       -2   -1    0    0    0  501  0.00000000000E+00  0.00000000000E+00 -0.33415010195E+03  0.33415010196E+03  0.25500000920E-02 0.  1.
    10030    2    1    2    0    0  0.00000000000E+00  0.00000000000E+00  0.58225983783E+03  0.12505600417E+04  0.11067402131E+04 0.  0.
        5    1    3    3  502    0  0.52047478106E+03 -0.18676453090E+03  0.26793437123E+03  0.61448019089E+03  0.46999998093E+01 0. -1.
       -5    1    3    3    0  502 -0.52047478106E+03  0.18676453090E+03  0.31432546660E+03  0.63607985086E+03  0.46999998093E+01 0.  1.
</event>
<event>
 5   0  0.2257667E-03  0.1102064E+04  0.7818609E-02  0.9203183E-01
        1   -1    0    0  501    0  0.00000000000E+00  0.00000000000E+00  0.11245798266E+04  0.11245798266E+04  0.50400001928E-02 0. -1.
       -1   -1    0    0    0  501  0.00000000000E+00  0.00000000000E+00 -0.26999951765E+03  0.26999951769E+03  0.50400001928E-02 0.  1.
    10030    2    1    2    0    0  0.00000000000E+00  0.00000000000E+00  0.85458030895E+03  0.13945793443E+04  0.11020635386E+04 0.  0.
        4    1    3    3  502    0 -0.50087569739E+03 -0.15639945722E+03  0.64015693521E+03  0.82773170113E+03  0.12699999809E+01 0. -1.
       -4    1    3    3    0  502  0.50087569739E+03  0.15639945722E+03  0.21442337374E+03  0.56684764317E+03  0.12699999809E+01 0.  1.
</event>
<event>
 5   0  0.2255788E-03  0.1069975E+04  0.7818609E-02  0.9234961E-01
        1   -1    0    0  501    0  0.00000000000E+00  0.00000000000E+00  0.10665539471E+04  0.10665539471E+04  0.50400001928E-02 0.  1.
       -1   -1    0    0    0  501  0.00000000000E+00  0.00000000000E+00 -0.26835153951E+03  0.26835153955E+03  0.50400001928E-02 0. -1.
    10030    2    1    2    0    0  0.00000000000E+00  0.00000000000E+00  0.79820240756E+03  0.13349054866E+04  0.10699745674E+04 0.  0.
        3    1    3    3  502    0  0.10929099244E+03  0.83044899192E+02  0.10442111412E+04  0.10531941387E+04  0.10100000352E+00 0.  1.
       -3    1    3    3    0  502 -0.10929099244E+03 -0.83044899192E+02 -0.24600873362E+03  0.28171134789E+03  0.10100000352E+00 0. -1.
</event>
<event>
 5   0  0.2300702E-03  0.1104211E+04  0.7818609E-02  0.9201097E-01
        1   -1    0    0  501    0  0.00000000000E+00  0.00000000000E+00  0.34212460881E+03  0.34212460885E+03  0.50400001928E-02 0.  1.
       -1   -1    0    0    0  501  0.00000000000E+00  0.00000000000E+00 -0.89096388403E+03  0.89096388404E+03  0.50400001928E-02 0. -1.
    10030    2    1    2    0    0  0.00000000000E+00  0.00000000000E+00 -0.54883927522E+03  0.12330884929E+04  0.11042113391E+04 0.  0.
        5    1    3    3  502    0  0.17827736859E+02  0.51587329342E+03 -0.49312319696E+03  0.71388770857E+03  0.46999998093E+01 0. -1.
       -5    1    3    3    0  502 -0.17827736859E+02 -0.51587329342E+03 -0.55716078259E+02  0.51920078433E+03  0.46999998093E+01 0.  1.
</event>
<event>
 5   0  0.3992414E-03  0.1102311E+04  0.7818609E-02  0.9202942E-01
       -2   -1    0    0    0  501  0.00000000000E+00  0.00000000000E+00  0.29459881106E+03  0.29459881107E+03  0.25500000920E-02 0. -1.
        2   -1    0    0  501    0  0.00000000000E+00  0.00000000000E+00 -0.10311395332E+04  0.10311395332E+04  0.25500000920E-02 0.  1.
    10030    2    1    2    0    0  0.00000000000E+00  0.00000000000E+00 -0.73654072215E+03  0.13257383443E+04  0.11023111730E+04 0.  0.
        1    1    3    3  502    0 -0.18451842501E+03  0.46658409888E+03 -0.93949748325E+02  0.51046481341E+03  0.50400001928E-02 0. -1.
       -1    1    3    3    0  502  0.18451842501E+03 -0.46658409888E+03 -0.64259097383E+03  0.81527353089E+03  0.50400001928E-02 0.  1.
</event>
<event>
 5   0  0.3748901E-03  0.1101406E+04  0.7818609E-02  0.9203822E-01
       -2   -1    0    0    0  501  0.00000000000E+00  0.00000000000E+00  0.20133568497E+03  0.20133568498E+03  0.25500000920E-02 0. -1.
        2   -1    0    0  501    0  0.00000000000E+00  0.00000000000E+00 -0.15063094307E+04  0.15063094307E+04  0.25500000920E-02 0.  1.
    10030    2    1    2    0    0  0.00000000000E+00  0.00000000000E+00 -0.13049737458E+04  0.17076451157E+04  0.11014060850E+04 0.  0.
        5    1    3    3  502    0  0.18566921860E+03  0.40406952120E+03 -0.11560915865E+04  0.12386747286E+04  0.46999998093E+01 0.  1.
       -5    1    3    3    0  502 -0.18566921860E+03 -0.40406952120E+03 -0.14888215922E+03  0.46897038716E+03  0.46999998093E+01 0. -1.
</event>
<event>
 5   0  0.2300702E-03  0.1084183E+04  0.7818609E-02  0.9220747E-01
       -1   -1    0    0    0  501  0.00000000000E+00  0.00000000000E+00  0.78564698453E+03  0.78564698455E+03  0.50400001928E-02 0.  1.
        1   -1    0    0  501    0  0.00000000000E+00  0.00000000000E+00 -0.37403962472E+03  0.37403962475E+03  0.50400001928E-02 0. -1.
    10030    2    1    2    0    0  0.00000000000E+00  0.00000000000E+00  0.41160735981E+03  0.11596866093E+04  0.10841828320E+04 0.  0.
        5    1    3    3  502    0 -0.33564807729E+03  0.42257216556E+03  0.26049306859E+03  0.59925419955E+03  0.46999998093E+01 0. -1.
       -5    1    3    3    0  502  0.33564807729E+03 -0.42257216556E+03  0.15111429122E+03  0.56043240976E+03  0.46999998093E+01 0.  1.
</event>
<event>
 5   0  0.2298958E-03  0.1081813E+04  0.7818609E-02  0.9223102E-01
       -1   -1    0    0    0  501  0.00000000000E+00  0.00000000000E+00  0.52770238588E+03  0.52770238590E+03  0.50400001928E-02 0.  1.
        1   -1    0    0  501    0  0.00000000000E+00  0.00000000000E+00 -0.55444053081E+03  0.55444053083E+03  0.50400001928E-02 0. -1.
    10030    2    1    2    0    0  0.00000000000E+00  0.00000000000E+00 -0.26738144929E+02  0.10821429167E+04  0.10818125364E+04 0.  0.
        1    1    3    3  502    0 -0.19808967291E+02 -0.61973292836E+02 -0.55051211943E+03  0.55434346562E+03  0.50400001928E-02 0. -1.
       -1    1    3    3    0  502  0.19808967291E+02  0.61973292836E+02  0.52377397450E+03  0.52779945111E+03  0.50400001928E-02 0.  1.
</event>
<event>
 5   0  0.3744875E-03  0.1082062E+04  0.7818609E-02  0.9222854E-01
       -2   -1    0    0    0  501  0.00000000000E+00  0.00000000000E+00  0.31898342381E+03  0.31898342382E+03  0.25500000920E-02 0.  1.
        2   -1    0    0  501    0  0.00000000000E+00  0.00000000000E+00 -0.91764802930E+03  0.91764802930E+03  0.25500000920E-02 0. -1.
    10030    2    1    2    0    0  0.00000000000E+00  0.00000000000E+00 -0.59866460549E+03  0.12366314531E+04  0.10820619395E+04 0.  0.
        2    1    3    3  502    0 -0.27657013085E+03 -0.13649452244E+03  0.20867930401E+03  0.37238265784E+03  0.25500000920E-02 0.  1.
       -2    1    3    3    0  502  0.27657013085E+03  0.13649452244E+03 -0.80734390949E+03  0.86424879528E+03  0.25500000920E-02 0. -1.
</event>
<event>
 5   0  0.2257667E-03  0.1107045E+04  0.7818609E-02  0.9198353E-01
       -1   -1    0    0    0  501  0.00000000000E+00  0.00000000000E+00  0.11370438497E+04  0.11370438498E+04  0.50400001928E-02 0.  1.
        1   -1    0    0  501    0  0.00000000000E+00  0.00000000000E+00 -0.26945928246E+03  0.26945928251E+03  0.50400001928E-02 0. -1.
    10030    2    1    2    0    0  0.00000000000E+00  0.00000000000E+00  0.86758456729E+03  0.14065031323E+04  0.11070447505E+04 0.  0.
        4    1    3    3  502    0  0.51751095317E+03  0.16834948334E+03  0.56227188877E+03  0.78250266772E+03  0.12699999809E+01 0.  1.
       -4    1    3    3    0  502 -0.51751095317E+03 -0.16834948334E+03  0.30531267852E+03  0.62400046455E+03  0.12699999809E+01 0. -1.
</event>
<event>
 5   0  0.3713158E-03  0.1074859E+04  0.7818609E-02  0.9230049E-01
        2   -1    0    0  501    0  0.00000000000E+00  0.00000000000E+00  0.22440598292E+03  0.22440598294E+03  0.25500000920E-02 0. -1.
       -2   -1    0    0    0  501  0.00000000000E+00  0.00000000000E+00 -0.12870879948E+04  0.12870879948E+04  0.25500000920E-02 0.  1.
    10030    2    1    2    0    0  0.00000000000E+00  0.00000000000E+00 -0.10626820119E+04  0.15114939778E+04  0.10748585890E+04 0.  0.
        4    1    3    3  502    0  0.24579154270E+03  0.42431759472E+03 -0.84061394521E+03  0.97318668376E+03  0.12699999809E+01 0. -1.
       -4    1    3    3    0  502 -0.24579154270E+03 -0.42431759472E+03 -0.22206806670E+03  0.53830729403E+03  0.12699999809E+01 0.  1.
</event>
<event>
 5   0  0.3992414E-03  0.1103379E+04  0.7818609E-02  0.9201905E-01
        2   -1    0    0  501    0  0.00000000000E+00  0.00000000000E+00  0.89720250723E+03  0.89720250723E+03  0.25500000920E-02 0. -1.
       -2   -1    0    0    0  501  0.00000000000E+00  0.00000000000E+00 -0.33923370751E+03  0.33923370752E+03  0.25500000920E-02 0.  1.
    10030    2    1    2    0    0  0.00000000000E+00  0.00000000000E+00  0.55796879972E+03  0.12364362147E+04  0.11033790517E+04 0.  0.
        1    1    3    3  502    0 -0.30294277821E+03 -0.36608902496E+03  0.59308143650E+03  0.75996124336E+03  0.50400001928E-02 0. -1.
       -1    1    3    3    0  502  0.30294277821E+03  0.36608902496E+03 -0.35112636781E+02  0.47647497138E+03  0.50400001928E-02 0.  1.
</event>
<event>
 5   0  0.3748901E-03  0.1100547E+04  0.7818609E-02  0.9204658E-01
        2   -1    0    0  501    0  0.00000000000E+00  0.00000000000E+00  0.17100858312E+03  0.17100858314E+03  0.25500000920E-02 0. -1.
       -2   -1    0    0    0  501  0.00000000000E+00  0.00000000000E+00 -0.17706781388E+04  0.17706781388E+04  0.25500000920E-02 0.  1.
    10030    2    1    2    0    0  0.00000000000E+00  0.00000000000E+00 -0.15996695557E+04  0.19416867219E+04  0.11005474269E+04 0.  0.
        5    1    3    3  502    0 -0.54705317687E+03  0.26856483176E+02 -0.70663372835E+03  0.89405915075E+03  0.46999998093E+01 0. -1.
       -5    1    3    3    0  502  0.54705317687E+03 -0.26856483176E+02 -0.89303582733E+03  0.10476275712E+04  0.46999998093E+01 0.  1.
</event>
<event>
 5   0  0.2298958E-03  0.1064577E+04  0.7818609E-02  0.9240422E-01
       -1   -1    0    0    0  501  0.00000000000E+00  0.00000000000E+00  0.55362499530E+03  0.55362499532E+03  0.50400001928E-02 0.  1.
        1   -1    0    0  501    0  0.00000000000E+00  0.00000000000E+00 -0.51177413453E+03  0.51177413455E+03  0.50400001928E-02 0. -1.
    10030    2    1    2    0    0  0.00000000000E+00  0.00000000000E+00  0.41850860774E+02  0.10653991299E+04  0.10645768227E+04 0.  0.
        1    1    3    3  502    0  0.12149886735E+03  0.22708644589E+03 -0.44526775680E+03  0.51438662885E+03  0.50400001928E-02 0. -1.
       -1    1    3    3    0  502 -0.12149886735E+03 -0.22708644589E+03  0.48711861757E+03  0.55101250102E+03  0.50400001928E-02 0.  1.
</event>
<event>
 5   0  0.2300702E-03  0.1119188E+04  0.7818609E-02  0.9186690E-01
       -1   -1    0    0    0  501  0.00000000000E+00  0.00000000000E+00  0.23477369820E+03  0.23477369826E+03  0.50400001928E-02 0. -1.
        1   -1    0    0  501    0  0.00000000000E+00  0.00000000000E+00 -0.13338173473E+04  0.13338173473E+04  0.50400001928E-02 0.  1.
    10030    2    1    2    0    0  0.00000000000E+00  0.00000000000E+00 -0.10990436491E+04  0.15685910456E+04  0.11191876186E+04 0.  0.
        5    1    3    3  502    0 -0.13016508910E+03 -0.51202757050E+03 -0.29105957941E+03  0.60320224812E+03  0.46999998093E+01 0. -1.
       -5    1    3    3    0  502  0.13016508910E+03  0.51202757050E+03 -0.80798406970E+03  0.96538879746E+03  0.46999998093E+01 0.  1.
</event>
<event>
 5   0  0.3713158E-03  0.1128224E+04  0.7818609E-02  0.9178111E-01
        2   -1    0    0  501    0  0.00000000000E+00  0.00000000000E+00  0.46691299950E+03  0.46691299951E+03  0.25500000920E-02 0.  1.
       -2   -1    0    0    0  501  0.00000000000E+00  0.00000000000E+00 -0.68154570432E+03  0.68154570433E+03  0.25500000920E-02 0. -1.
    10030    2    1    2    0    0  0.00000000000E+00  0.00000000000E+00 -0.21463270482E+03  0.11484587038E+04  0.11282243555E+04 0.  0.
        4    1    3    3  502    0 -0.31830328784E+02 -0.30945362650E+02  0.46513064714E+03  0.46724609908E+03  0.12699999809E+01 0.  1.
       -4    1    3    3    0  502  0.31830328784E+02  0.30945362650E+02 -0.67976335196E+03  0.68121260475E+03  0.12699999809E+01 0. -1.
</event>
<event>
 5   0  0.2257667E-03  0.1105781E+04  0.7818609E-02  0.9199575E-01
       -1   -1    0    0    0  501  0.00000000000E+00  0.00000000000E+00  0.47310019938E+03  0.47310019941E+03  0.50400001928E-02 0. -1.
        1   -1    0    0  501    0  0.00000000000E+00  0.00000000000E+00 -0.64613809070E+03  0.64613809072E+03  0.50400001928E-02 0.  1.
    10030    2    1    2    0    0  0.00000000000E+00  0.00000000000E+00 -0.17303789132E+03  0.11192382901E+04  0.11057812796E+04 0.  0.
        4    1    3    3  502    0 -0.39976136219E+03 -0.23741113642E+03  0.21630972797E+03  0.51280084410E+03  0.12699999809E+01 0. -1.
       -4    1    3    3    0  502  0.39976136219E+03  0.23741113642E+03 -0.38934761929E+03  0.60643744603E+03  0.12699999809E+01 0.  1.
</event>
<event>
 5   0  0.3713158E-03  0.1090187E+04  0.7818609E-02  0.9214809E-01
        2   -1    0    0  501    0  0.00000000000E+00  0.00000000000E+00  0.41081419190E+03  0.41081419191E+03  0.25500000920E-02 0. -1.
       -2   -1    0    0    0  501  0.00000000000E+00  0.00000000000E+00 -0.72326357199E+03  0.72326357199E+03  0.25500000920E-02 0.  1.
    10030    2    1    2    0    0  0.00000000000E+00  0.00000000000E+00 -0.31244938009E+03  0.11340777639E+04  0.10901870296E+04 0.  0.
        4    1    3    3  502    0  0.29735065486E+03 -0.16222390783E+03  0.28804215754E+03  0.44463907345E+03  0.12699999809E+01 0. -1.
       -4    1    3    3    0  502 -0.29735065486E+03  0.16222390783E+03 -0.60049153763E+03  0.68943869044E+03  0.12699999809E+01 0.  1.
</event>
<event>
 5   0  0.1508625E-03  0.9741336E+03  0.7818609E-02  0.9337379E-01
        4   -1    0    0  501    0  0.00000000000E+00  0.00000000000E+00  0.43201554308E+03  0.43201740979E+03  0.12699999809E+01 0. -1.
       -4   -1    0    0    0  501  0.00000000000E+00  0.00000000000E+00 -0.54912936859E+03  0.54913083719E+03  0.12699999809E+01 0.  1.
    10030    2    1    2    0    0  0.00000000000E+00  0.00000000000E+00 -0.11711382552E+03  0.98114824698E+03  0.97413358140E+03 0.  0.
        3    1    3    3  502    0  0.36835271711E+03 -0.22648934588E+03 -0.28434274315E+03  0.51752483397E+03  0.10100000352E+00 0.  1.
       -3    1    3    3    0  502 -0.36835271711E+03  0.22648934588E+03  0.16722891763E+03  0.46362341301E+03  0.10100000352E+00 0. -1.
</event>
<event>
 5   0  0.3992414E-03  0.1128520E+04  0.7818609E-02  0.9177831E-01
        2   -1    0    0  501    0  0.00000000000E+00  0.00000000000E+00  0.21236776515E+04  0.21236776515E+04  0.25500000920E-02 0. -1.
       -2   -1    0    0    0  501  0.00000000000E+00  0.00000000000E+00 -0.14992368910E+03  0.14992368912E+03  0.25500000920E-02 0.  1.
    10030    2    1    2    0    0  0.00000000000E+00  0.00000000000E+00  0.19737539623E+04  0.22736013406E+04  0.11285204260E+04 0.  0.
        1    1    3    3  502    0 -0.23550903474E+03 -0.40491803429E+03  0.16206721554E+04  0.16870095896E+04  0.50400001928E-02 0. -1.
       -1    1    3    3    0  502  0.23550903474E+03  0.40491803429E+03  0.35308180693E+03  0.58659175101E+03  0.50400001928E-02 0.  1.
</event>
<event>
 5   0  0.2298958E-03  0.1087980E+04  0.7818609E-02  0.9216988E-01
        1   -1    0    0  501    0  0.00000000000E+00  0.00000000000E+00  0.15057698563E+04  0.15057698563E+04  0.50400001928E-02 0.  1.
       -1   -1    0    0    0  501  0.00000000000E+00  0.00000000000E+00 -0.19652728276E+03  0.19652728282E+03  0.50400001928E-02 0. -1.
    10030    2    1    2    0    0  0.00000000000E+00  0.00000000000E+00  0.13092425735E+04  0.17022971391E+04  0.10879795189E+04 0.  0.
        1    1    3    3  502    0  0.46399355395E+03 -0.29618802276E+01  0.10988968113E+04  0.11928424006E+04  0.50400001928E-02 0.  1.
       -1    1    3    3    0  502 -0.46399355395E+03  0.29618802276E+01  0.21034576223E+03  0.50945473847E+03  0.50400001928E-02 0. -1.
</event>
<event>
 5   0  0.2298958E-03  0.1106796E+04  0.7818609E-02  0.9198593E-01
        1   -1    0    0  501    0  0.00000000000E+00  0.00000000000E+00  0.57296163114E+03  0.57296163116E+03  0.50400001928E-02 0.  1.
       -1   -1    0    0    0  501  0.00000000000E+00  0.00000000000E+00 -0.53450281819E+03  0.53450281821E+03  0.50400001928E-02 0. -1.
    10030    2    1    2    0    0  0.00000000000E+00  0.00000000000E+00  0.38458812948E+02  0.11074644494E+04  0.11067964701E+04 0.  0.
        1    1    3    3  502    0  0.92899589610E+02 -0.40728008882E+03 -0.34395273715E+03  0.54112003281E+03  0.50400001928E-02 0. -1.
       -1    1    3    3    0  502 -0.92899589610E+02  0.40728008882E+03  0.38241155010E+03  0.56634441656E+03  0.50400001928E-02 0.  1.
</event>
<event>
 5   0  0.2255788E-03  0.1093370E+04  0.7818609E-02  0.9211678E-01
        1   -1    0    0  501    0  0.00000000000E+00  0.00000000000E+00  0.52151258174E+03  0.52151258176E+03  0.50400001928E-02 0.  1.
       -1   -1    0    0    0  501  0.00000000000E+00  0.00000000000E+00 -0.57307220572E+03  0.57307220575E+03  0.50400001928E-02 0. -1.
    10030    2    1    2    0    0  0.00000000000E+00  0.00000000000E+00 -0.51559623985E+02  0.10945847875E+04  0.10933697738E+04 0.  0.
        3    1    3    3  502    0 -0.24572402234E+03  0.25606420945E+03  0.39051299414E+03  0.52768322250E+03  0.10100000352E+00 0.  1.
       -3    1    3    3    0  502  0.24572402234E+03 -0.25606420945E+03 -0.44207261813E+03  0.56690156501E+03  0.10100000352E+00 0. -1.
</event>
<event>
 5   0  0.3962999E-03  0.1023637E+04  0.7818609E-02  0.9282994E-01
        2   -1    0    0  501    0  0.00000000000E+00  0.00000000000E+00  0.72988066324E+03  0.72988066325E+03  0.25500000920E-02 0.  1.
       -2   -1    0    0    0  501  0.00000000000E+00  0.00000000000E+00 -0.35890522978E+03  0.35890522979E+03  0.25500000920E-02 0. -1.
    10030    2    1    2    0    0  0.00000000000E+00  0.00000000000E+00  0.37097543346E+03  0.10887858930E+04  0.10236366292E+04 0.  0.
        3    1    3    3  502    0  0.37439976004E+03  0.84107604739E+02  0.54573014410E+03  0.66713617042E+03  0.10100000352E+00 0.  1.
       -3    1    3    3    0  502 -0.37439976004E+03 -0.84107604739E+02 -0.17475471065E+03  0.42164972262E+03  0.10100000352E+00 0. -1.
</event>
<event>
 5   0  0.3744875E-03  0.1099484E+04  0.7818609E-02  0.9205695E-01
        2   -1    0    0  501    0  0.00000000000E+00  0.00000000000E+00  0.74211236298E+03  0.74211236298E+03  0.25500000920E-02 0. -1.
       -2   -1    0    0    0  501  0.00000000000E+00  0.00000000000E+00 -0.40723774693E+03  0.40723774694E+03  0.25500000920E-02 0.  1.
    10030    2    1    2    0    0  0.00000000000E+00  0.00000000000E+00  0.33487461605E+03  0.11493501099E+04  0.10994838183E+04 0.  0.
        2    1    3    3  502    0  0.31098448270E+03 -0.18924902558E+03 -0.26317966522E+03  0.44921050562E+03  0.25500000920E-02 0.  1.
       -2    1    3    3    0  502 -0.31098448270E+03  0.18924902558E+03  0.59805428127E+03  0.70013960430E+03  0.25500000920E-02 0. -1.
</event>
<event>
 5   0  0.2374100E-03  0.1100765E+04  0.7818609E-02  0.9204446E-01
        1   -1    0    0  501    0  0.00000000000E+00  0.00000000000E+00  0.55442119364E+03  0.55442119367E+03  0.50400001928E-02 0. -1.
       -1   -1    0    0    0  501  0.00000000000E+00  0.00000000000E+00 -0.54637346461E+03  0.54637346464E+03  0.50400001928E-02 0.  1.
    10030    2    1    2    0    0  0.00000000000E+00  0.00000000000E+00  0.80477290299E+01  0.11007946583E+04  0.11007652401E+04 0.  0.
        2    1    3    3  502    0 -0.93532863207E+02  0.17060656276E+03 -0.51083553452E+03  0.54663327661E+03  0.25500000920E-02 0.  1.
       -2    1    3    3    0  502  0.93532863207E+02 -0.17060656276E+03  0.51888326355E+03  0.55416138169E+03  0.25500000920E-02 0. -1.
</event>
<event>
 5   0  0.3713158E-03  0.1110661E+04  0.7818609E-02  0.9194863E-01
       -2   -1    0    0    0  501  0.00000000000E+00  0.00000000000E+00  0.37898140618E+03  0.37898140619E+03  0.25500000920E-02 0.  1.
        2   -1    0    0  501    0  0.00000000000E+00  0.00000000000E+00 -0.81373864677E+03  0.81373864677E+03  0.25500000920E-02 0. -1.
    10030    2    1    2    0    0  0.00000000000E+00  0.00000000000E+00 -0.43475724059E+03  0.11927200530E+04  0.11106607342E+04 0.  0.
        4    1    3    3  502    0 -0.53241269985E+03 -0.21732437558E+02 -0.38531221298E+03  0.65757333901E+03  0.12699999809E+01 0.  1.
       -4    1    3    3    0  502  0.53241269985E+03  0.21732437558E+02 -0.49445027614E+02  0.53514671395E+03  0.12699999809E+01 0. -1.
</event>
<event>
 5   0  0.3748901E-03  0.1116898E+04  0.7818609E-02  0.9188876E-01
       -2   -1    0    0    0  501  0.00000000000E+00  0.00000000000E+00  0.19418089031E+03  0.19418089033E+03  0.25500000920E-02 0. -1.
        2   -1    0    0  501    0  0.00000000000E+00  0.00000000000E+00 -0.16060561180E+04  0.16060561180E+04  0.25500000920E-02 0.  1.
    10030    2    1    2    0    0  0.00000000000E+00  0.00000000000E+00 -0.14118752277E+04  0.18002370083E+04  0.11168982172E+04 0.  0.
        5    1    3    3  502    0 -0.11108280328E+03 -0.54595539198E+03 -0.64484485822E+03  0.85220517506E+03  0.46999998093E+01 0. -1.
       -5    1    3    3    0  502  0.11108280328E+03  0.54595539198E+03 -0.76703036945E+03  0.94803183326E+03  0.46999998093E+01 0.  1.
</event>
<event>
 5   0  0.2257667E-03  0.1096933E+04  0.7818609E-02  0.9208187E-01
       -1   -1    0    0    0  501  0.00000000000E+00  0.00000000000E+00  0.30576777319E+03  0.30576777323E+03  0.50400001928E-02 0.  1.
        1   -1    0    0  501    0  0.00000000000E+00  0.00000000000E+00 -0.98380332335E+03  0.98380332336E+03  0.50400001928E-02 0. -1.
    10030    2    1    2    0    0  0.00000000000E+00  0.00000000000E+00 -0.67803555016E+03  0.12895710966E+04  0.10969327262E+04 0.  0.
        4    1    3    3  502    0 -0.30670469257E+02 -0.27680967613E+02  0.30393408702E+03  0.30673189565E+03  0.12699999809E+01 0.  1.
       -4    1    3    3    0  502  0.30670469257E+02  0.27680967613E+02 -0.98196963719E+03  0.98283920094E+03  0.12699999809E+01 0. -1.
</event>
<event>
 5   0  0.3713158E-03  0.1094821E+04  0.7818609E-02  0.9210255E-01
        2   -1    0    0  501    0  0.00000000000E+00  0.00000000000E+00  0.50178197467E+03  0.50178197468E+03  0.25500000920E-02 0. -1.
       -2   -1    0    0    0  501  0.00000000000E+00  0.00000000000E+00 -0.59718790073E+03  0.59718790074E+03  0.25500000920E-02 0.  1.
    10030    2    1    2    0    0  0.00000000000E+00  0.00000000000E+00 -0.95405926061E+02  0.10989698754E+04  0.10948207599E+04 0.  0.
        4    1    3    3  502    0  0.11184922103E+03 -0.12415433470E+03  0.47555172490E+03  0.50405912652E+03  0.12699999809E+01 0. -1.
       -4    1    3    3    0  502 -0.11184922103E+03  0.12415433470E+03 -0.57095765096E+03  0.59491074890E+03  0.12699999809E+01 0.  1.
</event>
<event>
 5   0  0.2298958E-03  0.1101059E+04  0.7818609E-02  0.9204160E-01
       -1   -1    0    0    0  501  0.00000000000E+00  0.00000000000E+00  0.39517680652E+03  0.39517680656E+03  0.50400001928E-02 0. -1.
        1   -1    0    0  501    0  0.00000000000E+00  0.00000000000E+00 -0.76695504908E+03  0.76695504910E+03  0.50400001928E-02 0.  1.
    10030    2    1    2    0    0  0.00000000000E+00  0.00000000000E+00 -0.37177824256E+03  0.11621318557E+04  0.11010592120E+04 0.  0.
        1    1    3    3  502    0  0.13437207794E+03  0.30571988486E+03 -0.64784425961E+03  0.72885025078E+03  0.50400001928E-02 0.  1.
       -1    1    3    3    0  502 -0.13437207794E+03 -0.30571988486E+03  0.27606601705E+03  0.43328160488E+03  0.50400001928E-02 0. -1.
</event>
<event>
 5   0  0.3992414E-03  0.1099536E+04  0.7818609E-02  0.9205645E-01
       -2   -1    0    0    0  501  0.00000000000E+00  0.00000000000E+00  0.36653917870E+03  0.36653917871E+03  0.25500000920E-02 0. -1.
        2   -1    0    0  501    0  0.00000000000E+00  0.00000000000E+00 -0.82459041342E+03  0.82459041342E+03  0.25500000920E-02 0.  1.
    10030    2    1    2    0    0  0.00000000000E+00  0.00000000000E+00 -0.45805123472E+03  0.11911295921E+04  0.10995357073E+04 0.  0.
        1    1    3    3  502    0 -0.89591591303E+02  0.38875133102E+03  0.18075837541E+03  0.43798155316E+03  0.50400001928E-02 0. -1.
       -1    1    3    3    0  502  0.89591591303E+02 -0.38875133102E+03 -0.63880961012E+03  0.75314803898E+03  0.50400001928E-02 0.  1.
</event>
<event>
 5   0  0.2257667E-03  0.1223618E+04  0.7818609E-02  0.9092431E-01
        1   -1    0    0  501    0  0.00000000000E+00  0.00000000000E+00  0.58054857191E+03  0.58054857193E+03  0.50400001928E-02 0.  1.
       -1   -1    0    0    0  501  0.00000000000E+00  0.00000000000E+00 -0.64475321238E+03  0.64475321240E+03  0.50400001928E-02 0. -1.
    10030    2    1    2    0    0  0.00000000000E+00  0.00000000000E+00 -0.64204640475E+02  0.12253017843E+04  0.12236184973E+04 0.  0.
        4    1    3    3  502    0 -0.49962999237E+03 -0.35280332564E+03 -0.17638491263E+02  0.61189300137E+03  0.12699999809E+01 0.  1.
       -4    1    3    3    0  502  0.49962999237E+03  0.35280332564E+03 -0.46566149212E+02  0.61340878296E+03  0.12699999809E+01 0. -1.
</event>
<event>
 5   0  0.3744875E-03  0.1120447E+04  0.7818609E-02  0.9185489E-01
        2   -1    0    0  501    0  0.00000000000E+00  0.00000000000E+00  0.76657390496E+03  0.76657390497E+03  0.25500000920E-02 0. -1.
       -2   -1    0    0    0  501  0.00000000000E+00  0.00000000000E+00 -0.40941927256E+03  0.40941927256E+03  0.25500000920E-02 0.  1.
    10030    2    1    2    0    0  0.00000000000E+00  0.00000000000E+00  0.35715463241E+03  0.11759931775E+04  0.11204465726E+04 0.  0.
        2    1    3    3  502    0 -0.31482651215E+03  0.57204949012E+02  0.66122453595E+03  0.73457880850E+03  0.25500000920E-02 0. -1.
       -2    1    3    3    0  502  0.31482651215E+03 -0.57204949012E+02 -0.30406990354E+03  0.44141436904E+03  0.25500000920E-02 0.  1.
</event>
<event>
 5   0  0.3744875E-03  0.1101250E+04  0.7818609E-02  0.9203975E-01
        2   -1    0    0  501    0  0.00000000000E+00  0.00000000000E+00  0.13217331513E+04  0.13217331513E+04  0.25500000920E-02 0.  1.
       -2   -1    0    0    0  501  0.00000000000E+00  0.00000000000E+00 -0.22938644027E+03  0.22938644028E+03  0.25500000920E-02 0. -1.
    10030    2    1    2    0    0  0.00000000000E+00  0.00000000000E+00  0.10923467110E+04  0.15511195916E+04  0.11012495858E+04 0.  0.
        2    1    3    3  502    0  0.48141426141E+03 -0.16623940375E+03  0.25141979636E+03  0.56798516218E+03  0.25500000920E-02 0. -1.
       -2    1    3    3    0  502 -0.48141426141E+03  0.16623940375E+03  0.84092691465E+03  0.98313442938E+03  0.25500000920E-02 0.  1.
</event>
<event>
 5   0  0.2257667E-03  0.1107577E+04  0.7818609E-02  0.9197838E-01
       -1   -1    0    0    0  501  0.00000000000E+00  0.00000000000E+00  0.11766267129E+04  0.11766267129E+04  0.50400001928E-02 0.  1.
        1   -1    0    0  501    0  0.00000000000E+00  0.00000000000E+00 -0.26064482576E+03  0.26064482581E+03  0.50400001928E-02 0. -1.
    10030    2    1    2    0    0  0.00000000000E+00  0.00000000000E+00  0.91598188714E+03  0.14372715387E+04  0.11075769312E+04 0.  0.
        4    1    3    3  502    0 -0.30526515735E+03 -0.17587778816E+03 -0.96466249359E+02  0.36527683040E+03  0.12699999809E+01 0. -1.
       -4    1    3    3    0  502  0.30526515735E+03  0.17587778816E+03  0.10124481365E+04  0.10719947083E+04  0.12699999809E+01 0.  1.
</event>
<event>
 5   0  0.2300702E-03  0.1103854E+04  0.7818609E-02  0.9201444E-01
       -1   -1    0    0    0  501  0.00000000000E+00  0.00000000000E+00  0.10030793452E+04  0.10030793452E+04  0.50400001928E-02 0. -1.
        1   -1    0    0  501    0  0.00000000000E+00  0.00000000000E+00 -0.30368818495E+03  0.30368818499E+03  0.50400001928E-02 0.  1.
    10030    2    1    2    0    0  0.00000000000E+00  0.00000000000E+00  0.69939116028E+03  0.13067675302E+04  0.11038538776E+04 0.  0.
        5    1    3    3  502    0 -0.46036731677E+03  0.22191325603E+03  0.10302342110E+03  0.52136309309E+03  0.46999998093E+01 0.  1.
       -5    1    3    3    0  502  0.46036731677E+03 -0.22191325603E+03  0.59636773918E+03  0.78540443714E+03  0.46999998093E+01 0. -1.
</event>
<event>
 5   0  0.1508625E-03  0.1095691E+04  0.7818609E-02  0.9209402E-01
        4   -1    0    0  501    0  0.00000000000E+00  0.00000000000E+00  0.65096356245E+03  0.65096480131E+03  0.12699999809E+01 0.  1.
       -4   -1    0    0    0  501  0.00000000000E+00  0.00000000000E+00 -0.46105993740E+03  0.46106168652E+03  0.12699999809E+01 0. -1.
    10030    2    1    2    0    0  0.00000000000E+00  0.00000000000E+00  0.18990362506E+03  0.11120264878E+04  0.10956913447E+04 0.  0.
        1    1    3    3  502    0 -0.48606451884E+03  0.22741563318E+03 -0.16956725275E+02  0.53690233492E+03  0.50400001928E-02 0. -1.
       -1    1    3    3    0  502  0.48606451884E+03 -0.22741563318E+03  0.20686035033E+03  0.57512415290E+03  0.50400001928E-02 0.  1.
</event>
<event>
 5   0  0.3962999E-03  0.1100985E+04  0.7818609E-02  0.9204232E-01
       -2   -1    0    0    0  501  0.00000000000E+00  0.00000000000E+00  0.21884518924E+03  0.21884518925E+03  0.25500000920E-02 0. -1.
        2   -1    0    0  501    0  0.00000000000E+00  0.00000000000E+00 -0.13847330762E+04  0.13847330762E+04  0.25500000920E-02 0.  1.
    10030    2    1    2    0    0  0.00000000000E+00  0.00000000000E+00 -0.11658878869E+04  0.16035782654E+04  0.11009853262E+04 0.  0.
        3    1    3    3  502    0 -0.11209093344E+03 -0.29904741081E+03  0.70124913860E+02  0.32697285058E+03  0.10100000352E+00 0. -1.
       -3    1    3    3    0  502  0.11209093344E+03  0.29904741081E+03 -0.12360128008E+04  0.12766054148E+04  0.10100000352E+00 0.  1.
</event>
<event>
 5   0  0.1508625E-03  0.1101276E+04  0.7818609E-02  0.9203949E-01
       -4   -1    0    0    0  501  0.00000000000E+00  0.00000000000E+00  0.14512075017E+04  0.14512080574E+04  0.12699999809E+01 0.  1.
        4   -1    0    0  501    0  0.00000000000E+00  0.00000000000E+00 -0.20892856795E+03  0.20893242784E+03  0.12699999809E+01 0. -1.
    10030    2    1    2    0    0  0.00000000000E+00  0.00000000000E+00  0.12422789337E+04  0.16601404852E+04  0.11012762966E+04 0.  0.
        5    1    3    3  502    0  0.71921070879E+02  0.40727269645E+03  0.11691136494E+04  0.12401179399E+04  0.46999998093E+01 0.  1.
       -5    1    3    3    0  502 -0.71921070879E+02 -0.40727269645E+03  0.73165284298E+02  0.42002254527E+03  0.46999998093E+01 0. -1.
</event>
<event>
 5   0  0.2298958E-03  0.1103662E+04  0.7818609E-02  0.9201630E-01
       -1   -1    0    0    0  501  0.00000000000E+00  0.00000000000E+00  0.12580833725E+04  0.12580833725E+04  0.50400001928E-02 0. -1.
        1   -1    0    0  501    0  0.00000000000E+00  0.00000000000E+00 -0.24204881883E+03  0.24204881888E+03  0.50400001928E-02 0.  1.
    10030    2    1    2    0    0  0.00000000000E+00  0.00000000000E+00  0.10160345537E+04  0.15001321914E+04  0.11036622570E+04 0.  0.
        1    1    3    3  502    0  0.25995013675E+03 -0.15531564508E+03  0.11350643457E+04  0.11747629940E+04  0.50400001928E-02 0. -1.
       -1    1    3    3    0  502 -0.25995013675E+03  0.15531564508E+03 -0.11902979201E+03  0.32536919740E+03  0.50400001928E-02 0.  1.
</event>
<event>
 5   0  0.3992414E-03  0.1105792E+04  0.7818609E-02  0.9199565E-01
       -2   -1    0    0    0  501  0.00000000000E+00  0.00000000000E+00  0.31396386468E+03  0.31396386469E+03  0.25500000920E-02 0. -1.
        2   -1    0    0  501    0  0.00000000000E+00  0.00000000000E+00 -0.97366021682E+03  0.97366021682E+03  0.25500000920E-02 0.  1.
    10030    2    1    2    0    0  0.00000000000E+00  0.00000000000E+00 -0.65969635213E+03  0.12876240815E+04  0.11057922491E+04 0.  0.
        1    1    3    3  502    0 -0.49783117043E+03 -0.19664048929E+03 -0.16853801328E+03  0.56116701456E+03  0.50400001928E-02 0. -1.
       -1    1    3    3    0  502  0.49783117043E+03  0.19664048929E+03 -0.49115833885E+03  0.72645706695E+03  0.50400001928E-02 0.  1.
</event>
<event>
 5   0  0.2300702E-03  0.1126473E+04  0.7818609E-02  0.9179766E-01
       -1   -1    0    0    0  501  0.00000000000E+00  0.00000000000E+00  0.28810348410E+03  0.28810348414E+03  0.50400001928E-02 0.  1.
        1   -1    0    0  501    0  0.00000000000E+00  0.00000000000E+00 -0.11011167267E+04  0.11011167267E+04  0.50400001928E-02 0. -1.
    10030    2    1    2    0    0  0.00000000000E+00  0.00000000000E+00 -0.81301324260E+03  0.13892202109E+04  0.11264733737E+04 0.  0.
        5    1    3    3  502    0 -0.25676048649E+03  0.47966524209E+03 -0.22690591440E+03  0.58950239684E+03  0.46999998093E+01 0.  1.
       -5    1    3    3    0  502  0.25676048649E+03 -0.47966524209E+03 -0.58610732820E+03  0.79971781402E+03  0.46999998093E+01 0. -1.
</event>
<event>
 5   0  0.2300702E-03  0.1093083E+04  0.7818609E-02  0.9211960E-01
       -1   -1    0    0    0  501  0.00000000000E+00  0.00000000000E+00  0.33377899673E+03  0.33377899677E+03  0.50400001928E-02 0.  1.
        1   -1    0    0  501    0  0.00000000000E+00  0.00000000000E+00 -0.89492575904E+03  0.89492575905E+03  0.50400001928E-02 0. -1.
    10030    2    1    2    0    0  0.00000000000E+00  0.00000000000E+00 -0.56114676230E+03  0.12287047558E+04  0.10930826538E+04 0.  0.
        5    1    3    3  502    0 -0.36600754286E+03  0.96657840430E+02 -0.72366505995E+03  0.81671137407E+03  0.46999998093E+01 0. -1.
       -5    1    3    3    0  502  0.36600754286E+03 -0.96657840430E+02  0.16251829764E+03  0.41199338176E+03  0.46999998093E+01 0.  1.
</event>
<event>
 5   0  0.3744875E-03  0.1096752E+04  0.7818609E-02  0.9208363E-01
        2   -1    0    0  501    0  0.00000000000E+00  0.00000000000E+00  0.73990092628E+03  0.73990092629E+03  0.25500000920E-02 0. -1.
       -2   -1    0    0    0  501  0.00000000000E+00  0.00000000000E+00 -0.40642787154E+03  0.40642787155E+03  0.25500000920E-02 0.  1.
    10030    2    1    2    0    0  0.00000000000E+00  0.00000000000E+00  0.33347305474E+03  0.11463287978E+04  0.10967522211E+04 0.  0.
        2    1    3    3  502    0 -0.34375304653E+03  0.76698180858E+02  0.60605465440E+03  0.70096434436E+03  0.25500000920E-02 0. -1.
       -2    1    3    3    0  502  0.34375304653E+03 -0.76698180858E+02 -0.27258159966E+03  0.44536445348E+03  0.25500000920E-02 0.  1.
</event>
<event>
 5   0  0.3744875E-03  0.1106928E+04  0.7818609E-02  0.9198465E-01
       -2   -1    0    0    0  501  0.00000000000E+00  0.00000000000E+00  0.14895594129E+03  0.14895594131E+03  0.25500000920E-02 0.  1.
        2   -1    0    0  501    0  0.00000000000E+00  0.00000000000E+00 -0.20564641006E+04  0.20564641006E+04  0.25500000920E-02 0. -1.
    10030    2    1    2    0    0  0.00000000000E+00  0.00000000000E+00 -0.19075081593E+04  0.22054200419E+04  0.11069282648E+04 0.  0.
        2    1    3    3  502    0 -0.35196623977E+02 -0.79075387970E+02  0.13538800075E+03  0.16069110142E+03  0.25500000920E-02 0.  1.
       -2    1    3    3    0  502  0.35196623977E+02  0.79075387970E+02 -0.20428961600E+04  0.20447289405E+04  0.25500000920E-02 0. -1.
</event>
<event>
 5   0  0.2255788E-03  0.1099218E+04  0.7818609E-02  0.9205954E-01
       -1   -1    0    0    0  501  0.00000000000E+00  0.00000000000E+00  0.30196426918E+03  0.30196426922E+03  0.50400001928E-02 0.  1.
        1   -1    0    0  501    0  0.00000000000E+00  0.00000000000E+00 -0.10003511942E+04  0.10003511942E+04  0.50400001928E-02 0. -1.
    10030    2    1    2    0    0  0.00000000000E+00  0.00000000000E+00 -0.69838692505E+03  0.13023154635E+04  0.10992184812E+04 0.  0.
        3    1    3    3  502    0  0.19912157677E+03  0.12806918023E+03  0.23845373287E+03  0.33602278224E+03  0.10100000352E+00 0.  1.
       -3    1    3    3    0  502 -0.19912157677E+03 -0.12806918023E+03 -0.93684065792E+03  0.96629268123E+03  0.10100000352E+00 0. -1.
</event>
<event>
 5   0  0.3748901E-03  0.1099450E+04  0.7818609E-02  0.9205728E-01
       -2   -1    0    0    0  501  0.00000000000E+00  0.00000000000E+00  0.38403139043E+03  0.38403139044E+03  0.25500000920E-02 0. -1.
        2   -1    0    0  501    0  0.00000000000E+00  0.00000000000E+00 -0.78690810467E+03  0.78690810467E+03  0.25500000920E-02 0.  1.
    10030    2    1    2    0    0  0.00000000000E+00  0.00000000000E+00 -0.40287671424E+03  0.11709394951E+04  0.10994497052E+04 0.  0.
        5    1    3    3  502    0 -0.13136070513E+03 -0.29639439442E+03 -0.67422957708E+03  0.74813961566E+03  0.46999998093E+01 0.  1.
       -5    1    3    3    0  502  0.13136070513E+03  0.29639439442E+03  0.27135286285E+03  0.42279987946E+03  0.46999998093E+01 0. -1.
</event>
<event>
 5   0  0.2257667E-03  0.1098931E+04  0.7818609E-02  0.9206234E-01
        1   -1    0    0  501    0  0.00000000000E+00  0.00000000000E+00  0.18361649446E+04  0.18361649446E+04  0.50400001928E-02 0. -1.
       -1   -1    0    0    0  501  0.00000000000E+00  0.00000000000E+00 -0.16442552188E+03  0.16442552195E+03  0.50400001928E-02 0.  1.
    10030    2    1    2    0    0  0.00000000000E+00  0.00000000000E+00  0.16717394227E+04  0.20005904665E+04  0.10989310794E+04 0.  0.
        4    1    3    3  502    0  0.34871229860E+03 -0.11893293653E+03  0.15779623278E+04  0.16204048973E+04  0.12699999809E+01 0. -1.
       -4    1    3    3    0  502 -0.34871229860E+03  0.11893293653E+03  0.93777094927E+02  0.38018556919E+03  0.12699999809E+01 0.  1.
</event>
<event>
 5   0  0.3744875E-03  0.1081190E+04  0.7818609E-02  0.9223722E-01
       -2   -1    0    0    0  501  0.00000000000E+00  0.00000000000E+00  0.28746662231E+03  0.28746662232E+03  0.25500000920E-02 0. -1.
        2   -1    0    0  501    0  0.00000000000E+00  0.00000000000E+00 -0.10166154859E+04  0.10166154859E+04  0.25500000920E-02 0.  1.
    10030    2    1    2    0    0  0.00000000000E+00  0.00000000000E+00 -0.72914886362E+03  0.13040821083E+04  0.10811901219E+04 0.  0.
        2    1    3    3  502    0 -0.38363049630E+03 -0.32479974936E+03 -0.60452270931E+03  0.78620286247E+03  0.25500000920E-02 0. -1.
       -2    1    3    3    0  502  0.38363049630E+03  0.32479974936E+03 -0.12462615431E+03  0.51787924579E+03  0.25500000920E-02 0.  1.
</event>
<event>
 5   0  0.2255788E-03  0.1127558E+04  0.7818609E-02  0.9178740E-01
        1   -1    0    0  501    0  0.00000000000E+00  0.00000000000E+00  0.70714667666E+03  0.70714667668E+03  0.50400001928E-02 0. -1.
       -1   -1    0    0    0  501  0.00000000000E+00  0.00000000000E+00 -0.44947807654E+03  0.44947807657E+03  0.50400001928E-02 0.  1.
    10030    2    1    2    0    0  0.00000000000E+00  0.00000000000E+00  0.25766860012E+03  0.11566247532E+04  0.11275582966E+04 0.  0.
        3    1    3    3  502    0  0.12816751820E+03  0.24076726976E+03 -0.37729254421E+03  0.46555930344E+03  0.10100000352E+00 0.  1.
       -3    1    3    3    0  502 -0.12816751820E+03 -0.24076726976E+03  0.63496114432E+03  0.69106544980E+03  0.10100000352E+00 0. -1.
</event>
<event>
 5   0  0.2300702E-03  0.1098435E+04  0.7818609E-02  0.9206718E-01
        1   -1    0    0  501    0  0.00000000000E+00  0.00000000000E+00  0.55483528762E+03  0.55483528764E+03  0.50400001928E-02 0.  1.
       -1   -1    0    0    0  501  0.00000000000E+00  0.00000000000E+00 -0.54365679837E+03  0.54365679840E+03  0.50400001928E-02 0. -1.
    10030    2    1    2    0    0  0.00000000000E+00  0.00000000000E+00  0.11178489247E+02  0.10984920860E+04  0.10984352072E+04 0.  0.
        5    1    3    3  502    0 -0.52629060306E+03  0.75393739501E+02  0.14326216886E+03  0.55064703200E+03  0.46999998093E+01 0. -1.
       -5    1    3    3    0  502  0.52629060306E+03 -0.75393739501E+02 -0.13208367961E+03  0.54784505405E+03  0.46999998093E+01 0.  1.
</event>
<event>
 5   0  0.1508625E-03  0.1095562E+04  0.7818609E-02  0.9209529E-01
        4   -1    0    0  501    0  0.00000000000E+00  0.00000000000E+00  0.12204857946E+04  0.12204864554E+04  0.12699999809E+01 0.  1.
       -4   -1    0    0    0  501  0.00000000000E+00  0.00000000000E+00 -0.24585367577E+03  0.24585695595E+03  0.12699999809E+01 0. -1.
    10030    2    1    2    0    0  0.00000000000E+00  0.00000000000E+00  0.97463211886E+03  0.14663434113E+04  0.10955616062E+04 0.  0.
        5    1    3    3  502    0 -0.73740764052E+02  0.40402840785E+03  0.22076220612E+01  0.41073546016E+03  0.46999998093E+01 0. -1.
       -5    1    3    3    0  502  0.73740764052E+02 -0.40402840785E+03  0.97242449680E+03  0.10556079512E+04  0.46999998093E+01 0.  1.
</event>
<event>
 5   0  0.2300702E-03  0.1087994E+04  0.7818609E-02  0.9216974E-01
       -1   -1    0    0    0  501  0.00000000000E+00  0.00000000000E+00  0.26087704660E+03  0.26087704665E+03  0.50400001928E-02 0. -1.
        1   -1    0    0  501    0  0.00000000000E+00  0.00000000000E+00 -0.11343755233E+04  0.11343755233E+04  0.50400001928E-02 0.  1.
    10030    2    1    2    0    0  0.00000000000E+00  0.00000000000E+00 -0.87349847666E+03  0.13952525699E+04  0.10879936329E+04 0.  0.
        5    1    3    3  502    0 -0.32087490418E+03 -0.13920085544E+03  0.97528885306E+02  0.36314123389E+03  0.46999998093E+01 0. -1.
       -5    1    3    3    0  502  0.32087490418E+03  0.13920085544E+03 -0.97102736197E+03  0.10321113360E+04  0.46999998093E+01 0.  1.
</event>
<event>
 5   0  0.3744875E-03  0.9911718E+03  0.7818609E-02  0.9318281E-01
       -2   -1    0    0    0  501  0.00000000000E+00  0.00000000000E+00  0.20580907495E+03  0.20580907496E+03  0.25500000920E-02 0.  1.
        2   -1    0    0  501    0  0.00000000000E+00  0.00000000000E+00 -0.11933652213E+04  0.11933652213E+04  0.25500000920E-02 0. -1.
    10030    2    1    2    0    0  0.00000000000E+00  0.00000000000E+00 -0.98755614639E+03  0.13991742963E+04  0.99117181616E+03 0.  0.
        2    1    3    3  502    0 -0.21444440998E+03 -0.40652084448E+03 -0.75544457369E+03  0.88427490403E+03  0.25500000920E-02 0. -1.
       -2    1    3    3    0  502  0.21444440998E+03  0.40652084448E+03 -0.23211157270E+03  0.51489939227E+03  0.25500000920E-02 0.  1.
</event>
<event>
 5   0  0.3744875E-03  0.1089781E+04  0.7818609E-02  0.9215209E-01
        2   -1    0    0  501    0  0.00000000000E+00  0.00000000000E+00  0.11869335808E+04  0.11869335808E+04  0.25500000920E-02 0.  1.
       -2   -1    0    0    0  501  0.00000000000E+00  0.00000000000E+00 -0.25014520319E+03  0.25014520321E+03  0.25500000920E-02 0. -1.
    10030    2    1    2    0    0  0.00000000000E+00  0.00000000000E+00  0.93678837763E+03  0.14370787840E+04  0.10897811556E+04 0.  0.
        2    1    3    3  502    0 -0.33057507061E+03  0.38070448225E+03  0.74085507590E+03  0.89614843838E+03  0.25500000920E-02 0.  1.
       -2    1    3    3    0  502  0.33057507061E+03 -0.38070448225E+03  0.19593330173E+03  0.54093034566E+03  0.25500000920E-02 0. -1.
</event>
<event>
 5   0  0.2374100E-03  0.1100823E+04  0.7818609E-02  0.9204390E-01
       -1   -1    0    0    0  501  0.00000000000E+00  0.00000000000E+00  0.31466959148E+03  0.31466959152E+03  0.50400001928E-02 0. -1.
        1   -1    0    0  501    0  0.00000000000E+00  0.00000000000E+00 -0.96276560446E+03  0.96276560447E+03  0.50400001928E-02 0.  1.
    10030    2    1    2    0    0  0.00000000000E+00  0.00000000000E+00 -0.64809601297E+03  0.12774351960E+04  0.11008234363E+04 0.  0.
        2    1    3    3  502    0 -0.33335514958E+03  0.32436205545E+03  0.17476544443E+02  0.46544798676E+03  0.25500000920E-02 0. -1.
       -2    1    3    3    0  502  0.33335514958E+03 -0.32436205545E+03 -0.66557255742E+03  0.81198720923E+03  0.25500000920E-02 0.  1.
</event>
<event>
 5   0  0.3713158E-03  0.1200351E+04  0.7818609E-02  0.9112550E-01
       -2   -1    0    0    0  501  0.00000000000E+00  0.00000000000E+00  0.42804037290E+03  0.42804037290E+03  0.25500000920E-02 0.  1.
        2   -1    0    0  501    0  0.00000000000E+00  0.00000000000E+00 -0.84153375320E+03  0.84153375321E+03  0.25500000920E-02 0. -1.
    10030    2    1    2    0    0  0.00000000000E+00  0.00000000000E+00 -0.41349338031E+03  0.12695741261E+04  0.12003506513E+04 0.  0.
        4    1    3    3  502    0  0.58825333236E+03 -0.64774772327E+02 -0.10113293734E+03  0.60038923881E+03  0.12699999809E+01 0.  1.
       -4    1    3    3    0  502 -0.58825333236E+03  0.64774772327E+02 -0.31236044296E+03  0.66918488730E+03  0.12699999809E+01 0. -1.
</event>
<event>
 5   0  0.2300702E-03  0.1087526E+04  0.7818609E-02  0.9217436E-01
        1   -1    0    0  501    0  0.00000000000E+00  0.00000000000E+00  0.11995680478E+04  0.11995680478E+04  0.50400001928E-02 0.  1.
       -1   -1    0    0    0  501  0.00000000000E+00  0.00000000000E+00 -0.24648705535E+03  0.24648705540E+03  0.50400001928E-02 0. -1.
    10030    2    1    2    0    0  0.00000000000E+00  0.00000000000E+00  0.95308099246E+03  0.14460551032E+04  0.10875256242E+04 0.  0.
        5    1    3    3  502    0  0.44853906930E+03 -0.13460787644E+03  0.10913304864E+03  0.48087284119E+03  0.46999998093E+01 0. -1.
       -5    1    3    3    0  502 -0.44853906930E+03  0.13460787644E+03  0.84394794382E+03  0.96518226204E+03  0.46999998093E+01 0.  1.
</event>
<event>
 5   0  0.2300702E-03  0.1142731E+04  0.7818609E-02  0.9164515E-01
       -1   -1    0    0    0  501  0.00000000000E+00  0.00000000000E+00  0.11918647378E+04  0.11918647378E+04  0.50400001928E-02 0. -1.
        1   -1    0    0  501    0  0.00000000000E+00  0.00000000000E+00 -0.27390592886E+03  0.27390592890E+03  0.50400001928E-02 0.  1.
    10030    2    1    2    0    0  0.00000000000E+00  0.00000000000E+00  0.91795880892E+03  0.14657706667E+04  0.11427314962E+04 0.  0.
        5    1    3    3  502    0  0.31928257102E+03 -0.25854428510E+03  0.96827406141E+03  0.10518380367E+04  0.46999998093E+01 0. -1.
       -5    1    3    3    0  502 -0.31928257102E+03  0.25854428510E+03 -0.50315252487E+02  0.41393262996E+03  0.46999998093E+01 0.  1.
</event>
<event>
 5   0  0.2255788E-03  0.1099931E+04  0.7818609E-02  0.9205260E-01
        1   -1    0    0  501    0  0.00000000000E+00  0.00000000000E+00  0.20545373910E+04  0.20545373910E+04  0.50400001928E-02 0. -1.
       -1   -1    0    0    0  501  0.00000000000E+00  0.00000000000E+00 -0.14721648709E+03  0.14721648718E+03  0.50400001928E-02 0.  1.
    10030    2    1    2    0    0  0.00000000000E+00  0.00000000000E+00  0.19073209040E+04  0.22017538782E+04  0.10999305022E+04 0.  0.
        3    1    3    3  502    0 -0.19032716928E+03 -0.49996506880E+03  0.12090055585E+04  0.13220756227E+04  0.10100000352E+00 0. -1.
       -3    1    3    3    0  502  0.19032716928E+03  0.49996506880E+03  0.69831534540E+03  0.87967825550E+03  0.10100000352E+00 0.  1.
</event>
<event>
 5   0  0.3744875E-03  0.1100932E+04  0.7818609E-02  0.9204284E-01
        2   -1    0    0  501    0  0.00000000000E+00  0.00000000000E+00  0.77455608635E+03  0.77455608635E+03  0.25500000920E-02 0.  1.
       -2   -1    0    0    0  501  0.00000000000E+00  0.00000000000E+00 -0.39120857896E+03  0.39120857897E+03  0.25500000920E-02 0. -1.
    10030    2    1    2    0    0  0.00000000000E+00  0.00000000000E+00  0.38334750739E+03  0.11657646653E+04  0.11009323065E+04 0.  0.
        2    1    3    3  502    0 -0.21206626351E+03 -0.41552795327E+03 -0.11772727174E+03  0.48113957496E+03  0.25500000920E-02 0. -1.
       -2    1    3    3    0  502  0.21206626351E+03  0.41552795327E+03  0.50107477913E+03  0.68462509036E+03  0.25500000920E-02 0.  1.
</event>
<event>
 5   0  0.2298958E-03  0.1107866E+04  0.7818609E-02  0.9197559E-01
       -1   -1    0    0    0  501  0.00000000000E+00  0.00000000000E+00  0.80810579945E+03  0.80810579947E+03  0.50400001928E-02 0.  1.
        1   -1    0    0  501    0  0.00000000000E+00  0.00000000000E+00 -0.37970507797E+03  0.37970507801E+03  0.50400001928E-02 0. -1.
    10030    2    1    2    0    0  0.00000000000E+00  0.00000000000E+00  0.42840072148E+03  0.11878108775E+04  0.11078661934E+04 0.  0.
        1    1    3    3  502    0 -0.19626374275E+03 -0.39781717393E+03  0.56989921505E+03  0.72219324003E+03  0.50400001928E-02 0.  1.
       -1    1    3    3    0  502  0.19626374275E+03  0.39781717393E+03 -0.14149849358E+03  0.46561763745E+03  0.50400001928E-02 0. -1.
</event>
<event>
 5   0  0.3744875E-03  0.1110495E+04  0.7818609E-02  0.9195022E-01
        2   -1    0    0  501    0  0.00000000000E+00  0.00000000000E+00  0.79527619684E+03  0.79527619684E+03  0.25500000920E-02 0.  1.
       -2   -1    0    0    0  501  0.00000000000E+00  0.00000000000E+00 -0.38766402433E+03  0.38766402434E+03  0.25500000920E-02 0. -1.
    10030    2    1    2    0    0  0.00000000000E+00  0.00000000000E+00  0.40761217251E+03  0.11829402212E+04  0.11104953326E+04 0.  0.
        2    1    3    3  502    0  0.69787280668E+02  0.33734897561E+03  0.66767395128E+03  0.75130759421E+03  0.25500000920E-02 0.  1.
       -2    1    3    3    0  502 -0.69787280668E+02 -0.33734897561E+03 -0.26006177877E+03  0.43163262698E+03  0.25500000920E-02 0. -1.
</event>
<event>
 5   0  0.3744875E-03  0.1090930E+04  0.7818609E-02  0.9214077E-01
       -2   -1    0    0    0  501  0.00000000000E+00  0.00000000000E+00  0.31831817951E+03  0.31831817952E+03  0.25500000920E-02 0. -1.
        2   -1    0    0  501    0  0.00000000000E+00  0.00000000000E+00 -0.93470012523E+03  0.93470012524E+03  0.25500000920E-02 0.  1.
    10030    2    1    2    0    0  0.00000000000E+00  0.00000000000E+00 -0.61638194572E+03  0.12530183048E+04  0.10909299561E+04 0.  0.
        2    1    3    3  502    0 -0.13410796050E+03 -0.47241205285E+03 -0.35481779219E+02  0.49235865932E+03  0.25500000920E-02 0. -1.
       -2    1    3    3    0  502  0.13410796050E+03  0.47241205285E+03 -0.58090016650E+03  0.76065964544E+03  0.25500000920E-02 0.  1.
</event>
<event>
 5   0  0.2255788E-03  0.1096320E+04  0.7818609E-02  0.9208786E-01
       -1   -1    0    0    0  501  0.00000000000E+00  0.00000000000E+00  0.28009974200E+03  0.28009974204E+03  0.50400001928E-02 0.  1.
        1   -1    0    0  501    0  0.00000000000E+00  0.00000000000E+00 -0.10727579950E+04  0.10727579950E+04  0.50400001928E-02 0. -1.
    10030    2    1    2    0    0  0.00000000000E+00  0.00000000000E+00 -0.79265825300E+03  0.13528577370E+04  0.10963197301E+04 0.  0.
        3    1    3    3  502    0 -0.14142188769E+03  0.75694483518E+02  0.25049065549E+03  0.29744811958E+03  0.10100000352E+00 0.  1.
       -3    1    3    3    0  502  0.14142188769E+03 -0.75694483518E+02 -0.10431489085E+04  0.10554096175E+04  0.10100000352E+00 0. -1.
</event>
<event>
 5   0  0.2298958E-03  0.1095288E+04  0.7818609E-02  0.9209797E-01
        1   -1    0    0  501    0  0.00000000000E+00  0.00000000000E+00  0.20815482888E+03  0.20815482894E+03  0.50400001928E-02 0. -1.
       -1   -1    0    0    0  501  0.00000000000E+00  0.00000000000E+00 -0.14408214556E+04  0.14408214556E+04  0.50400001928E-02 0.  1.
    10030    2    1    2    0    0  0.00000000000E+00  0.00000000000E+00 -0.12326666268E+04  0.16489762846E+04  0.10952879870E+04 0.  0.
        1    1    3    3  502    0 -0.10588523749E+03  0.50684296471E+03 -0.88485834400E+03  0.10252198610E+04  0.50400001928E-02 0.  1.
       -1    1    3    3    0  502  0.10588523749E+03 -0.50684296471E+03 -0.34780828276E+03  0.62375642359E+03  0.50400001928E-02 0. -1.
</event>
<event>
 5   0  0.2255788E-03  0.1109385E+04  0.7818609E-02  0.9196093E-01
       -1   -1    0    0    0  501  0.00000000000E+00  0.00000000000E+00  0.28638619876E+03  0.28638619880E+03  0.50400001928E-02 0. -1.
        1   -1    0    0  501    0  0.00000000000E+00  0.00000000000E+00 -0.10743662365E+04  0.10743662365E+04  0.50400001928E-02 0.  1.
    10030    2    1    2    0    0  0.00000000000E+00  0.00000000000E+00 -0.78798003774E+03  0.13607524353E+04  0.11093848071E+04 0.  0.
        3    1    3    3  502    0 -0.41811702514E+03  0.32797856954E+03 -0.19892143927E+03  0.56741654716E+03  0.10100000352E+00 0. -1.
       -3    1    3    3    0  502  0.41811702514E+03 -0.32797856954E+03 -0.58905859848E+03  0.79333588815E+03  0.10100000352E+00 0.  1.
</event>
<event>
 5   0  0.2300702E-03  0.1102405E+04  0.7818609E-02  0.9202850E-01
       -1   -1    0    0    0  501  0.00000000000E+00  0.00000000000E+00  0.62921129945E+03  0.62921129947E+03  0.50400001928E-02 0. -1.
        1   -1    0    0  501    0  0.00000000000E+00  0.00000000000E+00 -0.48286556651E+03  0.48286556653E+03  0.50400001928E-02 0.  1.
    10030    2    1    2    0    0  0.00000000000E+00  0.00000000000E+00  0.14634573294E+03  0.11120768660E+04  0.11024054981E+04 0.  0.
        5    1    3    3  502    0  0.44894651757E+03  0.30480837926E+03 -0.24325220296E+02  0.54320799888E+03  0.46999998093E+01 0. -1.
       -5    1    3    3    0  502 -0.44894651757E+03 -0.30480837926E+03  0.17067095324E+03  0.56886886712E+03  0.46999998093E+01 0.  1.
</event>
<event>
 5   0  0.2257667E-03  0.1094634E+04  0.7818609E-02  0.9210437E-01
        1   -1    0    0  501    0  0.00000000000E+00  0.00000000000E+00  0.11074248618E+04  0.11074248618E+04  0.50400001928E-02 0.  1.
       -1   -1    0    0    0  501  0.00000000000E+00  0.00000000000E+00 -0.27049784914E+03  0.27049784919E+03  0.50400001928E-02 0. -1.
    10030    2    1    2    0    0  0.00000000000E+00  0.00000000000E+00  0.83692701268E+03  0.13779227110E+04  0.10946342645E+04 0.  0.
        4    1    3    3  502    0  0.81893452923E+02 -0.53476454225E+03  0.31409123621E+03  0.62556739912E+03  0.12699999809E+01 0. -1.
       -4    1    3    3    0  502 -0.81893452923E+02  0.53476454225E+03  0.52283577648E+03  0.75235531190E+03  0.12699999809E+01 0.  1.
</event>
<event>
 5   0  0.2257667E-03  0.1097252E+04  0.7818609E-02  0.9207875E-01
        1   -1    0    0  501    0  0.00000000000E+00  0.00000000000E+00  0.36740527281E+03  0.36740527284E+03  0.50400001928E-02 0.  1.
       -1   -1    0    0    0  501  0.00000000000E+00  0.00000000000E+00 -0.81923272076E+03  0.81923272077E+03  0.50400001928E-02 0. -1.
    10030    2    1    2    0    0  0.00000000000E+00  0.00000000000E+00 -0.45182744795E+03  0.11866379936E+04  0.10972518786E+04 0.  0.
        4    1    3    3  502    0  0.43467585520E+03 -0.66324432957E+01  0.13601600899E+03  0.45550966620E+03  0.12699999809E+01 0.  1.
       -4    1    3    3    0  502 -0.43467585520E+03  0.66324432957E+01 -0.58784345693E+03  0.73112832742E+03  0.12699999809E+01 0. -1.
</event>
<event>
 5   0  0.3992414E-03  0.1100720E+04  0.7818609E-02  0.9204491E-01
       -2   -1    0    0    0  501  0.00000000000E+00  0.00000000000E+00  0.33604665525E+03  0.33604665526E+03  0.25500000920E-02 0. -1.
        2   -1    0    0  501    0  0.00000000000E+00  0.00000000000E+00 -0.90135065400E+03  0.90135065401E+03  0.25500000920E-02 0.  1.
    10030    2    1    2    0    0  0.00000000000E+00  0.00000000000E+00 -0.56530399875E+03  0.12373973093E+04  0.11007195328E+04 0.  0.
        1    1    3    3  502    0 -0.42367940064E+03 -0.33160302090E+03 -0.15236896273E+03  0.55917895063E+03  0.50400001928E-02 0.  1.
       -1    1    3    3    0  502  0.42367940064E+03  0.33160302090E+03 -0.41293503602E+03  0.67821835864E+03  0.50400001928E-02 0. -1.
</event>
<event>
 5   0  0.3962999E-03  0.1088722E+04  0.7818609E-02  0.9216254E-01
        2   -1    0    0  501    0  0.00000000000E+00  0.00000000000E+00  0.23433881591E+04  0.23433881591E+04  0.25500000920E-02 0.  1.
       -2   -1    0    0    0  501  0.00000000000E+00  0.00000000000E+00 -0.12645322725E+03  0.12645322727E+03  0.25500000920E-02 0. -1.
    10030    2    1    2    0    0  0.00000000000E+00  0.00000000000E+00  0.22169349319E+04  0.24698413864E+04  0.10887221784E+04 0.  0.
        3    1    3    3  502    0  0.19874880837E+03  0.27878650574E+03  0.20685466145E+04  0.20966897985E+04  0.10100000352E+00 0.  1.
       -3    1    3    3    0  502 -0.19874880837E+03 -0.27878650574E+03  0.14838831738E+03  0.37315158789E+03  0.10100000352E+00 0. -1.
</event>
<event>
 5   0  0.2300702E-03  0.1111025E+04  0.7818609E-02  0.9194512E-01
        1   -1    0    0  501    0  0.00000000000E+00  0.00000000000E+00  0.47282372148E+03  0.47282372151E+03  0.50400001928E-02 0. -1.
       -1   -1    0    0    0  501  0.00000000000E+00  0.00000000000E+00 -0.65266254166E+03  0.65266254168E+03  0.50400001928E-02 0.  1.
    10030    2    1    2    0    0  0.00000000000E+00  0.00000000000E+00 -0.17983882018E+03  0.11254862632E+04  0.11110253496E+04 0.  0.
        5    1    3    3  502    0 -0.80262988212E+02  0.45131828007E+03  0.22791889383E+03  0.51195649168E+03  0.46999998093E+01 0. -1.
       -5    1    3    3    0  502  0.80262988212E+02 -0.45131828007E+03 -0.40775771401E+03  0.61352977152E+03  0.46999998093E+01 0.  1.
</event>
<event>
 5   0  0.3744875E-03  0.1113761E+04  0.7818609E-02  0.9191883E-01
       -2   -1    0    0    0  501  0.00000000000E+00  0.00000000000E+00  0.16721098385E+03  0.16721098387E+03  0.25500000920E-02 0. -1.
        2   -1    0    0  501    0  0.00000000000E+00  0.00000000000E+00 -0.18546369917E+04  0.18546369917E+04  0.25500000920E-02 0.  1.
    10030    2    1    2    0    0  0.00000000000E+00  0.00000000000E+00 -0.16874260079E+04  0.20218479756E+04  0.11137606136E+04 0.  0.
        2    1    3    3  502    0  0.54358376302E+03  0.58331789448E+02 -0.10360851066E+04  0.11714769538E+04  0.25500000920E-02 0. -1.
       -2    1    3    3    0  502 -0.54358376302E+03 -0.58331789448E+02 -0.65134090127E+03  0.85037102182E+03  0.25500000920E-02 0.  1.
</event>
<event>
 5   0  0.3713158E-03  0.1073327E+04  0.7818609E-02  0.9231586E-01
        2   -1    0    0  501    0  0.00000000000E+00  0.00000000000E+00  0.12035693529E+04  0.12035693529E+04  0.25500000920E-02 0.  1.
       -2   -1    0    0    0  501  0.00000000000E+00  0.00000000000E+00 -0.23929475303E+03  0.23929475304E+03  0.25500000920E-02 0. -1.
    10030    2    1    2    0    0  0.00000000000E+00  0.00000000000E+00  0.96427459991E+03  0.14428641060E+04  0.10733272214E+04 0.  0.
        4    1    3    3  502    0  0.21068653525E+03 -0.20428216668E+03 -0.12187613794E+03  0.31776630668E+03  0.12699999809E+01 0. -1.
       -4    1    3    3    0  502 -0.21068653525E+03  0.20428216668E+03  0.10861507378E+04  0.11250977993E+04  0.12699999809E+01 0.  1.
</event>
<event>
 5   0  0.2257667E-03  0.1103772E+04  0.7818609E-02  0.9201523E-01
       -1   -1    0    0    0  501  0.00000000000E+00  0.00000000000E+00  0.37278061236E+03  0.37278061239E+03  0.50400001928E-02 0.  1.
        1   -1    0    0  501    0  0.00000000000E+00  0.00000000000E+00 -0.81704417823E+03  0.81704417824E+03  0.50400001928E-02 0. -1.
    10030    2    1    2    0    0  0.00000000000E+00  0.00000000000E+00 -0.44426356587E+03  0.11898247906E+04  0.11037721307E+04 0.  0.
        4    1    3    3  502    0  0.15178850214E+03  0.41772910000E+03  0.13054360279E+03  0.46322844849E+03  0.12699999809E+01 0.  1.
       -4    1    3    3    0  502 -0.15178850214E+03 -0.41772910000E+03 -0.57480716866E+03  0.72659634214E+03  0.12699999809E+01 0. -1.
</event>
<event>
 5   0  0.3748901E-03  0.1097485E+04  0.7818609E-02  0.9207646E-01
        2   -1    0    0  501    0  0.00000000000E+00  0.00000000000E+00  0.36368942627E+03  0.36368942628E+03  0.25500000920E-02 0. -1.
       -2   -1    0    0    0  501  0.00000000000E+00  0.00000000000E+00 -0.82795506956E+03  0.82795506957E+03  0.25500000920E-02 0.  1.
    10030    2    1    2    0    0  0.00000000000E+00  0.00000000000E+00 -0.46426564329E+03  0.11916444958E+04  0.10974853151E+04 0.  0.
        5    1    3    3  502    0 -0.21324501854E+03  0.20020128578E+03  0.27196447942E+03  0.39942553852E+03  0.46999998093E+01 0. -1.
       -5    1    3    3    0  502  0.21324501854E+03 -0.20020128578E+03 -0.73623012271E+03  0.79221895733E+03  0.46999998093E+01 0.  1.
</event>
<event>
 5   0  0.3992414E-03  0.1087174E+04  0.7818609E-02  0.9217784E-01
        2   -1    0    0  501    0  0.00000000000E+00  0.00000000000E+00  0.33823937092E+03  0.33823937093E+03  0.25500000920E-02 0.  1.
       -2   -1    0    0    0  501  0.00000000000E+00  0.00000000000E+00 -0.87360252829E+03  0.87360252829E+03  0.25500000920E-02 0. -1.
    10030    2    1    2    0    0  0.00000000000E+00  0.00000000000E+00 -0.53536315737E+03  0.12118418992E+04  0.10871738952E+04 0.  0.
        1    1    3    3  502    0  0.23856257152E+03  0.47654191401E+03 -0.38712566962E+03  0.65868853067E+03  0.50400001928E-02 0. -1.
       -1    1    3    3    0  502 -0.23856257152E+03 -0.47654191401E+03 -0.14823748776E+03  0.55315336855E+03  0.50400001928E-02 0.  1.
</event>
<event>
 5   0  0.2257667E-03  0.1076149E+04  0.7818609E-02  0.9228755E-01
       -1   -1    0    0    0  501  0.00000000000E+00  0.00000000000E+00  0.28713876852E+03  0.28713876856E+03  0.50400001928E-02 0.  1.
        1   -1    0    0  501    0  0.00000000000E+00  0.00000000000E+00 -0.10083080677E+04  0.10083080677E+04  0.50400001928E-02 0. -1.
    10030    2    1    2    0    0  0.00000000000E+00  0.00000000000E+00 -0.72116929919E+03  0.12954468363E+04  0.10761493147E+04 0.  0.
        4    1    3    3  502    0 -0.38457706329E+02  0.78221250866E+02 -0.99975111726E+03  0.10035444527E+04  0.12699999809E+01 0. -1.
       -4    1    3    3    0  502  0.38457706329E+02 -0.78221250866E+02  0.27858181807E+03  0.29190238355E+03  0.12699999809E+01 0.  1.
</event>
<event>
 5   0  0.1508625E-03  0.1024839E+04  0.7818609E-02  0.9281714E-01
       -3   -1    0    0    0  501  0.00000000000E+00  0.00000000000E+00  0.44803537554E+03  0.44803538692E+03  0.10100000352E+00 0.  1.
        3   -1    0    0  501    0  0.00000000000E+00  0.00000000000E+00 -0.58605534143E+03  0.58605535013E+03  0.10100000352E+00 0. -1.
    10030    2    1    2    0    0  0.00000000000E+00  0.00000000000E+00 -0.13801996589E+03  0.10340907371E+04  0.10248385929E+04 0.  0.
        3    1    3    3  502    0  0.19656556916E+03 -0.43143149351E+03 -0.26519357526E+03  0.54322996892E+03  0.10100000352E+00 0. -1.
       -3    1    3    3    0  502 -0.19656556916E+03  0.43143149351E+03  0.12717360937E+03  0.49086076813E+03  0.10100000352E+00 0.  1.
</event>
<event>
 5   0  0.2298958E-03  0.1099672E+04  0.7818609E-02  0.9205511E-01
        1   -1    0    0  501    0  0.00000000000E+00  0.00000000000E+00  0.43136442148E+03  0.43136442151E+03  0.50400001928E-02 0.  1.
       -1   -1    0    0    0  501  0.00000000000E+00  0.00000000000E+00 -0.70084544122E+03  0.70084544124E+03  0.50400001928E-02 0. -1.
    10030    2    1    2    0    0  0.00000000000E+00  0.00000000000E+00 -0.26948101974E+03  0.11322098627E+04  0.10996722936E+04 0.  0.
        1    1    3    3  502    0  0.83054659186E+02  0.54281272988E+03 -0.10605853118E+03  0.55927823862E+03  0.50400001928E-02 0.  1.
       -1    1    3    3    0  502 -0.83054659186E+02 -0.54281272988E+03 -0.16342248856E+03  0.57293162413E+03  0.50400001928E-02 0. -1.
</event>
<event>
 5   0  0.3713158E-03  0.1085884E+04  0.7818609E-02  0.9219060E-01
        2   -1    0    0  501    0  0.00000000000E+00  0.00000000000E+00  0.42202952140E+03  0.42202952141E+03  0.25500000920E-02 0.  1.
       -2   -1    0    0    0  501  0.00000000000E+00  0.00000000000E+00 -0.69849664497E+03  0.69849664497E+03  0.25500000920E-02 0. -1.
    10030    2    1    2    0    0  0.00000000000E+00  0.00000000000E+00 -0.27646712357E+03  0.11205261664E+04  0.10858843489E+04 0.  0.
        4    1    3    3  502    0 -0.36373580998E+03 -0.24575626676E+03 -0.46793343353E+03  0.64160984502E+03  0.12699999809E+01 0. -1.
       -4    1    3    3    0  502  0.36373580998E+03  0.24575626676E+03  0.19146630996E+03  0.47891632136E+03  0.12699999809E+01 0.  1.
</event>
<event>
 5   0  0.3962999E-03  0.1108956E+04  0.7818609E-02  0.9196506E-01
       -2   -1    0    0    0  501  0.00000000000E+00  0.00000000000E+00  0.73144183996E+03  0.73144183996E+03  0.25500000920E-02 0.  1.
        2   -1    0    0  501    0  0.00000000000E+00  0.00000000000E+00 -0.42032876692E+03  0.42032876693E+03  0.25500000920E-02 0. -1.
    10030    2    1    2    0    0  0.00000000000E+00  0.00000000000E+00  0.31111307303E+03  0.11517706069E+04  0.11089563502E+04 0.  0.
        3    1    3    3  502    0 -0.26796890321E+03  0.24464430041E+03  0.59101425271E+03  0.69350993065E+03  0.10100000352E+00 0.  1.
       -3    1    3    3    0  502  0.26796890321E+03 -0.24464430041E+03 -0.27990117967E+03  0.45826067624E+03  0.10100000352E+00 0. -1.
</event>
<event>
 5   0  0.3744875E-03  0.1096858E+04  0.7818609E-02  0.9208260E-01
       -2   -1    0    0    0  501  0.00000000000E+00  0.00000000000E+00  0.63636652009E+03  0.63636652010E+03  0.25500000920E-02 0.  1.
        2   -1    0    0  501    0  0.00000000000E+00  0.00000000000E+00 -0.47264296115E+03  0.47264296115E+03  0.25500000920E-02 0. -1.
    10030    2    1    2    0    0  0.00000000000E+00  0.00000000000E+00  0.16372355894E+03  0.11090094812E+04  0.10968576142E+04 0.  0.
        2    1    3    3  502    0 -0.13095648444E+03 -0.52723815844E+03  0.15782388076E+03  0.56571905915E+03  0.25500000920E-02 0.  1.
       -2    1    3    3    0  502  0.13095648444E+03  0.52723815844E+03  0.58996781838E+01  0.54329042210E+03  0.25500000920E-02 0. -1.
</event>
<event>
 5   0  0.3744875E-03  0.1094545E+04  0.7818609E-02  0.9210525E-01
       -2   -1    0    0    0  501  0.00000000000E+00  0.00000000000E+00  0.44168239611E+03  0.44168239612E+03  0.25500000920E-02 0. -1.
        2   -1    0    0  501    0  0.00000000000E+00  0.00000000000E+00 -0.67810590631E+03  0.67810590631E+03  0.25500000920E-02 0.  1.
    10030    2    1    2    0    0  0.00000000000E+00  0.00000000000E+00 -0.23642351020E+03  0.11197883024E+04  0.10945454610E+04 0.  0.
        2    1    3    3  502    0  0.46201218264E+03 -0.26374947962E+03  0.13156773261E+02  0.53215800811E+03  0.25500000920E-02 0.  1.
       -2    1    3    3    0  502 -0.46201218264E+03  0.26374947962E+03 -0.24958028346E+03  0.58763029432E+03  0.25500000920E-02 0. -1.
</event>
<event>
 5   0  0.3713158E-03  0.1119417E+04  0.7818609E-02  0.9186471E-01
       -2   -1    0    0    0  501  0.00000000000E+00  0.00000000000E+00  0.71332894884E+03  0.71332894884E+03  0.25500000920E-02 0. -1.
        2   -1    0    0  501    0  0.00000000000E+00  0.00000000000E+00 -0.43917144698E+03  0.43917144699E+03  0.25500000920E-02 0.  1.
    10030    2    1    2    0    0  0.00000000000E+00  0.00000000000E+00  0.27415750185E+03  0.11525003958E+04  0.11194171816E+04 0.  0.
        4    1    3    3  502    0  0.17893138829E+03 -0.45936213243E+03  0.40994373443E+03  0.64115948774E+03  0.12699999809E+01 0.  1.
       -4    1    3    3    0  502 -0.17893138829E+03  0.45936213243E+03 -0.13578623257E+03  0.51134090809E+03  0.12699999809E+01 0. -1.
</event>
<event>
 5   0  0.3748901E-03  0.1096226E+04  0.7818609E-02  0.9208878E-01
        2   -1    0    0  501    0  0.00000000000E+00  0.00000000000E+00  0.80800279347E+03  0.80800279348E+03  0.25500000920E-02 0. -1.
       -2   -1    0    0    0  501  0.00000000000E+00  0.00000000000E+00 -0.37181533033E+03  0.37181533034E+03  0.25500000920E-02 0.  1.
    10030    2    1    2    0    0  0.00000000000E+00  0.00000000000E+00  0.43618746314E+03  0.11798181238E+04  0.10962259358E+04 0.  0.
        5    1    3    3  502    0  0.34302938603E+03  0.20050722817E+03 -0.18823109115E+03  0.43968777775E+03  0.46999998093E+01 0.  1.
       -5    1    3    3    0  502 -0.34302938603E+03 -0.20050722817E+03  0.62441855429E+03  0.74013034607E+03  0.46999998093E+01 0. -1.
</event>
<event>
 5   0  0.3748901E-03  0.1089379E+04  0.7818609E-02  0.9215606E-01
        2   -1    0    0  501    0  0.00000000000E+00  0.00000000000E+00  0.10642602352E+04  0.10642602352E+04  0.25500000920E-02 0. -1.
       -2   -1    0    0    0  501  0.00000000000E+00  0.00000000000E+00 -0.27877269922E+03  0.27877269923E+03  0.25500000920E-02 0.  1.
    10030    2    1    2    0    0  0.00000000000E+00  0.00000000000E+00  0.78548753594E+03  0.13430329344E+04  0.10893790863E+04 0.  0.
        5    1    3    3  502    0 -0.12355463346E+03  0.82559017572E+02 -0.25327383044E+03  0.29368599220E+03  0.46999998093E+01 0.  1.
       -5    1    3    3    0  502  0.12355463346E+03 -0.82559017572E+02  0.10387613664E+04  0.10493469422E+04  0.46999998093E+01 0. -1.
</event>
<event>
 5   0  0.3962999E-03  0.1258404E+04  0.7818609E-02  0.9063218E-01
        2   -1    0    0  501    0  0.00000000000E+00  0.00000000000E+00  0.12324749379E+04  0.12324749379E+04  0.25500000920E-02 0.  1.
       -2   -1    0    0    0  501  0.00000000000E+00  0.00000000000E+00 -0.32121963882E+03  0.32121963883E+03  0.25500000920E-02 0. -1.
    10030    2    1    2    0    0  0.00000000000E+00  0.00000000000E+00  0.91125529907E+03  0.15536945767E+04  0.12584039962E+04 0.  0.
        3    1    3    3  502    0 -0.24057649965E+02 -0.21573338779E+03 -0.27352512554E+03  0.34919288313E+03  0.10100000352E+00 0. -1.
       -3    1    3    3    0  502  0.24057649965E+02  0.21573338779E+03  0.11847804246E+04  0.12045016936E+04  0.10100000352E+00 0.  1.
</event>
<event>
 5   0  0.2257667E-03  0.1096948E+04  0.7818609E-02  0.9208171E-01
       -1   -1    0    0    0  501  0.00000000000E+00  0.00000000000E+00  0.10325546009E+04  0.10325546009E+04  0.50400001928E-02 0.  1.
        1   -1    0    0  501    0  0.00000000000E+00  0.00000000000E+00 -0.29133954237E+03  0.29133954242E+03  0.50400001928E-02 0. -1.
    10030    2    1    2    0    0  0.00000000000E+00  0.00000000000E+00  0.74121505856E+03  0.13238941434E+04  0.10969484672E+04 0.  0.
        4    1    3    3  502    0 -0.41119671513E+03 -0.35664008227E+03  0.28922097084E+03  0.61638078303E+03  0.12699999809E+01 0.  1.
       -4    1    3    3    0  502  0.41119671513E+03  0.35664008227E+03  0.45199408772E+03  0.70751336034E+03  0.12699999809E+01 0. -1.
</event>
<event>
 5   0  0.2298958E-03  0.1088719E+04  0.7818609E-02  0.9216257E-01
        1   -1    0    0  501    0  0.00000000000E+00  0.00000000000E+00  0.24207760151E+04  0.24207760151E+04  0.50400001928E-02 0.  1.
       -1   -1    0    0    0  501  0.00000000000E+00  0.00000000000E+00 -0.12241004375E+03  0.12241004386E+03  0.50400001928E-02 0. -1.
    10030    2    1    2    0    0  0.00000000000E+00  0.00000000000E+00  0.22983659714E+04  0.25431860590E+04  0.10887190603E+04 0.  0.
        1    1    3    3  502    0  0.34673167988E+03 -0.37519617258E+03  0.71009849995E+03  0.87477706041E+03  0.50400001928E-02 0. -1.
       -1    1    3    3    0  502 -0.34673167988E+03  0.37519617258E+03  0.15882674714E+04  0.16684089986E+04  0.50400001928E-02 0.  1.
</event>
<event>
 5   0  0.3744875E-03  0.1113182E+04  0.7818609E-02  0.9192439E-01
        2   -1    0    0  501    0  0.00000000000E+00  0.00000000000E+00  0.20836467090E+04  0.20836467090E+04  0.25500000920E-02 0.  1.
       -2   -1    0    0    0  501  0.00000000000E+00  0.00000000000E+00 -0.14867843778E+03  0.14867843780E+03  0.25500000920E-02 0. -1.
    10030    2    1    2    0    0  0.00000000000E+00  0.00000000000E+00  0.19349682713E+04  0.22323251468E+04  0.11131816341E+04 0.  0.
        2    1    3    3  502    0  0.97205726050E+02 -0.22228546122E+03  0.19720323626E+04  0.19868999519E+04  0.25500000920E-02 0.  1.
       -2    1    3    3    0  502 -0.97205726050E+02  0.22228546122E+03 -0.37064091380E+02  0.24542519496E+03  0.25500000920E-02 0. -1.
</event>
<event>
 5   0  0.3713158E-03  0.1090679E+04  0.7818609E-02  0.9214325E-01
       -2   -1    0    0    0  501  0.00000000000E+00  0.00000000000E+00  0.30287110721E+03  0.30287110722E+03  0.25500000920E-02 0. -1.
        2   -1    0    0  501    0  0.00000000000E+00  0.00000000000E+00 -0.98191965614E+03  0.98191965614E+03  0.25500000920E-02 0.  1.
    10030    2    1    2    0    0  0.00000000000E+00  0.00000000000E+00 -0.67904854893E+03  0.12847907634E+04  0.10906788592E+04 0.  0.
        4    1    3    3  502    0  0.43608516040E+03  0.28331956526E+03 -0.53291737603E+03  0.74460914966E+03  0.12699999809E+01 0.  1.
       -4    1    3    3    0  502 -0.43608516040E+03 -0.28331956526E+03 -0.14613117290E+03  0.54018161369E+03  0.12699999809E+01 0. -1.
</event>
<event>
 5   0  0.2300702E-03  0.1096465E+04  0.7818609E-02  0.9208644E-01
        1   -1    0    0  501    0  0.00000000000E+00  0.00000000000E+00  0.64983735308E+03  0.64983735310E+03  0.50400001928E-02 0. -1.
       -1   -1    0    0    0  501  0.00000000000E+00  0.00000000000E+00 -0.46251407468E+03  0.46251407471E+03  0.50400001928E-02 0.  1.
    10030    2    1    2    0    0  0.00000000000E+00  0.00000000000E+00  0.18732327840E+03  0.11123514278E+04  0.10964650876E+04 0.  0.
        5    1    3    3  502    0 -0.44893698351E+03 -0.30015212492E+03  0.18937432608E+03  0.57229401415E+03  0.46999998093E+01 0.  1.
       -5    1    3    3    0  502  0.44893698351E+03  0.30015212492E+03 -0.20510476849E+01  0.54005741366E+03  0.46999998093E+01 0. -1.
</event>
<event>
 5   0  0.1508625E-03  0.1045735E+04  0.7818609E-02  0.9259759E-01
       -3   -1    0    0    0  501  0.00000000000E+00  0.00000000000E+00  0.35691305079E+03  0.35691306508E+03  0.10100000352E+00 0. -1.
        3   -1    0    0  501    0  0.00000000000E+00  0.00000000000E+00 -0.76598547294E+03  0.76598547959E+03  0.10100000352E+00 0.  1.
    10030    2    1    2    0    0  0.00000000000E+00  0.00000000000E+00 -0.40907242215E+03  0.11228985447E+04  0.10457346198E+04 0.  0.
        4    1    3    3  502    0  0.18147521903E+03 -0.22573125070E+03 -0.67197474270E+03  0.73173733019E+03  0.12699999809E+01 0.  1.
       -4    1    3    3    0  502 -0.18147521903E+03  0.22573125070E+03  0.26290232055E+03  0.39116121448E+03  0.12699999809E+01 0. -1.
</event>
<event>
 5   0  0.3713158E-03  0.1099168E+04  0.7818609E-02  0.9206003E-01
        2   -1    0    0  501    0  0.00000000000E+00  0.00000000000E+00  0.61018932881E+03  0.61018932882E+03  0.25500000920E-02 0. -1.
       -2   -1    0    0    0  501  0.00000000000E+00  0.00000000000E+00 -0.49499836494E+03  0.49499836495E+03  0.25500000920E-02 0.  1.
    10030    2    1    2    0    0  0.00000000000E+00  0.00000000000E+00  0.11519096387E+03  0.11051876938E+04  0.10991682675E+04 0.  0.
        4    1    3    3  502    0  0.13268926088E+03 -0.25627703057E+03  0.52787123821E+03  0.60160951902E+03  0.12699999809E+01 0. -1.
       -4    1    3    3    0  502 -0.13268926088E+03  0.25627703057E+03 -0.41268027434E+03  0.50357817474E+03  0.12699999809E+01 0.  1.
</event>
<event>
 5   0  0.2300702E-03  0.1098770E+04  0.7818609E-02  0.9206391E-01
       -1   -1    0    0    0  501  0.00000000000E+00  0.00000000000E+00  0.80061793853E+03  0.80061793854E+03  0.50400001928E-02 0.  1.
        1   -1    0    0  501    0  0.00000000000E+00  0.00000000000E+00 -0.37698889290E+03  0.37698889293E+03  0.50400001928E-02 0. -1.
    10030    2    1    2    0    0  0.00000000000E+00  0.00000000000E+00  0.42362904563E+03  0.11776068315E+04  0.10987703496E+04 0.  0.
        5    1    3    3  502    0  0.40349351580E+03  0.27543877743E+03 -0.57466608756E+02  0.49193296142E+03  0.46999998093E+01 0. -1.
       -5    1    3    3    0  502 -0.40349351580E+03 -0.27543877743E+03  0.48109565438E+03  0.68567387005E+03  0.46999998093E+01 0.  1.
</event>
<event>
 5   0  0.2257667E-03  0.1084724E+04  0.7818609E-02  0.9220210E-01
        1   -1    0    0  501    0  0.00000000000E+00  0.00000000000E+00  0.46921521854E+03  0.46921521857E+03  0.50400001928E-02 0.  1.
       -1   -1    0    0    0  501  0.00000000000E+00  0.00000000000E+00 -0.62691203555E+03  0.62691203557E+03  0.50400001928E-02 0. -1.
    10030    2    1    2    0    0  0.00000000000E+00  0.00000000000E+00 -0.15769681701E+03  0.10961272541E+04  0.10847242374E+04 0.  0.
        4    1    3    3  502    0  0.37045219329E+03 -0.17040883845E+03  0.28251546883E+03  0.49607519870E+03  0.12699999809E+01 0. -1.
       -4    1    3    3    0  502 -0.37045219329E+03  0.17040883845E+03 -0.44021228584E+03  0.60005205544E+03  0.12699999809E+01 0.  1.
</event>
<event>
 5   0  0.2257667E-03  0.1081409E+04  0.7818609E-02  0.9223504E-01
        1   -1    0    0  501    0  0.00000000000E+00  0.00000000000E+00  0.29498299237E+03  0.29498299242E+03  0.50400001928E-02 0. -1.
       -1   -1    0    0    0  501  0.00000000000E+00  0.00000000000E+00 -0.99111171746E+03  0.99111171747E+03  0.50400001928E-02 0.  1.
    10030    2    1    2    0    0  0.00000000000E+00  0.00000000000E+00 -0.69612872509E+03  0.12860947099E+04  0.10814085264E+04 0.  0.
        4    1    3    3  502    0 -0.35554551287E+03 -0.29726181432E+03 -0.16807825180E+02  0.46374703650E+03  0.12699999809E+01 0. -1.
       -4    1    3    3    0  502  0.35554551287E+03  0.29726181432E+03 -0.67932089991E+03  0.82234767339E+03  0.12699999809E+01 0.  1.
</event>
<event>
 5   0  0.2298958E-03  0.1097607E+04  0.7818609E-02  0.9207528E-01
        1   -1    0    0  501    0  0.00000000000E+00  0.00000000000E+00  0.86835133490E+03  0.86835133491E+03  0.50400001928E-02 0. -1.
       -1   -1    0    0    0  501  0.00000000000E+00  0.00000000000E+00 -0.34684705089E+03  0.34684705092E+03  0.50400001928E-02 0.  1.
    10030    2    1    2    0    0  0.00000000000E+00  0.00000000000E+00  0.52150428401E+03  0.12151983858E+04  0.10976066685E+04 0.  0.
        1    1    3    3  502    0  0.79314123716E+02  0.48241742280E+02 -0.33809115571E+03  0.35060465701E+03  0.50400001928E-02 0.  1.
       -1    1    3    3    0  502 -0.79314123716E+02 -0.48241742280E+02  0.85959543972E+03  0.86459372883E+03  0.50400001928E-02 0. -1.
</event>
<event>
 5   0  0.2298958E-03  0.1082966E+04  0.7818609E-02  0.9221955E-01
       -1   -1    0    0    0  501  0.00000000000E+00  0.00000000000E+00  0.26625152804E+03  0.26625152809E+03  0.50400001928E-02 0. -1.
        1   -1    0    0  501    0  0.00000000000E+00  0.00000000000E+00 -0.11012288270E+04  0.11012288270E+04  0.50400001928E-02 0.  1.
    10030    2    1    2    0    0  0.00000000000E+00  0.00000000000E+00 -0.83497729894E+03  0.13674803551E+04  0.10829660345E+04 0.  0.
        1    1    3    3  502    0 -0.48513413564E+03 -0.17066486039E+03 -0.20348786436E+03  0.55307226933E+03  0.50400001928E-02 0. -1.
       -1    1    3    3    0  502  0.48513413564E+03  0.17066486039E+03 -0.63148943458E+03  0.81440808576E+03  0.50400001928E-02 0.  1.
</event>
<event>
 5   0  0.1508625E-03  0.1099768E+04  0.7818609E-02  0.9205418E-01
        4   -1    0    0  501    0  0.00000000000E+00  0.00000000000E+00  0.60859190256E+03  0.60859322767E+03  0.12699999809E+01 0. -1.
       -4   -1    0    0    0  501  0.00000000000E+00  0.00000000000E+00 -0.49683634454E+03  0.49683796771E+03  0.12699999809E+01 0.  1.
    10030    2    1    2    0    0  0.00000000000E+00  0.00000000000E+00  0.11175555802E+03  0.11054311954E+04  0.10997676223E+04 0.  0.
        4    1    3    3  502    0  0.13073326374E+03 -0.38370743257E+03  0.42933930397E+03  0.59047136331E+03  0.12699999809E+01 0.  1.
       -4    1    3    3    0  502 -0.13073326374E+03  0.38370743257E+03 -0.31758374595E+03  0.51495983207E+03  0.12699999809E+01 0. -1.
</event>
<event>
 5   0  0.2300702E-03  0.1082842E+04  0.7818609E-02  0.9222079E-01
        1   -1    0    0  501    0  0.00000000000E+00  0.00000000000E+00  0.33259389606E+03  0.33259389610E+03  0.50400001928E-02 0. -1.
       -1   -1    0    0    0  501  0.00000000000E+00  0.00000000000E+00 -0.88136491895E+03  0.88136491897E+03  0.50400001928E-02 0.  1.
    10030    2    1    2    0    0  0.00000000000E+00  0.00000000000E+00 -0.54877102289E+03  0.12139588151E+04  0.10828418024E+04 0.  0.
        5    1    3    3  502    0 -0.42814633162E+03 -0.32626592070E+03 -0.33932891318E+03  0.63633712261E+03  0.46999998093E+01 0. -1.
       -5    1    3    3    0  502  0.42814633162E+03  0.32626592070E+03 -0.20944210971E+03  0.57762169246E+03  0.46999998093E+01 0.  1.
</event>
<event>
 5   0  0.3962999E-03  0.1093205E+04  0.7818609E-02  0.9211840E-01
       -2   -1    0    0    0  501  0.00000000000E+00  0.00000000000E+00  0.47313272541E+03  0.47313272541E+03  0.25500000920E-02 0.  1.
        2   -1    0    0  501    0  0.00000000000E+00  0.00000000000E+00 -0.63148071967E+03  0.63148071967E+03  0.25500000920E-02 0. -1.
    10030    2    1    2    0    0  0.00000000000E+00  0.00000000000E+00 -0.15834799426E+03  0.11046134451E+04  0.10932048188E+04 0.  0.
        3    1    3    3  502    0 -0.27123309094E+03 -0.31541796754E+03 -0.43744201199E+03  0.60366497987E+03  0.10100000352E+00 0. -1.
       -3    1    3    3    0  502  0.27123309094E+03  0.31541796754E+03  0.27909401773E+03  0.50094846521E+03  0.10100000352E+00 0.  1.
</event>
<event>
 5   0  0.2255788E-03  0.1095366E+04  0.7818609E-02  0.9209720E-01
       -1   -1    0    0    0  501  0.00000000000E+00  0.00000000000E+00  0.66666330338E+03  0.66666330340E+03  0.50400001928E-02 0.  1.
        1   -1    0    0  501    0  0.00000000000E+00  0.00000000000E+00 -0.44993749166E+03  0.44993749169E+03  0.50400001928E-02 0. -1.
    10030    2    1    2    0    0  0.00000000000E+00  0.00000000000E+00  0.21672581172E+03  0.11166007951E+04  0.10953662667E+04 0.  0.
        3    1    3    3  502    0 -0.34939865808E+03  0.32023806354E+03 -0.17141153674E+03  0.50399778247E+03  0.10100000352E+00 0. -1.
       -3    1    3    3    0  502  0.34939865808E+03 -0.32023806354E+03  0.38813734846E+03  0.61260301263E+03  0.10100000352E+00 0.  1.
</event>
<event>
 5   0  0.1508625E-03  0.1100397E+04  0.7818609E-02  0.9204805E-01
       -4   -1    0    0    0  501  0.00000000000E+00  0.00000000000E+00  0.11606446325E+04  0.11606453274E+04  0.12699999809E+01 0.  1.
        4   -1    0    0  501    0  0.00000000000E+00  0.00000000000E+00 -0.26081683881E+03  0.26081993081E+03  0.12699999809E+01 0. -1.
    10030    2    1    2    0    0  0.00000000000E+00  0.00000000000E+00  0.89982779371E+03  0.14214652582E+04  0.11003969383E+04 0.  0.
        5    1    3    3  502    0  0.25473244800E+03 -0.17210332338E+02  0.10794623362E+04  0.11092546330E+04  0.46999998093E+01 0.  1.
       -5    1    3    3    0  502 -0.25473244800E+03  0.17210332338E+02 -0.17963454248E+03  0.31221062515E+03  0.46999998093E+01 0. -1.
</event>
<event>
 5   0  0.3748901E-03  0.1099374E+04  0.7818609E-02  0.9205803E-01
        2   -1    0    0  501    0  0.00000000000E+00  0.00000000000E+00  0.24718394490E+04  0.24718394490E+04  0.25500000920E-02 0. -1.
       -2   -1    0    0    0  501  0.00000000000E+00  0.00000000000E+00 -0.12223916743E+03  0.12223916746E+03  0.25500000920E-02 0.  1.
    10030    2    1    2    0    0  0.00000000000E+00  0.00000000000E+00  0.23496002816E+04  0.25940786165E+04  0.10993736331E+04 0.  0.
        5    1    3    3  502    0 -0.15944903578E+03 -0.52599753702E+03  0.11889778310E+04  0.13098808253E+04  0.46999998093E+01 0. -1.
       -5    1    3    3    0  502  0.15944903578E+03  0.52599753702E+03  0.11606224506E+04  0.12841977911E+04  0.46999998093E+01 0.  1.
</event>
<event>
 5   0  0.3962999E-03  0.1149201E+04  0.7818609E-02  0.9158521E-01
       -2   -1    0    0    0  501  0.00000000000E+00  0.00000000000E+00  0.26768291381E+03  0.26768291382E+03  0.25500000920E-02 0.  1.
        2   -1    0    0  501    0  0.00000000000E+00  0.00000000000E+00 -0.12334204031E+04  0.12334204031E+04  0.25500000920E-02 0. -1.
    10030    2    1    2    0    0  0.00000000000E+00  0.00000000000E+00 -0.96573748933E+03  0.15011033170E+04  0.11492007091E+04 0.  0.
        3    1    3    3  502    0 -0.28262004149E+03  0.60484347090E+02 -0.11315635076E+04  0.11678905882E+04  0.10100000352E+00 0. -1.
       -3    1    3    3    0  502  0.28262004149E+03 -0.60484347090E+02  0.16582601824E+03  0.33321272878E+03  0.10100000352E+00 0.  1.
</event>
<event>
 5   0  0.2298958E-03  0.1105987E+04  0.7818609E-02  0.9199376E-01
        1   -1    0    0  501    0  0.00000000000E+00  0.00000000000E+00  0.12319427967E+04  0.12319427967E+04  0.50400001928E-02 0. -1.
       -1   -1    0    0    0  501  0.00000000000E+00  0.00000000000E+00 -0.24822743516E+03  0.24822743521E+03  0.50400001928E-02 0.  1.
    10030    2    1    2    0    0  0.00000000000E+00  0.00000000000E+00  0.98371536150E+03  0.14801702319E+04  0.11059873430E+04 0.  0.
        1    1    3    3  502    0  0.44148871460E+03  0.67435047932E+02  0.92828747383E+03  0.10301346538E+04  0.50400001928E-02 0. -1.
       -1    1    3    3    0  502 -0.44148871460E+03 -0.67435047932E+02  0.55427887672E+02  0.45003557811E+03  0.50400001928E-02 0.  1.
</event>
<event>
 5   0  0.3713158E-03  0.1007234E+04  0.7818609E-02  0.9300646E-01
       -2   -1    0    0    0  501  0.00000000000E+00  0.00000000000E+00  0.28434699354E+03  0.28434699355E+03  0.25500000920E-02 0.  1.
        2   -1    0    0  501    0  0.00000000000E+00  0.00000000000E+00 -0.89197335114E+03  0.89197335114E+03  0.25500000920E-02 0. -1.
    10030    2    1    2    0    0  0.00000000000E+00  0.00000000000E+00 -0.60762635760E+03  0.11763203447E+04  0.10072337181E+04 0.  0.
        4    1    3    3  502    0 -0.49966814485E+03 -0.55707366609E+02 -0.33799738416E+03  0.60581796793E+03  0.12699999809E+01 0. -1.
       -4    1    3    3    0  502  0.49966814485E+03  0.55707366609E+02 -0.26962897344E+03  0.57050237676E+03  0.12699999809E+01 0.  1.
</event>
<event>
 5   0  0.3992414E-03  0.1090165E+04  0.7818609E-02  0.9214831E-01
        2   -1    0    0  501    0  0.00000000000E+00  0.00000000000E+00  0.17123597429E+04  0.17123597429E+04  0.25500000920E-02 0.  1.
       -2   -1    0    0    0  501  0.00000000000E+00  0.00000000000E+00 -0.17351199611E+03  0.17351199612E+03  0.25500000920E-02 0. -1.
    10030    2    1    2    0    0  0.00000000000E+00  0.00000000000E+00  0.15388477468E+04  0.18858717390E+04  0.10901650463E+04 0.  0.
        1    1    3    3  502    0 -0.72265790237E+02 -0.49842143903E+03  0.40875543967E+03  0.64863493955E+03  0.50400001928E-02 0. -1.
       -1    1    3    3    0  502  0.72265790237E+02  0.49842143903E+03  0.11300923071E+04  0.12372367994E+04  0.50400001928E-02 0.  1.
</event>
<event>
 5   0  0.3962999E-03  0.1095350E+04  0.7818609E-02  0.9209736E-01
       -2   -1    0    0    0  501  0.00000000000E+00  0.00000000000E+00  0.49673094956E+03  0.49673094957E+03  0.25500000920E-02 0. -1.
        2   -1    0    0  501    0  0.00000000000E+00  0.00000000000E+00 -0.60384349023E+03  0.60384349024E+03  0.25500000920E-02 0.  1.
    10030    2    1    2    0    0  0.00000000000E+00  0.00000000000E+00 -0.10711254067E+03  0.11005744398E+04  0.10953497164E+04 0.  0.
        3    1    3    3  502    0  0.28648016582E+03  0.41675726028E+03  0.15766118483E+03  0.52973064741E+03  0.10100000352E+00 0. -1.
       -3    1    3    3    0  502 -0.28648016582E+03 -0.41675726028E+03 -0.26477372550E+03  0.57084379240E+03  0.10100000352E+00 0.  1.
</event>
<event>
 5   0  0.2300702E-03  0.1099832E+04  0.7818609E-02  0.9205355E-01
        1   -1    0    0  501    0  0.00000000000E+00  0.00000000000E+00  0.77113830461E+03  0.77113830462E+03  0.50400001928E-02 0. -1.
       -1   -1    0    0    0  501  0.00000000000E+00  0.00000000000E+00 -0.39215776701E+03  0.39215776704E+03  0.50400001928E-02 0.  1.
    10030    2    1    2    0    0  0.00000000000E+00  0.00000000000E+00  0.37898053760E+03  0.11632960717E+04  0.10998324884E+04 0.  0.
        5    1    3    3  502    0  0.15368833506E+03 -0.36312912258E+03 -0.21590524071E+03  0.44957760950E+03  0.46999998093E+01 0.  1.
       -5    1    3    3    0  502 -0.15368833506E+03  0.36312912258E+03  0.59488577831E+03  0.71371846216E+03  0.46999998093E+01 0. -1.
</event>
<event>
 5   0  0.2374100E-03  0.1098766E+04  0.7818609E-02  0.9206396E-01
       -1   -1    0    0    0  501  0.00000000000E+00  0.00000000000E+00  0.58207187519E+03  0.58207187521E+03  0.50400001928E-02 0. -1.
        1   -1    0    0  501    0  0.00000000000E+00  0.00000000000E+00 -0.51852968590E+03  0.51852968592E+03  0.50400001928E-02 0.  1.
    10030    2    1    2    0    0  0.00000000000E+00  0.00000000000E+00  0.63542189292E+02  0.11006015611E+04  0.10987657560E+04 0.  0.
        2    1    3    3  502    0  0.16256684992E+03  0.22274174956E+03  0.50772778320E+03  0.57777968943E+03  0.25500000920E-02 0. -1.
       -2    1    3    3    0  502 -0.16256684992E+03 -0.22274174956E+03 -0.44418559390E+03  0.52282187170E+03  0.25500000920E-02 0.  1.
</event>
<event>
 5   0  0.2298958E-03  0.1110569E+04  0.7818609E-02  0.9194951E-01
       -1   -1    0    0    0  501  0.00000000000E+00  0.00000000000E+00  0.92794765778E+03  0.92794765779E+03  0.50400001928E-02 0. -1.
        1   -1    0    0  501    0  0.00000000000E+00  0.00000000000E+00 -0.33228268996E+03  0.33228268999E+03  0.50400001928E-02 0.  1.
    10030    2    1    2    0    0  0.00000000000E+00  0.00000000000E+00  0.59566496783E+03  0.12602303478E+04  0.11105691224E+04 0.  0.
        1    1    3    3  502    0  0.54358758315E+02  0.46412161073E+03 -0.42552643266E+02  0.46922752650E+03  0.50400001928E-02 0.  1.
       -1    1    3    3    0  502 -0.54358758315E+02 -0.46412161073E+03  0.63821761109E+03  0.79100282129E+03  0.50400001928E-02 0. -1.
</event>
<event>
 5   0  0.3744875E-03  0.1056991E+04  0.7818609E-02  0.9248156E-01
        2   -1    0    0  501    0  0.00000000000E+00  0.00000000000E+00  0.26974392145E+04  0.26974392145E+04  0.25500000920E-02 0.  1.
       -2   -1    0    0    0  501  0.00000000000E+00  0.00000000000E+00 -0.10354548183E+03  0.10354548186E+03  0.25500000920E-02 0. -1.
    10030    2    1    2    0    0  0.00000000000E+00  0.00000000000E+00  0.25938937327E+04  0.28009846964E+04  0.10569912833E+04 0.  0.
        2    1    3    3  502    0 -0.17172486456E+03 -0.26110133118E+03  0.16754050898E+03  0.35458871444E+03  0.25500000920E-02 0. -1.
       -2    1    3    3    0  502  0.17172486456E+03  0.26110133118E+03  0.24263532237E+04  0.24463959820E+04  0.25500000920E-02 0.  1.
</event>
<event>
 5   0  0.3713158E-03  0.1063691E+04  0.7818609E-02  0.9241322E-01
        2   -1    0    0  501    0  0.00000000000E+00  0.00000000000E+00  0.50621379717E+03  0.50621379718E+03  0.25500000920E-02 0.  1.
       -2   -1    0    0    0  501  0.00000000000E+00  0.00000000000E+00 -0.55877459541E+03  0.55877459541E+03  0.25500000920E-02 0. -1.
    10030    2    1    2    0    0  0.00000000000E+00  0.00000000000E+00 -0.52560798236E+02  0.10649883926E+04  0.10636905748E+04 0.  0.
        4    1    3    3  502    0 -0.34057687464E+03 -0.40688563909E+03  0.99475295874E+01  0.53070622483E+03  0.12699999809E+01 0. -1.
       -4    1    3    3    0  502  0.34057687464E+03  0.40688563909E+03 -0.62508327823E+02  0.53428216775E+03  0.12699999809E+01 0.  1.
</event>
<event>
 5   0  0.2374100E-03  0.1097123E+04  0.7818609E-02  0.9208001E-01
        1   -1    0    0  501    0  0.00000000000E+00  0.00000000000E+00  0.90192409092E+03  0.90192409094E+03  0.50400001928E-02 0.  1.
       -1   -1    0    0    0  501  0.00000000000E+00  0.00000000000E+00 -0.33364170070E+03  0.33364170074E+03  0.50400001928E-02 0. -1.
    10030    2    1    2    0    0  0.00000000000E+00  0.00000000000E+00  0.56828239023E+03  0.12355657917E+04  0.10971225777E+04 0.  0.
        2    1    3    3  502    0  0.36432303698E+03 -0.14740792279E+03 -0.14685052654E+03  0.41955386797E+03  0.25500000920E-02 0. -1.
       -2    1    3    3    0  502 -0.36432303698E+03  0.14740792279E+03  0.71513291677E+03  0.81601192370E+03  0.25500000920E-02 0.  1.
</event>
<event>
 5   0  0.2300702E-03  0.1116874E+04  0.7818609E-02  0.9188899E-01
        1   -1    0    0  501    0  0.00000000000E+00  0.00000000000E+00  0.66615663225E+03  0.66615663227E+03  0.50400001928E-02 0.  1.
       -1   -1    0    0    0  501  0.00000000000E+00  0.00000000000E+00 -0.46813629097E+03  0.46813629099E+03  0.50400001928E-02 0. -1.
    10030    2    1    2    0    0  0.00000000000E+00  0.00000000000E+00  0.19802034129E+03  0.11342929233E+04  0.11168743798E+04 0.  0.
        5    1    3    3  502    0 -0.30894181073E+03 -0.23817294538E+03  0.50481486519E+03  0.63799022911E+03  0.46999998093E+01 0.  1.
       -5    1    3    3    0  502  0.30894181073E+03  0.23817294538E+03 -0.30679452391E+03  0.49630269415E+03  0.46999998093E+01 0. -1.
</event>
<event>
 5   0  0.2374100E-03  0.1087216E+04  0.7818609E-02  0.9217743E-01
        1   -1    0    0  501    0  0.00000000000E+00  0.00000000000E+00  0.13916272333E+04  0.13916272333E+04  0.50400001928E-02 0.  1.
       -1   -1    0    0    0  501  0.00000000000E+00  0.00000000000E+00 -0.21234809537E+03  0.21234809543E+03  0.50400001928E-02 0. -1.
    10030    2    1    2    0    0  0.00000000000E+00  0.00000000000E+00  0.11792791379E+04  0.16039753288E+04  0.10872155122E+04 0.  0.
        2    1    3    3  502    0 -0.37174663497E+03  0.37553250600E+03  0.77793141187E+03  0.94042410925E+03  0.25500000920E-02 0.  1.
       -2    1    3    3    0  502  0.37174663497E+03 -0.37553250600E+03  0.40134772607E+03  0.66355121951E+03  0.25500000920E-02 0. -1.
</event>
<event>
 5   0  0.1508625E-03  0.1088056E+04  0.7818609E-02  0.9216913E-01
        3   -1    0    0  501    0  0.00000000000E+00  0.00000000000E+00  0.30034326472E+03  0.30034328170E+03  0.10100000352E+00 0. -1.
       -3   -1    0    0    0  501  0.00000000000E+00  0.00000000000E+00 -0.98542644782E+03  0.98542645299E+03  0.10100000352E+00 0.  1.
    10030    2    1    2    0    0  0.00000000000E+00  0.00000000000E+00 -0.68508318310E+03  0.12857697347E+04  0.10880555330E+04 0.  0.
        4    1    3    3  502    0  0.47776933682E+03 -0.18948864362E+03 -0.55325507190E+03  0.75515711792E+03  0.12699999809E+01 0.  1.
       -4    1    3    3    0  502 -0.47776933682E+03  0.18948864362E+03 -0.13182811120E+03  0.53061261677E+03  0.12699999809E+01 0. -1.
</event>
<event>
 5   0  0.3744875E-03  0.1096688E+04  0.7818609E-02  0.9208426E-01
       -2   -1    0    0    0  501  0.00000000000E+00  0.00000000000E+00  0.21308179775E+03  0.21308179776E+03  0.25500000920E-02 0. -1.
        2   -1    0    0  501    0  0.00000000000E+00  0.00000000000E+00 -0.14111074548E+04  0.14111074548E+04  0.25500000920E-02 0.  1.
    10030    2    1    2    0    0  0.00000000000E+00  0.00000000000E+00 -0.11980256570E+04  0.16241892525E+04  0.10966883118E+04 0.  0.
        2    1    3    3  502    0  0.34605631063E+02 -0.54676390682E+03 -0.63320403988E+03  0.83731456194E+03  0.25500000920E-02 0.  1.
       -2    1    3    3    0  502 -0.34605631063E+02  0.54676390682E+03 -0.56482161715E+03  0.78687469060E+03  0.25500000920E-02 0. -1.
</event>
<event>
 5   0  0.3962999E-03  0.1097874E+04  0.7818609E-02  0.9207266E-01
       -2   -1    0    0    0  501  0.00000000000E+00  0.00000000000E+00  0.30753555428E+03  0.30753555429E+03  0.25500000920E-02 0. -1.
        2   -1    0    0  501    0  0.00000000000E+00  0.00000000000E+00 -0.97982761246E+03  0.97982761247E+03  0.25500000920E-02 0.  1.
    10030    2    1    2    0    0  0.00000000000E+00  0.00000000000E+00 -0.67229205818E+03  0.12873631668E+04  0.10978739962E+04 0.  0.
        3    1    3    3  502    0  0.22430619832E+03 -0.10611551785E+03  0.23801693324E+03  0.34383985290E+03  0.10100000352E+00 0. -1.
       -3    1    3    3    0  502 -0.22430619832E+03  0.10611551785E+03 -0.91030899142E+03  0.94352331386E+03  0.10100000352E+00 0.  1.
</event>
<event>
 5   0  0.3744875E-03  0.1098814E+04  0.7818609E-02  0.9206349E-01
        2   -1    0    0  501    0  0.00000000000E+00  0.00000000000E+00  0.33299563410E+03  0.33299563411E+03  0.25500000920E-02 0.  1.
       -2   -1    0    0    0  501  0.00000000000E+00  0.00000000000E+00 -0.90646191956E+03  0.90646191956E+03  0.25500000920E-02 0. -1.
    10030    2    1    2    0    0  0.00000000000E+00  0.00000000000E+00 -0.57346628546E+03  0.12394575537E+04  0.10988136543E+04 0.  0.
        2    1    3    3  502    0 -0.90113031203E+02 -0.23876930415E+03  0.26207693896E+03  0.36580795636E+03  0.25500000920E-02 0.  1.
       -2    1    3    3    0  502  0.90113031203E+02  0.23876930415E+03 -0.83554322442E+03  0.87364959731E+03  0.25500000920E-02 0. -1.
</event>
<event>
 5   0  0.2255788E-03  0.1102235E+04  0.7818609E-02  0.9203016E-01
        1   -1    0    0  501    0  0.00000000000E+00  0.00000000000E+00  0.52270897186E+03  0.52270897188E+03  0.50400001928E-02 0. -1.
       -1   -1    0    0    0  501  0.00000000000E+00  0.00000000000E+00 -0.58106971815E+03  0.58106971817E+03  0.50400001928E-02 0.  1.
    10030    2    1    2    0    0  0.00000000000E+00  0.00000000000E+00 -0.58360746289E+02  0.11037786901E+04  0.11022347390E+04 0.  0.
        3    1    3    3  502    0  0.19553894833E+03  0.68689661028E+02 -0.54055857976E+03  0.57892774869E+03  0.10100000352E+00 0.  1.
       -3    1    3    3    0  502 -0.19553894833E+03 -0.68689661028E+02  0.48219783348E+03  0.52485094137E+03  0.10100000352E+00 0. -1.
</event>
<event>
 5   0  0.2300702E-03  0.1046025E+04  0.7818609E-02  0.9259457E-01
       -1   -1    0    0    0  501  0.00000000000E+00  0.00000000000E+00  0.16725537123E+03  0.16725537131E+03  0.50400001928E-02 0.  1.
        1   -1    0    0  501    0  0.00000000000E+00  0.00000000000E+00 -0.16354765727E+04  0.16354765727E+04  0.50400001928E-02 0. -1.
    10030    2    1    2    0    0  0.00000000000E+00  0.00000000000E+00 -0.14682212015E+04  0.18027319440E+04  0.10460253178E+04 0.  0.
        5    1    3    3  502    0 -0.44906526566E+03  0.26679339695E+03 -0.68910936567E+03  0.86471506136E+03  0.46999998093E+01 0.  1.
       -5    1    3    3    0  502  0.44906526566E+03 -0.26679339695E+03 -0.77911183580E+03  0.93801688267E+03  0.46999998093E+01 0. -1.
</event>
<event>
 5   0  0.3748901E-03  0.1105431E+04  0.7818609E-02  0.9199915E-01
        2   -1    0    0  501    0  0.00000000000E+00  0.00000000000E+00  0.22783739539E+04  0.22783739539E+04  0.25500000920E-02 0.  1.
       -2   -1    0    0    0  501  0.00000000000E+00  0.00000000000E+00 -0.13408441460E+03  0.13408441462E+03  0.25500000920E-02 0. -1.
    10030    2    1    2    0    0  0.00000000000E+00  0.00000000000E+00  0.21442895393E+04  0.24124583685E+04  0.11054310252E+04 0.  0.
        5    1    3    3  502    0 -0.18754369801E+03  0.49646487115E+03  0.14089822390E+04  0.15056238065E+04  0.46999998093E+01 0. -1.
       -5    1    3    3    0  502  0.18754369801E+03 -0.49646487115E+03  0.73530730030E+03  0.90683456199E+03  0.46999998093E+01 0.  1.
</event>
<event>
 5   0  0.2300702E-03  0.1093859E+04  0.7818609E-02  0.9211198E-01
       -1   -1    0    0    0  501  0.00000000000E+00  0.00000000000E+00  0.11730056870E+04  0.11730056870E+04  0.50400001928E-02 0.  1.
        1   -1    0    0  501    0  0.00000000000E+00  0.00000000000E+00 -0.25501334980E+03  0.25501334985E+03  0.50400001928E-02 0. -1.
    10030    2    1    2    0    0  0.00000000000E+00  0.00000000000E+00  0.91799233719E+03  0.14280190369E+04  0.10938594235E+04 0.  0.
        5    1    3    3  502    0  0.22443838670E+03  0.87250159786E+02 -0.18205612819E+03  0.30191340416E+03  0.46999998093E+01 0. -1.
       -5    1    3    3    0  502 -0.22443838670E+03 -0.87250159786E+02  0.11000484654E+04  0.11261056327E+04  0.46999998093E+01 0.  1.
</event>
<event>
 5   0  0.2374100E-03  0.1106785E+04  0.7818609E-02  0.9198604E-01
        1   -1    0    0  501    0  0.00000000000E+00  0.00000000000E+00  0.63789927463E+03  0.63789927465E+03  0.50400001928E-02 0. -1.
       -1   -1    0    0    0  501  0.00000000000E+00  0.00000000000E+00 -0.48008072265E+03  0.48008072268E+03  0.50400001928E-02 0.  1.
    10030    2    1    2    0    0  0.00000000000E+00  0.00000000000E+00  0.15781855198E+03  0.11179799973E+04  0.11067847935E+04 0.  0.
        2    1    3    3  502    0  0.32027204456E+02 -0.45037821100E+03 -0.24429103763E+03  0.51336574276E+03  0.25500000920E-02 0.  1.
       -2    1    3    3    0  502 -0.32027204456E+02  0.45037821100E+03  0.40210958960E+03  0.60461425457E+03  0.25500000920E-02 0. -1.
</event>
<event>
 5   0  0.3748901E-03  0.1101902E+04  0.7818609E-02  0.9203340E-01
       -2   -1    0    0    0  501  0.00000000000E+00  0.00000000000E+00  0.46455801943E+03  0.46455801944E+03  0.25500000920E-02 0.  1.
        2   -1    0    0  501    0  0.00000000000E+00  0.00000000000E+00 -0.65340987010E+03  0.65340987011E+03  0.25500000920E-02 0. -1.
    10030    2    1    2    0    0  0.00000000000E+00  0.00000000000E+00 -0.18885185067E+03  0.11179678895E+04  0.11019016202E+04 0.  0.
        5    1    3    3  502    0  0.42718638881E+03 -0.10089525166E+03 -0.43223193291E+03  0.61604756019E+03  0.46999998093E+01 0. -1.
       -5    1    3    3    0  502 -0.42718638881E+03  0.10089525166E+03  0.24338008224E+03  0.50192032936E+03  0.46999998093E+01 0.  1.
</event>
<event>
 5   0  0.2298958E-03  0.1101061E+04  0.7818609E-02  0.9204158E-01
       -1   -1    0    0    0  501  0.00000000000E+00  0.00000000000E+00  0.16549915685E+03  0.16549915693E+03  0.50400001928E-02 0. -1.
        1   -1    0    0  501    0  0.00000000000E+00  0.00000000000E+00 -0.18313311651E+04  0.18313311651E+04  0.50400001928E-02 0.  1.
    10030    2    1    2    0    0  0.00000000000E+00  0.00000000000E+00 -0.16658320082E+04  0.19968303220E+04  0.11010608772E+04 0.  0.
        1    1    3    3  502    0 -0.32876786598E+02 -0.19941729364E+03  0.95784487714E+02  0.22365779265E+03  0.50400001928E-02 0. -1.
       -1    1    3    3    0  502  0.32876786598E+02  0.19941729364E+03 -0.17616164959E+04  0.17731725293E+04  0.50400001928E-02 0.  1.
</event>
<event>
 5   0  0.3962999E-03  0.1100633E+04  0.7818609E-02  0.9204575E-01
        2   -1    0    0  501    0  0.00000000000E+00  0.00000000000E+00  0.84393751467E+03  0.84393751468E+03  0.25500000920E-02 0. -1.
       -2   -1    0    0    0  501  0.00000000000E+00  0.00000000000E+00 -0.35885147984E+03  0.35885147985E+03  0.25500000920E-02 0.  1.
    10030    2    1    2    0    0  0.00000000000E+00  0.00000000000E+00  0.48508603483E+03  0.12027889945E+04  0.11006329561E+04 0.  0.
        3    1    3    3  502    0  0.36982786654E+03 -0.38687380436E+03  0.38250973715E+03  0.65784321885E+03  0.10100000352E+00 0.  1.
       -3    1    3    3    0  502 -0.36982786654E+03  0.38687380436E+03  0.10257629769E+03  0.54494577567E+03  0.10100000352E+00 0. -1.
</event>
<event>
 5   0  0.3713158E-03  0.1124499E+04  0.7818609E-02  0.9181637E-01
       -2   -1    0    0    0  501  0.00000000000E+00  0.00000000000E+00  0.24968783657E+03  0.24968783659E+03  0.25500000920E-02 0. -1.
        2   -1    0    0  501    0  0.00000000000E+00  0.00000000000E+00 -0.12660789308E+04  0.12660789308E+04  0.25500000920E-02 0.  1.
    10030    2    1    2    0    0  0.00000000000E+00  0.00000000000E+00 -0.10163910942E+04  0.15157667673E+04  0.11244990159E+04 0.  0.
        4    1    3    3  502    0 -0.26678574566E+02 -0.34610498350E+03 -0.11043828095E+04  0.11576542699E+04  0.12699999809E+01 0.  1.
       -4    1    3    3    0  502  0.26678574566E+02  0.34610498350E+03  0.87991715281E+02  0.35811249742E+03  0.12699999809E+01 0. -1.
</event>
<event>
 5   0  0.3962999E-03  0.1093306E+04  0.7818609E-02  0.9211741E-01
        2   -1    0    0  501    0  0.00000000000E+00  0.00000000000E+00  0.11950404669E+04  0.11950404669E+04  0.25500000920E-02 0.  1.
       -2   -1    0    0    0  501  0.00000000000E+00  0.00000000000E+00 -0.25005795576E+03  0.25005795577E+03  0.25500000920E-02 0. -1.
    10030    2    1    2    0    0  0.00000000000E+00  0.00000000000E+00  0.94498251114E+03  0.14450984227E+04  0.10933057691E+04 0.  0.
        3    1    3    3  502    0  0.44908542508E+03 -0.31168155431E+03  0.47579718433E+03  0.72471103285E+03  0.10100000352E+00 0.  1.
       -3    1    3    3    0  502 -0.44908542508E+03  0.31168155431E+03  0.46918532681E+03  0.72038738982E+03  0.10100000352E+00 0. -1.
</event>
<event>
 5   0  0.1508625E-03  0.1091290E+04  0.7818609E-02  0.9213723E-01
        4   -1    0    0  501    0  0.00000000000E+00  0.00000000000E+00  0.66364426321E+03  0.66364547839E+03  0.12699999809E+01 0.  1.
       -4   -1    0    0    0  501  0.00000000000E+00  0.00000000000E+00 -0.44862438779E+03  0.44862618539E+03  0.12699999809E+01 0. -1.
    10030    2    1    2    0    0  0.00000000000E+00  0.00000000000E+00  0.21501987543E+03  0.11122716638E+04  0.10912903863E+04 0.  0.
        4    1    3    3  502    0  0.92162238300E+02 -0.50372918083E+03 -0.84500193308E+02  0.51901720719E+03  0.12699999809E+01 0.  1.
       -4    1    3    3    0  502 -0.92162238300E+02  0.50372918083E+03  0.29952006873E+03  0.59325445659E+03  0.12699999809E+01 0. -1.
</event>
<event>
 5   0  0.3713158E-03  0.1101729E+04  0.7818609E-02  0.9203509E-01
       -2   -1    0    0    0  501  0.00000000000E+00  0.00000000000E+00  0.62603750785E+03  0.62603750786E+03  0.25500000920E-02 0. -1.
        2   -1    0    0  501    0  0.00000000000E+00  0.00000000000E+00 -0.48471775105E+03  0.48471775106E+03  0.25500000920E-02 0.  1.
    10030    2    1    2    0    0  0.00000000000E+00  0.00000000000E+00  0.14131975680E+03  0.11107552589E+04  0.11017286288E+04 0.  0.
        4    1    3    3  502    0  0.39298476405E+03 -0.18527159339E+03  0.41208965364E+03  0.59881723725E+03  0.12699999809E+01 0. -1.
       -4    1    3    3    0  502 -0.39298476405E+03  0.18527159339E+03 -0.27076989684E+03  0.51193802166E+03  0.12699999809E+01 0.  1.
</event>
<event>
 5   0  0.2300702E-03  0.1118210E+04  0.7818609E-02  0.9187623E-01
        1   -1    0    0  501    0  0.00000000000E+00  0.00000000000E+00  0.75146734782E+03  0.75146734784E+03  0.50400001928E-02 0.  1.
       -1   -1    0    0    0  501  0.00000000000E+00  0.00000000000E+00 -0.41598382863E+03  0.41598382866E+03  0.50400001928E-02 0. -1.
    10030    2    1    2    0    0  0.00000000000E+00  0.00000000000E+00  0.33548351919E+03  0.11674511765E+04  0.11182097558E+04 0.  0.
        5    1    3    3  502    0 -0.19361666824E+03 -0.10518429193E+03  0.70420256396E+03  0.73788514728E+03  0.46999998093E+01 0.  1.
       -5    1    3    3    0  502  0.19361666824E+03  0.10518429193E+03 -0.36871904477E+03  0.42956602922E+03  0.46999998093E+01 0. -1.
</event>
<event>
 5   0  0.3748901E-03  0.1103646E+04  0.7818609E-02  0.9201646E-01
        2   -1    0    0  501    0  0.00000000000E+00  0.00000000000E+00  0.54248590627E+03  0.54248590628E+03  0.25500000920E-02 0.  1.
       -2   -1    0    0    0  501  0.00000000000E+00  0.00000000000E+00 -0.56132038684E+03  0.56132038685E+03  0.25500000920E-02 0. -1.
    10030    2    1    2    0    0  0.00000000000E+00  0.00000000000E+00 -0.18834480573E+02  0.11038062931E+04  0.11036455931E+04 0.  0.
        5    1    3    3  502    0 -0.48944612718E+03 -0.25463799345E+03 -0.19614684404E-01  0.55174279289E+03  0.46999998093E+01 0.  1.
       -5    1    3    3    0  502  0.48944612718E+03  0.25463799345E+03 -0.18814865889E+02  0.55206350024E+03  0.46999998093E+01 0. -1.
</event>
<event>
 5   0  0.1508625E-03  0.1088252E+04  0.7818609E-02  0.9216718E-01
        3   -1    0    0  501    0  0.00000000000E+00  0.00000000000E+00  0.15878346715E+04  0.15878346747E+04  0.10100000352E+00 0.  1.
       -3   -1    0    0    0  501  0.00000000000E+00  0.00000000000E+00 -0.18646342887E+03  0.18646345622E+03  0.10100000352E+00 0. -1.
    10030    2    1    2    0    0  0.00000000000E+00  0.00000000000E+00  0.14013712426E+04  0.17742981309E+04  0.10882520378E+04 0.  0.
        3    1    3    3  502    0  0.36518004604E+03 -0.39105181317E+03  0.86204795096E+03  0.10145958144E+04  0.10100000352E+00 0.  1.
       -3    1    3    3    0  502 -0.36518004604E+03  0.39105181317E+03  0.53932329164E+03  0.75970231651E+03  0.10100000352E+00 0. -1.
</event>
<event>
 5   0  0.1508625E-03  0.1103709E+04  0.7818609E-02  0.9201584E-01
        3   -1    0    0  501    0  0.00000000000E+00  0.00000000000E+00  0.17852777307E+04  0.17852777335E+04  0.10100000352E+00 0. -1.
       -3   -1    0    0    0  501  0.00000000000E+00  0.00000000000E+00 -0.17058599221E+03  0.17058602211E+03  0.10100000352E+00 0.  1.
    10030    2    1    2    0    0  0.00000000000E+00  0.00000000000E+00  0.16146917385E+04  0.19558637557E+04  0.11037090289E+04 0.  0.
        5    1    3    3  502    0 -0.30521942689E+03  0.67871261734E+02  0.16131193464E+04  0.16431498782E+04  0.46999998093E+01 0. -1.
       -5    1    3    3    0  502  0.30521942689E+03 -0.67871261734E+02  0.15723921096E+01  0.31271387743E+03  0.46999998093E+01 0.  1.
</event>
<event>
 5   0  0.1508625E-03  0.1077466E+04  0.7818609E-02  0.9227438E-01
        3   -1    0    0  501    0  0.00000000000E+00  0.00000000000E+00  0.23317639224E+03  0.23317641411E+03  0.10100000352E+00 0.  1.
       -3   -1    0    0    0  501  0.00000000000E+00  0.00000000000E+00 -0.12446936953E+04  0.12446936994E+04  0.10100000352E+00 0. -1.
    10030    2    1    2    0    0  0.00000000000E+00  0.00000000000E+00 -0.10115173031E+04  0.14778701135E+04  0.10774659243E+04 0.  0.
        2    1    3    3  502    0 -0.11519661011E+03  0.50525208794E+03 -0.30378480207E+03  0.60069554462E+03  0.25500000920E-02 0. -1.
       -2    1    3    3    0  502  0.11519661011E+03 -0.50525208794E+03 -0.70773250098E+03  0.87717456888E+03  0.25500000920E-02 0.  1.
</event>
<event>
 5   0  0.1508625E-03  0.1101925E+04  0.7818609E-02  0.9203318E-01
       -4   -1    0    0    0  501  0.00000000000E+00  0.00000000000E+00  0.42147170994E+03  0.42147362335E+03  0.12699999809E+01 0. -1.
        4   -1    0    0  501    0  0.00000000000E+00  0.00000000000E+00 -0.72023340228E+03  0.72023452199E+03  0.12699999809E+01 0.  1.
    10030    2    1    2    0    0  0.00000000000E+00  0.00000000000E+00 -0.29876169234E+03  0.11417081453E+04  0.11019251065E+04 0.  0.
        5    1    3    3  502    0 -0.54996247282E+02 -0.54067013194E+03 -0.55621426341E+02  0.54631914835E+03  0.46999998093E+01 0. -1.
       -5    1    3    3    0  502  0.54996247282E+02  0.54067013194E+03 -0.24314026600E+03  0.59538899699E+03  0.46999998093E+01 0.  1.
</event>
<event>
 5   0  0.2255788E-03  0.1105001E+04  0.7818609E-02  0.9200331E-01
        1   -1    0    0  501    0  0.00000000000E+00  0.00000000000E+00  0.50835097427E+03  0.50835097429E+03  0.50400001928E-02 0.  1.
       -1   -1    0    0    0  501  0.00000000000E+00  0.00000000000E+00 -0.60048461024E+03  0.60048461026E+03  0.50400001928E-02 0. -1.
    10030    2    1    2    0    0  0.00000000000E+00  0.00000000000E+00 -0.92133635970E+02  0.11088355846E+04  0.11050012428E+04 0.  0.
        3    1    3    3  502    0  0.45693631280E+03 -0.30672549576E+03 -0.95078934116E+02  0.55849023054E+03  0.10100000352E+00 0.  1.
       -3    1    3    3    0  502 -0.45693631280E+03  0.30672549576E+03  0.29452981462E+01  0.55034535401E+03  0.10100000352E+00 0. -1.
</event>
<event>
 5   0  0.2300702E-03  0.1104194E+04  0.7818609E-02  0.9201113E-01
        1   -1    0    0  501    0  0.00000000000E+00  0.00000000000E+00  0.73192625585E+03  0.73192625587E+03  0.50400001928E-02 0. -1.
       -1   -1    0    0    0  501  0.00000000000E+00  0.00000000000E+00 -0.41645077031E+03  0.41645077034E+03  0.50400001928E-02 0.  1.
    10030    2    1    2    0    0  0.00000000000E+00  0.00000000000E+00  0.31547548554E+03  0.11483770262E+04  0.11041942820E+04 0.  0.
        5    1    3    3  502    0 -0.46782443562E+02 -0.20080182372E+03 -0.37488649014E+03  0.42786906866E+03  0.46999998093E+01 0.  1.
       -5    1    3    3    0  502  0.46782443562E+02  0.20080182372E+03  0.69036197568E+03  0.72050795755E+03  0.46999998093E+01 0. -1.
</event>
<event>
 5   0  0.3748901E-03  0.9472119E+03  0.7818609E-02  0.9368415E-01
       -2   -1    0    0    0  501  0.00000000000E+00  0.00000000000E+00  0.22345446470E+03  0.22345446471E+03  0.25500000920E-02 0. -1.
        2   -1    0    0  501    0  0.00000000000E+00  0.00000000000E+00 -0.10037954760E+04  0.10037954760E+04  0.25500000920E-02 0.  1.
    10030    2    1    2    0    0  0.00000000000E+00  0.00000000000E+00 -0.78034101127E+03  0.12272499407E+04  0.94721186808E+03 0.  0.
        5    1    3    3  502    0  0.12329211821E+02 -0.46976323090E+03 -0.31405771848E+03  0.56522901827E+03  0.46999998093E+01 0.  1.
       -5    1    3    3    0  502 -0.12329211821E+02  0.46976323090E+03 -0.46628329279E+03  0.66202092241E+03  0.46999998093E+01 0. -1.
</event>
<event>
 5   0  0.2298958E-03  0.1107275E+04  0.7818609E-02  0.9198130E-01
       -1   -1    0    0    0  501  0.00000000000E+00  0.00000000000E+00  0.32525060315E+03  0.32525060319E+03  0.50400001928E-02 0. -1.
        1   -1    0    0  501    0  0.00000000000E+00  0.00000000000E+00 -0.94239485256E+03  0.94239485257E+03  0.50400001928E-02 0.  1.
    10030    2    1    2    0    0  0.00000000000E+00  0.00000000000E+00 -0.61714424941E+03  0.12676454558E+04  0.11072750232E+04 0.  0.
        1    1    3    3  502    0 -0.53323529939E+03 -0.11039044914E+02 -0.47858181226E+03  0.71659074519E+03  0.50400001928E-02 0.  1.
       -1    1    3    3    0  502  0.53323529939E+03  0.11039044914E+02 -0.13856243714E+03  0.55105471057E+03  0.50400001928E-02 0. -1.
</event>
<event>
 5   0  0.2300702E-03  0.1071354E+04  0.7818609E-02  0.9233571E-01
        1   -1    0    0  501    0  0.00000000000E+00  0.00000000000E+00  0.15511390135E+04  0.15511390135E+04  0.50400001928E-02 0.  1.
       -1   -1    0    0    0  501  0.00000000000E+00  0.00000000000E+00 -0.18499287515E+03  0.18499287522E+03  0.50400001928E-02 0. -1.
    10030    2    1    2    0    0  0.00000000000E+00  0.00000000000E+00  0.13661461383E+04  0.17361318887E+04  0.10713536595E+04 0.  0.
        5    1    3    3  502    0 -0.20796980766E+03 -0.49276441853E+03  0.63556819769E+03  0.83068480002E+03  0.46999998093E+01 0.  1.
       -5    1    3    3    0  502  0.20796980766E+03  0.49276441853E+03  0.73057794062E+03  0.90544708867E+03  0.46999998093E+01 0. -1.
</event>
<event>
 5   0  0.2257667E-03  0.1104566E+04  0.7818609E-02  0.9200753E-01
        1   -1    0    0  501    0  0.00000000000E+00  0.00000000000E+00  0.49258776986E+03  0.49258776988E+03  0.50400001928E-02 0. -1.
       -1   -1    0    0    0  501  0.00000000000E+00  0.00000000000E+00 -0.61921223375E+03  0.61921223377E+03  0.50400001928E-02 0.  1.
    10030    2    1    2    0    0  0.00000000000E+00  0.00000000000E+00 -0.12662446389E+03  0.11118000037E+04  0.11045657487E+04 0.  0.
        4    1    3    3  502    0 -0.41829595541E+03  0.18765208079E+03 -0.37327380861E+03  0.59120196112E+03  0.12699999809E+01 0.  1.
       -4    1    3    3    0  502  0.41829595541E+03 -0.18765208079E+03  0.24664934471E+03  0.52059804253E+03  0.12699999809E+01 0. -1.
</event>
<event>
 5   0  0.2374100E-03  0.1102738E+04  0.7818609E-02  0.9202527E-01
        1   -1    0    0  501    0  0.00000000000E+00  0.00000000000E+00  0.79007027130E+03  0.79007027132E+03  0.50400001928E-02 0.  1.
       -1   -1    0    0    0  501  0.00000000000E+00  0.00000000000E+00 -0.38478595595E+03  0.38478595599E+03  0.50400001928E-02 0. -1.
    10030    2    1    2    0    0  0.00000000000E+00  0.00000000000E+00  0.40528431535E+03  0.11748562273E+04  0.11027383092E+04 0.  0.
        2    1    3    3  502    0 -0.70328197717E+02 -0.42814892111E+03  0.56511334762E+03  0.71246799907E+03  0.25500000920E-02 0.  1.
       -2    1    3    3    0  502  0.70328197717E+02  0.42814892111E+03 -0.15982903227E+03  0.46238822823E+03  0.25500000920E-02 0. -1.
</event>
<event>
 5   0  0.3744875E-03  0.1090098E+04  0.7818609E-02  0.9214897E-01
        2   -1    0    0  501    0  0.00000000000E+00  0.00000000000E+00  0.12934530982E+04  0.12934530982E+04  0.25500000920E-02 0.  1.
       -2   -1    0    0    0  501  0.00000000000E+00  0.00000000000E+00 -0.22967868344E+03  0.22967868345E+03  0.25500000920E-02 0. -1.
    10030    2    1    2    0    0  0.00000000000E+00  0.00000000000E+00  0.10637744148E+04  0.15231317817E+04  0.10900983528E+04 0.  0.
        2    1    3    3  502    0  0.30175620524E+01  0.54450078404E+03  0.49799449282E+03  0.73789479222E+03  0.25500000920E-02 0.  1.
       -2    1    3    3    0  502 -0.30175620524E+01 -0.54450078404E+03  0.56577992199E+03  0.78523698947E+03  0.25500000920E-02 0. -1.
</event>
<event>
 5   0  0.3962999E-03  0.1125959E+04  0.7818609E-02  0.9180253E-01
       -2   -1    0    0    0  501  0.00000000000E+00  0.00000000000E+00  0.71596681513E+03  0.71596681513E+03  0.25500000920E-02 0.  1.
        2   -1    0    0  501    0  0.00000000000E+00  0.00000000000E+00 -0.44268271670E+03  0.44268271670E+03  0.25500000920E-02 0. -1.
    10030    2    1    2    0    0  0.00000000000E+00  0.00000000000E+00  0.27328409843E+03  0.11586495318E+04  0.11259593861E+04 0.  0.
        3    1    3    3  502    0 -0.15015204614E+03  0.39221728602E+03  0.52244864171E+03  0.67032278033E+03  0.10100000352E+00 0.  1.
       -3    1    3    3    0  502  0.15015204614E+03 -0.39221728602E+03 -0.24916454327E+03  0.48832675151E+03  0.10100000352E+00 0. -1.
</event>
<event>
 5   0  0.3713158E-03  0.1118832E+04  0.7818609E-02  0.9187029E-01
        2   -1    0    0  501    0  0.00000000000E+00  0.00000000000E+00  0.54409816269E+03  0.54409816270E+03  0.25500000920E-02 0. -1.
       -2   -1    0    0    0  501  0.00000000000E+00  0.00000000000E+00 -0.57516509209E+03  0.57516509209E+03  0.25500000920E-02 0.  1.
    10030    2    1    2    0    0  0.00000000000E+00  0.00000000000E+00 -0.31066929397E+02  0.11192632548E+04  0.11188320157E+04 0.  0.
        4    1    3    3  502    0 -0.22871168475E+03 -0.34763267909E+03 -0.38955876014E+03  0.57001329355E+03  0.12699999809E+01 0.  1.
       -4    1    3    3    0  502  0.22871168475E+03  0.34763267909E+03  0.35849183075E+03  0.54924996125E+03  0.12699999809E+01 0. -1.
</event>
<event>
 5   0  0.2255788E-03  0.1098329E+04  0.7818609E-02  0.9206822E-01
       -1   -1    0    0    0  501  0.00000000000E+00  0.00000000000E+00  0.72026247621E+03  0.72026247623E+03  0.50400001928E-02 0. -1.
        1   -1    0    0  501    0  0.00000000000E+00  0.00000000000E+00 -0.41871073854E+03  0.41871073857E+03  0.50400001928E-02 0.  1.
    10030    2    1    2    0    0  0.00000000000E+00  0.00000000000E+00  0.30155173767E+03  0.11389732148E+04  0.10983289733E+04 0.  0.
        3    1    3    3  502    0  0.69428268682E+02 -0.24871653568E+03 -0.35182576389E+03  0.43641903940E+03  0.10100000352E+00 0.  1.
       -3    1    3    3    0  502 -0.69428268682E+02  0.24871653568E+03  0.65337750157E+03  0.70255417540E+03  0.10100000352E+00 0. -1.
</event>
<event>
 5   0  0.3713158E-03  0.1092711E+04  0.7818609E-02  0.9212325E-01
       -2   -1    0    0    0  501  0.00000000000E+00  0.00000000000E+00  0.56059006203E+03  0.56059006204E+03  0.25500000920E-02 0. -1.
        2   -1    0    0  501    0  0.00000000000E+00  0.00000000000E+00 -0.53248259028E+03  0.53248259028E+03  0.25500000920E-02 0.  1.
    10030    2    1    2    0    0  0.00000000000E+00  0.00000000000E+00  0.28107471754E+02  0.10930726523E+04  0.10927112122E+04 0.  0.
        4    1    3    3  502    0 -0.15250525490E+03 -0.30297552346E+03  0.44250699624E+03  0.55755365231E+03  0.12699999809E+01 0. -1.
       -4    1    3    3    0  502  0.15250525490E+03  0.30297552346E+03 -0.41439952448E+03  0.53551900001E+03  0.12699999809E+01 0.  1.
</event>
<event>
 5   0  0.3748901E-03  0.1093011E+04  0.7818609E-02  0.9212031E-01
        2   -1    0    0  501    0  0.00000000000E+00  0.00000000000E+00  0.13973108504E+04  0.13973108504E+04  0.25500000920E-02 0. -1.
       -2   -1    0    0    0  501  0.00000000000E+00  0.00000000000E+00 -0.21374501812E+03  0.21374501814E+03  0.25500000920E-02 0.  1.
    10030    2    1    2    0    0  0.00000000000E+00  0.00000000000E+00  0.11835658323E+04  0.16110558685E+04  0.10930109479E+04 0.  0.
        5    1    3    3  502    0  0.25391582092E+03  0.33887441441E+03  0.11009656895E+04  0.11796002086E+04  0.46999998093E+01 0. -1.
       -5    1    3    3    0  502 -0.25391582092E+03 -0.33887441441E+03  0.82600142798E+02  0.43145565988E+03  0.46999998093E+01 0.  1.
</event>
<event>
 5   0  0.2257667E-03  0.1096125E+04  0.7818609E-02  0.9208977E-01
       -1   -1    0    0    0  501  0.00000000000E+00  0.00000000000E+00  0.45744275100E+03  0.45744275103E+03  0.50400001928E-02 0. -1.
        1   -1    0    0  501    0  0.00000000000E+00  0.00000000000E+00 -0.65663449389E+03  0.65663449391E+03  0.50400001928E-02 0.  1.
    10030    2    1    2    0    0  0.00000000000E+00  0.00000000000E+00 -0.19919174289E+03  0.11140772449E+04  0.10961253383E+04 0.  0.
        4    1    3    3  502    0  0.33356721221E+03 -0.14661264643E+03  0.31650957051E+03  0.48264093722E+03  0.12699999809E+01 0.  1.
       -4    1    3    3    0  502 -0.33356721221E+03  0.14661264643E+03 -0.51570131340E+03  0.63143630772E+03  0.12699999809E+01 0. -1.
</event>
<event>
 5   0  0.2374100E-03  0.1098475E+04  0.7818609E-02  0.9206679E-01
       -1   -1    0    0    0  501  0.00000000000E+00  0.00000000000E+00  0.22880447464E+03  0.22880447470E+03  0.50400001928E-02 0. -1.
        1   -1    0    0  501    0  0.00000000000E+00  0.00000000000E+00 -0.13184270216E+04  0.13184270216E+04  0.50400001928E-02 0.  1.
    10030    2    1    2    0    0  0.00000000000E+00  0.00000000000E+00 -0.10896225470E+04  0.15472314963E+04  0.10984753108E+04 0.  0.
        2    1    3    3  502    0  0.12135979728E+03 -0.25373659716E+03 -0.12092888047E+04  0.12415675070E+04  0.25500000920E-02 0.  1.
       -2    1    3    3    0  502 -0.12135979728E+03  0.25373659716E+03  0.11966625774E+03  0.30566398935E+03  0.25500000920E-02 0. -1.
</event>
<event>
 5   0  0.2374100E-03  0.1097236E+04  0.7818609E-02  0.9207890E-01
       -1   -1    0    0    0  501  0.00000000000E+00  0.00000000000E+00  0.25481330561E+03  0.25481330566E+03  0.50400001928E-02 0. -1.
        1   -1    0    0  501    0  0.00000000000E+00  0.00000000000E+00 -0.11811847077E+04  0.11811847077E+04  0.50400001928E-02 0.  1.
    10030    2    1    2    0    0  0.00000000000E+00  0.00000000000E+00 -0.92637140210E+03  0.14359980134E+04  0.10972357631E+04 0.  0.
        2    1    3    3  502    0 -0.17634419076E+03 -0.29341006632E+03  0.97888811787E+02  0.35604628928E+03  0.25500000920E-02 0. -1.
       -2    1    3    3    0  502  0.17634419076E+03  0.29341006632E+03 -0.10242602139E+04  0.10799517241E+04  0.25500000920E-02 0.  1.
</event>
<event>
 5   0  0.2255788E-03  0.1131353E+04  0.7818609E-02  0.9175161E-01
       -1   -1    0    0    0  501  0.00000000000E+00  0.00000000000E+00  0.59869192094E+03  0.59869192096E+03  0.50400001928E-02 0. -1.
        1   -1    0    0  501    0  0.00000000000E+00  0.00000000000E+00 -0.53448146647E+03  0.53448146650E+03  0.50400001928E-02 0.  1.
    10030    2    1    2    0    0  0.00000000000E+00  0.00000000000E+00  0.64210454470E+02  0.11331733875E+04  0.11313527052E+04 0.  0.
        3    1    3    3  502    0  0.30174705980E+03 -0.24944738916E+03 -0.37685865309E+03  0.54341304978E+03  0.10100000352E+00 0.  1.
       -3    1    3    3    0  502 -0.30174705980E+03  0.24944738916E+03  0.44106910756E+03  0.58976033768E+03  0.10100000352E+00 0. -1.
</event>
<event>
 5   0  0.2374100E-03  0.1099643E+04  0.7818609E-02  0.9205540E-01
        1   -1    0    0  501    0  0.00000000000E+00  0.00000000000E+00  0.26649734067E+04  0.26649734067E+04  0.50400001928E-02 0. -1.
       -1   -1    0    0    0  501  0.00000000000E+00  0.00000000000E+00 -0.11343593452E+03  0.11343593463E+03  0.50400001928E-02 0.  1.
    10030    2    1    2    0    0  0.00000000000E+00  0.00000000000E+00  0.25515374722E+04  0.27784093414E+04  0.10996431221E+04 0.  0.
        2    1    3    3  502    0  0.23756056466E+02 -0.54311401746E+03  0.10679290262E+04  0.11983361762E+04  0.25500000920E-02 0.  1.
       -2    1    3    3    0  502 -0.23756056466E+02  0.54311401746E+03  0.14836084460E+04  0.15800731652E+04  0.25500000920E-02 0. -1.
</event>
<event>
 5   0  0.3744875E-03  0.1092353E+04  0.7818609E-02  0.9212677E-01
       -2   -1    0    0    0  501  0.00000000000E+00  0.00000000000E+00  0.10162841959E+03  0.10162841962E+03  0.25500000920E-02 0. -1.
        2   -1    0    0  501    0  0.00000000000E+00  0.00000000000E+00 -0.29352906767E+04  0.29352906767E+04  0.25500000920E-02 0.  1.
    10030    2    1    2    0    0  0.00000000000E+00  0.00000000000E+00 -0.28336622572E+04  0.30369190964E+04  0.10923533358E+04 0.  0.
        2    1    3    3  502    0 -0.43261691844E+03 -0.28444079677E+03 -0.93333078355E+03  0.10673192196E+04  0.25500000920E-02 0. -1.
       -2    1    3    3    0  502  0.43261691844E+03  0.28444079677E+03 -0.19003314736E+04  0.19695998768E+04  0.25500000920E-02 0.  1.
</event>
<event>
 5   0  0.3744875E-03  0.1067507E+04  0.7818609E-02  0.9237454E-01
        2   -1    0    0  501    0  0.00000000000E+00  0.00000000000E+00  0.22269911384E+04  0.22269911384E+04  0.25500000920E-02 0.  1.
       -2   -1    0    0    0  501  0.00000000000E+00  0.00000000000E+00 -0.12792721452E+03  0.12792721455E+03  0.25500000920E-02 0. -1.
    10030    2    1    2    0    0  0.00000000000E+00  0.00000000000E+00  0.20990639239E+04  0.23549183530E+04  0.10675069520E+04 0.  0.
        2    1    3    3  502    0 -0.24998138575E+03  0.33968544879E+03  0.17711863345E+04  0.18207080845E+04  0.25500000920E-02 0.  1.
       -2    1    3    3    0  502  0.24998138575E+03 -0.33968544879E+03  0.32787758942E+03  0.53421026852E+03  0.25500000920E-02 0. -1.
</event>
<event>
 5   0  0.3962999E-03  0.1107626E+04  0.7818609E-02  0.9197790E-01
        2   -1    0    0  501    0  0.00000000000E+00  0.00000000000E+00  0.10680233637E+04  0.10680233637E+04  0.25500000920E-02 0.  1.
       -2   -1    0    0    0  501  0.00000000000E+00  0.00000000000E+00 -0.28717453610E+03  0.28717453611E+03  0.25500000920E-02 0. -1.
    10030    2    1    2    0    0  0.00000000000E+00  0.00000000000E+00  0.78084882756E+03  0.13551978998E+04  0.11076264966E+04 0.  0.
        3    1    3    3  502    0  0.21181355907E+03 -0.23664996015E+03 -0.16468071106E+03  0.35775401360E+03  0.10100000352E+00 0. -1.
       -3    1    3    3    0  502 -0.21181355907E+03  0.23664996015E+03  0.94552953862E+03  0.99744388617E+03  0.10100000352E+00 0.  1.
</event>
<event>
 5   0  0.1508625E-03  0.1097295E+04  0.7818609E-02  0.9207832E-01
        3   -1    0    0  501    0  0.00000000000E+00  0.00000000000E+00  0.33685877974E+03  0.33685879488E+03  0.10100000352E+00 0.  1.
       -3   -1    0    0    0  501  0.00000000000E+00  0.00000000000E+00 -0.89359165167E+03  0.89359165738E+03  0.10100000352E+00 0. -1.
    10030    2    1    2    0    0  0.00000000000E+00  0.00000000000E+00 -0.55673287193E+03  0.12304504523E+04  0.10972952314E+04 0.  0.
        5    1    3    3  502    0 -0.22365719066E+03  0.17443529844E+03  0.24824004312E+03  0.37695546326E+03  0.46999998093E+01 0.  1.
       -5    1    3    3    0  502  0.22365719066E+03 -0.17443529844E+03 -0.80497291505E+03  0.85349498900E+03  0.46999998093E+01 0. -1.
</event>
<event>
 5   0  0.2298958E-03  0.1070304E+04  0.7818609E-02  0.9234629E-01
       -1   -1    0    0    0  501  0.00000000000E+00  0.00000000000E+00  0.25330253999E+03  0.25330254004E+03  0.50400001928E-02 0.  1.
        1   -1    0    0  501    0  0.00000000000E+00  0.00000000000E+00 -0.11306156656E+04  0.11306156656E+04  0.50400001928E-02 0. -1.
    10030    2    1    2    0    0  0.00000000000E+00  0.00000000000E+00 -0.87731312559E+03  0.13839182056E+04  0.10703042930E+04 0.  0.
        1    1    3    3  502    0  0.46040785454E+03  0.22429615500E+03 -0.23791159319E+03  0.56469999457E+03  0.50400001928E-02 0.  1.
       -1    1    3    3    0  502 -0.46040785454E+03 -0.22429615500E+03 -0.63940153240E+03  0.81921821106E+03  0.50400001928E-02 0. -1.
</event>
<event>
 5   0  0.2374100E-03  0.1095884E+04  0.7818609E-02  0.9209212E-01
        1   -1    0    0  501    0  0.00000000000E+00  0.00000000000E+00  0.45358135906E+03  0.45358135909E+03  0.50400001928E-02 0.  1.
       -1   -1    0    0    0  501  0.00000000000E+00  0.00000000000E+00 -0.66193344303E+03  0.66193344305E+03  0.50400001928E-02 0. -1.
    10030    2    1    2    0    0  0.00000000000E+00  0.00000000000E+00 -0.20835208397E+03  0.11155148021E+04  0.10958844295E+04 0.  0.
        2    1    3    3  502    0 -0.11066534150E+03 -0.10500193495E+03  0.43152899343E+03  0.45770022540E+03  0.25500000920E-02 0.  1.
       -2    1    3    3    0  502  0.11066534150E+03  0.10500193495E+03 -0.63988107739E+03  0.65781457674E+03  0.25500000920E-02 0. -1.
</event>
<event>
 5   0  0.2374100E-03  0.1101208E+04  0.7818609E-02  0.9204016E-01
        1   -1    0    0  501    0  0.00000000000E+00  0.00000000000E+00  0.34885205524E+03  0.34885205527E+03  0.50400001928E-02 0.  1.
       -1   -1    0    0    0  501  0.00000000000E+00  0.00000000000E+00 -0.86903483343E+03  0.86903483344E+03  0.50400001928E-02 0. -1.
    10030    2    1    2    0    0  0.00000000000E+00  0.00000000000E+00 -0.52018277819E+03  0.12178868887E+04  0.11012076784E+04 0.  0.
        2    1    3    3  502    0 -0.52100879459E+03 -0.11354370839E+03 -0.41182210001E+03  0.67375053233E+03  0.25500000920E-02 0. -1.
       -2    1    3    3    0  502  0.52100879459E+03  0.11354370839E+03 -0.10836067818E+03  0.54413635638E+03  0.25500000920E-02 0.  1.
</event>
<event>
 5   0  0.3962999E-03  0.1088634E+04  0.7818609E-02  0.9216342E-01
       -2   -1    0    0    0  501  0.00000000000E+00  0.00000000000E+00  0.15949394752E+03  0.15949394754E+03  0.25500000920E-02 0. -1.
        2   -1    0    0  501    0  0.00000000000E+00  0.00000000000E+00 -0.18576306240E+04  0.18576306240E+04  0.25500000920E-02 0.  1.
    10030    2    1    2    0    0  0.00000000000E+00  0.00000000000E+00 -0.16981366765E+04  0.20171245715E+04  0.10886337148E+04 0.  0.
        3    1    3    3  502    0  0.12745202586E+03  0.42002318290E+03 -0.14455088785E+04  0.15106817736E+04  0.10100000352E+00 0.  1.
       -3    1    3    3    0  502 -0.12745202586E+03 -0.42002318290E+03 -0.25262779798E+03  0.50644279794E+03  0.10100000352E+00 0. -1.
</event>
<event>
 5   0  0.3744875E-03  0.1100918E+04  0.7818609E-02  0.9204298E-01
        2   -1    0    0  501    0  0.00000000000E+00  0.00000000000E+00  0.56168342991E+03  0.56168342992E+03  0.25500000920E-02 0.  1.
       -2   -1    0    0    0  501  0.00000000000E+00  0.00000000000E+00 -0.53945854364E+03  0.53945854364E+03  0.25500000920E-02 0. -1.
    10030    2    1    2    0    0  0.00000000000E+00  0.00000000000E+00  0.22224886272E+02  0.11011419736E+04  0.11009176628E+04 0.  0.
        2    1    3    3  502    0  0.45591455412E+03 -0.44696973358E+02 -0.29415299363E+03  0.54440966537E+03  0.25500000920E-02 0. -1.
       -2    1    3    3    0  502 -0.45591455412E+03  0.44696973358E+02  0.31637787990E+03  0.55673230819E+03  0.25500000920E-02 0.  1.
</event>
<event>
 5   0  0.3744875E-03  0.1115277E+04  0.7818609E-02  0.9190428E-01
       -2   -1    0    0    0  501  0.00000000000E+00  0.00000000000E+00  0.38338515252E+03  0.38338515253E+03  0.25500000920E-02 0. -1.
        2   -1    0    0  501    0  0.00000000000E+00  0.00000000000E+00 -0.81109285010E+03  0.81109285011E+03  0.25500000920E-02 0.  1.
    10030    2    1    2    0    0  0.00000000000E+00  0.00000000000E+00 -0.42770769758E+03  0.11944780026E+04  0.11152774651E+04 0.  0.
        2    1    3    3  502    0 -0.49721736051E+03 -0.16993945415E+03 -0.41381089317E+03  0.66883778077E+03  0.25500000920E-02 0.  1.
       -2    1    3    3    0  502  0.49721736051E+03  0.16993945415E+03 -0.13896804406E+02  0.52564022187E+03  0.25500000920E-02 0. -1.
</event>
<event>
 5   0  0.2257667E-03  0.1105424E+04  0.7818609E-02  0.9199921E-01
       -1   -1    0    0    0  501  0.00000000000E+00  0.00000000000E+00  0.33677769390E+03  0.33677769394E+03  0.50400001928E-02 0. -1.
        1   -1    0    0  501    0  0.00000000000E+00  0.00000000000E+00 -0.90709840927E+03  0.90709840929E+03  0.50400001928E-02 0.  1.
    10030    2    1    2    0    0  0.00000000000E+00  0.00000000000E+00 -0.57032071537E+03  0.12438761032E+04  0.11054239195E+04 0.  0.
        4    1    3    3  502    0 -0.30426381170E+02 -0.23490118087E+03 -0.84709143944E+03  0.87958504371E+03  0.12699999809E+01 0.  1.
       -4    1    3    3    0  502  0.30426381170E+02  0.23490118087E+03  0.27677072407E+03  0.36429105952E+03  0.12699999809E+01 0. -1.
</event>
<event>
 5   0  0.2300702E-03  0.1107576E+04  0.7818609E-02  0.9197839E-01
        1   -1    0    0  501    0  0.00000000000E+00  0.00000000000E+00  0.93524432105E+03  0.93524432106E+03  0.50400001928E-02 0.  1.
       -1   -1    0    0    0  501  0.00000000000E+00  0.00000000000E+00 -0.32791579180E+03  0.32791579184E+03  0.50400001928E-02 0. -1.
    10030    2    1    2    0    0  0.00000000000E+00  0.00000000000E+00  0.60732852925E+03  0.12631601129E+04  0.11075764210E+04 0.  0.
        5    1    3    3  502    0  0.53200145262E+02 -0.11120654374E+03 -0.31204512608E+03  0.33554642233E+03  0.46999998093E+01 0. -1.
       -5    1    3    3    0  502 -0.53200145262E+02  0.11120654374E+03  0.91937365533E+03  0.92761369057E+03  0.46999998093E+01 0.  1.
</event>
<event>
 5   0  0.3992414E-03  0.1098597E+04  0.7818609E-02  0.9206561E-01
        2   -1    0    0  501    0  0.00000000000E+00  0.00000000000E+00  0.69110487201E+03  0.69110487201E+03  0.25500000920E-02 0.  1.
       -2   -1    0    0    0  501  0.00000000000E+00  0.00000000000E+00 -0.43658885522E+03  0.43658885523E+03  0.25500000920E-02 0. -1.
    10030    2    1    2    0    0  0.00000000000E+00  0.00000000000E+00  0.25451601679E+03  0.11276937272E+04  0.10985967138E+04 0.  0.
        1    1    3    3  502    0  0.49438731418E+03  0.21659771191E+03  0.23191575403E+03  0.58746770313E+03  0.50400001928E-02 0. -1.
       -1    1    3    3    0  502 -0.49438731418E+03 -0.21659771191E+03  0.22600262762E+02  0.54022602411E+03  0.50400001928E-02 0.  1.
</event>
<event>
 5   0  0.3962999E-03  0.1105060E+04  0.7818609E-02  0.9200274E-01
       -2   -1    0    0    0  501  0.00000000000E+00  0.00000000000E+00  0.13786621785E+03  0.13786621787E+03  0.25500000920E-02 0.  1.
        2   -1    0    0  501    0  0.00000000000E+00  0.00000000000E+00 -0.22143896189E+04  0.22143896189E+04  0.25500000920E-02 0. -1.
    10030    2    1    2    0    0  0.00000000000E+00  0.00000000000E+00 -0.20765234011E+04  0.23522558368E+04  0.11050602185E+04 0.  0.
        3    1    3    3  502    0  0.18685750359E+03  0.50925463124E+03 -0.12618532393E+04  0.13735099613E+04  0.10100000352E+00 0.  1.
       -3    1    3    3    0  502 -0.18685750359E+03 -0.50925463124E+03 -0.81467016177E+03  0.97874587548E+03  0.10100000352E+00 0. -1.
</event>
<event>
 5   0  0.1508625E-03  0.9597714E+03  0.7818609E-02  0.9353802E-01
       -4   -1    0    0    0  501  0.00000000000E+00  0.00000000000E+00  0.23414470583E+03  0.23414815004E+03  0.12699999809E+01 0.  1.
        4   -1    0    0  501    0  0.00000000000E+00  0.00000000000E+00 -0.98352726353E+03  0.98352808349E+03  0.12699999809E+01 0. -1.
    10030    2    1    2    0    0  0.00000000000E+00  0.00000000000E+00 -0.74938255770E+03  0.12176762335E+04  0.95977142691E+03 0.  0.
        4    1    3    3  502    0 -0.37035926261E+03  0.16586377224E+03 -0.69967032210E+03  0.80883678630E+03  0.12699999809E+01 0.  1.
       -4    1    3    3    0  502  0.37035926261E+03 -0.16586377224E+03 -0.49712235607E+02  0.40883944723E+03  0.12699999809E+01 0. -1.
</event>
<event>
 5   0  0.3962999E-03  0.1091274E+04  0.7818609E-02  0.9213739E-01
        2   -1    0    0  501    0  0.00000000000E+00  0.00000000000E+00  0.12430919567E+03  0.12430919570E+03  0.25500000920E-02 0.  1.
       -2   -1    0    0    0  501  0.00000000000E+00  0.00000000000E+00 -0.23949933332E+04  0.23949933332E+04  0.25500000920E-02 0. -1.
    10030    2    1    2    0    0  0.00000000000E+00  0.00000000000E+00 -0.22706841375E+04  0.25193025289E+04  0.10912739251E+04 0.  0.
        3    1    3    3  502    0  0.34948530845E+03  0.41256525938E+03 -0.13045099626E+04  0.14121247561E+04  0.10100000352E+00 0.  1.
       -3    1    3    3    0  502 -0.34948530845E+03 -0.41256525938E+03 -0.96617417493E+03  0.11071777728E+04  0.10100000352E+00 0. -1.
</event>
<event>
 5   0  0.3744875E-03  0.1100088E+04  0.7818609E-02  0.9205106E-01
        2   -1    0    0  501    0  0.00000000000E+00  0.00000000000E+00  0.44552680471E+03  0.44552680472E+03  0.25500000920E-02 0. -1.
       -2   -1    0    0    0  501  0.00000000000E+00  0.00000000000E+00 -0.67908063377E+03  0.67908063378E+03  0.25500000920E-02 0.  1.
    10030    2    1    2    0    0  0.00000000000E+00  0.00000000000E+00 -0.23355382906E+03  0.11246074385E+04  0.11000884054E+04 0.  0.
        2    1    3    3  502    0  0.40692527854E+02 -0.87363831056E+02  0.43682808647E+03  0.44733331860E+03  0.25500000920E-02 0. -1.
       -2    1    3    3    0  502 -0.40692527854E+02  0.87363831056E+02 -0.67038191553E+03  0.67727411989E+03  0.25500000920E-02 0.  1.
</event>
<event>
 5   0  0.3962999E-03  0.1102255E+04  0.7818609E-02  0.9202996E-01
       -2   -1    0    0    0  501  0.00000000000E+00  0.00000000000E+00  0.74611358208E+03  0.74611358208E+03  0.25500000920E-02 0. -1.
        2   -1    0    0  501    0  0.00000000000E+00  0.00000000000E+00 -0.40709859028E+03  0.40709859028E+03  0.25500000920E-02 0.  1.
    10030    2    1    2    0    0  0.00000000000E+00  0.00000000000E+00  0.33901499180E+03  0.11532121724E+04  0.11022554830E+04 0.  0.
        3    1    3    3  502    0  0.32189281156E+03 -0.44165695985E+03  0.24397320425E+03  0.59849710685E+03  0.10100000352E+00 0. -1.
       -3    1    3    3    0  502 -0.32189281156E+03  0.44165695985E+03  0.95041787553E+02  0.55471506551E+03  0.10100000352E+00 0.  1.
</event>
<event>
 5   0  0.2255788E-03  0.1104191E+04  0.7818609E-02  0.9201117E-01
       -1   -1    0    0    0  501  0.00000000000E+00  0.00000000000E+00  0.31753894328E+03  0.31753894332E+03  0.50400001928E-02 0.  1.
        1   -1    0    0  501    0  0.00000000000E+00  0.00000000000E+00 -0.95991138968E+03  0.95991138970E+03  0.50400001928E-02 0. -1.
    10030    2    1    2    0    0  0.00000000000E+00  0.00000000000E+00 -0.64237244641E+03  0.12774503330E+04  0.11041906508E+04 0.  0.
        3    1    3    3  502    0 -0.14016202261E+02  0.62545144094E+02 -0.95559227085E+03  0.95773949866E+03  0.10100000352E+00 0. -1.
       -3    1    3    3    0  502  0.14016202261E+02 -0.62545144094E+02  0.31321982445E+03  0.31971083435E+03  0.10100000352E+00 0.  1.
</event>
<event>
 5   0  0.2300702E-03  0.1105025E+04  0.7818609E-02  0.9200308E-01
       -1   -1    0    0    0  501  0.00000000000E+00  0.00000000000E+00  0.33721972085E+03  0.33721972089E+03  0.50400001928E-02 0. -1.
        1   -1    0    0  501    0  0.00000000000E+00  0.00000000000E+00 -0.90525639986E+03  0.90525639988E+03  0.50400001928E-02 0.  1.
    10030    2    1    2    0    0  0.00000000000E+00  0.00000000000E+00 -0.56803667901E+03  0.12424761208E+04  0.11050254486E+04 0.  0.
        5    1    3    3  502    0 -0.11438331762E+03 -0.36382818286E+03  0.16544641217E+03  0.41575124208E+03  0.46999998093E+01 0. -1.
       -5    1    3    3    0  502  0.11438331762E+03  0.36382818286E+03 -0.73348309118E+03  0.82672487869E+03  0.46999998093E+01 0.  1.
</event>
<event>
 5   0  0.3992414E-03  0.1103092E+04  0.7818609E-02  0.9202184E-01
        2   -1    0    0  501    0  0.00000000000E+00  0.00000000000E+00  0.15538191207E+04  0.15538191207E+04  0.25500000920E-02 0.  1.
       -2   -1    0    0    0  501  0.00000000000E+00  0.00000000000E+00 -0.19577744048E+03  0.19577744049E+03  0.25500000920E-02 0. -1.
    10030    2    1    2    0    0  0.00000000000E+00  0.00000000000E+00  0.13580416803E+04  0.17495965612E+04  0.11030915292E+04 0.  0.
        1    1    3    3  502    0  0.24493290095E+03  0.34984373520E+03  0.12543419729E+03  0.44510280037E+03  0.50400001928E-02 0. -1.
       -1    1    3    3    0  502 -0.24493290095E+03 -0.34984373520E+03  0.12326074830E+04  0.13044937609E+04  0.50400001928E-02 0.  1.
</event>
<event>
 5   0  0.2374100E-03  0.1103736E+04  0.7818609E-02  0.9201558E-01
        1   -1    0    0  501    0  0.00000000000E+00  0.00000000000E+00  0.55654943010E+03  0.55654943013E+03  0.50400001928E-02 0.  1.
       -1   -1    0    0    0  501  0.00000000000E+00  0.00000000000E+00 -0.54722581361E+03  0.54722581363E+03  0.50400001928E-02 0. -1.
    10030    2    1    2    0    0  0.00000000000E+00  0.00000000000E+00  0.93236164987E+01  0.11037752438E+04  0.11037358646E+04 0.  0.
        2    1    3    3  502    0  0.39649996734E+03 -0.37488700775E+03  0.87161551761E+02  0.55258449923E+03  0.25500000920E-02 0.  1.
       -2    1    3    3    0  502 -0.39649996734E+03  0.37488700775E+03 -0.77837935263E+02  0.55119074452E+03  0.25500000920E-02 0. -1.
</event>
<event>
 5   0  0.3744875E-03  0.1107172E+04  0.7818609E-02  0.9198229E-01
        2   -1    0    0  501    0  0.00000000000E+00  0.00000000000E+00  0.76269326062E+03  0.76269326062E+03  0.25500000920E-02 0. -1.
       -2   -1    0    0    0  501  0.00000000000E+00  0.00000000000E+00 -0.40180976823E+03  0.40180976824E+03  0.25500000920E-02 0.  1.
    10030    2    1    2    0    0  0.00000000000E+00  0.00000000000E+00  0.36088349239E+03  0.11645030289E+04  0.11071722581E+04 0.  0.
        2    1    3    3  502    0  0.23644917761E+03  0.23823366525E+03  0.64345744170E+03  0.72574167039E+03  0.25500000920E-02 0. -1.
       -2    1    3    3    0  502 -0.23644917761E+03 -0.23823366525E+03 -0.28257394931E+03  0.43876135847E+03  0.25500000920E-02 0.  1.
</event>
<event>
 5   0  0.2298958E-03  0.1097656E+04  0.7818609E-02  0.9207480E-01
        1   -1    0    0  501    0  0.00000000000E+00  0.00000000000E+00  0.23950050622E+03  0.23950050627E+03  0.50400001928E-02 0. -1.
       -1   -1    0    0    0  501  0.00000000000E+00  0.00000000000E+00 -0.12576680553E+04  0.12576680553E+04  0.50400001928E-02 0.  1.
    10030    2    1    2    0    0  0.00000000000E+00  0.00000000000E+00 -0.10181675490E+04  0.14971685615E+04  0.10976559314E+04 0.  0.
        1    1    3    3  502    0 -0.25952272056E+03 -0.36687623483E+03 -0.79353639426E+02  0.45634111615E+03  0.50400001928E-02 0. -1.
       -1    1    3    3    0  502  0.25952272056E+03  0.36687623483E+03 -0.93881390961E+03  0.10408274454E+04  0.50400001928E-02 0.  1.
</event>
<event>
 5   0  0.3713158E-03  0.1105198E+04  0.7818609E-02  0.9200141E-01
       -2   -1    0    0    0  501  0.00000000000E+00  0.00000000000E+00  0.72244304211E+03  0.72244304212E+03  0.25500000920E-02 0. -1.
        2   -1    0    0  501    0  0.00000000000E+00  0.00000000000E+00 -0.42268448366E+03  0.42268448367E+03  0.25500000920E-02 0.  1.
    10030    2    1    2    0    0  0.00000000000E+00  0.00000000000E+00  0.29975855845E+03  0.11451275258E+04  0.11051976551E+04 0.  0.
        4    1    3    3  502    0  0.27398926104E+03  0.10159785205E+03 -0.33607702282E+03  0.44535560721E+03  0.12699999809E+01 0.  1.
       -4    1    3    3    0  502 -0.27398926104E+03 -0.10159785205E+03  0.63583558127E+03  0.69977191857E+03  0.12699999809E+01 0. -1.
</event>
<event>
 5   0  0.2257667E-03  0.1092275E+04  0.7818609E-02  0.9212754E-01
        1   -1    0    0  501    0  0.00000000000E+00  0.00000000000E+00  0.13585515650E+04  0.13585515650E+04  0.50400001928E-02 0.  1.
       -1   -1    0    0    0  501  0.00000000000E+00  0.00000000000E+00 -0.21954706455E+03  0.21954706460E+03  0.50400001928E-02 0. -1.
    10030    2    1    2    0    0  0.00000000000E+00  0.00000000000E+00  0.11390045004E+04  0.15780986296E+04  0.10922747057E+04 0.  0.
        4    1    3    3  502    0  0.25019480514E+03 -0.71283490922E+02 -0.12427231638E+03  0.28831232737E+03  0.12699999809E+01 0. -1.
       -4    1    3    3    0  502 -0.25019480514E+03  0.71283490922E+02  0.12632768168E+04  0.12897863022E+04  0.12699999809E+01 0.  1.
</event>
<event>
 5   0  0.3748901E-03  0.1086390E+04  0.7818609E-02  0.9218560E-01
        2   -1    0    0  501    0  0.00000000000E+00  0.00000000000E+00  0.82597852977E+03  0.82597852977E+03  0.25500000920E-02 0.  1.
       -2   -1    0    0    0  501  0.00000000000E+00  0.00000000000E+00 -0.35722568850E+03  0.35722568851E+03  0.25500000920E-02 0. -1.
    10030    2    1    2    0    0  0.00000000000E+00  0.00000000000E+00  0.46875284127E+03  0.11832042183E+04  0.10863898913E+04 0.  0.
        5    1    3    3  502    0 -0.34092454576E+03 -0.36781590579E+03  0.71696371608E+01  0.50158905505E+03  0.46999998093E+01 0. -1.
       -5    1    3    3    0  502  0.34092454576E+03  0.36781590579E+03  0.46158320411E+03  0.68161516324E+03  0.46999998093E+01 0.  1.
</event>
<event>
 5   0  0.2374100E-03  0.1102431E+04  0.7818609E-02  0.9202826E-01
        1   -1    0    0  501    0  0.00000000000E+00  0.00000000000E+00  0.51984642259E+03  0.51984642262E+03  0.50400001928E-02 0. -1.
       -1   -1    0    0    0  501  0.00000000000E+00  0.00000000000E+00 -0.58447744934E+03  0.58447744936E+03  0.50400001928E-02 0.  1.
    10030    2    1    2    0    0  0.00000000000E+00  0.00000000000E+00 -0.64631026751E+02  0.11043238720E+04  0.11024309704E+04 0.  0.
        2    1    3    3  502    0 -0.19126796967E+03  0.23821558855E+03 -0.49191525805E+03  0.57906020754E+03  0.25500000920E-02 0.  1.
       -2    1    3    3    0  502  0.19126796967E+03 -0.23821558855E+03  0.42728423130E+03  0.52526366444E+03  0.25500000920E-02 0. -1.
</event>
<event>
 5   0  0.2255788E-03  0.1098273E+04  0.7818609E-02  0.9206876E-01
       -1   -1    0    0    0  501  0.00000000000E+00  0.00000000000E+00  0.47368666476E+03  0.47368666478E+03  0.50400001928E-02 0. -1.
        1   -1    0    0  501    0  0.00000000000E+00  0.00000000000E+00 -0.63660464284E+03  0.63660464286E+03  0.50400001928E-02 0.  1.
    10030    2    1    2    0    0  0.00000000000E+00  0.00000000000E+00 -0.16291797809E+03  0.11102913076E+04  0.10982734269E+04 0.  0.
        3    1    3    3  502    0  0.12327899950E+03  0.85540036936E+01 -0.62236542401E+03  0.63451525900E+03  0.10100000352E+00 0.  1.
       -3    1    3    3    0  502 -0.12327899950E+03 -0.85540036936E+01  0.45944744593E+03  0.47577604865E+03  0.10100000352E+00 0. -1.
</event>
<event>
 5   0  0.3992414E-03  0.1090673E+04  0.7818609E-02  0.9214331E-01
       -2   -1    0    0    0  501  0.00000000000E+00  0.00000000000E+00  0.33880963539E+03  0.33880963540E+03  0.25500000920E-02 0.  1.
        2   -1    0    0  501    0  0.00000000000E+00  0.00000000000E+00 -0.87775480794E+03  0.87775480794E+03  0.25500000920E-02 0. -1.
    10030    2    1    2    0    0  0.00000000000E+00  0.00000000000E+00 -0.53894517255E+03  0.12165644433E+04  0.10906727950E+04 0.  0.
        1    1    3    3  502    0 -0.26348899707E+03 -0.54570749858E+02  0.25960541753E+03  0.37389756773E+03  0.50400001928E-02 0.  1.
       -1    1    3    3    0  502  0.26348899707E+03  0.54570749858E+02 -0.79855059008E+03  0.84266687561E+03  0.50400001928E-02 0. -1.
</event>
<event>
 5   0  0.2255788E-03  0.1098273E+04  0.7818609E-02  0.9206877E-01
        1   -1    0    0  501    0  0.00000000000E+00  0.00000000000E+00  0.11900401029E+04  0.11900401029E+04  0.50400001928E-02 0. -1.
       -1   -1    0    0    0  501  0.00000000000E+00  0.00000000000E+00 -0.25339568899E+03  0.25339568904E+03  0.50400001928E-02 0.  1.
    10030    2    1    2    0    0  0.00000000000E+00  0.00000000000E+00  0.93664441387E+03  0.14434357919E+04  0.10982732480E+04 0.  0.
        3    1    3    3  502    0  0.53132731396E+03 -0.11005360303E+03  0.35734152011E+03  0.64970261066E+03  0.10100000352E+00 0.  1.
       -3    1    3    3    0  502 -0.53132731396E+03  0.11005360303E+03  0.57930289375E+03  0.79373318125E+03  0.10100000352E+00 0. -1.
</event>
<event>
 5   0  0.3992414E-03  0.1090894E+04  0.7818609E-02  0.9214113E-01
        2   -1    0    0  501    0  0.00000000000E+00  0.00000000000E+00  0.13453828047E+04  0.13453828047E+04  0.25500000920E-02 0.  1.
       -2   -1    0    0    0  501  0.00000000000E+00  0.00000000000E+00 -0.22113593766E+03  0.22113593768E+03  0.25500000920E-02 0. -1.
    10030    2    1    2    0    0  0.00000000000E+00  0.00000000000E+00  0.11242468670E+04  0.15665187424E+04  0.10908941068E+04 0.  0.
        1    1    3    3  502    0 -0.31497611177E+03  0.41338358912E+03  0.79989469625E+03  0.95390118349E+03  0.50400001928E-02 0.  1.
       -1    1    3    3    0  502  0.31497611177E+03 -0.41338358912E+03  0.32435217077E+03  0.61261755888E+03  0.50400001928E-02 0. -1.
</event>
<event>
 5   0  0.2255788E-03  0.1079589E+04  0.7818609E-02  0.9225317E-01
       -1   -1    0    0    0  501  0.00000000000E+00  0.00000000000E+00  0.35949867933E+03  0.35949867937E+03  0.50400001928E-02 0. -1.
        1   -1    0    0  501    0  0.00000000000E+00  0.00000000000E+00 -0.81051229526E+03  0.81051229528E+03  0.50400001928E-02 0.  1.
    10030    2    1    2    0    0  0.00000000000E+00  0.00000000000E+00 -0.45101361593E+03  0.11700109746E+04  0.10795889954E+04 0.  0.
        3    1    3    3  502    0 -0.12233023625E+03 -0.49520718308E+02 -0.79275868039E+03  0.80366866542E+03  0.10100000352E+00 0.  1.
       -3    1    3    3    0  502  0.12233023625E+03  0.49520718308E+02  0.34174506446E+03  0.36634230922E+03  0.10100000352E+00 0. -1.
</event>
<event>
 5   0  0.2300702E-03  0.1103876E+04  0.7818609E-02  0.9201422E-01
        1   -1    0    0  501    0  0.00000000000E+00  0.00000000000E+00  0.19156767925E+04  0.19156767925E+04  0.50400001928E-02 0.  1.
       -1   -1    0    0    0  501  0.00000000000E+00  0.00000000000E+00 -0.15902246847E+03  0.15902246855E+03  0.50400001928E-02 0. -1.
    10030    2    1    2    0    0  0.00000000000E+00  0.00000000000E+00  0.17566543240E+04  0.20746992610E+04  0.11038761750E+04 0.  0.
        5    1    3    3  502    0  0.48342644358E+03 -0.20554129872E+03  0.56011823397E+03  0.76792114039E+03  0.46999998093E+01 0. -1.
       -5    1    3    3    0  502 -0.48342644358E+03  0.20554129872E+03  0.11965360900E+04  0.13067781207E+04  0.46999998093E+01 0.  1.
</event>
<event>
 5   0  0.3713158E-03  0.1106289E+04  0.7818609E-02  0.9199084E-01
        2   -1    0    0  501    0  0.00000000000E+00  0.00000000000E+00  0.15110944324E+04  0.15110944324E+04  0.25500000920E-02 0.  1.
       -2   -1    0    0    0  501  0.00000000000E+00  0.00000000000E+00 -0.20248163362E+03  0.20248163364E+03  0.25500000920E-02 0. -1.
    10030    2    1    2    0    0  0.00000000000E+00  0.00000000000E+00  0.13086127988E+04  0.17135760661E+04  0.11062890567E+04 0.  0.
        4    1    3    3  502    0 -0.23170993074E+03 -0.49365340443E+03  0.79781623467E+03  0.96638270519E+03  0.12699999809E+01 0. -1.
       -4    1    3    3    0  502  0.23170993074E+03  0.49365340443E+03  0.51079656416E+03  0.74719336089E+03  0.12699999809E+01 0.  1.
</event>
<event>
 5   0  0.3744875E-03  0.1112316E+04  0.7818609E-02  0.9193271E-01
       -2   -1    0    0    0  501  0.00000000000E+00  0.00000000000E+00  0.14497936555E+03  0.14497936557E+03  0.25500000920E-02 0. -1.
        2   -1    0    0  501    0  0.00000000000E+00  0.00000000000E+00 -0.21334859938E+04  0.21334859938E+04  0.25500000920E-02 0.  1.
    10030    2    1    2    0    0  0.00000000000E+00  0.00000000000E+00 -0.19885066282E+04  0.22784653593E+04  0.11123155053E+04 0.  0.
        2    1    3    3  502    0  0.46974193485E+02 -0.30701553383E+03 -0.19392875132E+04  0.19640013166E+04  0.25500000920E-02 0.  1.
       -2    1    3    3    0  502 -0.46974193485E+02  0.30701553383E+03 -0.49219115019E+02  0.31446404271E+03  0.25500000920E-02 0. -1.
</event>
<event>
 5   0  0.2257667E-03  0.1098766E+04  0.7818609E-02  0.9206396E-01
       -1   -1    0    0    0  501  0.00000000000E+00  0.00000000000E+00  0.40805863002E+03  0.40805863006E+03  0.50400001928E-02 0.  1.
        1   -1    0    0  501    0  0.00000000000E+00  0.00000000000E+00 -0.73965264296E+03  0.73965264297E+03  0.50400001928E-02 0. -1.
    10030    2    1    2    0    0  0.00000000000E+00  0.00000000000E+00 -0.33159401293E+03  0.11477112730E+04  0.10987659336E+04 0.  0.
        4    1    3    3  502    0  0.27688866136E+03  0.37341629481E+03  0.14001232730E+03  0.48550193070E+03  0.12699999809E+01 0. -1.
       -4    1    3    3    0  502 -0.27688866136E+03 -0.37341629481E+03 -0.47160634023E+03  0.66220934233E+03  0.12699999809E+01 0.  1.
</event>
<event>
 5   0  0.1508625E-03  0.1085902E+04  0.7818609E-02  0.9219042E-01
        3   -1    0    0  501    0  0.00000000000E+00  0.00000000000E+00  0.12701632688E+04  0.12701632729E+04  0.10100000352E+00 0. -1.
       -3   -1    0    0    0  501  0.00000000000E+00  0.00000000000E+00 -0.23209295867E+03  0.23209298065E+03  0.10100000352E+00 0.  1.
    10030    2    1    2    0    0  0.00000000000E+00  0.00000000000E+00  0.10380703102E+04  0.15022562535E+04  0.10859023356E+04 0.  0.
        3    1    3    3  502    0  0.45927749620E+03 -0.13924816419E+03  0.16777216511E+03  0.50840277274E+03  0.10100000352E+00 0.  1.
       -3    1    3    3    0  502 -0.45927749620E+03  0.13924816419E+03  0.87029814506E+03  0.99385348077E+03  0.10100000352E+00 0. -1.
</event>
<event>
 5   0  0.3748901E-03  0.1108427E+04  0.7818609E-02  0.9197017E-01
        2   -1    0    0  501    0  0.00000000000E+00  0.00000000000E+00  0.12816710016E+04  0.12816710016E+04  0.25500000920E-02 0. -1.
       -2   -1    0    0    0  501  0.00000000000E+00  0.00000000000E+00 -0.23965000593E+03  0.23965000595E+03  0.25500000920E-02 0.  1.
    10030    2    1    2    0    0  0.00000000000E+00  0.00000000000E+00  0.10420209956E+04  0.15213210075E+04  0.11084267466E+04 0.  0.
        5    1    3    3  502    0  0.36995964234E+03  0.13016853916E+03  0.10584234814E+04  0.11287587614E+04  0.46999998093E+01 0. -1.
       -5    1    3    3    0  502 -0.36995964234E+03 -0.13016853916E+03 -0.16402485711E+02  0.39256224613E+03  0.46999998093E+01 0.  1.
</event>
<event>
 5   0  0.2257667E-03  0.1097084E+04  0.7818609E-02  0.9208038E-01
        1   -1    0    0  501    0  0.00000000000E+00  0.00000000000E+00  0.74091828255E+03  0.74091828257E+03  0.50400001928E-02 0.  1.
       -1   -1    0    0    0  501  0.00000000000E+00  0.00000000000E+00 -0.40611575002E+03  0.40611575005E+03  0.50400001928E-02 0. -1.
    10030    2    1    2    0    0  0.00000000000E+00  0.00000000000E+00  0.33480253253E+03  0.11470340326E+04  0.10970844709E+04 0.  0.
        4    1    3    3  502    0  0.48177532039E+03 -0.19550930450E+03 -0.15388916378E+02  0.52016322355E+03  0.12699999809E+01 0. -1.
       -4    1    3    3    0  502 -0.48177532039E+03  0.19550930450E+03  0.35019144891E+03  0.62687080908E+03  0.12699999809E+01 0.  1.
</event>
<event>
 5   0  0.3713158E-03  0.1096475E+04  0.7818609E-02  0.9208635E-01
        2   -1    0    0  501    0  0.00000000000E+00  0.00000000000E+00  0.16603628671E+04  0.16603628671E+04  0.25500000920E-02 0. -1.
       -2   -1    0    0    0  501  0.00000000000E+00  0.00000000000E+00 -0.18102313852E+03  0.18102313854E+03  0.25500000920E-02 0.  1.
    10030    2    1    2    0    0  0.00000000000E+00  0.00000000000E+00  0.14793397286E+04  0.18413860057E+04  0.10964745274E+04 0.  0.
        4    1    3    3  502    0 -0.12322504057E+02 -0.93767455560E+02  0.16465579194E+04  0.16492721955E+04  0.12699999809E+01 0. -1.
       -4    1    3    3    0  502  0.12322504057E+02  0.93767455560E+02 -0.16721819082E+03  0.19211381020E+03  0.12699999809E+01 0.  1.
</event>
<event>
 5   0  0.2374100E-03  0.1072023E+04  0.7818609E-02  0.9232897E-01
        1   -1    0    0  501    0  0.00000000000E+00  0.00000000000E+00  0.73944905752E+03  0.73944905754E+03  0.50400001928E-02 0.  1.
       -1   -1    0    0    0  501  0.00000000000E+00  0.00000000000E+00 -0.38854387095E+03  0.38854387098E+03  0.50400001928E-02 0. -1.
    10030    2    1    2    0    0  0.00000000000E+00  0.00000000000E+00  0.35090518657E+03  0.11279929285E+04  0.10720231326E+04 0.  0.
        2    1    3    3  502    0  0.16867551824E+03 -0.34559352690E+03  0.56833990498E+03  0.68621903492E+03  0.25500000920E-02 0.  1.
       -2    1    3    3    0  502 -0.16867551824E+03  0.34559352690E+03 -0.21743471841E+03  0.44177389360E+03  0.25500000920E-02 0. -1.
</event>
<event>
 5   0  0.2374100E-03  0.1101037E+04  0.7818609E-02  0.9204182E-01
       -1   -1    0    0    0  501  0.00000000000E+00  0.00000000000E+00  0.10892215041E+04  0.10892215041E+04  0.50400001928E-02 0.  1.
        1   -1    0    0  501    0  0.00000000000E+00  0.00000000000E+00 -0.27824502129E+03  0.27824502133E+03  0.50400001928E-02 0. -1.
    10030    2    1    2    0    0  0.00000000000E+00  0.00000000000E+00  0.81097648284E+03  0.13674665255E+04  0.11010367126E+04 0.  0.
        2    1    3    3  502    0 -0.48943444414E+03 -0.54784588587E+02  0.71103329021E+03  0.86493685668E+03  0.25500000920E-02 0.  1.
       -2    1    3    3    0  502  0.48943444414E+03  0.54784588587E+02  0.99943192629E+02  0.50252966879E+03  0.25500000920E-02 0. -1.
</event>
<event>
 5   0  0.3744875E-03  0.1099586E+04  0.7818609E-02  0.9205595E-01
        2   -1    0    0  501    0  0.00000000000E+00  0.00000000000E+00  0.62263899950E+03  0.62263899950E+03  0.25500000920E-02 0.  1.
       -2   -1    0    0    0  501  0.00000000000E+00  0.00000000000E+00 -0.48546996155E+03  0.48546996155E+03  0.25500000920E-02 0. -1.
    10030    2    1    2    0    0  0.00000000000E+00  0.00000000000E+00  0.13716903795E+03  0.11081089611E+04  0.10995863425E+04 0.  0.
        2    1    3    3  502    0  0.28223704571E+03 -0.30800259762E+03 -0.29160592970E+03  0.50946773043E+03  0.25500000920E-02 0. -1.
       -2    1    3    3    0  502 -0.28223704571E+03  0.30800259762E+03  0.42877496765E+03  0.59864123062E+03  0.25500000920E-02 0.  1.
</event>
<event>
 5   0  0.2300702E-03  0.1100992E+04  0.7818609E-02  0.9204225E-01
       -1   -1    0    0    0  501  0.00000000000E+00  0.00000000000E+00  0.35175943418E+03  0.35175943421E+03  0.50400001928E-02 0. -1.
        1   -1    0    0  501    0  0.00000000000E+00  0.00000000000E+00 -0.86151469248E+03  0.86151469250E+03  0.50400001928E-02 0.  1.
    10030    2    1    2    0    0  0.00000000000E+00  0.00000000000E+00 -0.50975525830E+03  0.12132741267E+04  0.11009921358E+04 0.  0.
        5    1    3    3  502    0  0.27927520435E+03  0.22624647481E+03 -0.71434188302E+03  0.79968026295E+03  0.46999998093E+01 0.  1.
       -5    1    3    3    0  502 -0.27927520435E+03 -0.22624647481E+03  0.20458662471E+03  0.41359386376E+03  0.46999998093E+01 0. -1.
</event>
<event>
 5   0  0.2257667E-03  0.1109971E+04  0.7818609E-02  0.9195528E-01
        1   -1    0    0  501    0  0.00000000000E+00  0.00000000000E+00  0.15003072471E+04  0.15003072471E+04  0.50400001928E-02 0. -1.
       -1   -1    0    0    0  501  0.00000000000E+00  0.00000000000E+00 -0.20529722469E+03  0.20529722475E+03  0.50400001928E-02 0.  1.
    10030    2    1    2    0    0  0.00000000000E+00  0.00000000000E+00  0.12950100224E+04  0.17056044719E+04  0.11099710160E+04 0.  0.
        4    1    3    3  502    0 -0.30986549821E+03  0.22080662965E+03  0.26673901762E+02  0.38142535916E+03  0.12699999809E+01 0.  1.
       -4    1    3    3    0  502  0.30986549821E+03 -0.22080662965E+03  0.12683361207E+04  0.13241791127E+04  0.12699999809E+01 0. -1.
</event>
<event>
 5   0  0.2300702E-03  0.1103499E+04  0.7818609E-02  0.9201788E-01
       -1   -1    0    0    0  501  0.00000000000E+00  0.00000000000E+00  0.89785008927E+03  0.89785008929E+03  0.50400001928E-02 0.  1.
        1   -1    0    0  501    0  0.00000000000E+00  0.00000000000E+00 -0.33906275009E+03  0.33906275013E+03  0.50400001928E-02 0. -1.
    10030    2    1    2    0    0  0.00000000000E+00  0.00000000000E+00  0.55878733918E+03  0.12369128394E+04  0.11034990176E+04 0.  0.
        5    1    3    3  502    0  0.18893997050E+03  0.47326355119E+03  0.51645484106E+03  0.72555109688E+03  0.46999998093E+01 0.  1.
       -5    1    3    3    0  502 -0.18893997050E+03 -0.47326355119E+03  0.42332498122E+02  0.51136174254E+03  0.46999998093E+01 0. -1.
</event>
<event>
 5   0  0.3744875E-03  0.1101636E+04  0.7818609E-02  0.9203599E-01
       -2   -1    0    0    0  501  0.00000000000E+00  0.00000000000E+00  0.36058595165E+03  0.36058595166E+03  0.25500000920E-02 0.  1.
        2   -1    0    0  501    0  0.00000000000E+00  0.00000000000E+00 -0.84140931435E+03  0.84140931435E+03  0.25500000920E-02 0. -1.
    10030    2    1    2    0    0  0.00000000000E+00  0.00000000000E+00 -0.48082336269E+03  0.12019952660E+04  0.11016358352E+04 0.  0.
        2    1    3    3  502    0  0.10379247258E+03  0.47476430792E+03  0.42489315686E+02  0.48783128989E+03  0.25500000920E-02 0.  1.
       -2    1    3    3    0  502 -0.10379247258E+03 -0.47476430792E+03 -0.52331267838E+03  0.71416397613E+03  0.25500000920E-02 0. -1.
</event>
<event>
 5   0  0.3744875E-03  0.1105609E+04  0.7818609E-02  0.9199742E-01
        2   -1    0    0  501    0  0.00000000000E+00  0.00000000000E+00  0.10212538068E+04  0.10212538068E+04  0.25500000920E-02 0.  1.
       -2   -1    0    0    0  501  0.00000000000E+00  0.00000000000E+00 -0.29923278828E+03  0.29923278829E+03  0.25500000920E-02 0. -1.
    10030    2    1    2    0    0  0.00000000000E+00  0.00000000000E+00  0.72202101849E+03  0.13204865951E+04  0.11056086544E+04 0.  0.
        2    1    3    3  502    0 -0.33335991609E+03 -0.43382301943E+03  0.26650273411E+03  0.60856795277E+03  0.25500000920E-02 0.  1.
       -2    1    3    3    0  502  0.33335991609E+03  0.43382301943E+03  0.45551828439E+03  0.71191864230E+03  0.25500000920E-02 0. -1.
</event>
<event>
 5   0  0.2257667E-03  0.1105942E+04  0.7818609E-02  0.9199420E-01
       -1   -1    0    0    0  501  0.00000000000E+00  0.00000000000E+00  0.21667020566E+03  0.21667020572E+03  0.50400001928E-02 0.  1.
        1   -1    0    0  501    0  0.00000000000E+00  0.00000000000E+00 -0.14112550490E+04  0.14112550490E+04  0.50400001928E-02 0. -1.
    10030    2    1    2    0    0  0.00000000000E+00  0.00000000000E+00 -0.11945848434E+04  0.16279252548E+04  0.11059419908E+04 0.  0.
        4    1    3    3  502    0 -0.49237925721E+02 -0.34264666193E+03  0.37444018247E+02  0.34818784537E+03  0.12699999809E+01 0.  1.
       -4    1    3    3    0  502  0.49237925721E+02  0.34264666193E+03 -0.12320288616E+04  0.12797374094E+04  0.12699999809E+01 0. -1.
</event>
<event>
 5   0  0.3962999E-03  0.1102635E+04  0.7818609E-02  0.9202627E-01
        2   -1    0    0  501    0  0.00000000000E+00  0.00000000000E+00  0.13770400936E+04  0.13770400936E+04  0.25500000920E-02 0. -1.
       -2   -1    0    0    0  501  0.00000000000E+00  0.00000000000E+00 -0.22072786157E+03  0.22072786158E+03  0.25500000920E-02 0.  1.
    10030    2    1    2    0    0  0.00000000000E+00  0.00000000000E+00  0.11563122321E+04  0.15977679552E+04  0.11026352347E+04 0.  0.
        3    1    3    3  502    0 -0.41644564786E+03 -0.34686056078E+03  0.72458766787E+03  0.90485718479E+03  0.10100000352E+00 0. -1.
       -3    1    3    3    0  502  0.41644564786E+03  0.34686056078E+03  0.43172456421E+03  0.69291077043E+03  0.10100000352E+00 0.  1.
</event>
<event>
 5   0  0.3962999E-03  0.1085743E+04  0.7818609E-02  0.9219200E-01
       -2   -1    0    0    0  501  0.00000000000E+00  0.00000000000E+00  0.30404328829E+03  0.30404328830E+03  0.25500000920E-02 0.  1.
        2   -1    0    0  501    0  0.00000000000E+00  0.00000000000E+00 -0.96930040591E+03  0.96930040591E+03  0.25500000920E-02 0. -1.
    10030    2    1    2    0    0  0.00000000000E+00  0.00000000000E+00 -0.66525711762E+03  0.12733436942E+04  0.10857426634E+04 0.  0.
        3    1    3    3  502    0  0.42827407127E+03  0.19532557097E+03 -0.64979834102E+03  0.80237687715E+03  0.10100000352E+00 0. -1.
       -3    1    3    3    0  502 -0.42827407127E+03 -0.19532557097E+03 -0.15458776598E+02  0.47096681706E+03  0.10100000352E+00 0.  1.
</event>
<event>
 5   0  0.3713158E-03  0.1121515E+04  0.7818609E-02  0.9184472E-01
        2   -1    0    0  501    0  0.00000000000E+00  0.00000000000E+00  0.91067301806E+03  0.91067301806E+03  0.25500000920E-02 0.  1.
       -2   -1    0    0    0  501  0.00000000000E+00  0.00000000000E+00 -0.34529301125E+03  0.34529301126E+03  0.25500000920E-02 0. -1.
    10030    2    1    2    0    0  0.00000000000E+00  0.00000000000E+00  0.56538000681E+03  0.12559660293E+04  0.11215150979E+04 0.  0.
        4    1    3    3  502    0  0.65128518302E+02 -0.21109513458E+03 -0.29450586310E+03  0.36815512497E+03  0.12699999809E+01 0. -1.
       -4    1    3    3    0  502 -0.65128518302E+02  0.21109513458E+03  0.85988586990E+03  0.88781090436E+03  0.12699999809E+01 0.  1.
</event>
<event>
 5   0  0.2257667E-03  0.1100805E+04  0.7818609E-02  0.9204408E-01
        1   -1    0    0  501    0  0.00000000000E+00  0.00000000000E+00  0.23346766599E+03  0.23346766604E+03  0.50400001928E-02 0.  1.
       -1   -1    0    0    0  501  0.00000000000E+00  0.00000000000E+00 -0.12975793281E+04  0.12975793281E+04  0.50400001928E-02 0. -1.
    10030    2    1    2    0    0  0.00000000000E+00  0.00000000000E+00 -0.10641116621E+04  0.15310469942E+04  0.11008048278E+04 0.  0.
        4    1    3    3  502    0  0.32732265040E+03  0.14294927728E+03 -0.11144964107E+04  0.11703326347E+04  0.12699999809E+01 0. -1.
       -4    1    3    3    0  502 -0.32732265040E+03 -0.14294927728E+03  0.50384748621E+02  0.36071435948E+03  0.12699999809E+01 0.  1.
</event>
<event>
 5   0  0.2257667E-03  0.1115963E+04  0.7818609E-02  0.9189771E-01
        1   -1    0    0  501    0  0.00000000000E+00  0.00000000000E+00  0.53771965599E+03  0.53771965602E+03  0.50400001928E-02 0. -1.
       -1   -1    0    0    0  501  0.00000000000E+00  0.00000000000E+00 -0.57900685960E+03  0.57900685962E+03  0.50400001928E-02 0.  1.
    10030    2    1    2    0    0  0.00000000000E+00  0.00000000000E+00 -0.41287203605E+02  0.11167265156E+04  0.11159630270E+04 0.  0.
        4    1    3    3  502    0 -0.39841989081E+03 -0.34737831687E+03  0.15817295009E+03  0.55175211777E+03  0.12699999809E+01 0. -1.
       -4    1    3    3    0  502  0.39841989081E+03  0.34737831687E+03 -0.19946015369E+03  0.56497439786E+03  0.12699999809E+01 0.  1.
</event>
<event>
 5   0  0.3748901E-03  0.1102640E+04  0.7818609E-02  0.9202622E-01
       -2   -1    0    0    0  501  0.00000000000E+00  0.00000000000E+00  0.31229141382E+03  0.31229141383E+03  0.25500000920E-02 0.  1.
        2   -1    0    0  501    0  0.00000000000E+00  0.00000000000E+00 -0.97330247759E+03  0.97330247760E+03  0.25500000920E-02 0. -1.
    10030    2    1    2    0    0  0.00000000000E+00  0.00000000000E+00 -0.66101106378E+03  0.12855938914E+04  0.11026404796E+04 0.  0.
        5    1    3    3  502    0  0.49951654106E+03  0.91213158246E+02 -0.58082705891E+03  0.77150423031E+03  0.46999998093E+01 0. -1.
       -5    1    3    3    0  502 -0.49951654106E+03 -0.91213158246E+02 -0.80184004867E+02  0.51408966111E+03  0.46999998093E+01 0.  1.
</event>
<event>
 5   0  0.2257667E-03  0.1094569E+04  0.7818609E-02  0.9210501E-01
        1   -1    0    0  501    0  0.00000000000E+00  0.00000000000E+00  0.48411930124E+03  0.48411930126E+03  0.50400001928E-02 0. -1.
       -1   -1    0    0    0  501  0.00000000000E+00  0.00000000000E+00 -0.61869131656E+03  0.61869131658E+03  0.50400001928E-02 0.  1.
    10030    2    1    2    0    0  0.00000000000E+00  0.00000000000E+00 -0.13457201532E+03  0.11028106178E+04  0.10945691534E+04 0.  0.
        4    1    3    3  502    0 -0.21582315572E+03 -0.49889518763E+03 -0.32246269565E+01  0.54358812892E+03  0.12699999809E+01 0.  1.
       -4    1    3    3    0  502  0.21582315572E+03  0.49889518763E+03 -0.13134738836E+03  0.55922248892E+03  0.12699999809E+01 0. -1.
</event>
<event>
 5   0  0.3962999E-03  0.1095383E+04  0.7818609E-02  0.9209703E-01
        2   -1    0    0  501    0  0.00000000000E+00  0.00000000000E+00  0.54903799340E+03  0.54903799341E+03  0.25500000920E-02 0. -1.
       -2   -1    0    0    0  501  0.00000000000E+00  0.00000000000E+00 -0.54634849595E+03  0.54634849596E+03  0.25500000920E-02 0.  1.
    10030    2    1    2    0    0  0.00000000000E+00  0.00000000000E+00  0.26894974481E+01  0.10953864894E+04  0.10953831876E+04 0.  0.
        3    1    3    3  502    0 -0.13448045087E+03  0.49082665266E+03  0.20375651736E+03  0.54819022538E+03  0.10100000352E+00 0. -1.
       -3    1    3    3    0  502  0.13448045087E+03 -0.49082665266E+03 -0.20106701991E+03  0.54719626399E+03  0.10100000352E+00 0.  1.
</event>
<event>
 5   0  0.3962999E-03  0.1124224E+04  0.7818609E-02  0.9181898E-01
        2   -1    0    0  501    0  0.00000000000E+00  0.00000000000E+00  0.10208526808E+04  0.10208526808E+04  0.25500000920E-02 0.  1.
       -2   -1    0    0    0  501  0.00000000000E+00  0.00000000000E+00 -0.30951589294E+03  0.30951589295E+03  0.25500000920E-02 0. -1.
    10030    2    1    2    0    0  0.00000000000E+00  0.00000000000E+00  0.71133678787E+03  0.13303685738E+04  0.11242244066E+04 0.  0.
        3    1    3    3  502    0  0.49443478373E+03 -0.12935127762E+03  0.78718828571E+02  0.51710170427E+03  0.10100000352E+00 0. -1.
       -3    1    3    3    0  502 -0.49443478373E+03  0.12935127762E+03  0.63261795930E+03  0.81326686950E+03  0.10100000352E+00 0.  1.
</event>
<event>
 5   0  0.2257667E-03  0.1096495E+04  0.7818609E-02  0.9208615E-01
       -1   -1    0    0    0  501  0.00000000000E+00  0.00000000000E+00  0.89888549956E+03  0.89888549957E+03  0.50400001928E-02 0.  1.
        1   -1    0    0  501    0  0.00000000000E+00  0.00000000000E+00 -0.33438685638E+03  0.33438685642E+03  0.50400001928E-02 0. -1.
    10030    2    1    2    0    0  0.00000000000E+00  0.00000000000E+00  0.56449864317E+03  0.12332723560E+04  0.10964953196E+04 0.  0.
        4    1    3    3  502    0  0.38887833507E+03  0.33837471018E+03  0.49221780036E+03  0.71274383889E+03  0.12699999809E+01 0. -1.
       -4    1    3    3    0  502 -0.38887833507E+03 -0.33837471018E+03  0.72280842809E+02  0.52052851710E+03  0.12699999809E+01 0.  1.
</event>
<event>
 5   0  0.2255788E-03  0.1028965E+04  0.7818609E-02  0.9277335E-01
        1   -1    0    0  501    0  0.00000000000E+00  0.00000000000E+00  0.92553569043E+03  0.92553569044E+03  0.50400001928E-02 0.  1.
       -1   -1    0    0    0  501  0.00000000000E+00  0.00000000000E+00 -0.28598796677E+03  0.28598796681E+03  0.50400001928E-02 0. -1.
    10030    2    1    2    0    0  0.00000000000E+00  0.00000000000E+00  0.63954772366E+03  0.12115236573E+04  0.10289646647E+04 0.  0.
        3    1    3    3  502    0  0.13388491595E+03  0.27072298880E+03  0.81017455857E+03  0.86463803579E+03  0.10100000352E+00 0.  1.
       -3    1    3    3    0  502 -0.13388491595E+03 -0.27072298880E+03 -0.17062683491E+03  0.34688562146E+03  0.10100000352E+00 0. -1.
</event>
<event>
 5   0  0.2257667E-03  0.1108539E+04  0.7818609E-02  0.9196909E-01
       -1   -1    0    0    0  501  0.00000000000E+00  0.00000000000E+00  0.54160077213E+03  0.54160077215E+03  0.50400001928E-02 0. -1.
        1   -1    0    0  501    0  0.00000000000E+00  0.00000000000E+00 -0.56723416826E+03  0.56723416828E+03  0.50400001928E-02 0.  1.
    10030    2    1    2    0    0  0.00000000000E+00  0.00000000000E+00 -0.25633396132E+02  0.11088349404E+04  0.11085386119E+04 0.  0.
        4    1    3    3  502    0 -0.31110550497E+03 -0.25518221310E+03 -0.39411179367E+03  0.56323202671E+03  0.12699999809E+01 0.  1.
       -4    1    3    3    0  502  0.31110550497E+03  0.25518221310E+03  0.36847839754E+03  0.54560291372E+03  0.12699999809E+01 0. -1.
</event>
<event>
 5   0  0.3748901E-03  0.1123613E+04  0.7818609E-02  0.9182478E-01
       -2   -1    0    0    0  501  0.00000000000E+00  0.00000000000E+00  0.69915238245E+03  0.69915238245E+03  0.25500000920E-02 0. -1.
        2   -1    0    0  501    0  0.00000000000E+00  0.00000000000E+00 -0.45144136898E+03  0.45144136899E+03  0.25500000920E-02 0.  1.
    10030    2    1    2    0    0  0.00000000000E+00  0.00000000000E+00  0.24771101347E+03  0.11505937514E+04  0.11236125821E+04 0.  0.
        5    1    3    3  502    0  0.40605850182E+03 -0.33213267773E+03 -0.81990430030E+02  0.53098036040E+03  0.46999998093E+01 0.  1.
       -5    1    3    3    0  502 -0.40605850182E+03  0.33213267773E+03  0.32970144350E+03  0.61961339104E+03  0.46999998093E+01 0. -1.
</event>
<event>
 5   0  0.2257667E-03  0.1052090E+04  0.7818609E-02  0.9253189E-01
        1   -1    0    0  501    0  0.00000000000E+00  0.00000000000E+00  0.11489016198E+04  0.11489016198E+04  0.50400001928E-02 0.  1.
       -1   -1    0    0    0  501  0.00000000000E+00  0.00000000000E+00 -0.24085894461E+03  0.24085894466E+03  0.50400001928E-02 0. -1.
    10030    2    1    2    0    0  0.00000000000E+00  0.00000000000E+00  0.90804267520E+03  0.13897605645E+04  0.10520897902E+04 0.  0.
        4    1    3    3  502    0 -0.14454642473E+03  0.12056183743E+03 -0.19485113967E+03  0.27091955462E+03  0.12699999809E+01 0. -1.
       -4    1    3    3    0  502  0.14454642473E+03 -0.12056183743E+03  0.11028938149E+04  0.11188410099E+04  0.12699999809E+01 0.  1.
</event>
<event>
 5   0  0.1508625E-03  0.1117281E+04  0.7818609E-02  0.9188510E-01
        3   -1    0    0  501    0  0.00000000000E+00  0.00000000000E+00  0.58205903553E+03  0.58205904429E+03  0.10100000352E+00 0. -1.
       -3   -1    0    0    0  501  0.00000000000E+00  0.00000000000E+00 -0.53616411785E+03  0.53616412736E+03  0.10100000352E+00 0.  1.
    10030    2    1    2    0    0  0.00000000000E+00  0.00000000000E+00  0.45894917681E+02  0.11182231717E+04  0.11172809486E+04 0.  0.
        4    1    3    3  502    0 -0.39020761004E+03 -0.11638504713E+03 -0.35982782371E+03  0.54340144806E+03  0.12699999809E+01 0.  1.
       -4    1    3    3    0  502  0.39020761004E+03  0.11638504713E+03  0.40572274139E+03  0.57482172359E+03  0.12699999809E+01 0. -1.
</event>
<event>
 5   0  0.2374100E-03  0.1103758E+04  0.7818609E-02  0.9201537E-01
       -1   -1    0    0    0  501  0.00000000000E+00  0.00000000000E+00  0.24434128850E+03  0.24434128855E+03  0.50400001928E-02 0.  1.
        1   -1    0    0  501    0  0.00000000000E+00  0.00000000000E+00 -0.12464962670E+04  0.12464962670E+04  0.50400001928E-02 0. -1.
    10030    2    1    2    0    0  0.00000000000E+00  0.00000000000E+00 -0.10021549785E+04  0.14908375555E+04  0.11037581330E+04 0.  0.
        2    1    3    3  502    0 -0.18595558795E+03 -0.25282602437E+03  0.11206839787E+03  0.33325636543E+03  0.25500000920E-02 0.  1.
       -2    1    3    3    0  502  0.18595558795E+03  0.25282602437E+03 -0.11142233763E+04  0.11575811901E+04  0.25500000920E-02 0. -1.
</event>
<event>
 5   0  0.2300702E-03  0.1085501E+04  0.7818609E-02  0.9219440E-01
       -1   -1    0    0    0  501  0.00000000000E+00  0.00000000000E+00  0.41359232513E+03  0.41359232516E+03  0.50400001928E-02 0.  1.
        1   -1    0    0  501    0  0.00000000000E+00  0.00000000000E+00 -0.71224214276E+03  0.71224214278E+03  0.50400001928E-02 0. -1.
    10030    2    1    2    0    0  0.00000000000E+00  0.00000000000E+00 -0.29864981763E+03  0.11258344679E+04  0.10855005922E+04 0.  0.
        5    1    3    3  502    0 -0.44118561092E+03 -0.25088908866E+01  0.17849668532E+03  0.47595608462E+03  0.46999998093E+01 0.  1.
       -5    1    3    3    0  502  0.44118561092E+03  0.25088908866E+01 -0.47714650296E+03  0.64987838332E+03  0.46999998093E+01 0. -1.
</event>
<event>
 5   0  0.3744875E-03  0.1094113E+04  0.7818609E-02  0.9210948E-01
       -2   -1    0    0    0  501  0.00000000000E+00  0.00000000000E+00  0.50068263792E+03  0.50068263793E+03  0.25500000920E-02 0.  1.
        2   -1    0    0  501    0  0.00000000000E+00  0.00000000000E+00 -0.59772596659E+03  0.59772596660E+03  0.25500000920E-02 0. -1.
    10030    2    1    2    0    0  0.00000000000E+00  0.00000000000E+00 -0.97043328670E+02  0.10984086045E+04  0.10941133647E+04 0.  0.
        2    1    3    3  502    0 -0.24890776799E+03  0.28032057996E+03  0.35145968618E+03  0.51386634014E+03  0.25500000920E-02 0.  1.
       -2    1    3    3    0  502  0.24890776799E+03 -0.28032057996E+03 -0.44850301485E+03  0.58454226439E+03  0.25500000920E-02 0. -1.
</event>
<event>
 5   0  0.3713158E-03  0.1086318E+04  0.7818609E-02  0.9218631E-01
        2   -1    0    0  501    0  0.00000000000E+00  0.00000000000E+00  0.91518920021E+03  0.91518920022E+03  0.25500000920E-02 0. -1.
       -2   -1    0    0    0  501  0.00000000000E+00  0.00000000000E+00 -0.32236128785E+03  0.32236128786E+03  0.25500000920E-02 0.  1.
    10030    2    1    2    0    0  0.00000000000E+00  0.00000000000E+00  0.59282791236E+03  0.12375504881E+04  0.10863177605E+04 0.  0.
        4    1    3    3  502    0 -0.37363410617E+03 -0.30818067973E+03  0.57649009113E+03  0.75294104332E+03  0.12699999809E+01 0. -1.
       -4    1    3    3    0  502  0.37363410617E+03  0.30818067973E+03  0.16337821235E+02  0.48460944476E+03  0.12699999809E+01 0.  1.
</event>
<event>
 5   0  0.3962999E-03  0.1087084E+04  0.7818609E-02  0.9217873E-01
       -2   -1    0    0    0  501  0.00000000000E+00  0.00000000000E+00  0.11202854339E+04  0.11202854339E+04  0.25500000920E-02 0.  1.
        2   -1    0    0  501    0  0.00000000000E+00  0.00000000000E+00 -0.26371682326E+03  0.26371682327E+03  0.25500000920E-02 0. -1.
    10030    2    1    2    0    0  0.00000000000E+00  0.00000000000E+00  0.85656861065E+03  0.13840022572E+04  0.10870843864E+04 0.  0.
        3    1    3    3  502    0 -0.21235499232E+03 -0.67973990649E+02  0.10593817828E+04  0.10825917412E+04  0.10100000352E+00 0.  1.
       -3    1    3    3    0  502  0.21235499232E+03  0.67973990649E+02 -0.20281317214E+03  0.30141051601E+03  0.10100000352E+00 0. -1.
</event>
<event>
 5   0  0.2257667E-03  0.1102076E+04  0.7818609E-02  0.9203171E-01
       -1   -1    0    0    0  501  0.00000000000E+00  0.00000000000E+00  0.56749549566E+03  0.56749549568E+03  0.50400001928E-02 0.  1.
        1   -1    0    0  501    0  0.00000000000E+00  0.00000000000E+00 -0.53505798488E+03  0.53505798490E+03  0.50400001928E-02 0. -1.
    10030    2    1    2    0    0  0.00000000000E+00  0.00000000000E+00  0.32437510783E+02  0.11025534806E+04  0.11020762158E+04 0.  0.
        4    1    3    3  502    0  0.22284715383E+02  0.29018613986E+03  0.48432819302E+03  0.56504868442E+03  0.12699999809E+01 0.  1.
       -4    1    3    3    0  502 -0.22284715383E+02 -0.29018613986E+03 -0.45189068224E+03  0.53750479617E+03  0.12699999809E+01 0. -1.
</event>
<event>
 5   0  0.2255788E-03  0.1112479E+04  0.7818609E-02  0.9193114E-01
        1   -1    0    0  501    0  0.00000000000E+00  0.00000000000E+00  0.19597240429E+03  0.19597240436E+03  0.50400001928E-02 0. -1.
       -1   -1    0    0    0  501  0.00000000000E+00  0.00000000000E+00 -0.15788056453E+04  0.15788056453E+04  0.50400001928E-02 0.  1.
    10030    2    1    2    0    0  0.00000000000E+00  0.00000000000E+00 -0.13828332410E+04  0.17747780497E+04  0.11124789226E+04 0.  0.
        3    1    3    3  502    0 -0.15934175131E+03 -0.52359763039E+03 -0.84981396407E+03  0.10108056470E+04  0.10100000352E+00 0.  1.
       -3    1    3    3    0  502  0.15934175131E+03  0.52359763039E+03 -0.53301927694E+03  0.76397240267E+03  0.10100000352E+00 0. -1.
</event>
<event>
 5   0  0.2300702E-03  0.1130899E+04  0.7818609E-02  0.9175588E-01
       -1   -1    0    0    0  501  0.00000000000E+00  0.00000000000E+00  0.45653389047E+03  0.45653389050E+03  0.50400001928E-02 0.  1.
        1   -1    0    0  501    0  0.00000000000E+00  0.00000000000E+00 -0.70034912796E+03  0.70034912798E+03  0.50400001928E-02 0. -1.
    10030    2    1    2    0    0  0.00000000000E+00  0.00000000000E+00 -0.24381523749E+03  0.11568830185E+04  0.11308989559E+04 0.  0.
        5    1    3    3  502    0  0.13089533309E+03 -0.21759096886E+03  0.39490471334E+03  0.46952235365E+03  0.46999998093E+01 0.  1.
       -5    1    3    3    0  502 -0.13089533309E+03  0.21759096886E+03 -0.63871995084E+03  0.68736066483E+03  0.46999998093E+01 0. -1.
</event>
<event>
 5   0  0.2300702E-03  0.1104646E+04  0.7818609E-02  0.9200675E-01
        1   -1    0    0  501    0  0.00000000000E+00  0.00000000000E+00  0.64331945105E+03  0.64331945107E+03  0.50400001928E-02 0.  1.
       -1   -1    0    0    0  501  0.00000000000E+00  0.00000000000E+00 -0.47419778914E+03  0.47419778917E+03  0.50400001928E-02 0. -1.
    10030    2    1    2    0    0  0.00000000000E+00  0.00000000000E+00  0.16912166191E+03  0.11175172402E+04  0.11046459368E+04 0.  0.
        5    1    3    3  502    0  0.23537042799E+03 -0.15765059223E+03  0.56420083573E+03  0.63134588035E+03  0.46999998093E+01 0.  1.
       -5    1    3    3    0  502 -0.23537042799E+03  0.15765059223E+03 -0.39507917381E+03  0.48617135989E+03  0.46999998093E+01 0. -1.
</event>
<event>
 5   0  0.3744875E-03  0.1100168E+04  0.7818609E-02  0.9205029E-01
       -2   -1    0    0    0  501  0.00000000000E+00  0.00000000000E+00  0.13525822277E+03  0.13525822279E+03  0.25500000920E-02 0.  1.
        2   -1    0    0  501    0  0.00000000000E+00  0.00000000000E+00 -0.22371441005E+04  0.22371441005E+04  0.25500000920E-02 0. -1.
    10030    2    1    2    0    0  0.00000000000E+00  0.00000000000E+00 -0.21018858778E+04  0.23724023233E+04  0.11001675057E+04 0.  0.
        2    1    3    3  502    0  0.27027101444E+03 -0.12083958495E+03 -0.51192291636E+02  0.30044846025E+03  0.25500000920E-02 0.  1.
       -2    1    3    3    0  502 -0.27027101444E+03  0.12083958495E+03 -0.20506935861E+04  0.20719538631E+04  0.25500000920E-02 0. -1.
</event>
<event>
 5   0  0.3744875E-03  0.1121238E+04  0.7818609E-02  0.9184736E-01
        2   -1    0    0  501    0  0.00000000000E+00  0.00000000000E+00  0.18216083726E+03  0.18216083727E+03  0.25500000920E-02 0. -1.
       -2   -1    0    0    0  501  0.00000000000E+00  0.00000000000E+00 -0.17253628784E+04  0.17253628784E+04  0.25500000920E-02 0.  1.
    10030    2    1    2    0    0  0.00000000000E+00  0.00000000000E+00 -0.15432020411E+04  0.19075237157E+04  0.11212377919E+04 0.  0.
        2    1    3    3  502    0 -0.29669198734E+03 -0.44243168836E+03 -0.47438244102E+03  0.71330963444E+03  0.25500000920E-02 0. -1.
       -2    1    3    3    0  502  0.29669198734E+03  0.44243168836E+03 -0.10688196001E+04  0.11942140812E+04  0.25500000920E-02 0.  1.
</event>
<event>
 5   0  0.2255788E-03  0.1094853E+04  0.7818609E-02  0.9210223E-01
       -1   -1    0    0    0  501  0.00000000000E+00  0.00000000000E+00  0.30564832360E+03  0.30564832364E+03  0.50400001928E-02 0.  1.
        1   -1    0    0  501    0  0.00000000000E+00  0.00000000000E+00 -0.98045865449E+03  0.98045865450E+03  0.50400001928E-02 0. -1.
    10030    2    1    2    0    0  0.00000000000E+00  0.00000000000E+00 -0.67481033088E+03  0.12861069781E+04  0.10948525821E+04 0.  0.
        3    1    3    3  502    0  0.47306110663E+03 -0.37733317235E+02 -0.16854035879E+02  0.47486280394E+03  0.10100000352E+00 0.  1.
       -3    1    3    3    0  502 -0.47306110663E+03  0.37733317235E+02 -0.65795629500E+03  0.81124417420E+03  0.10100000352E+00 0. -1.
</event>
<event>
 5   0  0.2298958E-03  0.1148277E+04  0.7818609E-02  0.9159375E-01
        1   -1    0    0  501    0  0.00000000000E+00  0.00000000000E+00  0.26231689958E+03  0.26231689963E+03  0.50400001928E-02 0. -1.
       -1   -1    0    0    0  501  0.00000000000E+00  0.00000000000E+00 -0.12566279992E+04  0.12566279992E+04  0.50400001928E-02 0.  1.
    10030    2    1    2    0    0  0.00000000000E+00  0.00000000000E+00 -0.99431109964E+03  0.15189448989E+04  0.11482765533E+04 0.  0.
        1    1    3    3  502    0  0.66712209153E+02 -0.52536411114E+03 -0.79049847775E+03  0.95149661663E+03  0.50400001928E-02 0.  1.
       -1    1    3    3    0  502 -0.66712209153E+02  0.52536411114E+03 -0.20381262189E+03  0.56744828222E+03  0.50400001928E-02 0. -1.
</event>
<event>
 5   0  0.3992414E-03  0.1099058E+04  0.7818609E-02  0.9206111E-01
        2   -1    0    0  501    0  0.00000000000E+00  0.00000000000E+00  0.15426325142E+04  0.15426325142E+04  0.25500000920E-02 0. -1.
       -2   -1    0    0    0  501  0.00000000000E+00  0.00000000000E+00 -0.19575757075E+03  0.19575757077E+03  0.25500000920E-02 0.  1.
    10030    2    1    2    0    0  0.00000000000E+00  0.00000000000E+00  0.13468749434E+04  0.17383900850E+04  0.10990577666E+04 0.  0.
        1    1    3    3  502    0 -0.19463748866E+03  0.49875277220E+02 -0.13557360282E+03  0.24238708109E+03  0.50400001928E-02 0.  1.
       -1    1    3    3    0  502  0.19463748866E+03 -0.49875277220E+02  0.14824485462E+04  0.14960030039E+04  0.50400001928E-02 0. -1.
</event>
<event>
 5   0  0.3748901E-03  0.1097546E+04  0.7818609E-02  0.9207587E-01
        2   -1    0    0  501    0  0.00000000000E+00  0.00000000000E+00  0.12316607139E+04  0.12316607139E+04  0.25500000920E-02 0. -1.
       -2   -1    0    0    0  501  0.00000000000E+00  0.00000000000E+00 -0.24450860140E+03  0.24450860141E+03  0.25500000920E-02 0.  1.
    10030    2    1    2    0    0  0.00000000000E+00  0.00000000000E+00  0.98715211246E+03  0.14761693153E+04  0.10975456957E+04 0.  0.
        5    1    3    3  502    0 -0.17043048337E+03 -0.16133554309E+03 -0.17358185064E+03  0.29193913063E+03  0.46999998093E+01 0.  1.
       -5    1    3    3    0  502  0.17043048337E+03  0.16133554309E+03  0.11607339631E+04  0.11842301846E+04  0.46999998093E+01 0. -1.
</event>
<event>
 5   0  0.2374100E-03  0.1099655E+04  0.7818609E-02  0.9205528E-01
       -1   -1    0    0    0  501  0.00000000000E+00  0.00000000000E+00  0.49083424662E+03  0.49083424664E+03  0.50400001928E-02 0. -1.
        1   -1    0    0  501    0  0.00000000000E+00  0.00000000000E+00 -0.61591082689E+03  0.61591082691E+03  0.50400001928E-02 0.  1.
    10030    2    1    2    0    0  0.00000000000E+00  0.00000000000E+00 -0.12507658027E+03  0.11067450735E+04  0.10996547217E+04 0.  0.
        2    1    3    3  502    0 -0.19499877952E+03  0.86762306374E+02 -0.57251831500E+03  0.61100690899E+03  0.25500000920E-02 0.  1.
       -2    1    3    3    0  502  0.19499877952E+03 -0.86762306374E+02  0.44744173472E+03  0.49573816456E+03  0.25500000920E-02 0. -1.
</event>
<event>
 5   0  0.2374100E-03  0.1240100E+04  0.7818609E-02  0.9078464E-01
       -1   -1    0    0    0  501  0.00000000000E+00  0.00000000000E+00  0.57602299284E+03  0.57602299286E+03  0.50400001928E-02 0.  1.
        1   -1    0    0  501    0  0.00000000000E+00  0.00000000000E+00 -0.66744183105E+03  0.66744183107E+03  0.50400001928E-02 0. -1.
    10030    2    1    2    0    0  0.00000000000E+00  0.00000000000E+00 -0.91418838205E+02  0.12434648239E+04  0.12400997397E+04 0.  0.
        2    1    3    3  502    0 -0.56843157271E+03  0.19397598960E+03 -0.20014261966E+03  0.63308625447E+03  0.25500000920E-02 0.  1.
       -2    1    3    3    0  502  0.56843157271E+03 -0.19397598960E+03  0.10872378146E+03  0.61037856946E+03  0.25500000920E-02 0. -1.
</event>
<event>
 5   0  0.2255788E-03  0.1107967E+04  0.7818609E-02  0.9197462E-01
       -1   -1    0    0    0  501  0.00000000000E+00  0.00000000000E+00  0.35037927630E+03  0.35037927634E+03  0.50400001928E-02 0.  1.
        1   -1    0    0  501    0  0.00000000000E+00  0.00000000000E+00 -0.87590109566E+03  0.87590109567E+03  0.50400001928E-02 0. -1.
    10030    2    1    2    0    0  0.00000000000E+00  0.00000000000E+00 -0.52552181936E+03  0.12262803720E+04  0.11079667721E+04 0.  0.
        3    1    3    3  502    0  0.32432948914E+03  0.42555846859E+03 -0.10387679433E+03  0.54505048052E+03  0.10100000352E+00 0.  1.
       -3    1    3    3    0  502 -0.32432948914E+03 -0.42555846859E+03 -0.42164502503E+03  0.68122989149E+03  0.10100000352E+00 0. -1.
</event>
<event>
 5   0  0.3962999E-03  0.1105627E+04  0.7818609E-02  0.9199725E-01
       -2   -1    0    0    0  501  0.00000000000E+00  0.00000000000E+00  0.66673499441E+03  0.66673499441E+03  0.25500000920E-02 0.  1.
        2   -1    0    0  501    0  0.00000000000E+00  0.00000000000E+00 -0.45835685405E+03  0.45835685405E+03  0.25500000920E-02 0. -1.
    10030    2    1    2    0    0  0.00000000000E+00  0.00000000000E+00  0.20837814036E+03  0.11250918485E+04  0.11056266179E+04 0.  0.
        3    1    3    3  502    0 -0.38638490855E+03  0.38412111758E+03  0.19943289884E+03  0.58018602351E+03  0.10100000352E+00 0. -1.
       -3    1    3    3    0  502  0.38638490855E+03 -0.38412111758E+03  0.89452415209E+01  0.54490582496E+03  0.10100000352E+00 0.  1.
</event>
<event>
 5   0  0.2300702E-03  0.1086865E+04  0.7818609E-02  0.9218090E-01
        1   -1    0    0  501    0  0.00000000000E+00  0.00000000000E+00  0.10160178653E+04  0.10160178653E+04  0.50400001928E-02 0.  1.
       -1   -1    0    0    0  501  0.00000000000E+00  0.00000000000E+00 -0.29066304375E+03  0.29066304380E+03  0.50400001928E-02 0. -1.
    10030    2    1    2    0    0  0.00000000000E+00  0.00000000000E+00  0.72535482152E+03  0.13066809091E+04  0.10868649323E+04 0.  0.
        5    1    3    3  502    0  0.29874262106E+03 -0.45375563818E+03  0.34768916360E+03  0.64502029216E+03  0.46999998093E+01 0.  1.
       -5    1    3    3    0  502 -0.29874262106E+03  0.45375563818E+03  0.37766565792E+03  0.66166061692E+03  0.46999998093E+01 0. -1.
</event>
<event>
 5   0  0.2374100E-03  0.1127078E+04  0.7818609E-02  0.9179195E-01
       -1   -1    0    0    0  501  0.00000000000E+00  0.00000000000E+00  0.25910840703E+03  0.25910840708E+03  0.50400001928E-02 0.  1.
        1   -1    0    0  501    0  0.00000000000E+00  0.00000000000E+00 -0.12256495496E+04  0.12256495496E+04  0.50400001928E-02 0. -1.
    10030    2    1    2    0    0  0.00000000000E+00  0.00000000000E+00 -0.96654114252E+03  0.14847579566E+04  0.11270778188E+04 0.  0.
        2    1    3    3  502    0  0.34991231270E+03 -0.36352164136E+03 -0.81389566436E+03  0.95760783350E+03  0.25500000920E-02 0. -1.
       -2    1    3    3    0  502 -0.34991231270E+03  0.36352164136E+03 -0.15264547816E+03  0.52715012314E+03  0.25500000920E-02 0.  1.
</event>
<event>
 5   0  0.3992414E-03  0.1095986E+04  0.7818609E-02  0.9209113E-01
        2   -1    0    0  501    0  0.00000000000E+00  0.00000000000E+00  0.90276668661E+03  0.90276668661E+03  0.25500000920E-02 0.  1.
       -2   -1    0    0    0  501  0.00000000000E+00  0.00000000000E+00 -0.33264001226E+03  0.33264001227E+03  0.25500000920E-02 0. -1.
    10030    2    1    2    0    0  0.00000000000E+00  0.00000000000E+00  0.57012667435E+03  0.12354066989E+04  0.10959859884E+04 0.  0.
        1    1    3    3  502    0  0.21444666920E+03  0.43823067780E+03  0.56633070316E+03  0.74750516136E+03  0.50400001928E-02 0.  1.
       -1    1    3    3    0  502 -0.21444666920E+03 -0.43823067780E+03  0.37959711909E+01  0.48790153752E+03  0.50400001928E-02 0. -1.
</event>
<event>
 5   0  0.3748901E-03  0.1101999E+04  0.7818609E-02  0.9203246E-01
       -2   -1    0    0    0  501  0.00000000000E+00  0.00000000000E+00  0.22712964935E+03  0.22712964936E+03  0.25500000920E-02 0.  1.
        2   -1    0    0  501    0  0.00000000000E+00  0.00000000000E+00 -0.13366828947E+04  0.13366828947E+04  0.25500000920E-02 0. -1.
    10030    2    1    2    0    0  0.00000000000E+00  0.00000000000E+00 -0.11095532454E+04  0.15638125441E+04  0.11019987608E+04 0.  0.
        5    1    3    3  502    0 -0.72159610358E+02  0.77582540204E+02 -0.13220616883E+04  0.13263088847E+04  0.46999998093E+01 0. -1.
       -5    1    3    3    0  502  0.72159610358E+02 -0.77582540204E+02  0.21250844294E+03  0.23750365940E+03  0.46999998093E+01 0.  1.
</event>
<event>
 5   0  0.3748901E-03  0.1123685E+04  0.7818609E-02  0.9182409E-01
        2   -1    0    0  501    0  0.00000000000E+00  0.00000000000E+00  0.17321251182E+04  0.17321251182E+04  0.25500000920E-02 0. -1.
       -2   -1    0    0    0  501  0.00000000000E+00  0.00000000000E+00 -0.18224275871E+03  0.18224275873E+03  0.25500000920E-02 0.  1.
    10030    2    1    2    0    0  0.00000000000E+00  0.00000000000E+00  0.15498823595E+04  0.19143678769E+04  0.11236854720E+04 0.  0.
        5    1    3    3  502    0 -0.50222753758E+03  0.21693050399E+03  0.99280761673E+03  0.11335697583E+04  0.46999998093E+01 0. -1.
       -5    1    3    3    0  502  0.50222753758E+03 -0.21693050399E+03  0.55707474277E+03  0.78079811866E+03  0.46999998093E+01 0.  1.
</event>
<event>
 5   0  0.3748901E-03  0.1079924E+04  0.7818609E-02  0.9224984E-01
       -2   -1    0    0    0  501  0.00000000000E+00  0.00000000000E+00  0.48846031304E+03  0.48846031305E+03  0.25500000920E-02 0. -1.
        2   -1    0    0  501    0  0.00000000000E+00  0.00000000000E+00 -0.59689346144E+03  0.59689346144E+03  0.25500000920E-02 0.  1.
    10030    2    1    2    0    0  0.00000000000E+00  0.00000000000E+00 -0.10843314839E+03  0.10853537745E+04  0.10799236400E+04 0.  0.
        5    1    3    3  502    0 -0.31899409937E+03  0.33798713841E+03  0.22201839223E+03  0.51507940907E+03  0.46999998093E+01 0. -1.
       -5    1    3    3    0  502  0.31899409937E+03 -0.33798713841E+03 -0.33045154063E+03  0.57027436542E+03  0.46999998093E+01 0.  1.
</event>
<event>
 5   0  0.3744875E-03  0.1075702E+04  0.7818609E-02  0.9229204E-01
        2   -1    0    0  501    0  0.00000000000E+00  0.00000000000E+00  0.74075143457E+03  0.74075143457E+03  0.25500000920E-02 0. -1.
       -2   -1    0    0    0  501  0.00000000000E+00  0.00000000000E+00 -0.39052719385E+03  0.39052719386E+03  0.25500000920E-02 0.  1.
    10030    2    1    2    0    0  0.00000000000E+00  0.00000000000E+00  0.35022424072E+03  0.11312786284E+04  0.10757017785E+04 0.  0.
        2    1    3    3  502    0  0.34763063439E+03  0.21804549626E+03 -0.19054808895E+03  0.45243725599E+03  0.25500000920E-02 0.  1.
       -2    1    3    3    0  502 -0.34763063439E+03 -0.21804549626E+03  0.54077232967E+03  0.67884137244E+03  0.25500000920E-02 0. -1.
</event>
<event>
 5   0  0.3713158E-03  0.1102163E+04  0.7818609E-02  0.9203087E-01
        2   -1    0    0  501    0  0.00000000000E+00  0.00000000000E+00  0.33089993610E+03  0.33089993611E+03  0.25500000920E-02 0.  1.
       -2   -1    0    0    0  501  0.00000000000E+00  0.00000000000E+00 -0.91777156221E+03  0.91777156221E+03  0.25500000920E-02 0. -1.
    10030    2    1    2    0    0  0.00000000000E+00  0.00000000000E+00 -0.58687162610E+03  0.12486714983E+04  0.11021625131E+04 0.  0.
        4    1    3    3  502    0  0.28087330003E+03 -0.12744948411E+03 -0.81082059944E+03  0.86750495044E+03  0.12699999809E+01 0. -1.
       -4    1    3    3    0  502 -0.28087330003E+03  0.12744948411E+03  0.22394897333E+03  0.38116654789E+03  0.12699999809E+01 0.  1.
</event>
<event>
 5   0  0.3962999E-03  0.1093066E+04  0.7818609E-02  0.9211976E-01
        2   -1    0    0  501    0  0.00000000000E+00  0.00000000000E+00  0.16337973083E+04  0.16337973083E+04  0.25500000920E-02 0.  1.
       -2   -1    0    0    0  501  0.00000000000E+00  0.00000000000E+00 -0.18282473444E+03  0.18282473446E+03  0.25500000920E-02 0. -1.
    10030    2    1    2    0    0  0.00000000000E+00  0.00000000000E+00  0.14509725738E+04  0.18166220427E+04  0.10930664372E+04 0.  0.
        3    1    3    3  502    0 -0.47728269774E+02  0.42494863988E+03  0.12911337221E+04  0.13601050080E+04  0.10100000352E+00 0.  1.
       -3    1    3    3    0  502  0.47728269774E+02 -0.42494863988E+03  0.15983885174E+03  0.45651703473E+03  0.10100000352E+00 0. -1.
</event>
<event>
 5   0  0.3748901E-03  0.1110028E+04  0.7818609E-02  0.9195473E-01
       -2   -1    0    0    0  501  0.00000000000E+00  0.00000000000E+00  0.83609110536E+03  0.83609110536E+03  0.25500000920E-02 0. -1.
        2   -1    0    0  501    0  0.00000000000E+00  0.00000000000E+00 -0.36842931158E+03  0.36842931159E+03  0.25500000920E-02 0.  1.
    10030    2    1    2    0    0  0.00000000000E+00  0.00000000000E+00  0.46766179377E+03  0.12045204170E+04  0.11100278742E+04 0.  0.
        5    1    3    3  502    0  0.28479017579E+03  0.30757870219E+02 -0.28199445724E+03  0.40198812758E+03  0.46999998093E+01 0.  1.
       -5    1    3    3    0  502 -0.28479017579E+03 -0.30757870219E+02  0.74965625101E+03  0.80253228937E+03  0.46999998093E+01 0. -1.
</event>
<event>
 5   0  0.3713158E-03  0.1109423E+04  0.7818609E-02  0.9196056E-01
       -2   -1    0    0    0  501  0.00000000000E+00  0.00000000000E+00  0.27586243414E+03  0.27586243415E+03  0.25500000920E-02 0. -1.
        2   -1    0    0  501    0  0.00000000000E+00  0.00000000000E+00 -0.11154276973E+04  0.11154276973E+04  0.25500000920E-02 0.  1.
    10030    2    1    2    0    0  0.00000000000E+00  0.00000000000E+00 -0.83956526321E+03  0.13912901315E+04  0.11094225520E+04 0.  0.
        4    1    3    3  502    0 -0.11636044798E+03 -0.22314606761E+03  0.20014904612E+03  0.32155120107E+03  0.12699999809E+01 0. -1.
       -4    1    3    3    0  502  0.11636044798E+03  0.22314606761E+03 -0.10397143093E+04  0.10697389304E+04  0.12699999809E+01 0.  1.
</event>
<event>
 5   0  0.1508625E-03  0.1093328E+04  0.7818609E-02  0.9211719E-01
        3   -1    0    0  501    0  0.00000000000E+00  0.00000000000E+00  0.47740507014E+03  0.47740508082E+03  0.10100000352E+00 0. -1.
       -3   -1    0    0    0  501  0.00000000000E+00  0.00000000000E+00 -0.62597075115E+03  0.62597075930E+03  0.10100000352E+00 0.  1.
    10030    2    1    2    0    0  0.00000000000E+00  0.00000000000E+00 -0.14856568101E+03  0.11033758401E+04  0.10933281680E+04 0.  0.
        2    1    3    3  502    0 -0.92866441339E+02 -0.11952117722E+03  0.45583701647E+03  0.48030914349E+03  0.25500000920E-02 0. -1.
       -2    1    3    3    0  502  0.92866441339E+02  0.11952117722E+03 -0.60440269748E+03  0.62306669664E+03  0.25500000920E-02 0.  1.
</event>
<event>
 5   0  0.3992414E-03  0.1107739E+04  0.7818609E-02  0.9197682E-01
       -2   -1    0    0    0  501  0.00000000000E+00  0.00000000000E+00  0.22239999583E+03  0.22239999584E+03  0.25500000920E-02 0.  1.
        2   -1    0    0  501    0  0.00000000000E+00  0.00000000000E+00 -0.13793677178E+04  0.13793677178E+04  0.25500000920E-02 0. -1.
    10030    2    1    2    0    0  0.00000000000E+00  0.00000000000E+00 -0.11569677220E+04  0.16017677136E+04  0.11077389127E+04 0.  0.
        1    1    3    3  502    0  0.21726790556E+02  0.54169294988E+02 -0.13749088288E+04  0.13761470319E+04  0.50400001928E-02 0. -1.
       -1    1    3    3    0  502 -0.21726790556E+02 -0.54169294988E+02  0.21794110683E+03  0.22562068172E+03  0.50400001928E-02 0.  1.
</event>
<event>
 5   0  0.2374100E-03  0.1069033E+04  0.7818609E-02  0.9235912E-01
        1   -1    0    0  501    0  0.00000000000E+00  0.00000000000E+00  0.26870422681E+03  0.26870422686E+03  0.50400001928E-02 0. -1.
       -1   -1    0    0    0  501  0.00000000000E+00  0.00000000000E+00 -0.10632797807E+04  0.10632797807E+04  0.50400001928E-02 0.  1.
    10030    2    1    2    0    0  0.00000000000E+00  0.00000000000E+00 -0.79457555389E+03  0.13319840076E+04  0.10690327804E+04 0.  0.
        2    1    3    3  502    0 -0.31218441267E+03 -0.41923781048E+03 -0.25804905296E+03  0.58293118203E+03  0.25500000920E-02 0.  1.
       -2    1    3    3    0  502  0.31218441267E+03  0.41923781048E+03 -0.53652650092E+03  0.74905282554E+03  0.25500000920E-02 0. -1.
</event>
<event>
 5   0  0.3962999E-03  0.1104616E+04  0.7818609E-02  0.9200705E-01
       -2   -1    0    0    0  501  0.00000000000E+00  0.00000000000E+00  0.29385935373E+03  0.29385935374E+03  0.25500000920E-02 0.  1.
        2   -1    0    0  501    0  0.00000000000E+00  0.00000000000E+00 -0.10380609745E+04  0.10380609745E+04  0.25500000920E-02 0. -1.
    10030    2    1    2    0    0  0.00000000000E+00  0.00000000000E+00 -0.74420162077E+03  0.13319203282E+04  0.11046156383E+04 0.  0.
        3    1    3    3  502    0  0.13541316325E+03  0.26947082200E+03  0.18581408612E+03  0.35422892808E+03  0.10100000352E+00 0.  1.
       -3    1    3    3    0  502 -0.13541316325E+03 -0.26947082200E+03 -0.93001570688E+03  0.97769140015E+03  0.10100000352E+00 0. -1.
</event>
<event>
 5   0  0.2257667E-03  0.1100519E+04  0.7818609E-02  0.9204686E-01
        1   -1    0    0  501    0  0.00000000000E+00  0.00000000000E+00  0.98495603414E+03  0.98495603415E+03  0.50400001928E-02 0. -1.
       -1   -1    0    0    0  501  0.00000000000E+00  0.00000000000E+00 -0.30741002577E+03  0.30741002581E+03  0.50400001928E-02 0.  1.
    10030    2    1    2    0    0  0.00000000000E+00  0.00000000000E+00  0.67754600837E+03  0.12923660600E+04  0.11005187138E+04 0.  0.
        4    1    3    3  502    0 -0.12422822089E+03 -0.51054826192E+03  0.53062890391E+03  0.74676691490E+03  0.12699999809E+01 0. -1.
       -4    1    3    3    0  502  0.12422822089E+03  0.51054826192E+03  0.14691710446E+03  0.54559914507E+03  0.12699999809E+01 0.  1.
</event>
<event>
 5   0  0.2298958E-03  0.1093926E+04  0.7818609E-02  0.9211132E-01
       -1   -1    0    0    0  501  0.00000000000E+00  0.00000000000E+00  0.65907218417E+03  0.65907218419E+03  0.50400001928E-02 0. -1.
        1   -1    0    0  501    0  0.00000000000E+00  0.00000000000E+00 -0.45392382639E+03  0.45392382642E+03  0.50400001928E-02 0.  1.
    10030    2    1    2    0    0  0.00000000000E+00  0.00000000000E+00  0.20514835777E+03  0.11129960106E+04  0.10939260811E+04 0.  0.
        1    1    3    3  502    0 -0.16682339858E+03  0.52066092849E+03  0.86464043147E+02  0.55352857158E+03  0.50400001928E-02 0. -1.
       -1    1    3    3    0  502  0.16682339858E+03 -0.52066092849E+03  0.11868431463E+03  0.55946743903E+03  0.50400001928E-02 0.  1.
</event>
<event>
 5   0  0.2300702E-03  0.1101914E+04  0.7818609E-02  0.9203329E-01
       -1   -1    0    0    0  501  0.00000000000E+00  0.00000000000E+00  0.42457409437E+03  0.42457409440E+03  0.50400001928E-02 0. -1.
        1   -1    0    0  501    0  0.00000000000E+00  0.00000000000E+00 -0.71495994897E+03  0.71495994899E+03  0.50400001928E-02 0.  1.
    10030    2    1    2    0    0  0.00000000000E+00  0.00000000000E+00 -0.29038585460E+03  0.11395340434E+04  0.11019137405E+04 0.  0.
        5    1    3    3  502    0  0.46318544003E+03  0.26624808847E+03 -0.28433229329E+03  0.60522371027E+03  0.46999998093E+01 0.  1.
       -5    1    3    3    0  502 -0.46318544003E+03 -0.26624808847E+03 -0.60535613037E+01  0.53431033311E+03  0.46999998093E+01 0. -1.
</event>
<event>
 5   0  0.3713158E-03  0.1102636E+04  0.7818609E-02  0.9202626E-01
       -2   -1    0    0    0  501  0.00000000000E+00  0.00000000000E+00  0.19473425061E+03  0.19473425063E+03  0.25500000920E-02 0.  1.
        2   -1    0    0  501    0  0.00000000000E+00  0.00000000000E+00 -0.15608543907E+04  0.15608543907E+04  0.25500000920E-02 0. -1.
    10030    2    1    2    0    0  0.00000000000E+00  0.00000000000E+00 -0.13661201401E+04  0.17555886413E+04  0.11026364951E+04 0.  0.
        4    1    3    3  502    0  0.26526231514E+03 -0.26532081846E+03 -0.13262488420E+04  0.13782949018E+04  0.12699999809E+01 0. -1.
       -4    1    3    3    0  502 -0.26526231514E+03  0.26532081846E+03 -0.39871298049E+02  0.37729373948E+03  0.12699999809E+01 0.  1.
</event>
<event>
 5   0  0.2374100E-03  0.1099218E+04  0.7818609E-02  0.9205955E-01
        1   -1    0    0  501    0  0.00000000000E+00  0.00000000000E+00  0.77279793067E+03  0.77279793069E+03  0.50400001928E-02 0. -1.
       -1   -1    0    0    0  501  0.00000000000E+00  0.00000000000E+00 -0.39087820522E+03  0.39087820526E+03  0.50400001928E-02 0.  1.
    10030    2    1    2    0    0  0.00000000000E+00  0.00000000000E+00  0.38191972545E+03  0.11636761359E+04  0.10992176639E+04 0.  0.
        2    1    3    3  502    0 -0.45679259463E+03 -0.30224492905E+03  0.23898990279E+03  0.59760157738E+03  0.25500000920E-02 0.  1.
       -2    1    3    3    0  502  0.45679259463E+03  0.30224492905E+03  0.14292982266E+03  0.56607455857E+03  0.25500000920E-02 0. -1.
</event>
<event>
 5   0  0.3744875E-03  0.1102297E+04  0.7818609E-02  0.9202956E-01
       -2   -1    0    0    0  501  0.00000000000E+00  0.00000000000E+00  0.28163819636E+03  0.28163819637E+03  0.25500000920E-02 0.  1.
        2   -1    0    0  501    0  0.00000000000E+00  0.00000000000E+00 -0.10785626542E+04  0.10785626542E+04  0.25500000920E-02 0. -1.
    10030    2    1    2    0    0  0.00000000000E+00  0.00000000000E+00 -0.79692445780E+03  0.13602008505E+04  0.11022965855E+04 0.  0.
        2    1    3    3  502    0 -0.15320908575E+03  0.49305906426E+03 -0.16051335181E+03  0.54068919069E+03  0.25500000920E-02 0.  1.
       -2    1    3    3    0  502  0.15320908575E+03 -0.49305906426E+03 -0.63641110599E+03  0.81951165986E+03  0.25500000920E-02 0. -1.
</event>
<event>
 5   0  0.3992414E-03  0.1091347E+04  0.7818609E-02  0.9213667E-01
       -2   -1    0    0    0  501  0.00000000000E+00  0.00000000000E+00  0.97944614479E+02  0.97944614512E+02  0.25500000920E-02 0. -1.
        2   -1    0    0  501    0  0.00000000000E+00  0.00000000000E+00 -0.30400797416E+04  0.30400797416E+04  0.25500000920E-02 0.  1.
    10030    2    1    2    0    0  0.00000000000E+00  0.00000000000E+00 -0.29421351272E+04  0.31380243561E+04  0.10913467613E+04 0.  0.
        1    1    3    3  502    0 -0.53276862075E+02 -0.37097960029E+03 -0.33068330800E+03  0.49981570411E+03  0.50400001928E-02 0. -1.
       -1    1    3    3    0  502  0.53276862075E+02  0.37097960029E+03 -0.26114518192E+04  0.26382086520E+04  0.50400001928E-02 0.  1.
</event>
<event>
 5   0  0.3748901E-03  0.1094124E+04  0.7818609E-02  0.9210938E-01
        2   -1    0    0  501    0  0.00000000000E+00  0.00000000000E+00  0.69005060020E+03  0.69005060021E+03  0.25500000920E-02 0.  1.
       -2   -1    0    0    0  501  0.00000000000E+00  0.00000000000E+00 -0.43370292153E+03  0.43370292154E+03  0.25500000920E-02 0. -1.
    10030    2    1    2    0    0  0.00000000000E+00  0.00000000000E+00  0.25634767867E+03  0.11237535217E+04  0.10941242367E+04 0.  0.
        5    1    3    3  502    0 -0.56101672636E+02 -0.52805656644E+03 -0.67758297530E+01  0.53109239959E+03  0.46999998093E+01 0.  1.
       -5    1    3    3    0  502  0.56101672636E+02  0.52805656644E+03  0.26312350842E+03  0.59266112216E+03  0.46999998093E+01 0. -1.
</event>
<event>
 5   0  0.2374100E-03  0.1092738E+04  0.7818609E-02  0.9212299E-01
        1   -1    0    0  501    0  0.00000000000E+00  0.00000000000E+00  0.64621195157E+03  0.64621195159E+03  0.50400001928E-02 0.  1.
       -1   -1    0    0    0  501  0.00000000000E+00  0.00000000000E+00 -0.46195223259E+03  0.46195223262E+03  0.50400001928E-02 0. -1.
    10030    2    1    2    0    0  0.00000000000E+00  0.00000000000E+00  0.18425971897E+03  0.11081641842E+04  0.10927379444E+04 0.  0.
        2    1    3    3  502    0 -0.75966494164E+02  0.53857458964E+03  0.14468379793E+03  0.56282048490E+03  0.25500000920E-02 0.  1.
       -2    1    3    3    0  502  0.75966494164E+02 -0.53857458964E+03  0.39575921039E+02  0.54534369930E+03  0.25500000920E-02 0. -1.
</event>
<event>
 5   0  0.2257667E-03  0.1173982E+04  0.7818609E-02  0.9135940E-01
        1   -1    0    0  501    0  0.00000000000E+00  0.00000000000E+00  0.23073575535E+04  0.23073575535E+04  0.50400001928E-02 0. -1.
       -1   -1    0    0    0  501  0.00000000000E+00  0.00000000000E+00 -0.14933036164E+03  0.14933036173E+03  0.50400001928E-02 0.  1.
    10030    2    1    2    0    0  0.00000000000E+00  0.00000000000E+00  0.21580271919E+04  0.24566879152E+04  0.11739821771E+04 0.  0.
        4    1    3    3  502    0 -0.58443444219E+03  0.15522993185E+02  0.11887978076E+04  0.13247816503E+04  0.12699999809E+01 0.  1.
       -4    1    3    3    0  502  0.58443444219E+03 -0.15522993185E+02  0.96922938423E+03  0.11319062650E+04  0.12699999809E+01 0. -1.
</event>
<event>
 5   0  0.3713158E-03  0.1130168E+04  0.7818609E-02  0.9176277E-01
        2   -1    0    0  501    0  0.00000000000E+00  0.00000000000E+00  0.71504903727E+03  0.71504903728E+03  0.25500000920E-02 0.  1.
       -2   -1    0    0    0  501  0.00000000000E+00  0.00000000000E+00 -0.44657035391E+03  0.44657035392E+03  0.25500000920E-02 0. -1.
    10030    2    1    2    0    0  0.00000000000E+00  0.00000000000E+00  0.26847868336E+03  0.11616193912E+04  0.11301676011E+04 0.  0.
        4    1    3    3  502    0 -0.81522115891E+02 -0.31768121267E+03 -0.33873067769E+03  0.47149474353E+03  0.12699999809E+01 0. -1.
       -4    1    3    3    0  502  0.81522115891E+02  0.31768121267E+03  0.60720936105E+03  0.69012464767E+03  0.12699999809E+01 0.  1.
</event>
<event>
 5   0  0.3962999E-03  0.1096428E+04  0.7818609E-02  0.9208680E-01
        2   -1    0    0  501    0  0.00000000000E+00  0.00000000000E+00  0.43151121260E+03  0.43151121261E+03  0.25500000920E-02 0. -1.
       -2   -1    0    0    0  501  0.00000000000E+00  0.00000000000E+00 -0.69647984781E+03  0.69647984782E+03  0.25500000920E-02 0.  1.
    10030    2    1    2    0    0  0.00000000000E+00  0.00000000000E+00 -0.26496863521E+03  0.11279910604E+04  0.10964284996E+04 0.  0.
        3    1    3    3  502    0 -0.51158184934E+03 -0.10910473246E+03  0.36308896502E+02  0.52434547522E+03  0.10100000352E+00 0. -1.
       -3    1    3    3    0  502  0.51158184934E+03  0.10910473246E+03 -0.30127753172E+03  0.60364558520E+03  0.10100000352E+00 0.  1.
</event>
<event>
 5   0  0.2298958E-03  0.1093712E+04  0.7818609E-02  0.9211342E-01
       -1   -1    0    0    0  501  0.00000000000E+00  0.00000000000E+00  0.20702936621E+03  0.20702936628E+03  0.50400001928E-02 0.  1.
        1   -1    0    0  501    0  0.00000000000E+00  0.00000000000E+00 -0.14444891961E+04  0.14444891961E+04  0.50400001928E-02 0. -1.
    10030    2    1    2    0    0  0.00000000000E+00  0.00000000000E+00 -0.12374598299E+04  0.16515185624E+04  0.10937123622E+04 0.  0.
        1    1    3    3  502    0 -0.37383226807E+03 -0.16976782157E+03 -0.11641766174E+04  0.12344548896E+04  0.50400001928E-02 0. -1.
       -1    1    3    3    0  502  0.37383226807E+03  0.16976782157E+03 -0.73283212461E+02  0.41706367277E+03  0.50400001928E-02 0.  1.
</event>
<event>
 5   0  0.2298958E-03  0.1108996E+04  0.7818609E-02  0.9196467E-01
        1   -1    0    0  501    0  0.00000000000E+00  0.00000000000E+00  0.99582891487E+03  0.99582891488E+03  0.50400001928E-02 0. -1.
       -1   -1    0    0    0  501  0.00000000000E+00  0.00000000000E+00 -0.30875608799E+03  0.30875608803E+03  0.50400001928E-02 0.  1.
    10030    2    1    2    0    0  0.00000000000E+00  0.00000000000E+00  0.68707282688E+03  0.13045850029E+04  0.11089963753E+04 0.  0.
        1    1    3    3  502    0  0.22692443497E+02 -0.36138541753E+03 -0.15047246709E+03  0.39211775065E+03  0.50400001928E-02 0.  1.
       -1    1    3    3    0  502 -0.22692443497E+02  0.36138541753E+03  0.83754529397E+03  0.91246725227E+03  0.50400001928E-02 0. -1.
</event>
<event>
 5   0  0.2374100E-03  0.1100614E+04  0.7818609E-02  0.9204594E-01
        1   -1    0    0  501    0  0.00000000000E+00  0.00000000000E+00  0.68990888749E+03  0.68990888751E+03  0.50400001928E-02 0. -1.
       -1   -1    0    0    0  501  0.00000000000E+00  0.00000000000E+00 -0.43895299409E+03  0.43895299412E+03  0.50400001928E-02 0.  1.
    10030    2    1    2    0    0  0.00000000000E+00  0.00000000000E+00  0.25095589341E+03  0.11288618816E+04  0.11006135958E+04 0.  0.
        2    1    3    3  502    0  0.36996955490E+03  0.38565319717E+03 -0.91608266321E+01  0.53449956108E+03  0.25500000920E-02 0.  1.
       -2    1    3    3    0  502 -0.36996955490E+03 -0.38565319717E+03  0.26011672004E+03  0.59436232055E+03  0.25500000920E-02 0. -1.
</event>
<event>
 5   0  0.2374100E-03  0.1102301E+04  0.7818609E-02  0.9202952E-01
       -1   -1    0    0    0  501  0.00000000000E+00  0.00000000000E+00  0.40019232109E+03  0.40019232112E+03  0.50400001928E-02 0.  1.
        1   -1    0    0  501    0  0.00000000000E+00  0.00000000000E+00 -0.75905269395E+03  0.75905269396E+03  0.50400001928E-02 0. -1.
    10030    2    1    2    0    0  0.00000000000E+00  0.00000000000E+00 -0.35886037286E+03  0.11592450151E+04  0.11023013371E+04 0.  0.
        2    1    3    3  502    0 -0.18435605878E+03  0.45400726497E+03 -0.44476793009E+03  0.66176148626E+03  0.25500000920E-02 0. -1.
       -2    1    3    3    0  502  0.18435605878E+03 -0.45400726497E+03  0.85907557235E+02  0.49748352882E+03  0.25500000920E-02 0.  1.
</event>
<event>
 5   0  0.3748901E-03  0.1093307E+04  0.7818609E-02  0.9211740E-01
        2   -1    0    0  501    0  0.00000000000E+00  0.00000000000E+00  0.55654530031E+03  0.55654530031E+03  0.25500000920E-02 0. -1.
       -2   -1    0    0    0  501  0.00000000000E+00  0.00000000000E+00 -0.53693794071E+03  0.53693794072E+03  0.25500000920E-02 0.  1.
    10030    2    1    2    0    0  0.00000000000E+00  0.00000000000E+00  0.19607359591E+02  0.10934832410E+04  0.10933074361E+04 0.  0.
        5    1    3    3  502    0  0.34353517126E+03  0.39235208244E+03 -0.15408733038E+03  0.54380287409E+03  0.46999998093E+01 0.  1.
       -5    1    3    3    0  502 -0.34353517126E+03 -0.39235208244E+03  0.17369468997E+03  0.54968036695E+03  0.46999998093E+01 0. -1.
</event>
<event>
 5   0  0.2300702E-03  0.1113564E+04  0.7818609E-02  0.9192072E-01
        1   -1    0    0  501    0  0.00000000000E+00  0.00000000000E+00  0.64658610796E+03  0.64658610798E+03  0.50400001928E-02 0.  1.
       -1   -1    0    0    0  501  0.00000000000E+00  0.00000000000E+00 -0.47945056547E+03  0.47945056549E+03  0.50400001928E-02 0. -1.
    10030    2    1    2    0    0  0.00000000000E+00  0.00000000000E+00  0.16713554250E+03  0.11260366735E+04  0.11135637837E+04 0.  0.
        5    1    3    3  502    0  0.98460780300E+02 -0.38784765206E+03 -0.30789061603E+03  0.50491489174E+03  0.46999998093E+01 0. -1.
       -5    1    3    3    0  502 -0.98460780300E+02  0.38784765206E+03  0.47502615852E+03  0.62112178174E+03  0.46999998093E+01 0.  1.
</event>
<event>
 5   0  0.2255788E-03  0.1094813E+04  0.7818609E-02  0.9210262E-01
       -1   -1    0    0    0  501  0.00000000000E+00  0.00000000000E+00  0.25169434513E+03  0.25169434518E+03  0.50400001928E-02 0. -1.
        1   -1    0    0  501    0  0.00000000000E+00  0.00000000000E+00 -0.11905474547E+04  0.11905474547E+04  0.50400001928E-02 0.  1.
    10030    2    1    2    0    0  0.00000000000E+00  0.00000000000E+00 -0.93885310953E+03  0.14422417998E+04  0.10948133393E+04 0.  0.
        3    1    3    3  502    0 -0.23217152853E+03 -0.90614739565E+02  0.17261897657E+03  0.30316987146E+03  0.10100000352E+00 0. -1.
       -3    1    3    3    0  502  0.23217152853E+03  0.90614739565E+02 -0.11114720861E+04  0.11390719284E+04  0.10100000352E+00 0.  1.
</event>
<event>
 5   0  0.2255788E-03  0.1101676E+04  0.7818609E-02  0.9203560E-01
       -1   -1    0    0    0  501  0.00000000000E+00  0.00000000000E+00  0.30032218026E+03  0.30032218030E+03  0.50400001928E-02 0.  1.
        1   -1    0    0  501    0  0.00000000000E+00  0.00000000000E+00 -0.10103235128E+04  0.10103235128E+04  0.50400001928E-02 0. -1.
    10030    2    1    2    0    0  0.00000000000E+00  0.00000000000E+00 -0.71000133251E+03  0.13106456931E+04  0.11016761051E+04 0.  0.
        3    1    3    3  502    0  0.49302443576E+02  0.30678325224E+03 -0.89611156086E+03  0.94845275818E+03  0.10100000352E+00 0. -1.
       -3    1    3    3    0  502 -0.49302443576E+02 -0.30678325224E+03  0.18611022835E+03  0.36219293490E+03  0.10100000352E+00 0.  1.
</event>
<event>
 5   0  0.2257667E-03  0.1097014E+04  0.7818609E-02  0.9208107E-01
        1   -1    0    0  501    0  0.00000000000E+00  0.00000000000E+00  0.56577930248E+03  0.56577930251E+03  0.50400001928E-02 0.  1.
       -1   -1    0    0    0  501  0.00000000000E+00  0.00000000000E+00 -0.53176195595E+03  0.53176195598E+03  0.50400001928E-02 0. -1.
    10030    2    1    2    0    0  0.00000000000E+00  0.00000000000E+00  0.34017346529E+02  0.10975412585E+04  0.10970139626E+04 0.  0.
        4    1    3    3  502    0 -0.15514856909E+03  0.47831312834E+03 -0.20219426225E+03  0.54197662295E+03  0.12699999809E+01 0. -1.
       -4    1    3    3    0  502  0.15514856909E+03 -0.47831312834E+03  0.23621160878E+03  0.55556463554E+03  0.12699999809E+01 0.  1.
</event>
<event>
 5   0  0.3744875E-03  0.1100651E+04  0.7818609E-02  0.9204557E-01
       -2   -1    0    0    0  501  0.00000000000E+00  0.00000000000E+00  0.48226928981E+03  0.48226928982E+03  0.25500000920E-02 0.  1.
        2   -1    0    0  501    0  0.00000000000E+00  0.00000000000E+00 -0.62798581767E+03  0.62798581767E+03  0.25500000920E-02 0. -1.
    10030    2    1    2    0    0  0.00000000000E+00  0.00000000000E+00 -0.14571652786E+03  0.11102551075E+04  0.11006512151E+04 0.  0.
        2    1    3    3  502    0 -0.11438558360E+03 -0.52119273631E+03  0.62973093065E+02  0.53730023318E+03  0.25500000920E-02 0.  1.
       -2    1    3    3    0  502  0.11438558360E+03  0.52119273631E+03 -0.20868962092E+03  0.57295487432E+03  0.25500000920E-02 0. -1.
</event>
<event>
 5   0  0.3992414E-03  0.1097232E+04  0.7818609E-02  0.9207894E-01
       -2   -1    0    0    0  501  0.00000000000E+00  0.00000000000E+00  0.19391932587E+03  0.19391932589E+03  0.25500000920E-02 0. -1.
        2   -1    0    0  501    0  0.00000000000E+00  0.00000000000E+00 -0.15520855205E+04  0.15520855205E+04  0.25500000920E-02 0.  1.
    10030    2    1    2    0    0  0.00000000000E+00  0.00000000000E+00 -0.13581661947E+04  0.17460048464E+04  0.10972317492E+04 0.  0.
        1    1    3    3  502    0 -0.25452660645E+03  0.28047909262E+03 -0.13106577140E+04  0.13642858784E+04  0.50400001928E-02 0.  1.
       -1    1    3    3    0  502  0.25452660645E+03 -0.28047909262E+03 -0.47508480688E+02  0.38171896802E+03  0.50400001928E-02 0. -1.
</event>
<event>
 5   0  0.2300702E-03  0.1098708E+04  0.7818609E-02  0.9206452E-01
        1   -1    0    0  501    0  0.00000000000E+00  0.00000000000E+00  0.62581693174E+03  0.62581693176E+03  0.50400001928E-02 0.  1.
       -1   -1    0    0    0  501  0.00000000000E+00  0.00000000000E+00 -0.48223373920E+03  0.48223373922E+03  0.50400001928E-02 0. -1.
    10030    2    1    2    0    0  0.00000000000E+00  0.00000000000E+00  0.14358319254E+03  0.11080506710E+04  0.10987084037E+04 0.  0.
        5    1    3    3  502    0 -0.28199381753E+03 -0.23323554900E+03 -0.34138532505E+03  0.50048512925E+03  0.46999998093E+01 0. -1.
       -5    1    3    3    0  502  0.28199381753E+03  0.23323554900E+03  0.48496851759E+03  0.60756554173E+03  0.46999998093E+01 0.  1.
</event>
<event>
 5   0  0.2374100E-03  0.1101012E+04  0.7818609E-02  0.9204206E-01
        1   -1    0    0  501    0  0.00000000000E+00  0.00000000000E+00  0.34080712834E+03  0.34080712838E+03  0.50400001928E-02 0. -1.
       -1   -1    0    0    0  501  0.00000000000E+00  0.00000000000E+00 -0.88923339072E+03  0.88923339074E+03  0.50400001928E-02 0.  1.
    10030    2    1    2    0    0  0.00000000000E+00  0.00000000000E+00 -0.54842626238E+03  0.12300405191E+04  0.11010124038E+04 0.  0.
        2    1    3    3  502    0  0.46745192065E+03  0.25468325459E+03 -0.43094750306E+03  0.68490189713E+03  0.25500000920E-02 0.  1.
       -2    1    3    3    0  502 -0.46745192065E+03 -0.25468325459E+03 -0.11747875932E+03  0.54513862199E+03  0.25500000920E-02 0. -1.
</event>
<event>
 5   0  0.2255788E-03  0.1102100E+04  0.7818609E-02  0.9203148E-01
        1   -1    0    0  501    0  0.00000000000E+00  0.00000000000E+00  0.13907004390E+04  0.13907004390E+04  0.50400001928E-02 0. -1.
       -1   -1    0    0    0  501  0.00000000000E+00  0.00000000000E+00 -0.21834740436E+03  0.21834740442E+03  0.50400001928E-02 0.  1.
    10030    2    1    2    0    0  0.00000000000E+00  0.00000000000E+00  0.11723530347E+04  0.16090478434E+04  0.11020995076E+04 0.  0.
        3    1    3    3  502    0  0.36238707539E+03  0.25690050689E+03  0.11009280641E+03  0.45764910037E+03  0.10100000352E+00 0.  1.
       -3    1    3    3    0  502 -0.36238707539E+03 -0.25690050689E+03  0.10622602282E+04  0.11513987431E+04  0.10100000352E+00 0. -1.
</event>
<event>
 5   0  0.3744875E-03  0.1088911E+04  0.7818609E-02  0.9216068E-01
        2   -1    0    0  501    0  0.00000000000E+00  0.00000000000E+00  0.23646213050E+04  0.23646213050E+04  0.25500000920E-02 0. -1.
       -2   -1    0    0    0  501  0.00000000000E+00  0.00000000000E+00 -0.12536124201E+03  0.12536124203E+03  0.25500000920E-02 0.  1.
    10030    2    1    2    0    0  0.00000000000E+00  0.00000000000E+00  0.22392600630E+04  0.24899825470E+04  0.10889111327E+04 0.  0.
        2    1    3    3  502    0  0.21405936969E+03 -0.20811517249E+03  0.21607528641E+04  0.21812808803E+04  0.25500000920E-02 0. -1.
       -2    1    3    3    0  502 -0.21405936969E+03  0.20811517249E+03  0.78507198836E+02  0.30870166674E+03  0.25500000920E-02 0.  1.
</event>
<event>
 5   0  0.3992414E-03  0.1052797E+04  0.7818609E-02  0.9252461E-01
       -2   -1    0    0    0  501  0.00000000000E+00  0.00000000000E+00  0.45670039689E+03  0.45670039690E+03  0.25500000920E-02 0.  1.
        2   -1    0    0  501    0  0.00000000000E+00  0.00000000000E+00 -0.60673334460E+03  0.60673334461E+03  0.25500000920E-02 0. -1.
    10030    2    1    2    0    0  0.00000000000E+00  0.00000000000E+00 -0.15003294771E+03  0.10634337415E+04  0.10527969591E+04 0.  0.
        1    1    3    3  502    0  0.28053851818E+03 -0.27103158140E+03 -0.43204961984E+03  0.58208835440E+03  0.50400001928E-02 0. -1.
       -1    1    3    3    0  502 -0.28053851818E+03  0.27103158140E+03  0.28201667212E+03  0.48134538710E+03  0.50400001928E-02 0.  1.
</event>
<event>
 5   0  0.2298958E-03  0.1099695E+04  0.7818609E-02  0.9205489E-01
        1   -1    0    0  501    0  0.00000000000E+00  0.00000000000E+00  0.11606668991E+04  0.11606668991E+04  0.50400001928E-02 0. -1.
       -1   -1    0    0    0  501  0.00000000000E+00  0.00000000000E+00 -0.26048163184E+03  0.26048163189E+03  0.50400001928E-02 0.  1.
    10030    2    1    2    0    0  0.00000000000E+00  0.00000000000E+00  0.90018526728E+03  0.14211485310E+04  0.10996952450E+04 0.  0.
        1    1    3    3  502    0 -0.31281526122E+03 -0.38098936003E+02 -0.13220435950E+03  0.34173514492E+03  0.50400001928E-02 0.  1.
       -1    1    3    3    0  502  0.31281526122E+03  0.38098936003E+02  0.10323896268E+04  0.10794133861E+04  0.50400001928E-02 0. -1.
</event>
<event>
 5   0  0.3744875E-03  0.1093346E+04  0.7818609E-02  0.9211702E-01
        2   -1    0    0  501    0  0.00000000000E+00  0.00000000000E+00  0.15066208675E+04  0.15066208675E+04  0.25500000920E-02 0.  1.
       -2   -1    0    0    0  501  0.00000000000E+00  0.00000000000E+00 -0.19835860364E+03  0.19835860365E+03  0.25500000920E-02 0. -1.
    10030    2    1    2    0    0  0.00000000000E+00  0.00000000000E+00  0.13082622638E+04  0.17049794711E+04  0.10933457120E+04 0.  0.
        2    1    3    3  502    0 -0.27074284813E+03  0.42030693017E+03  0.99894029659E+03  0.11170681812E+04  0.25500000920E-02 0.  1.
       -2    1    3    3    0  502  0.27074284813E+03 -0.42030693017E+03  0.30932196725E+03  0.58791128990E+03  0.25500000920E-02 0. -1.
</event>
<event>
 5   0  0.2374100E-03  0.1099735E+04  0.7818609E-02  0.9205450E-01
        1   -1    0    0  501    0  0.00000000000E+00  0.00000000000E+00  0.94845303962E+03  0.94845303963E+03  0.50400001928E-02 0. -1.
       -1   -1    0    0    0  501  0.00000000000E+00  0.00000000000E+00 -0.31878662999E+03  0.31878663003E+03  0.50400001928E-02 0.  1.
    10030    2    1    2    0    0  0.00000000000E+00  0.00000000000E+00  0.62966640963E+03  0.12672396697E+04  0.10997347830E+04 0.  0.
        2    1    3    3  502    0 -0.13463844516E+03  0.45734362896E+03 -0.87439517197E+00  0.47675095222E+03  0.25500000920E-02 0. -1.
       -2    1    3    3    0  502  0.13463844516E+03 -0.45734362896E+03  0.63054080480E+03  0.79048871744E+03  0.25500000920E-02 0.  1.
</event>
<event>
 5   0  0.1508625E-03  0.1083259E+04  0.7818609E-02  0.9221664E-01
       -3   -1    0    0    0  501  0.00000000000E+00  0.00000000000E+00  0.62021364620E+03  0.62021365442E+03  0.10100000352E+00 0. -1.
        3   -1    0    0  501    0  0.00000000000E+00  0.00000000000E+00 -0.47300235670E+03  0.47300236748E+03  0.10100000352E+00 0.  1.
    10030    2    1    2    0    0  0.00000000000E+00  0.00000000000E+00  0.14721128950E+03  0.10932160219E+04  0.10832590211E+04 0.  0.
        1    1    3    3  502    0  0.36361896104E+02 -0.30290670007E+03 -0.37804329787E+03  0.48578945184E+03  0.50400001928E-02 0.  1.
       -1    1    3    3    0  502 -0.36361896104E+02  0.30290670007E+03  0.52525458737E+03  0.60742657006E+03  0.50400001928E-02 0. -1.
</event>
<event>
 5   0  0.2255788E-03  0.1107634E+04  0.7818609E-02  0.9197783E-01
       -1   -1    0    0    0  501  0.00000000000E+00  0.00000000000E+00  0.81498035908E+03  0.81498035910E+03  0.50400001928E-02 0.  1.
        1   -1    0    0  501    0  0.00000000000E+00  0.00000000000E+00 -0.37634453326E+03  0.37634453329E+03  0.50400001928E-02 0. -1.
    10030    2    1    2    0    0  0.00000000000E+00  0.00000000000E+00  0.43863582583E+03  0.11913248924E+04  0.11076342409E+04 0.  0.
        3    1    3    3  502    0 -0.29435033019E+03  0.19365885320E+02  0.72345094437E+03  0.78127999686E+03  0.10100000352E+00 0.  1.
       -3    1    3    3    0  502  0.29435033019E+03 -0.19365885320E+02 -0.28481511854E+03  0.41004489552E+03  0.10100000352E+00 0. -1.
</event>
<event>
 5   0  0.3748901E-03  0.1112890E+04  0.7818609E-02  0.9192719E-01
        2   -1    0    0  501    0  0.00000000000E+00  0.00000000000E+00  0.31546470315E+03  0.31546470316E+03  0.25500000920E-02 0. -1.
       -2   -1    0    0    0  501  0.00000000000E+00  0.00000000000E+00 -0.98150801200E+03  0.98150801200E+03  0.25500000920E-02 0.  1.
    10030    2    1    2    0    0  0.00000000000E+00  0.00000000000E+00 -0.66604330885E+03  0.12969727152E+04  0.11128901719E+04 0.  0.
        5    1    3    3  502    0 -0.39800452578E+03  0.34256744700E+03 -0.11860853253E+03  0.53837731404E+03  0.46999998093E+01 0.  1.
       -5    1    3    3    0  502  0.39800452578E+03 -0.34256744700E+03 -0.54743477632E+03  0.75859540112E+03  0.46999998093E+01 0. -1.
</event>
<event>
 5   0  0.3744875E-03  0.1101010E+04  0.7818609E-02  0.9204208E-01
       -2   -1    0    0    0  501  0.00000000000E+00  0.00000000000E+00  0.16400048704E+03  0.16400048706E+03  0.25500000920E-02 0.  1.
        2   -1    0    0  501    0  0.00000000000E+00  0.00000000000E+00 -0.18478944702E+04  0.18478944702E+04  0.25500000920E-02 0. -1.
    10030    2    1    2    0    0  0.00000000000E+00  0.00000000000E+00 -0.16838939831E+04  0.20118949572E+04  0.11010097059E+04 0.  0.
        2    1    3    3  502    0 -0.17416382687E+03  0.22998221214E+03  0.14811390802E+02  0.28886715597E+03  0.25500000920E-02 0.  1.
       -2    1    3    3    0  502  0.17416382687E+03 -0.22998221214E+03 -0.16987053739E+04  0.17230278012E+04  0.25500000920E-02 0. -1.
</event>
<event>
 5   0  0.2300702E-03  0.1093350E+04  0.7818609E-02  0.9211698E-01
       -1   -1    0    0    0  501  0.00000000000E+00  0.00000000000E+00  0.45688747984E+03  0.45688747987E+03  0.50400001928E-02 0.  1.
        1   -1    0    0  501    0  0.00000000000E+00  0.00000000000E+00 -0.65410749344E+03  0.65410749346E+03  0.50400001928E-02 0. -1.
    10030    2    1    2    0    0  0.00000000000E+00  0.00000000000E+00 -0.19722001360E+03  0.11109949733E+04  0.10933499426E+04 0.  0.
        5    1    3    3  502    0  0.50451182070E+03 -0.20971936049E+03 -0.11670317571E+03  0.55870932390E+03  0.46999998093E+01 0. -1.
       -5    1    3    3    0  502 -0.50451182070E+03  0.20971936049E+03 -0.80516837894E+02  0.55228564943E+03  0.46999998093E+01 0.  1.
</event>
<event>
 5   0  0.2300702E-03  0.1103434E+04  0.7818609E-02  0.9201852E-01
       -1   -1    0    0    0  501  0.00000000000E+00  0.00000000000E+00  0.28647230489E+03  0.28647230493E+03  0.50400001928E-02 0. -1.
        1   -1    0    0  501    0  0.00000000000E+00  0.00000000000E+00 -0.10625512528E+04  0.10625512528E+04  0.50400001928E-02 0.  1.
    10030    2    1    2    0    0  0.00000000000E+00  0.00000000000E+00 -0.77607894795E+03  0.13490235578E+04  0.11034337434E+04 0.  0.
        5    1    3    3  502    0  0.44741672670E+03 -0.22078049430E+03 -0.10016760416E+03  0.50890214473E+03  0.46999998093E+01 0. -1.
       -5    1    3    3    0  502 -0.44741672670E+03  0.22078049430E+03 -0.67591134379E+03  0.84012141304E+03  0.46999998093E+01 0.  1.
</event>
<event>
 5   0  0.2374100E-03  0.1073196E+04  0.7818609E-02  0.9231718E-01
        1   -1    0    0  501    0  0.00000000000E+00  0.00000000000E+00  0.74159647344E+03  0.74159647346E+03  0.50400001928E-02 0.  1.
       -1   -1    0    0    0  501  0.00000000000E+00  0.00000000000E+00 -0.38826676362E+03  0.38826676365E+03  0.50400001928E-02 0. -1.
    10030    2    1    2    0    0  0.00000000000E+00  0.00000000000E+00  0.35332970982E+03  0.11298632371E+04  0.10731957187E+04 0.  0.
        2    1    3    3  502    0 -0.46100143172E+03  0.33346606417E+02  0.46364375354E+03  0.65467537483E+03  0.25500000920E-02 0.  1.
       -2    1    3    3    0  502  0.46100143172E+03 -0.33346606417E+02 -0.11031404372E+03  0.47518786228E+03  0.25500000920E-02 0. -1.
</event>
<event>
 5   0  0.2298958E-03  0.1106068E+04  0.7818609E-02  0.9199298E-01
        1   -1    0    0  501    0  0.00000000000E+00  0.00000000000E+00  0.66025058843E+03  0.66025058845E+03  0.50400001928E-02 0. -1.
       -1   -1    0    0    0  501  0.00000000000E+00  0.00000000000E+00 -0.46322807521E+03  0.46322807524E+03  0.50400001928E-02 0.  1.
    10030    2    1    2    0    0  0.00000000000E+00  0.00000000000E+00  0.19702251322E+03  0.11234786637E+04  0.11060680074E+04 0.  0.
        1    1    3    3  502    0  0.35014427917E+03  0.36709286954E+03  0.32217830486E+03  0.60096343587E+03  0.50400001928E-02 0. -1.
       -1    1    3    3    0  502 -0.35014427917E+03 -0.36709286954E+03 -0.12515579164E+03  0.52251522782E+03  0.50400001928E-02 0.  1.
</event>
<event>
 5   0  0.3744875E-03  0.1107342E+04  0.7818609E-02  0.9198065E-01
       -2   -1    0    0    0  501  0.00000000000E+00  0.00000000000E+00  0.40617229658E+03  0.40617229659E+03  0.25500000920E-02 0.  1.
        2   -1    0    0  501    0  0.00000000000E+00  0.00000000000E+00 -0.75473319715E+03  0.75473319715E+03  0.25500000920E-02 0. -1.
    10030    2    1    2    0    0  0.00000000000E+00  0.00000000000E+00 -0.34856090056E+03  0.11609054937E+04  0.11073422524E+04 0.  0.
        2    1    3    3  502    0 -0.35592574349E+03  0.41738695993E+03 -0.25312956637E+03  0.60412712783E+03  0.25500000920E-02 0. -1.
       -2    1    3    3    0  502  0.35592574349E+03 -0.41738695993E+03 -0.95431334191E+02  0.55677836591E+03  0.25500000920E-02 0.  1.
</event>
<event>
 5   0  0.2298958E-03  0.1170673E+04  0.7818609E-02  0.9138921E-01
       -1   -1    0    0    0  501  0.00000000000E+00  0.00000000000E+00  0.44202048975E+03  0.44202048978E+03  0.50400001928E-02 0.  1.
        1   -1    0    0  501    0  0.00000000000E+00  0.00000000000E+00 -0.77511918580E+03  0.77511918582E+03  0.50400001928E-02 0. -1.
    10030    2    1    2    0    0  0.00000000000E+00  0.00000000000E+00 -0.33309869604E+03  0.12171396756E+04  0.11706725625E+04 0.  0.
        1    1    3    3  502    0  0.35200924756E+03  0.42345046474E+03 -0.37291657148E+03  0.66504704778E+03  0.50400001928E-02 0. -1.
       -1    1    3    3    0  502 -0.35200924756E+03 -0.42345046474E+03  0.39817875437E+02  0.55209262781E+03  0.50400001928E-02 0.  1.
</event>
<event>
 5   0  0.3748901E-03  0.1109597E+04  0.7818609E-02  0.9195888E-01
       -2   -1    0    0    0  501  0.00000000000E+00  0.00000000000E+00  0.10106323305E+04  0.10106323305E+04  0.25500000920E-02 0.  1.
        2   -1    0    0  501    0  0.00000000000E+00  0.00000000000E+00 -0.30456322578E+03  0.30456322579E+03  0.25500000920E-02 0. -1.
    10030    2    1    2    0    0  0.00000000000E+00  0.00000000000E+00  0.70606910476E+03  0.13151955563E+04  0.11095971209E+04 0.  0.
        5    1    3    3  502    0  0.30660382207E+03  0.92317271932E+02 -0.18395720693E+03  0.36931115118E+03  0.46999998093E+01 0. -1.
       -5    1    3    3    0  502 -0.30660382207E+03 -0.92317271932E+02  0.89002631169E+03  0.94588440515E+03  0.46999998093E+01 0.  1.
</event>
<event>
 5   0  0.2255788E-03  0.1098802E+04  0.7818609E-02  0.9206360E-01
       -1   -1    0    0    0  501  0.00000000000E+00  0.00000000000E+00  0.10214349452E+04  0.10214349452E+04  0.50400001928E-02 0. -1.
        1   -1    0    0  501    0  0.00000000000E+00  0.00000000000E+00 -0.29550727724E+03  0.29550727728E+03  0.50400001928E-02 0.  1.
    10030    2    1    2    0    0  0.00000000000E+00  0.00000000000E+00  0.72592766795E+03  0.13169422225E+04  0.10988020014E+04 0.  0.
        3    1    3    3  502    0  0.22772679469E+02  0.36281937195E+03 -0.13074278802E+03  0.38632910635E+03  0.10100000352E+00 0.  1.
       -3    1    3    3    0  502 -0.22772679469E+02 -0.36281937195E+03  0.85667045597E+03  0.93061311614E+03  0.10100000352E+00 0. -1.
</event>
<event>
 5   0  0.2300702E-03  0.1087826E+04  0.7818609E-02  0.9217139E-01
        1   -1    0    0  501    0  0.00000000000E+00  0.00000000000E+00  0.64777338378E+03  0.64777338380E+03  0.50400001928E-02 0. -1.
       -1   -1    0    0    0  501  0.00000000000E+00  0.00000000000E+00 -0.45670519020E+03  0.45670519023E+03  0.50400001928E-02 0.  1.
    10030    2    1    2    0    0  0.00000000000E+00  0.00000000000E+00  0.19106819358E+03  0.11044785740E+04  0.10878262113E+04 0.  0.
        5    1    3    3  502    0 -0.50458178573E+03 -0.73905482390E+02 -0.96449269546E+02  0.51902731182E+03  0.46999998093E+01 0. -1.
       -5    1    3    3    0  502  0.50458178573E+03  0.73905482390E+02  0.28751746313E+03  0.58545126221E+03  0.46999998093E+01 0.  1.
</event>
<event>
 5   0  0.2300702E-03  0.1113966E+04  0.7818609E-02  0.9191685E-01
        1   -1    0    0  501    0  0.00000000000E+00  0.00000000000E+00  0.60314976507E+03  0.60314976510E+03  0.50400001928E-02 0.  1.
       -1   -1    0    0    0  501  0.00000000000E+00  0.00000000000E+00 -0.51435036049E+03  0.51435036052E+03  0.50400001928E-02 0. -1.
    10030    2    1    2    0    0  0.00000000000E+00  0.00000000000E+00  0.88799404581E+02  0.11175001256E+04  0.11139664252E+04 0.  0.
        5    1    3    3  502    0 -0.40438053122E+03 -0.10867240491E+03  0.41281788217E+03  0.58802550919E+03  0.46999998093E+01 0.  1.
       -5    1    3    3    0  502  0.40438053122E+03  0.10867240491E+03 -0.32401847759E+03  0.52947461642E+03  0.46999998093E+01 0. -1.
</event>
<event>
 5   0  0.3744875E-03  0.1114655E+04  0.7818609E-02  0.9191024E-01
        2   -1    0    0  501    0  0.00000000000E+00  0.00000000000E+00  0.12371319844E+04  0.12371319844E+04  0.25500000920E-02 0.  1.
       -2   -1    0    0    0  501  0.00000000000E+00  0.00000000000E+00 -0.25107598471E+03  0.25107598472E+03  0.25500000920E-02 0. -1.
    10030    2    1    2    0    0  0.00000000000E+00  0.00000000000E+00  0.98605599972E+03  0.14882079692E+04  0.11146553390E+04 0.  0.
        2    1    3    3  502    0 -0.97316213112E+02  0.41079873728E+03  0.72392281264E+01  0.42223033325E+03  0.25500000920E-02 0. -1.
       -2    1    3    3    0  502  0.97316213112E+02 -0.41079873728E+03  0.97881677159E+03  0.10659776359E+04  0.25500000920E-02 0.  1.
</event>
<event>
 5   0  0.2300702E-03  0.1098248E+04  0.7818609E-02  0.9206901E-01
        1   -1    0    0  501    0  0.00000000000E+00  0.00000000000E+00  0.72047180312E+03  0.72047180313E+03  0.50400001928E-02 0.  1.
       -1   -1    0    0    0  501  0.00000000000E+00  0.00000000000E+00 -0.41852723802E+03  0.41852723805E+03  0.50400001928E-02 0. -1.
    10030    2    1    2    0    0  0.00000000000E+00  0.00000000000E+00  0.30194456510E+03  0.11389990412E+04  0.10982478297E+04 0.  0.
        5    1    3    3  502    0  0.52975227810E+03  0.13220348816E+03  0.21144315075E+03  0.58553013110E+03  0.46999998093E+01 0. -1.
       -5    1    3    3    0  502 -0.52975227810E+03 -0.13220348816E+03  0.90501414349E+02  0.55346891008E+03  0.46999998093E+01 0.  1.
</event>
<event>
 5   0  0.2298958E-03  0.1098810E+04  0.7818609E-02  0.9206353E-01
       -1   -1    0    0    0  501  0.00000000000E+00  0.00000000000E+00  0.46935747778E+03  0.46935747780E+03  0.50400001928E-02 0.  1.
        1   -1    0    0  501    0  0.00000000000E+00  0.00000000000E+00 -0.64310419384E+03  0.64310419386E+03  0.50400001928E-02 0. -1.
    10030    2    1    2    0    0  0.00000000000E+00  0.00000000000E+00 -0.17374671606E+03  0.11124616717E+04  0.10988098332E+04 0.  0.
        1    1    3    3  502    0  0.26866381880E+03 -0.89836713333E+02 -0.56346056485E+03  0.63066527633E+03  0.50400001928E-02 0. -1.
       -1    1    3    3    0  502 -0.26866381880E+03  0.89836713333E+02  0.38971384879E+03  0.48179639534E+03  0.50400001928E-02 0.  1.
</event>
<event>
 5   0  0.3744875E-03  0.1003281E+04  0.7818609E-02  0.9304953E-01
       -2   -1    0    0    0  501  0.00000000000E+00  0.00000000000E+00  0.63066919787E+03  0.63066919788E+03  0.25500000920E-02 0.  1.
        2   -1    0    0  501    0  0.00000000000E+00  0.00000000000E+00 -0.39901010447E+03  0.39901010447E+03  0.25500000920E-02 0. -1.
    10030    2    1    2    0    0  0.00000000000E+00  0.00000000000E+00  0.23165909340E+03  0.10296793024E+04  0.10032813813E+04 0.  0.
        2    1    3    3  502    0  0.31086960942E+03  0.20089711030E+02 -0.28770785677E+03  0.42405108348E+03  0.25500000920E-02 0. -1.
       -2    1    3    3    0  502 -0.31086960942E+03 -0.20089711030E+02  0.51936695017E+03  0.60562821887E+03  0.25500000920E-02 0.  1.
</event>
<event>
 5   0  0.1508625E-03  0.1101563E+04  0.7818609E-02  0.9203670E-01
        4   -1    0    0  501    0  0.00000000000E+00  0.00000000000E+00  0.76860050866E+03  0.76860155791E+03  0.12699999809E+01 0.  1.
       -4   -1    0    0    0  501  0.00000000000E+00  0.00000000000E+00 -0.39468927684E+03  0.39469132009E+03  0.12699999809E+01 0. -1.
    10030    2    1    2    0    0  0.00000000000E+00  0.00000000000E+00  0.37391123182E+03  0.11632928780E+04  0.11015628492E+04 0.  0.
        1    1    3    3  502    0 -0.21904086505E+03  0.46313492001E+03  0.40049310262E+03  0.65028269235E+03  0.50400001928E-02 0. -1.
       -1    1    3    3    0  502  0.21904086505E+03 -0.46313492001E+03 -0.26581870801E+02  0.51301018565E+03  0.50400001928E-02 0.  1.
</event>
<event>
 5   0  0.2374100E-03  0.1103827E+04  0.7818609E-02  0.9201470E-01
       -1   -1    0    0    0  501  0.00000000000E+00  0.00000000000E+00  0.26243274383E+03  0.26243274388E+03  0.50400001928E-02 0. -1.
        1   -1    0    0  501    0  0.00000000000E+00  0.00000000000E+00 -0.11607107118E+04  0.11607107118E+04  0.50400001928E-02 0.  1.
    10030    2    1    2    0    0  0.00000000000E+00  0.00000000000E+00 -0.89827796793E+03  0.14231434556E+04  0.11038269736E+04 0.  0.
        2    1    3    3  502    0  0.16772307399E+03 -0.43125463193E+03 -0.61288308296E+02  0.46676315605E+03  0.25500000920E-02 0. -1.
       -2    1    3    3    0  502 -0.16772307399E+03  0.43125463193E+03 -0.83698965963E+03  0.95638029959E+03  0.25500000920E-02 0.  1.
</event>
<event>
 5   0  0.2257667E-03  0.1076235E+04  0.7818609E-02  0.9228670E-01
       -1   -1    0    0    0  501  0.00000000000E+00  0.00000000000E+00  0.28190009786E+03  0.28190009791E+03  0.50400001928E-02 0.  1.
        1   -1    0    0  501    0  0.00000000000E+00  0.00000000000E+00 -0.10272091222E+04  0.10272091222E+04  0.50400001928E-02 0. -1.
    10030    2    1    2    0    0  0.00000000000E+00  0.00000000000E+00 -0.74530902431E+03  0.13091092201E+04  0.10762348296E+04 0.  0.
        4    1    3    3  502    0  0.19136661899E+03 -0.26607249731E+03  0.14648846358E+03  0.35899336979E+03  0.12699999809E+01 0.  1.
       -4    1    3    3    0  502 -0.19136661899E+03  0.26607249731E+03 -0.89179748789E+03  0.95011585030E+03  0.12699999809E+01 0. -1.
</event>
<event>
 5   0  0.2257667E-03  0.1089729E+04  0.7818609E-02  0.9215261E-01
       -1   -1    0    0    0  501  0.00000000000E+00  0.00000000000E+00  0.10549062016E+04  0.10549062016E+04  0.50400001928E-02 0. -1.
        1   -1    0    0  501    0  0.00000000000E+00  0.00000000000E+00 -0.28142535247E+03  0.28142535252E+03  0.50400001928E-02 0.  1.
    10030    2    1    2    0    0  0.00000000000E+00  0.00000000000E+00  0.77348084913E+03  0.13363315541E+04  0.10897290483E+04 0.  0.
        4    1    3    3  502    0 -0.42287579656E+03 -0.31810822491E+03  0.22751551270E+03  0.57600495093E+03  0.12699999809E+01 0. -1.
       -4    1    3    3    0  502  0.42287579656E+03  0.31810822491E+03  0.54596533643E+03  0.76032660321E+03  0.12699999809E+01 0.  1.
</event>
<event>
 5   0  0.2300702E-03  0.1098491E+04  0.7818609E-02  0.9206664E-01
       -1   -1    0    0    0  501  0.00000000000E+00  0.00000000000E+00  0.41278898847E+03  0.41278898850E+03  0.50400001928E-02 0. -1.
        1   -1    0    0  501    0  0.00000000000E+00  0.00000000000E+00 -0.73081010344E+03  0.73081010346E+03  0.50400001928E-02 0.  1.
    10030    2    1    2    0    0  0.00000000000E+00  0.00000000000E+00 -0.31802111497E+03  0.11435990920E+04  0.10984905341E+04 0.  0.
        5    1    3    3  502    0  0.39513004869E+03 -0.38145885092E+03 -0.16224675590E+03  0.57269949373E+03  0.46999998093E+01 0. -1.
       -5    1    3    3    0  502 -0.39513004869E+03  0.38145885092E+03 -0.15577435907E+03  0.57089959823E+03  0.46999998093E+01 0.  1.
</event>
<event>
 5   0  0.2255788E-03  0.1089621E+04  0.7818609E-02  0.9215367E-01
        1   -1    0    0  501    0  0.00000000000E+00  0.00000000000E+00  0.31004170269E+03  0.31004170273E+03  0.50400001928E-02 0.  1.
       -1   -1    0    0    0  501  0.00000000000E+00  0.00000000000E+00 -0.95734999284E+03  0.95734999285E+03  0.50400001928E-02 0. -1.
    10030    2    1    2    0    0  0.00000000000E+00  0.00000000000E+00 -0.64730829015E+03  0.12673916956E+04  0.10896208917E+04 0.  0.
        3    1    3    3  502    0 -0.20315814548E+03  0.84577354852E+02 -0.90335522208E+03  0.92977267571E+03  0.10100000352E+00 0. -1.
       -3    1    3    3    0  502  0.20315814548E+03 -0.84577354852E+02  0.25604693194E+03  0.33761901988E+03  0.10100000352E+00 0.  1.
</event>
<event>
 5   0  0.3748901E-03  0.1100325E+04  0.7818609E-02  0.9204876E-01
        2   -1    0    0  501    0  0.00000000000E+00  0.00000000000E+00  0.72552455474E+03  0.72552455474E+03  0.25500000920E-02 0. -1.
       -2   -1    0    0    0  501  0.00000000000E+00  0.00000000000E+00 -0.41718575842E+03  0.41718575843E+03  0.25500000920E-02 0.  1.
    10030    2    1    2    0    0  0.00000000000E+00  0.00000000000E+00  0.30833879632E+03  0.11427103132E+04  0.11003245187E+04 0.  0.
        5    1    3    3  502    0 -0.19313495005E+03  0.47829623090E+03  0.35281770105E+03  0.62495664937E+03  0.46999998093E+01 0. -1.
       -5    1    3    3    0  502  0.19313495005E+03 -0.47829623090E+03 -0.44478904732E+02  0.51775366380E+03  0.46999998093E+01 0.  1.
</event>
<event>
 5   0  0.2300702E-03  0.1101434E+04  0.7818609E-02  0.9203795E-01
        1   -1    0    0  501    0  0.00000000000E+00  0.00000000000E+00  0.15742278937E+04  0.15742278937E+04  0.50400001928E-02 0.  1.
       -1   -1    0    0    0  501  0.00000000000E+00  0.00000000000E+00 -0.19265909982E+03  0.19265909988E+03  0.50400001928E-02 0. -1.
    10030    2    1    2    0    0  0.00000000000E+00  0.00000000000E+00  0.13815687939E+04  0.17668869936E+04  0.11014342086E+04 0.  0.
        5    1    3    3  502    0  0.46003444745E+03  0.11745870743E+03  0.24322690450E+03  0.53348819843E+03  0.46999998093E+01 0. -1.
       -5    1    3    3    0  502 -0.46003444745E+03 -0.11745870743E+03  0.11383418894E+04  0.12333987951E+04  0.46999998093E+01 0.  1.
</event>
<event>
 5   0  0.3713158E-03  0.1104857E+04  0.7818609E-02  0.9200471E-01
       -2   -1    0    0    0  501  0.00000000000E+00  0.00000000000E+00  0.96994929092E+03  0.96994929092E+03  0.25500000920E-02 0.  1.
        2   -1    0    0  501    0  0.00000000000E+00  0.00000000000E+00 -0.31463206136E+03  0.31463206137E+03  0.25500000920E-02 0. -1.
    10030    2    1    2    0    0  0.00000000000E+00  0.00000000000E+00  0.65531722956E+03  0.12845813523E+04  0.11048568139E+04 0.  0.
        4    1    3    3  502    0 -0.25259858017E+03 -0.49036258755E+03  0.29250791894E+03  0.62435887558E+03  0.12699999809E+01 0. -1.
       -4    1    3    3    0  502  0.25259858017E+03  0.49036258755E+03  0.36280931062E+03  0.66022247671E+03  0.12699999809E+01 0.  1.
</event>
<event>
 5   0  0.2255788E-03  0.1082049E+04  0.7818609E-02  0.9222867E-01
        1   -1    0    0  501    0  0.00000000000E+00  0.00000000000E+00  0.66190318877E+03  0.66190318879E+03  0.50400001928E-02 0.  1.
       -1   -1    0    0    0  501  0.00000000000E+00  0.00000000000E+00 -0.44222063381E+03  0.44222063384E+03  0.50400001928E-02 0. -1.
    10030    2    1    2    0    0  0.00000000000E+00  0.00000000000E+00  0.21968255496E+03  0.11041238226E+04  0.10820485159E+04 0.  0.
        3    1    3    3  502    0 -0.13204062508E+03 -0.21379698424E+03  0.59874386221E+03  0.64933666143E+03  0.10100000352E+00 0.  1.
       -3    1    3    3    0  502  0.13204062508E+03  0.21379698424E+03 -0.37906130725E+03  0.45478716120E+03  0.10100000352E+00 0. -1.
</event>
<event>
 5   0  0.2374100E-03  0.1073063E+04  0.7818609E-02  0.9231852E-01
       -1   -1    0    0    0  501  0.00000000000E+00  0.00000000000E+00  0.40530342173E+03  0.40530342176E+03  0.50400001928E-02 0. -1.
        1   -1    0    0  501    0  0.00000000000E+00  0.00000000000E+00 -0.71024788136E+03  0.71024788138E+03  0.50400001928E-02 0.  1.
    10030    2    1    2    0    0  0.00000000000E+00  0.00000000000E+00 -0.30494445964E+03  0.11155513031E+04  0.10730627132E+04 0.  0.
        2    1    3    3  502    0 -0.22631387067E+03  0.38151003385E+03  0.16130318959E+03  0.47200274677E+03  0.25500000920E-02 0.  1.
       -2    1    3    3    0  502  0.22631387067E+03 -0.38151003385E+03 -0.46624764923E+03  0.64354855636E+03  0.25500000920E-02 0. -1.
</event>
<event>
 5   0  0.1508625E-03  0.1091987E+04  0.7818609E-02  0.9213037E-01
       -3   -1    0    0    0  501  0.00000000000E+00  0.00000000000E+00  0.12298272937E+04  0.12298272979E+04  0.10100000352E+00 0. -1.
        3   -1    0    0  501    0  0.00000000000E+00  0.00000000000E+00 -0.24239898454E+03  0.24239900559E+03  0.10100000352E+00 0.  1.
    10030    2    1    2    0    0  0.00000000000E+00  0.00000000000E+00  0.98742830917E+03  0.14722263034E+04  0.10919870067E+04 0.  0.
        1    1    3    3  502    0  0.20094045116E+03 -0.50433230530E+03  0.41532342689E+03  0.68353616439E+03  0.50400001928E-02 0. -1.
       -1    1    3    3    0  502 -0.20094045116E+03  0.50433230530E+03  0.57210488228E+03  0.78869013906E+03  0.50400001928E-02 0.  1.
</event>
<event>
 5   0  0.3992414E-03  0.1104883E+04  0.7818609E-02  0.9200445E-01
        2   -1    0    0  501    0  0.00000000000E+00  0.00000000000E+00  0.86739841726E+03  0.86739841727E+03  0.25500000920E-02 0. -1.
       -2   -1    0    0    0  501  0.00000000000E+00  0.00000000000E+00 -0.35184733867E+03  0.35184733868E+03  0.25500000920E-02 0.  1.
    10030    2    1    2    0    0  0.00000000000E+00  0.00000000000E+00  0.51555107859E+03  0.12192457559E+04  0.11048833869E+04 0.  0.
        1    1    3    3  502    0  0.23987229940E+03 -0.35758846185E+03  0.63969649064E+03  0.77111596289E+03  0.50400001928E-02 0. -1.
       -1    1    3    3    0  502 -0.23987229940E+03  0.35758846185E+03 -0.12414541204E+03  0.44812979306E+03  0.50400001928E-02 0.  1.
</event>
<event>
 5   0  0.3962999E-03  0.1106285E+04  0.7818609E-02  0.9199088E-01
       -2   -1    0    0    0  501  0.00000000000E+00  0.00000000000E+00  0.24162215440E+03  0.24162215441E+03  0.25500000920E-02 0.  1.
        2   -1    0    0  501    0  0.00000000000E+00  0.00000000000E+00 -0.12663017600E+04  0.12663017600E+04  0.25500000920E-02 0. -1.
    10030    2    1    2    0    0  0.00000000000E+00  0.00000000000E+00 -0.10246796056E+04  0.15079239145E+04  0.11062848808E+04 0.  0.
        3    1    3    3  502    0  0.13867330039E+03 -0.25797411006E+03  0.12725795318E+03  0.31933606522E+03  0.10100000352E+00 0.  1.
       -3    1    3    3    0  502 -0.13867330039E+03  0.25797411006E+03 -0.11519375588E+04  0.11885878492E+04  0.10100000352E+00 0. -1.
</event>
<event>
 5   0  0.3992414E-03  0.1087016E+04  0.7818609E-02  0.9217940E-01
        2   -1    0    0  501    0  0.00000000000E+00  0.00000000000E+00  0.85758907648E+03  0.85758907649E+03  0.25500000920E-02 0. -1.
       -2   -1    0    0    0  501  0.00000000000E+00  0.00000000000E+00 -0.34445495699E+03  0.34445495699E+03  0.25500000920E-02 0.  1.
    10030    2    1    2    0    0  0.00000000000E+00  0.00000000000E+00  0.51313411950E+03  0.12020440335E+04  0.10870157468E+04 0.  0.
        1    1    3    3  502    0  0.35419773400E+03 -0.27117980780E+03  0.59991719014E+03  0.74759290926E+03  0.50400001928E-02 0. -1.
       -1    1    3    3    0  502 -0.35419773400E+03  0.27117980780E+03 -0.86783070644E+02  0.45445112422E+03  0.50400001928E-02 0.  1.
</event>
<event>
 5   0  0.3962999E-03  0.1143002E+04  0.7818609E-02  0.9164264E-01
        2   -1    0    0  501    0  0.00000000000E+00  0.00000000000E+00  0.76306109519E+03  0.76306109520E+03  0.25500000920E-02 0.  1.
       -2   -1    0    0    0  501  0.00000000000E+00  0.00000000000E+00 -0.42803036516E+03  0.42803036516E+03  0.25500000920E-02 0. -1.
    10030    2    1    2    0    0  0.00000000000E+00  0.00000000000E+00  0.33503073004E+03  0.11910914604E+04  0.11430018709E+04 0.  0.
        3    1    3    3  502    0  0.36771359017E+03 -0.65957310373E+02 -0.28317329292E+03  0.46877582618E+03  0.10100000352E+00 0. -1.
       -3    1    3    3    0  502 -0.36771359017E+03  0.65957310373E+02  0.61820402295E+03  0.72231563418E+03  0.10100000352E+00 0.  1.
</event>
<event>
 5   0  0.3744875E-03  0.1100676E+04  0.7818609E-02  0.9204533E-01
        2   -1    0    0  501    0  0.00000000000E+00  0.00000000000E+00  0.70997807044E+03  0.70997807045E+03  0.25500000920E-02 0.  1.
       -2   -1    0    0    0  501  0.00000000000E+00  0.00000000000E+00 -0.42659361801E+03  0.42659361801E+03  0.25500000920E-02 0. -1.
    10030    2    1    2    0    0  0.00000000000E+00  0.00000000000E+00  0.28338445244E+03  0.11365716885E+04  0.11006763626E+04 0.  0.
        2    1    3    3  502    0  0.12691685768E+03 -0.35916824708E+03  0.55183865985E+03  0.67054874915E+03  0.25500000920E-02 0.  1.
       -2    1    3    3    0  502 -0.12691685768E+03  0.35916824708E+03 -0.26845420742E+03  0.46602293931E+03  0.25500000920E-02 0. -1.
</event>
<event>
 5   0  0.3992414E-03  0.1084939E+04  0.7818609E-02  0.9219997E-01
       -2   -1    0    0    0  501  0.00000000000E+00  0.00000000000E+00  0.50247875883E+03  0.50247875884E+03  0.25500000920E-02 0.  1.
        2   -1    0    0  501    0  0.00000000000E+00  0.00000000000E+00 -0.58564340798E+03  0.58564340798E+03  0.25500000920E-02 0. -1.
    10030    2    1    2    0    0  0.00000000000E+00  0.00000000000E+00 -0.83164649146E+02  0.10881221668E+04  0.10849393951E+04 0.  0.
        1    1    3    3  502    0 -0.50462440748E+03 -0.12986585839E+03  0.10973253371E+03  0.53249616222E+03  0.50400001928E-02 0.  1.
       -1    1    3    3    0  502  0.50462440748E+03  0.12986585839E+03 -0.19289718285E+03  0.55562600460E+03  0.50400001928E-02 0. -1.
</event>
<event>
 5   0  0.2300702E-03  0.1136676E+04  0.7818609E-02  0.9170164E-01
       -1   -1    0    0    0  501  0.00000000000E+00  0.00000000000E+00  0.11605696071E+03  0.11605696082E+03  0.50400001928E-02 0.  1.
        1   -1    0    0  501    0  0.00000000000E+00  0.00000000000E+00 -0.27831860648E+04  0.27831860648E+04  0.50400001928E-02 0. -1.
    10030    2    1    2    0    0  0.00000000000E+00  0.00000000000E+00 -0.26671291041E+04  0.28992430256E+04  0.11366760593E+04 0.  0.
        5    1    3    3  502    0  0.13553211170E+03  0.39562034090E+03 -0.35197978406E+03  0.54662259908E+03  0.46999998093E+01 0.  1.
       -5    1    3    3    0  502 -0.13553211170E+03 -0.39562034090E+03 -0.23151493200E+04  0.23526204266E+04  0.46999998093E+01 0. -1.
</event>
<event>
 5   0  0.2300702E-03  0.1083988E+04  0.7818609E-02  0.9220941E-01
        1   -1    0    0  501    0  0.00000000000E+00  0.00000000000E+00  0.13215687427E+04  0.13215687427E+04  0.50400001928E-02 0.  1.
       -1   -1    0    0    0  501  0.00000000000E+00  0.00000000000E+00 -0.22227925973E+03  0.22227925978E+03  0.50400001928E-02 0. -1.
    10030    2    1    2    0    0  0.00000000000E+00  0.00000000000E+00  0.10992894829E+04  0.15438480025E+04  0.10839876786E+04 0.  0.
        5    1    3    3  502    0 -0.51766679046E+03  0.15435247786E+03  0.48704924048E+03  0.72735317832E+03  0.46999998093E+01 0. -1.
       -5    1    3    3    0  502  0.51766679046E+03 -0.15435247786E+03  0.61224024246E+03  0.81649482414E+03  0.46999998093E+01 0.  1.
</event>
<event>
 5   0  0.3744875E-03  0.1118535E+04  0.7818609E-02  0.9187313E-01
        2   -1    0    0  501    0  0.00000000000E+00  0.00000000000E+00  0.95437533708E+03  0.95437533708E+03  0.25500000920E-02 0.  1.
       -2   -1    0    0    0  501  0.00000000000E+00  0.00000000000E+00 -0.32773261709E+03  0.32773261710E+03  0.25500000920E-02 0. -1.
    10030    2    1    2    0    0  0.00000000000E+00  0.00000000000E+00  0.62664271998E+03  0.12821079542E+04  0.11185346252E+04 0.  0.
        2    1    3    3  502    0  0.19843643859E+02 -0.47520830225E+03  0.65056353300E+03  0.80588436590E+03  0.25500000920E-02 0.  1.
       -2    1    3    3    0  502 -0.19843643859E+02  0.47520830225E+03 -0.23920813020E+02  0.47622358828E+03  0.25500000920E-02 0. -1.
</event>
<event>
 5   0  0.2255788E-03  0.1109182E+04  0.7818609E-02  0.9196289E-01
        1   -1    0    0  501    0  0.00000000000E+00  0.00000000000E+00  0.56896312871E+03  0.56896312873E+03  0.50400001928E-02 0. -1.
       -1   -1    0    0    0  501  0.00000000000E+00  0.00000000000E+00 -0.54058177697E+03  0.54058177700E+03  0.50400001928E-02 0.  1.
    10030    2    1    2    0    0  0.00000000000E+00  0.00000000000E+00  0.28381351738E+02  0.11095449057E+04  0.11091818592E+04 0.  0.
        3    1    3    3  502    0 -0.82864649923E+02 -0.54831295550E+03  0.21772180047E+02  0.55496638223E+03  0.10100000352E+00 0.  1.
       -3    1    3    3    0  502  0.82864649923E+02  0.54831295550E+03  0.66091716905E+01  0.55457852350E+03  0.10100000352E+00 0. -1.
</event>
<event>
 5   0  0.2300702E-03  0.1102233E+04  0.7818609E-02  0.9203018E-01
        1   -1    0    0  501    0  0.00000000000E+00  0.00000000000E+00  0.53773920847E+03  0.53773920849E+03  0.50400001928E-02 0. -1.
       -1   -1    0    0    0  501  0.00000000000E+00  0.00000000000E+00 -0.56482626781E+03  0.56482626784E+03  0.50400001928E-02 0.  1.
    10030    2    1    2    0    0  0.00000000000E+00  0.00000000000E+00 -0.27087059344E+02  0.11025654763E+04  0.11022326981E+04 0.  0.
        5    1    3    3  502    0 -0.15962096758E+03  0.23597256793E+03  0.45834589902E+03  0.53968968793E+03  0.46999998093E+01 0. -1.
       -5    1    3    3    0  502  0.15962096758E+03 -0.23597256793E+03 -0.48543295837E+03  0.56287578840E+03  0.46999998093E+01 0.  1.
</event>
<event>
 5   0  0.3748901E-03  0.1099385E+04  0.7818609E-02  0.9205792E-01
       -2   -1    0    0    0  501  0.00000000000E+00  0.00000000000E+00  0.29536779583E+03  0.29536779584E+03  0.25500000920E-02 0.  1.
        2   -1    0    0  501    0  0.00000000000E+00  0.00000000000E+00 -0.10230013742E+04  0.10230013742E+04  0.25500000920E-02 0. -1.
    10030    2    1    2    0    0  0.00000000000E+00  0.00000000000E+00 -0.72763357839E+03  0.13183691701E+04  0.10993846662E+04 0.  0.
        5    1    3    3  502    0 -0.54056621333E+03  0.68053866232E+02 -0.27654412844E+03  0.61101710670E+03  0.46999998093E+01 0.  1.
       -5    1    3    3    0  502  0.54056621333E+03 -0.68053866232E+02 -0.45108944995E+03  0.70735206337E+03  0.46999998093E+01 0. -1.
</event>
<event>
 5   0  0.3962999E-03  0.1089852E+04  0.7818609E-02  0.9215140E-01
        2   -1    0    0  501    0  0.00000000000E+00  0.00000000000E+00  0.15581557852E+04  0.15581557852E+04  0.25500000920E-02 0.  1.
       -2   -1    0    0    0  501  0.00000000000E+00  0.00000000000E+00 -0.19057420490E+03  0.19057420492E+03  0.25500000920E-02 0. -1.
    10030    2    1    2    0    0  0.00000000000E+00  0.00000000000E+00  0.13675815803E+04  0.17487299901E+04  0.10898519164E+04 0.  0.
        3    1    3    3  502    0  0.20601845565E+03  0.43470953166E+03  0.10945333878E+04  0.11955832586E+04  0.10100000352E+00 0.  1.
       -3    1    3    3    0  502 -0.20601845565E+03 -0.43470953166E+03  0.27304819250E+03  0.55314673154E+03  0.10100000352E+00 0. -1.
</event>
<event>
 5   0  0.2300702E-03  0.1097029E+04  0.7818609E-02  0.9208093E-01
        1   -1    0    0  501    0  0.00000000000E+00  0.00000000000E+00  0.91098215181E+03  0.91098215182E+03  0.50400001928E-02 0.  1.
       -1   -1    0    0    0  501  0.00000000000E+00  0.00000000000E+00 -0.33026762731E+03  0.33026762735E+03  0.50400001928E-02 0. -1.
    10030    2    1    2    0    0  0.00000000000E+00  0.00000000000E+00  0.58071452449E+03  0.12412497792E+04  0.10970285572E+04 0.  0.
        5    1    3    3  502    0 -0.22740053888E+03 -0.32701691195E+02 -0.27318223967E+03  0.35697483351E+03  0.46999998093E+01 0. -1.
       -5    1    3    3    0  502  0.22740053888E+03  0.32701691195E+02  0.85389676416E+03  0.88427494566E+03  0.46999998093E+01 0.  1.
</event>
<event>
 5   0  0.3744875E-03  0.1101093E+04  0.7818609E-02  0.9204127E-01
        2   -1    0    0  501    0  0.00000000000E+00  0.00000000000E+00  0.54944694307E+03  0.54944694308E+03  0.25500000920E-02 0. -1.
       -2   -1    0    0    0  501  0.00000000000E+00  0.00000000000E+00 -0.55164813129E+03  0.55164813129E+03  0.25500000920E-02 0.  1.
    10030    2    1    2    0    0  0.00000000000E+00  0.00000000000E+00 -0.22011882184E+01  0.11010950744E+04  0.11010928742E+04 0.  0.
        2    1    3    3  502    0  0.46293549486E+03  0.29746790178E+03 -0.18563572580E+02  0.55058244725E+03  0.25500000920E-02 0.  1.
       -2    1    3    3    0  502 -0.46293549486E+03 -0.29746790178E+03  0.16362384361E+02  0.55051262712E+03  0.25500000920E-02 0. -1.
</event>
<event>
 5   0  0.2298958E-03  0.1107740E+04  0.7818609E-02  0.9197680E-01
       -1   -1    0    0    0  501  0.00000000000E+00  0.00000000000E+00  0.41018256206E+03  0.41018256210E+03  0.50400001928E-02 0. -1.
        1   -1    0    0  501    0  0.00000000000E+00  0.00000000000E+00 -0.74789165697E+03  0.74789165699E+03  0.50400001928E-02 0.  1.
    10030    2    1    2    0    0  0.00000000000E+00  0.00000000000E+00 -0.33770909490E+03  0.11580742191E+04  0.11077402512E+04 0.  0.
        1    1    3    3  502    0  0.37019667357E+03 -0.22224207808E+03  0.19380109063E+03  0.47328213695E+03  0.50400001928E-02 0. -1.
       -1    1    3    3    0  502 -0.37019667357E+03  0.22224207808E+03 -0.53151018554E+03  0.68479208213E+03  0.50400001928E-02 0.  1.
</event>
<event>
 5   0  0.1508625E-03  0.1097920E+04  0.7818609E-02  0.9207222E-01
        3   -1    0    0  501    0  0.00000000000E+00  0.00000000000E+00  0.65524229679E+03  0.65524230458E+03  0.10100000352E+00 0. -1.
       -3   -1    0    0    0  501  0.00000000000E+00  0.00000000000E+00 -0.45991682501E+03  0.45991683610E+03  0.10100000352E+00 0.  1.
    10030    2    1    2    0    0  0.00000000000E+00  0.00000000000E+00  0.19532547179E+03  0.11151591407E+04  0.10979197917E+04 0.  0.
        4    1    3    3  502    0  0.23544261319E+03  0.34521757263E+03 -0.26394274678E+03  0.49424263579E+03  0.12699999809E+01 0. -1.
       -4    1    3    3    0  502 -0.23544261319E+03 -0.34521757263E+03  0.45926821857E+03  0.62091650489E+03  0.12699999809E+01 0.  1.
</event>
<event>
 5   0  0.3992414E-03  0.1110212E+04  0.7818609E-02  0.9195296E-01
       -2   -1    0    0    0  501  0.00000000000E+00  0.00000000000E+00  0.10028575435E+04  0.10028575435E+04  0.25500000920E-02 0.  1.
        2   -1    0    0  501    0  0.00000000000E+00  0.00000000000E+00 -0.30726454288E+03  0.30726454289E+03  0.25500000920E-02 0. -1.
    10030    2    1    2    0    0  0.00000000000E+00  0.00000000000E+00  0.69559300064E+03  0.13101220864E+04  0.11102118081E+04 0.  0.
        1    1    3    3  502    0  0.18080862416E+02  0.52954641246E+03  0.54311862503E+03  0.75876489206E+03  0.50400001928E-02 0.  1.
       -1    1    3    3    0  502 -0.18080862416E+02 -0.52954641246E+03  0.15247437561E+03  0.55135719437E+03  0.50400001928E-02 0. -1.
</event>
<event>
 5   0  0.2374100E-03  0.1098387E+04  0.7818609E-02  0.9206765E-01
       -1   -1    0    0    0  501  0.00000000000E+00  0.00000000000E+00  0.53402264691E+03  0.53402264693E+03  0.50400001928E-02 0. -1.
        1   -1    0    0  501    0  0.00000000000E+00  0.00000000000E+00 -0.56479534602E+03  0.56479534604E+03  0.50400001928E-02 0.  1.
    10030    2    1    2    0    0  0.00000000000E+00  0.00000000000E+00 -0.30772699114E+02  0.10988179930E+04  0.10983870095E+04 0.  0.
        2    1    3    3  502    0 -0.10877997914E+03  0.12788046912E+03 -0.53849400891E+03  0.56405876989E+03  0.25500000920E-02 0.  1.
       -2    1    3    3    0  502  0.10877997914E+03 -0.12788046912E+03  0.50772130980E+03  0.53475922309E+03  0.25500000920E-02 0. -1.
</event>
<event>
 5   0  0.2255788E-03  0.1092071E+04  0.7818609E-02  0.9212955E-01
        1   -1    0    0  501    0  0.00000000000E+00  0.00000000000E+00  0.48345917170E+03  0.48345917173E+03  0.50400001928E-02 0. -1.
       -1   -1    0    0    0  501  0.00000000000E+00  0.00000000000E+00 -0.61671146967E+03  0.61671146969E+03  0.50400001928E-02 0.  1.
    10030    2    1    2    0    0  0.00000000000E+00  0.00000000000E+00 -0.13325229797E+03  0.11001706414E+04  0.10920710899E+04 0.  0.
        3    1    3    3  502    0 -0.12994349445E+03  0.52747950221E+03 -0.11127919893E+02  0.54336339387E+03  0.10100000352E+00 0. -1.
       -3    1    3    3    0  502  0.12994349445E+03 -0.52747950221E+03 -0.12212437808E+03  0.55680724755E+03  0.10100000352E+00 0.  1.
</event>
<event>
 5   0  0.2300702E-03  0.1095111E+04  0.7818609E-02  0.9209970E-01
        1   -1    0    0  501    0  0.00000000000E+00  0.00000000000E+00  0.65011308393E+03  0.65011308395E+03  0.50400001928E-02 0. -1.
       -1   -1    0    0    0  501  0.00000000000E+00  0.00000000000E+00 -0.46117654162E+03  0.46117654165E+03  0.50400001928E-02 0.  1.
    10030    2    1    2    0    0  0.00000000000E+00  0.00000000000E+00  0.18893654230E+03  0.11112896256E+04  0.10951107775E+04 0.  0.
        5    1    3    3  502    0 -0.12446597626E+03  0.28309569515E+03  0.55298415873E+03  0.63359965409E+03  0.46999998093E+01 0. -1.
       -5    1    3    3    0  502  0.12446597626E+03 -0.28309569515E+03 -0.36404761642E+03  0.47768997151E+03  0.46999998093E+01 0.  1.
</event>
<event>
 5   0  0.2374100E-03  0.1004639E+04  0.7818609E-02  0.9303471E-01
       -1   -1    0    0    0  501  0.00000000000E+00  0.00000000000E+00  0.40142463738E+03  0.40142463742E+03  0.50400001928E-02 0.  1.
        1   -1    0    0  501    0  0.00000000000E+00  0.00000000000E+00 -0.62857378268E+03  0.62857378270E+03  0.50400001928E-02 0. -1.
    10030    2    1    2    0    0  0.00000000000E+00  0.00000000000E+00 -0.22714914530E+03  0.10299984201E+04  0.10046392443E+04 0.  0.
        2    1    3    3  502    0  0.13528364542E+03 -0.14789599059E+03 -0.58579857124E+03  0.61914041608E+03  0.25500000920E-02 0. -1.
       -2    1    3    3    0  502 -0.13528364542E+03  0.14789599059E+03  0.35864942594E+03  0.41085800404E+03  0.25500000920E-02 0.  1.
</event>
<event>
 5   0  0.3713158E-03  0.1059204E+04  0.7818609E-02  0.9245893E-01
        2   -1    0    0  501    0  0.00000000000E+00  0.00000000000E+00  0.94224639643E+03  0.94224639643E+03  0.25500000920E-02 0. -1.
       -2   -1    0    0    0  501  0.00000000000E+00  0.00000000000E+00 -0.29766967719E+03  0.29766967720E+03  0.25500000920E-02 0.  1.
    10030    2    1    2    0    0  0.00000000000E+00  0.00000000000E+00  0.64457671924E+03  0.12399160736E+04  0.10592038155E+04 0.  0.
        4    1    3    3  502    0  0.51939648483E+03  0.30345749979E+02  0.20650432890E+03  0.55976711564E+03  0.12699999809E+01 0.  1.
       -4    1    3    3    0  502 -0.51939648483E+03 -0.30345749979E+02  0.43807239033E+03  0.68014895800E+03  0.12699999809E+01 0. -1.
</event>
<event>
 5   0  0.2257667E-03  0.1112032E+04  0.7818609E-02  0.9193543E-01
       -1   -1    0    0    0  501  0.00000000000E+00  0.00000000000E+00  0.12990769286E+03  0.12990769295E+03  0.50400001928E-02 0. -1.
        1   -1    0    0  501    0  0.00000000000E+00  0.00000000000E+00 -0.23797977446E+04  0.23797977446E+04  0.50400001928E-02 0.  1.
    10030    2    1    2    0    0  0.00000000000E+00  0.00000000000E+00 -0.22498900517E+04  0.25097054375E+04  0.11120324358E+04 0.  0.
        4    1    3    3  502    0  0.15835993294E+03  0.45391668704E+03 -0.49449920135E+03  0.68967332859E+03  0.12699999809E+01 0. -1.
       -4    1    3    3    0  502 -0.15835993294E+03 -0.45391668704E+03 -0.17553908504E+04  0.18200321089E+04  0.12699999809E+01 0.  1.
</event>
<event>
 5   0  0.2255788E-03  0.1085653E+04  0.7818609E-02  0.9219290E-01
       -1   -1    0    0    0  501  0.00000000000E+00  0.00000000000E+00  0.73236661543E+03  0.73236661544E+03  0.50400001928E-02 0.  1.
        1   -1    0    0  501    0  0.00000000000E+00  0.00000000000E+00 -0.40233996309E+03  0.40233996312E+03  0.50400001928E-02 0. -1.
    10030    2    1    2    0    0  0.00000000000E+00  0.00000000000E+00  0.33002665233E+03  0.11347065786E+04  0.10856525357E+04 0.  0.
        3    1    3    3  502    0  0.86334077140E+02  0.42338639528E+03  0.50841746254E+03  0.66723154827E+03  0.10100000352E+00 0.  1.
       -3    1    3    3    0  502 -0.86334077140E+02 -0.42338639528E+03 -0.17839081020E+03  0.46747503030E+03  0.10100000352E+00 0. -1.
</event>
<event>
 5   0  0.3748901E-03  0.1021426E+04  0.7818609E-02  0.9285353E-01
        2   -1    0    0  501    0  0.00000000000E+00  0.00000000000E+00  0.12145086859E+04  0.12145086860E+04  0.25500000920E-02 0.  1.
       -2   -1    0    0    0  501  0.00000000000E+00  0.00000000000E+00 -0.21475974675E+03  0.21475974677E+03  0.25500000920E-02 0. -1.
    10030    2    1    2    0    0  0.00000000000E+00  0.00000000000E+00  0.99974893920E+03  0.14292684327E+04  0.10214256269E+04 0.  0.
        5    1    3    3  502    0 -0.26586590466E+03 -0.18031415916E+02  0.11094818407E+04  0.11410441955E+04  0.46999998093E+01 0.  1.
       -5    1    3    3    0  502  0.26586590466E+03  0.18031415916E+02 -0.10973290155E+03  0.28822423719E+03  0.46999998093E+01 0. -1.
</event>
<event>
 5   0  0.3992414E-03  0.1102196E+04  0.7818609E-02  0.9203055E-01
        2   -1    0    0  501    0  0.00000000000E+00  0.00000000000E+00  0.44411261678E+03  0.44411261679E+03  0.25500000920E-02 0. -1.
       -2   -1    0    0    0  501  0.00000000000E+00  0.00000000000E+00 -0.68385526571E+03  0.68385526571E+03  0.25500000920E-02 0.  1.
    10030    2    1    2    0    0  0.00000000000E+00  0.00000000000E+00 -0.23974264893E+03  0.11279678825E+04  0.11021955390E+04 0.  0.
        1    1    3    3  502    0  0.15425228674E+03 -0.43798902605E+03 -0.42359469359E+03  0.62853847883E+03  0.50400001928E-02 0.  1.
       -1    1    3    3    0  502 -0.15425228674E+03  0.43798902605E+03  0.18385204466E+03  0.49942940367E+03  0.50400001928E-02 0. -1.
</event>
<event>
 5   0  0.3962999E-03  0.1100693E+04  0.7818609E-02  0.9204517E-01
        2   -1    0    0  501    0  0.00000000000E+00  0.00000000000E+00  0.82593495201E+03  0.82593495201E+03  0.25500000920E-02 0.  1.
       -2   -1    0    0    0  501  0.00000000000E+00  0.00000000000E+00 -0.36671303232E+03  0.36671303233E+03  0.25500000920E-02 0. -1.
    10030    2    1    2    0    0  0.00000000000E+00  0.00000000000E+00  0.45922191969E+03  0.11926479843E+04  0.11006927105E+04 0.  0.
        3    1    3    3  502    0 -0.83509224920E+02 -0.49867794626E+03  0.46508563101E+03  0.68699209537E+03  0.10100000352E+00 0.  1.
       -3    1    3    3    0  502  0.83509224920E+02  0.49867794626E+03 -0.58637113189E+01  0.50565588896E+03  0.10100000352E+00 0. -1.
</event>
<event>
 5   0  0.3962999E-03  0.1100222E+04  0.7818609E-02  0.9204975E-01
        2   -1    0    0  501    0  0.00000000000E+00  0.00000000000E+00  0.63325636954E+03  0.63325636954E+03  0.25500000920E-02 0.  1.
       -2   -1    0    0    0  501  0.00000000000E+00  0.00000000000E+00 -0.47788264364E+03  0.47788264365E+03  0.25500000920E-02 0. -1.
    10030    2    1    2    0    0  0.00000000000E+00  0.00000000000E+00  0.15537372589E+03  0.11111390132E+04  0.11002222103E+04 0.  0.
        3    1    3    3  502    0  0.22929202016E+03 -0.22804754048E+02 -0.42679673262E+03  0.48502613177E+03  0.10100000352E+00 0. -1.
       -3    1    3    3    0  502 -0.22929202016E+03  0.22804754048E+02  0.58217045852E+03  0.62611288143E+03  0.10100000352E+00 0.  1.
</event>
<event>
 5   0  0.2257667E-03  0.1099853E+04  0.7818609E-02  0.9205335E-01
       -1   -1    0    0    0  501  0.00000000000E+00  0.00000000000E+00  0.55735336049E+03  0.55735336051E+03  0.50400001928E-02 0. -1.
        1   -1    0    0  501    0  0.00000000000E+00  0.00000000000E+00 -0.54259854237E+03  0.54259854239E+03  0.50400001928E-02 0.  1.
    10030    2    1    2    0    0  0.00000000000E+00  0.00000000000E+00  0.14754818117E+02  0.10999519029E+04  0.10998529375E+04 0.  0.
        4    1    3    3  502    0 -0.35712123396E+03 -0.38672503455E+03  0.16653216980E+03  0.55211086257E+03  0.12699999809E+01 0. -1.
       -4    1    3    3    0  502  0.35712123396E+03  0.38672503455E+03 -0.15177735168E+03  0.54784104033E+03  0.12699999809E+01 0.  1.
</event>
<event>
 5   0  0.3713158E-03  0.1055158E+04  0.7818609E-02  0.9250035E-01
       -2   -1    0    0    0  501  0.00000000000E+00  0.00000000000E+00  0.11080438343E+04  0.11080438343E+04  0.25500000920E-02 0.  1.
        2   -1    0    0  501    0  0.00000000000E+00  0.00000000000E+00 -0.25119922789E+03  0.25119922790E+03  0.25500000920E-02 0. -1.
    10030    2    1    2    0    0  0.00000000000E+00  0.00000000000E+00  0.85684460644E+03  0.13592430622E+04  0.10551582927E+04 0.  0.
        4    1    3    3  502    0  0.55704544716E+02 -0.14616602832E+02 -0.24713599467E+03  0.25376062370E+03  0.12699999809E+01 0. -1.
       -4    1    3    3    0  502 -0.55704544716E+02  0.14616602832E+02  0.11039806011E+04  0.11054824385E+04  0.12699999809E+01 0.  1.
</event>
<event>
 5   0  0.2374100E-03  0.1094060E+04  0.7818609E-02  0.9211001E-01
       -1   -1    0    0    0  501  0.00000000000E+00  0.00000000000E+00  0.98300261452E+03  0.98300261453E+03  0.50400001928E-02 0.  1.
        1   -1    0    0  501    0  0.00000000000E+00  0.00000000000E+00 -0.30441600955E+03  0.30441600959E+03  0.50400001928E-02 0. -1.
    10030    2    1    2    0    0  0.00000000000E+00  0.00000000000E+00  0.67858660497E+03  0.12874186241E+04  0.10940598399E+04 0.  0.
        2    1    3    3  502    0  0.60342392951E+02 -0.82786198704E+02 -0.29302744496E+03  0.31041881803E+03  0.25500000920E-02 0. -1.
       -2    1    3    3    0  502 -0.60342392951E+02  0.82786198704E+02  0.97161404993E+03  0.97699980609E+03  0.25500000920E-02 0.  1.
</event>
<event>
 5   0  0.2298958E-03  0.1140716E+04  0.7818609E-02  0.9166392E-01
        1   -1    0    0  501    0  0.00000000000E+00  0.00000000000E+00  0.52393036697E+03  0.52393036699E+03  0.50400001928E-02 0. -1.
       -1   -1    0    0    0  501  0.00000000000E+00  0.00000000000E+00 -0.62089951695E+03  0.62089951697E+03  0.50400001928E-02 0.  1.
    10030    2    1    2    0    0  0.00000000000E+00  0.00000000000E+00 -0.96969149982E+02  0.11448298840E+04  0.11407157609E+04 0.  0.
        1    1    3    3  502    0  0.18583295520E+03 -0.52391891509E+03  0.79581272095E+02  0.56156753443E+03  0.50400001928E-02 0.  1.
       -1    1    3    3    0  502 -0.18583295520E+03  0.52391891509E+03 -0.17655042208E+03  0.58326234954E+03  0.50400001928E-02 0. -1.
</event>
<event>
 5   0  0.2300702E-03  0.1096713E+04  0.7818609E-02  0.9208402E-01
        1   -1    0    0  501    0  0.00000000000E+00  0.00000000000E+00  0.10459484080E+04  0.10459484080E+04  0.50400001928E-02 0. -1.
       -1   -1    0    0    0  501  0.00000000000E+00  0.00000000000E+00 -0.28748526018E+03  0.28748526022E+03  0.50400001928E-02 0.  1.
    10030    2    1    2    0    0  0.00000000000E+00  0.00000000000E+00  0.75846314781E+03  0.13334336682E+04  0.10967128161E+04 0.  0.
        5    1    3    3  502    0 -0.31191944801E+03 -0.25451810777E+02 -0.16821117978E+03  0.35532890077E+03  0.46999998093E+01 0.  1.
       -5    1    3    3    0  502  0.31191944801E+03  0.25451810777E+02  0.92667432758E+03  0.97810476746E+03  0.46999998093E+01 0. -1.
</event>
<event>
 5   0  0.3744875E-03  0.1092850E+04  0.7818609E-02  0.9212189E-01
       -2   -1    0    0    0  501  0.00000000000E+00  0.00000000000E+00  0.40786859401E+03  0.40786859401E+03  0.25500000920E-02 0. -1.
        2   -1    0    0  501    0  0.00000000000E+00  0.00000000000E+00 -0.73204990294E+03  0.73204990295E+03  0.25500000920E-02 0.  1.
    10030    2    1    2    0    0  0.00000000000E+00  0.00000000000E+00 -0.32418130893E+03  0.11399184970E+04  0.10928497878E+04 0.  0.
        2    1    3    3  502    0 -0.26602506271E+03  0.38580995787E+03  0.13101287150E+03  0.48660356564E+03  0.25500000920E-02 0. -1.
       -2    1    3    3    0  502  0.26602506271E+03 -0.38580995787E+03 -0.45519418043E+03  0.65331493132E+03  0.25500000920E-02 0.  1.
</event>
<event>
 5   0  0.3713158E-03  0.1044177E+04  0.7818609E-02  0.9261377E-01
       -2   -1    0    0    0  501  0.00000000000E+00  0.00000000000E+00  0.26141775536E+03  0.26141775537E+03  0.25500000920E-02 0. -1.
        2   -1    0    0  501    0  0.00000000000E+00  0.00000000000E+00 -0.10426846059E+04  0.10426846059E+04  0.25500000920E-02 0.  1.
    10030    2    1    2    0    0  0.00000000000E+00  0.00000000000E+00 -0.78126685050E+03  0.13041023612E+04  0.10441767460E+04 0.  0.
        4    1    3    3  502    0  0.20889752466E+03  0.44192663833E+03 -0.61969297446E+03  0.78927709011E+03  0.12699999809E+01 0.  1.
       -4    1    3    3    0  502 -0.20889752466E+03 -0.44192663833E+03 -0.16157387604E+03  0.51482527113E+03  0.12699999809E+01 0. -1.
</event>
<event>
 5   0  0.3962999E-03  0.1040394E+04  0.7818609E-02  0.9265318E-01
       -2   -1    0    0    0  501  0.00000000000E+00  0.00000000000E+00  0.66059907664E+03  0.66059907664E+03  0.25500000920E-02 0. -1.
        2   -1    0    0  501    0  0.00000000000E+00  0.00000000000E+00 -0.40963585941E+03  0.40963585941E+03  0.25500000920E-02 0.  1.
    10030    2    1    2    0    0  0.00000000000E+00  0.00000000000E+00  0.25096321723E+03  0.10702349361E+04  0.10403942916E+04 0.  0.
        3    1    3    3  502    0  0.48890765444E+03 -0.13244571483E+03  0.36251190552E+01  0.50654290404E+03  0.10100000352E+00 0. -1.
       -3    1    3    3    0  502 -0.48890765444E+03  0.13244571483E+03  0.24733809818E+03  0.56369203202E+03  0.10100000352E+00 0.  1.
</event>
<event>
 5   0  0.1508625E-03  0.1108417E+04  0.7818609E-02  0.9197027E-01
        3   -1    0    0  501    0  0.00000000000E+00  0.00000000000E+00  0.26518903661E+03  0.26518905584E+03  0.10100000352E+00 0. -1.
       -3   -1    0    0    0  501  0.00000000000E+00  0.00000000000E+00 -0.11582182743E+04  0.11582182787E+04  0.10100000352E+00 0.  1.
    10030    2    1    2    0    0  0.00000000000E+00  0.00000000000E+00 -0.89302923772E+03  0.14234073346E+04  0.11084165375E+04 0.  0.
        2    1    3    3  502    0 -0.11242047968E+03 -0.78429117172E+02  0.24307654605E+03  0.27906217572E+03  0.25500000920E-02 0. -1.
       -2    1    3    3    0  502  0.11242047968E+03  0.78429117172E+02 -0.11361057838E+04  0.11443451589E+04  0.25500000920E-02 0.  1.
</event>
<event>
 5   0  0.3748901E-03  0.1099510E+04  0.7818609E-02  0.9205670E-01
       -2   -1    0    0    0  501  0.00000000000E+00  0.00000000000E+00  0.15180172427E+03  0.15180172429E+03  0.25500000920E-02 0. -1.
        2   -1    0    0  501    0  0.00000000000E+00  0.00000000000E+00 -0.19909547294E+04  0.19909547294E+04  0.25500000920E-02 0.  1.
    10030    2    1    2    0    0  0.00000000000E+00  0.00000000000E+00 -0.18391530051E+04  0.21427564537E+04  0.10995096378E+04 0.  0.
        5    1    3    3  502    0 -0.65254278513E+02  0.24091660761E+03 -0.18741235698E+04  0.18906771743E+04  0.46999998093E+01 0.  1.
       -5    1    3    3    0  502  0.65254278513E+02 -0.24091660761E+03  0.34970564668E+02  0.25207927935E+03  0.46999998093E+01 0. -1.
</event>
<event>
 5   0  0.3713158E-03  0.1102540E+04  0.7818609E-02  0.9202719E-01
        2   -1    0    0  501    0  0.00000000000E+00  0.00000000000E+00  0.43857024627E+03  0.43857024628E+03  0.25500000920E-02 0.  1.
       -2   -1    0    0    0  501  0.00000000000E+00  0.00000000000E+00 -0.69293087359E+03  0.69293087359E+03  0.25500000920E-02 0. -1.
    10030    2    1    2    0    0  0.00000000000E+00  0.00000000000E+00 -0.25436062731E+03  0.11315011199E+04  0.11025404553E+04 0.  0.
        4    1    3    3  502    0  0.45945161976E+03  0.25606552319E+03 -0.29653588531E+03  0.60382156905E+03  0.12699999809E+01 0. -1.
       -4    1    3    3    0  502 -0.45945161976E+03 -0.25606552319E+03  0.42175257995E+02  0.52767955082E+03  0.12699999809E+01 0.  1.
</event>
<event>
 5   0  0.3992414E-03  0.1098113E+04  0.7818609E-02  0.9207033E-01
       -2   -1    0    0    0  501  0.00000000000E+00  0.00000000000E+00  0.26444443299E+03  0.26444443300E+03  0.25500000920E-02 0.  1.
        2   -1    0    0  501    0  0.00000000000E+00  0.00000000000E+00 -0.11399858845E+04  0.11399858845E+04  0.25500000920E-02 0. -1.
    10030    2    1    2    0    0  0.00000000000E+00  0.00000000000E+00 -0.87554145154E+03  0.14044303175E+04  0.10981127827E+04 0.  0.
        1    1    3    3  502    0  0.36776272945E+02  0.28506295244E+03  0.16053900727E+03  0.32922052486E+03  0.50400001928E-02 0.  1.
       -1    1    3    3    0  502 -0.36776272945E+02 -0.28506295244E+03 -0.10360804588E+04  0.10752097927E+04  0.50400001928E-02 0. -1.
</event>
<event>
 5   0  0.2257667E-03  0.1102320E+04  0.7818609E-02  0.9202934E-01
       -1   -1    0    0    0  501  0.00000000000E+00  0.00000000000E+00  0.30408616526E+03  0.30408616530E+03  0.50400001928E-02 0.  1.
        1   -1    0    0  501    0  0.00000000000E+00  0.00000000000E+00 -0.99898451293E+03  0.99898451295E+03  0.50400001928E-02 0. -1.
    10030    2    1    2    0    0  0.00000000000E+00  0.00000000000E+00 -0.69489834767E+03  0.13030706782E+04  0.11023200438E+04 0.  0.
        4    1    3    3  502    0 -0.43348384532E+03 -0.28721363388E+03 -0.56341069515E+03  0.76670277158E+03  0.12699999809E+01 0.  1.
       -4    1    3    3    0  502  0.43348384532E+03  0.28721363388E+03 -0.13148765252E+03  0.53636790667E+03  0.12699999809E+01 0. -1.
</event>
<event>
 5   0  0.2300702E-03  0.1095924E+04  0.7818609E-02  0.9209174E-01
        1   -1    0    0  501    0  0.00000000000E+00  0.00000000000E+00  0.40443036841E+03  0.40443036844E+03  0.50400001928E-02 0.  1.
       -1   -1    0    0    0  501  0.00000000000E+00  0.00000000000E+00 -0.74243217392E+03  0.74243217394E+03  0.50400001928E-02 0. -1.
    10030    2    1    2    0    0  0.00000000000E+00  0.00000000000E+00 -0.33800180551E+03  0.11468625424E+04  0.10959235697E+04 0.  0.
        5    1    3    3  502    0 -0.21900155533E+03 -0.22715562529E+03  0.29979273222E+03  0.43526903362E+03  0.46999998093E+01 0.  1.
       -5    1    3    3    0  502  0.21900155533E+03  0.22715562529E+03 -0.63779453773E+03  0.71159350875E+03  0.46999998093E+01 0. -1.
</event>
<event>
 5   0  0.3748901E-03  0.1075855E+04  0.7818609E-02  0.9229050E-01
       -2   -1    0    0    0  501  0.00000000000E+00  0.00000000000E+00  0.19600498199E+03  0.19600498201E+03  0.25500000920E-02 0. -1.
        2   -1    0    0  501    0  0.00000000000E+00  0.00000000000E+00 -0.14763201570E+04  0.14763201570E+04  0.25500000920E-02 0.  1.
    10030    2    1    2    0    0  0.00000000000E+00  0.00000000000E+00 -0.12803151750E+04  0.16723251391E+04  0.10758552055E+04 0.  0.
        5    1    3    3  502    0  0.33624897255E+03 -0.66935146343E+02 -0.12844438779E+04  0.13294216227E+04  0.46999998093E+01 0.  1.
       -5    1    3    3    0  502 -0.33624897255E+03  0.66935146343E+02  0.41287028571E+01  0.34290351638E+03  0.46999998093E+01 0. -1.
</event>
<event>
 5   0  0.3748901E-03  0.1106904E+04  0.7818609E-02  0.9198489E-01
       -2   -1    0    0    0  501  0.00000000000E+00  0.00000000000E+00  0.10762068234E+04  0.10762068234E+04  0.25500000920E-02 0. -1.
        2   -1    0    0  501    0  0.00000000000E+00  0.00000000000E+00 -0.28461903145E+03  0.28461903146E+03  0.25500000920E-02 0.  1.
    10030    2    1    2    0    0  0.00000000000E+00  0.00000000000E+00  0.79158779199E+03  0.13608258549E+04  0.11069036882E+04 0.  0.
        5    1    3    3  502    0  0.81969661149E+02  0.44624879385E+03  0.78539852484E+03  0.90704462084E+03  0.46999998093E+01 0. -1.
       -5    1    3    3    0  502 -0.81969661149E+02 -0.44624879385E+03  0.61892671414E+01  0.45378123406E+03  0.46999998093E+01 0.  1.
</event>
<event>
 5   0  0.3748901E-03  0.1099100E+04  0.7818609E-02  0.9206069E-01
       -2   -1    0    0    0  501  0.00000000000E+00  0.00000000000E+00  0.27799924781E+03  0.27799924782E+03  0.25500000920E-02 0.  1.
        2   -1    0    0  501    0  0.00000000000E+00  0.00000000000E+00 -0.10863531177E+04  0.10863531177E+04  0.25500000920E-02 0. -1.
    10030    2    1    2    0    0  0.00000000000E+00  0.00000000000E+00 -0.80835386992E+03  0.13643523656E+04  0.10991002677E+04 0.  0.
        5    1    3    3  502    0  0.15460575661E+03 -0.74482099580E+02 -0.10522120999E+04  0.10661251879E+04  0.46999998093E+01 0. -1.
       -5    1    3    3    0  502 -0.15460575661E+03  0.74482099580E+02  0.24385823000E+03  0.29822717762E+03  0.46999998093E+01 0.  1.
</event>
<event>
 5   0  0.3713158E-03  0.1110801E+04  0.7818609E-02  0.9194728E-01
       -2   -1    0    0    0  501  0.00000000000E+00  0.00000000000E+00  0.21059638454E+03  0.21059638455E+03  0.25500000920E-02 0.  1.
        2   -1    0    0  501    0  0.00000000000E+00  0.00000000000E+00 -0.14647423529E+04  0.14647423529E+04  0.25500000920E-02 0. -1.
    10030    2    1    2    0    0  0.00000000000E+00  0.00000000000E+00 -0.12541459684E+04  0.16753387375E+04  0.11108005110E+04 0.  0.
        4    1    3    3  502    0  0.45630447516E+03 -0.30996802646E+03 -0.72451281251E+03  0.91061209077E+03  0.12699999809E+01 0. -1.
       -4    1    3    3    0  502 -0.45630447516E+03  0.30996802646E+03 -0.52963315587E+03  0.76472664670E+03  0.12699999809E+01 0.  1.
</event>
<event>
 5   0  0.3713158E-03  0.1081930E+04  0.7818609E-02  0.9222985E-01
        2   -1    0    0  501    0  0.00000000000E+00  0.00000000000E+00  0.10693615624E+04  0.10693615624E+04  0.25500000920E-02 0.  1.
       -2   -1    0    0    0  501  0.00000000000E+00  0.00000000000E+00 -0.27366145717E+03  0.27366145719E+03  0.25500000920E-02 0. -1.
    10030    2    1    2    0    0  0.00000000000E+00  0.00000000000E+00  0.79570010522E+03  0.13430230196E+04  0.10819298377E+04 0.  0.
        4    1    3    3  502    0  0.80139111681E+02 -0.30452194140E+03  0.94387013489E+03  0.99501172578E+03  0.12699999809E+01 0.  1.
       -4    1    3    3    0  502 -0.80139111681E+02  0.30452194140E+03 -0.14817002967E+03  0.34801129379E+03  0.12699999809E+01 0. -1.
</event>
<event>
 5   0  0.2300702E-03  0.1092918E+04  0.7818609E-02  0.9212122E-01
        1   -1    0    0  501    0  0.00000000000E+00  0.00000000000E+00  0.12840093053E+04  0.12840093053E+04  0.50400001928E-02 0.  1.
       -1   -1    0    0    0  501  0.00000000000E+00  0.00000000000E+00 -0.23256647759E+03  0.23256647765E+03  0.50400001928E-02 0. -1.
    10030    2    1    2    0    0  0.00000000000E+00  0.00000000000E+00  0.10514428277E+04  0.15165757830E+04  0.10929181513E+04 0.  0.
        5    1    3    3  502    0 -0.43751929331E+03  0.48047505333E+02  0.76366865114E+02  0.44675013472E+03  0.46999998093E+01 0. -1.
       -5    1    3    3    0  502  0.43751929331E+03 -0.48047505333E+02  0.97507596259E+03  0.10698256482E+04  0.46999998093E+01 0.  1.
</event>
<event>
 5   0  0.3962999E-03  0.1099143E+04  0.7818609E-02  0.9206028E-01
       -2   -1    0    0    0  501  0.00000000000E+00  0.00000000000E+00  0.75880643046E+03  0.75880643046E+03  0.25500000920E-02 0.  1.
        2   -1    0    0  501    0  0.00000000000E+00  0.00000000000E+00 -0.39803137686E+03  0.39803137687E+03  0.25500000920E-02 0. -1.
    10030    2    1    2    0    0  0.00000000000E+00  0.00000000000E+00  0.36077505360E+03  0.11568378073E+04  0.10991428811E+04 0.  0.
        3    1    3    3  502    0  0.48851857516E+03  0.22644912863E+03  0.64617592247E+02  0.54231453011E+03  0.10100000352E+00 0. -1.
       -3    1    3    3    0  502 -0.48851857516E+03 -0.22644912863E+03  0.29615746135E+03  0.61452327723E+03  0.10100000352E+00 0.  1.
</event>
<event>
 5   0  0.3744875E-03  0.1097729E+04  0.7818609E-02  0.9207408E-01
       -2   -1    0    0    0  501  0.00000000000E+00  0.00000000000E+00  0.29825714181E+03  0.29825714182E+03  0.25500000920E-02 0.  1.
        2   -1    0    0  501    0  0.00000000000E+00  0.00000000000E+00 -0.10100417380E+04  0.10100417380E+04  0.25500000920E-02 0. -1.
    10030    2    1    2    0    0  0.00000000000E+00  0.00000000000E+00 -0.71178459622E+03  0.13082988799E+04  0.10977288589E+04 0.  0.
        2    1    3    3  502    0 -0.37816484613E+03  0.26208157499E+03 -0.71255777333E+03  0.84819454321E+03  0.25500000920E-02 0. -1.
       -2    1    3    3    0  502  0.37816484613E+03 -0.26208157499E+03  0.77317710371E+00  0.46010433665E+03  0.25500000920E-02 0.  1.
</event>
<event>
 5   0  0.2298958E-03  0.1096575E+04  0.7818609E-02  0.9208536E-01
        1   -1    0    0  501    0  0.00000000000E+00  0.00000000000E+00  0.16186677779E+04  0.16186677779E+04  0.50400001928E-02 0.  1.
       -1   -1    0    0    0  501  0.00000000000E+00  0.00000000000E+00 -0.18572016873E+03  0.18572016880E+03  0.50400001928E-02 0. -1.
    10030    2    1    2    0    0  0.00000000000E+00  0.00000000000E+00  0.14329476091E+04  0.18043879467E+04  0.10965751281E+04 0.  0.
        1    1    3    3  502    0  0.41578020808E+02 -0.38557235108E+03  0.13542405719E+04  0.14086739496E+04  0.50400001928E-02 0.  1.
       -1    1    3    3    0  502 -0.41578020808E+02  0.38557235108E+03  0.78707037241E+02  0.39571399706E+03  0.50400001928E-02 0. -1.
</event>
<event>
 5   0  0.3748901E-03  0.1081180E+04  0.7818609E-02  0.9223732E-01
        2   -1    0    0  501    0  0.00000000000E+00  0.00000000000E+00  0.25345180861E+03  0.25345180862E+03  0.25500000920E-02 0. -1.
       -2   -1    0    0    0  501  0.00000000000E+00  0.00000000000E+00 -0.11530294760E+04  0.11530294760E+04  0.25500000920E-02 0.  1.
    10030    2    1    2    0    0  0.00000000000E+00  0.00000000000E+00 -0.89957766743E+03  0.14064812847E+04  0.10811797373E+04 0.  0.
        5    1    3    3  502    0 -0.53106342891E+03 -0.48214141812E+02 -0.33444027670E+03  0.62946434186E+03  0.46999998093E+01 0.  1.
       -5    1    3    3    0  502  0.53106342891E+03  0.48214141812E+02 -0.56513739073E+03  0.77701694280E+03  0.46999998093E+01 0. -1.
</event>
<event>
 5   0  0.3744875E-03  0.1106879E+04  0.7818609E-02  0.9198513E-01
        2   -1    0    0  501    0  0.00000000000E+00  0.00000000000E+00  0.10072954475E+04  0.10072954475E+04  0.25500000920E-02 0. -1.
       -2   -1    0    0    0  501  0.00000000000E+00  0.00000000000E+00 -0.30407710835E+03  0.30407710836E+03  0.25500000920E-02 0.  1.
    10030    2    1    2    0    0  0.00000000000E+00  0.00000000000E+00  0.70321833916E+03  0.13113725559E+04  0.11068793736E+04 0.  0.
        2    1    3    3  502    0  0.39443651921E+03  0.38701354425E+03  0.38785229372E+03  0.67512150971E+03  0.25500000920E-02 0. -1.
       -2    1    3    3    0  502 -0.39443651921E+03 -0.38701354425E+03  0.31536604544E+03  0.63625104616E+03  0.25500000920E-02 0.  1.
</event>
<event>
 5   0  0.2298958E-03  0.1095747E+04  0.7818609E-02  0.9209347E-01
       -1   -1    0    0    0  501  0.00000000000E+00  0.00000000000E+00  0.97963246873E+03  0.97963246875E+03  0.50400001928E-02 0. -1.
        1   -1    0    0  501    0  0.00000000000E+00  0.00000000000E+00 -0.30640587845E+03  0.30640587849E+03  0.50400001928E-02 0.  1.
    10030    2    1    2    0    0  0.00000000000E+00  0.00000000000E+00  0.67322659028E+03  0.12860383472E+04  0.10957465896E+04 0.  0.
        1    1    3    3  502    0 -0.71370393203E+02  0.27307441604E+03 -0.21451135771E+03  0.35451162510E+03  0.50400001928E-02 0.  1.
       -1    1    3    3    0  502  0.71370393203E+02 -0.27307441604E+03  0.88773794800E+03  0.93152672214E+03  0.50400001928E-02 0. -1.
</event>
<event>
 5   0  0.3748901E-03  0.1131296E+04  0.7818609E-02  0.9175214E-01
        2   -1    0    0  501    0  0.00000000000E+00  0.00000000000E+00  0.18208126236E+04  0.18208126236E+04  0.25500000920E-02 0.  1.
       -2   -1    0    0    0  501  0.00000000000E+00  0.00000000000E+00 -0.17572252627E+03  0.17572252628E+03  0.25500000920E-02 0. -1.
    10030    2    1    2    0    0  0.00000000000E+00  0.00000000000E+00  0.16450900973E+04  0.19965351498E+04  0.11312962372E+04 0.  0.
        5    1    3    3  502    0  0.46975135171E+03 -0.19536282860E+03  0.12587905380E+04  0.13577218698E+04  0.46999998093E+01 0.  1.
       -5    1    3    3    0  502 -0.46975135171E+03  0.19536282860E+03  0.38629955928E+03  0.63881328002E+03  0.46999998093E+01 0. -1.
</event>
<event>
 5   0  0.3748901E-03  0.1085433E+04  0.7818609E-02  0.9219507E-01
       -2   -1    0    0    0  501  0.00000000000E+00  0.00000000000E+00  0.59630997110E+03  0.59630997111E+03  0.25500000920E-02 0. -1.
        2   -1    0    0  501    0  0.00000000000E+00  0.00000000000E+00 -0.49394012351E+03  0.49394012351E+03  0.25500000920E-02 0.  1.
    10030    2    1    2    0    0  0.00000000000E+00  0.00000000000E+00  0.10236984759E+03  0.10902500946E+04  0.10854334080E+04 0.  0.
        5    1    3    3  502    0  0.28251011051E+02 -0.46710229610E+03 -0.22487402279E+03  0.51920428617E+03  0.46999998093E+01 0.  1.
       -5    1    3    3    0  502 -0.28251011051E+02  0.46710229610E+03  0.32724387039E+03  0.57104580845E+03  0.46999998093E+01 0. -1.
</event>
<event>
 5   0  0.3962999E-03  0.1098672E+04  0.7818609E-02  0.9206487E-01
        2   -1    0    0  501    0  0.00000000000E+00  0.00000000000E+00  0.73575806151E+03  0.73575806152E+03  0.25500000920E-02 0.  1.
       -2   -1    0    0    0  501  0.00000000000E+00  0.00000000000E+00 -0.41014858185E+03  0.41014858185E+03  0.25500000920E-02 0. -1.
    10030    2    1    2    0    0  0.00000000000E+00  0.00000000000E+00  0.32560947967E+03  0.11459066434E+04  0.10986721540E+04 0.  0.
        3    1    3    3  502    0 -0.44186680305E+03  0.21519345761E+03 -0.93133806627E+02  0.50022835982E+03  0.10100000352E+00 0. -1.
       -3    1    3    3    0  502  0.44186680305E+03 -0.21519345761E+03  0.41874328629E+03  0.64567828355E+03  0.10100000352E+00 0.  1.
</event>
<event>
 5   0  0.1508625E-03  0.1097658E+04  0.7818609E-02  0.9207478E-01
        4   -1    0    0  501    0  0.00000000000E+00  0.00000000000E+00  0.43943363998E+03  0.43943547518E+03  0.12699999809E+01 0. -1.
       -4   -1    0    0    0  501  0.00000000000E+00  0.00000000000E+00 -0.68545382215E+03  0.68545499867E+03  0.12699999809E+01 0.  1.
    10030    2    1    2    0    0  0.00000000000E+00  0.00000000000E+00 -0.24602018217E+03  0.11248904739E+04  0.10976578010E+04 0.  0.
        1    1    3    3  502    0  0.44015577721E+03  0.20707711496E+03 -0.38347134857E+03  0.61940965036E+03  0.50400001928E-02 0.  1.
       -1    1    3    3    0  502 -0.44015577721E+03 -0.20707711496E+03  0.13745116640E+03  0.50548082350E+03  0.50400001928E-02 0. -1.
</event>
<event>
 5   0  0.2300702E-03  0.1149084E+04  0.7818609E-02  0.9158629E-01
        1   -1    0    0  501    0  0.00000000000E+00  0.00000000000E+00  0.65557933850E+03  0.65557933852E+03  0.50400001928E-02 0. -1.
       -1   -1    0    0    0  501  0.00000000000E+00  0.00000000000E+00 -0.50352210543E+03  0.50352210545E+03  0.50400001928E-02 0.  1.
    10030    2    1    2    0    0  0.00000000000E+00  0.00000000000E+00  0.15205723307E+03  0.11591014440E+04  0.11490843117E+04 0.  0.
        5    1    3    3  502    0  0.16628852854E+02  0.71693824513E+02  0.65078525260E+03  0.65495042425E+03  0.46999998093E+01 0. -1.
       -5    1    3    3    0  502 -0.16628852854E+02 -0.71693824513E+02 -0.49872801953E+03  0.50415101972E+03  0.46999998093E+01 0.  1.
</event>
<event>
 5   0  0.3744875E-03  0.1104687E+04  0.7818609E-02  0.9200636E-01
       -2   -1    0    0    0  501  0.00000000000E+00  0.00000000000E+00  0.28787587300E+03  0.28787587301E+03  0.25500000920E-02 0. -1.
        2   -1    0    0  501    0  0.00000000000E+00  0.00000000000E+00 -0.10597730185E+04  0.10597730185E+04  0.25500000920E-02 0.  1.
    10030    2    1    2    0    0  0.00000000000E+00  0.00000000000E+00 -0.77189714553E+03  0.13476488915E+04  0.11046865309E+04 0.  0.
        2    1    3    3  502    0 -0.29132070298E+03  0.52526466971E+02 -0.95483254474E+03  0.99966592931E+03  0.25500000920E-02 0.  1.
       -2    1    3    3    0  502  0.29132070298E+03 -0.52526466971E+02  0.18293539921E+03  0.34798296224E+03  0.25500000920E-02 0. -1.
</event>
<event>
 5   0  0.3992414E-03  0.1102701E+04  0.7818609E-02  0.9202564E-01
        2   -1    0    0  501    0  0.00000000000E+00  0.00000000000E+00  0.38277702554E+03  0.38277702555E+03  0.25500000920E-02 0. -1.
       -2   -1    0    0    0  501  0.00000000000E+00  0.00000000000E+00 -0.79416255904E+03  0.79416255905E+03  0.25500000920E-02 0.  1.
    10030    2    1    2    0    0  0.00000000000E+00  0.00000000000E+00 -0.41138553350E+03  0.11769395846E+04  0.11027006523E+04 0.  0.
        1    1    3    3  502    0  0.47281227116E+03  0.25279277756E+03 -0.68461419889E+02  0.54050217223E+03  0.50400001928E-02 0. -1.
       -1    1    3    3    0  502 -0.47281227116E+03 -0.25279277756E+03 -0.34292411361E+03  0.63643741237E+03  0.50400001928E-02 0.  1.
</event>
<event>
 5   0  0.2374100E-03  0.1090333E+04  0.7818609E-02  0.9214665E-01
        1   -1    0    0  501    0  0.00000000000E+00  0.00000000000E+00  0.79924374299E+03  0.79924374301E+03  0.50400001928E-02 0. -1.
       -1   -1    0    0    0  501  0.00000000000E+00  0.00000000000E+00 -0.37185986456E+03  0.37185986459E+03  0.50400001928E-02 0.  1.
    10030    2    1    2    0    0  0.00000000000E+00  0.00000000000E+00  0.42738387844E+03  0.11711036076E+04  0.10903332886E+04 0.  0.
        2    1    3    3  502    0  0.61980726892E+02 -0.48791065605E+02  0.79308190397E+03  0.79699503449E+03  0.25500000920E-02 0. -1.
       -2    1    3    3    0  502 -0.61980726892E+02  0.48791065605E+02 -0.36569802553E+03  0.37410857311E+03  0.25500000920E-02 0.  1.
</event>
<event>
 5   0  0.2255788E-03  0.1126954E+04  0.7818609E-02  0.9179312E-01
       -1   -1    0    0    0  501  0.00000000000E+00  0.00000000000E+00  0.47093468466E+03  0.47093468468E+03  0.50400001928E-02 0. -1.
        1   -1    0    0  501    0  0.00000000000E+00  0.00000000000E+00 -0.67420403016E+03  0.67420403018E+03  0.50400001928E-02 0.  1.
    10030    2    1    2    0    0  0.00000000000E+00  0.00000000000E+00 -0.20326934550E+03  0.11451387149E+04  0.11269535259E+04 0.  0.
        3    1    3    3  502    0  0.86418510036E+02  0.46602632105E+03 -0.41127695529E+03  0.62753281583E+03  0.10100000352E+00 0.  1.
       -3    1    3    3    0  502 -0.86418510036E+02 -0.46602632105E+03  0.20800760979E+03  0.51760589904E+03  0.10100000352E+00 0. -1.
</event>
<event>
 5   0  0.3744875E-03  0.1095142E+04  0.7818609E-02  0.9209940E-01
       -2   -1    0    0    0  501  0.00000000000E+00  0.00000000000E+00  0.16641973037E+03  0.16641973039E+03  0.25500000920E-02 0.  1.
        2   -1    0    0  501    0  0.00000000000E+00  0.00000000000E+00 -0.18016736332E+04  0.18016736332E+04  0.25500000920E-02 0. -1.
    10030    2    1    2    0    0  0.00000000000E+00  0.00000000000E+00 -0.16352539028E+04  0.19680933635E+04  0.10951420735E+04 0.  0.
        2    1    3    3  502    0 -0.43408837349E+03  0.24212552802E+03 -0.40477366749E+03  0.64101420360E+03  0.25500000920E-02 0. -1.
       -2    1    3    3    0  502  0.43408837349E+03 -0.24212552802E+03 -0.12304802353E+04  0.13270791600E+04  0.25500000920E-02 0.  1.
</event>
<event>
 5   0  0.2298958E-03  0.1100368E+04  0.7818609E-02  0.9204834E-01
        1   -1    0    0  501    0  0.00000000000E+00  0.00000000000E+00  0.43406673716E+03  0.43406673718E+03  0.50400001928E-02 0.  1.
       -1   -1    0    0    0  501  0.00000000000E+00  0.00000000000E+00 -0.69736340085E+03  0.69736340087E+03  0.50400001928E-02 0. -1.
    10030    2    1    2    0    0  0.00000000000E+00  0.00000000000E+00 -0.26329666369E+03  0.11314301381E+04  0.11003676768E+04 0.  0.
        1    1    3    3  502    0  0.12282916617E+03  0.28402153648E+03  0.33610781743E+03  0.45686289213E+03  0.50400001928E-02 0.  1.
       -1    1    3    3    0  502 -0.12282916617E+03 -0.28402153648E+03 -0.59940448113E+03  0.67456724592E+03  0.50400001928E-02 0. -1.
</event>
<event>
 5   0  0.2298958E-03  0.1115703E+04  0.7818609E-02  0.9190020E-01
       -1   -1    0    0    0  501  0.00000000000E+00  0.00000000000E+00  0.55210058770E+03  0.55210058772E+03  0.50400001928E-02 0.  1.
        1   -1    0    0  501    0  0.00000000000E+00  0.00000000000E+00 -0.56366223806E+03  0.56366223809E+03  0.50400001928E-02 0. -1.
    10030    2    1    2    0    0  0.00000000000E+00  0.00000000000E+00 -0.11561650366E+02  0.11157628258E+04  0.11157029227E+04 0.  0.
        1    1    3    3  502    0 -0.46536496646E+03  0.24854981155E+03  0.17549305705E+03  0.55600303410E+03  0.50400001928E-02 0. -1.
       -1    1    3    3    0  502  0.46536496646E+03 -0.24854981155E+03 -0.18705470741E+03  0.55975979171E+03  0.50400001928E-02 0.  1.
</event>
<event>
 5   0  0.2374100E-03  0.1068349E+04  0.7818609E-02  0.9236602E-01
        1   -1    0    0  501    0  0.00000000000E+00  0.00000000000E+00  0.75274476922E+03  0.75274476924E+03  0.50400001928E-02 0. -1.
       -1   -1    0    0    0  501  0.00000000000E+00  0.00000000000E+00 -0.37906920748E+03  0.37906920751E+03  0.50400001928E-02 0.  1.
    10030    2    1    2    0    0  0.00000000000E+00  0.00000000000E+00  0.37367556174E+03  0.11318139768E+04  0.10683489376E+04 0.  0.
        2    1    3    3  502    0 -0.33013503704E+03  0.26214983015E+03  0.53439793922E+03  0.68065617868E+03  0.25500000920E-02 0. -1.
       -2    1    3    3    0  502  0.33013503704E+03 -0.26214983015E+03 -0.16072237748E+03  0.45115779807E+03  0.25500000920E-02 0.  1.
</event>
<event>
 5   0  0.3713158E-03  0.1076773E+04  0.7818609E-02  0.9228131E-01
        2   -1    0    0  501    0  0.00000000000E+00  0.00000000000E+00  0.11790077164E+04  0.11790077164E+04  0.25500000920E-02 0. -1.
       -2   -1    0    0    0  501  0.00000000000E+00  0.00000000000E+00 -0.24585061007E+03  0.24585061008E+03  0.25500000920E-02 0.  1.
    10030    2    1    2    0    0  0.00000000000E+00  0.00000000000E+00  0.93315710631E+03  0.14248583265E+04  0.10767725226E+04 0.  0.
        4    1    3    3  502    0  0.39517270647E+03 -0.33746500153E+03  0.28031218880E+03  0.59044104810E+03  0.12699999809E+01 0.  1.
       -4    1    3    3    0  502 -0.39517270647E+03  0.33746500153E+03  0.65284491751E+03  0.83441727836E+03  0.12699999809E+01 0. -1.
</event>
<event>
 5   0  0.3748901E-03  0.1181187E+04  0.7818609E-02  0.9129484E-01
       -2   -1    0    0    0  501  0.00000000000E+00  0.00000000000E+00  0.41401970519E+03  0.41401970520E+03  0.25500000920E-02 0. -1.
        2   -1    0    0  501    0  0.00000000000E+00  0.00000000000E+00 -0.84247425741E+03  0.84247425742E+03  0.25500000920E-02 0.  1.
    10030    2    1    2    0    0  0.00000000000E+00  0.00000000000E+00 -0.42845455222E+03  0.12564939626E+04  0.11811874427E+04 0.  0.
        5    1    3    3  502    0 -0.11362679129E+03  0.26907371249E+03  0.33178802864E+03  0.44206005972E+03  0.46999998093E+01 0. -1.
       -5    1    3    3    0  502  0.11362679129E+03 -0.26907371249E+03 -0.76024258086E+03  0.81443390290E+03  0.46999998093E+01 0.  1.
</event>
<event>
 5   0  0.3713158E-03  0.1179156E+04  0.7818609E-02  0.9131300E-01
        2   -1    0    0  501    0  0.00000000000E+00  0.00000000000E+00  0.16207179745E+04  0.16207179745E+04  0.25500000920E-02 0. -1.
       -2   -1    0    0    0  501  0.00000000000E+00  0.00000000000E+00 -0.21447416289E+03  0.21447416291E+03  0.25500000920E-02 0.  1.
    10030    2    1    2    0    0  0.00000000000E+00  0.00000000000E+00  0.14062438116E+04  0.18351921375E+04  0.11791558521E+04 0.  0.
        4    1    3    3  502    0 -0.44025189856E+03 -0.70390987031E+02  0.13035301670E+04  0.13776680059E+04  0.12699999809E+01 0. -1.
       -4    1    3    3    0  502  0.44025189856E+03  0.70390987031E+02  0.10271364461E+03  0.45752413153E+03  0.12699999809E+01 0.  1.
</event>
<event>
 5   0  0.3992414E-03  0.1150272E+04  0.7818609E-02  0.9157533E-01
       -2   -1    0    0    0  501  0.00000000000E+00  0.00000000000E+00  0.63885674381E+03  0.63885674382E+03  0.25500000920E-02 0.  1.
        2   -1    0    0  501    0  0.00000000000E+00  0.00000000000E+00 -0.51777100715E+03  0.51777100716E+03  0.25500000920E-02 0. -1.
    10030    2    1    2    0    0  0.00000000000E+00  0.00000000000E+00  0.12108573666E+03  0.11566277510E+04  0.11502721411E+04 0.  0.
        1    1    3    3  502    0  0.20458505458E+03 -0.41847426329E+03  0.39975790990E+03  0.61382582232E+03  0.50400001928E-02 0.  1.
       -1    1    3    3    0  502 -0.20458505458E+03  0.41847426329E+03 -0.27867217324E+03  0.54280192866E+03  0.50400001928E-02 0. -1.
</event>
<event>
 5   0  0.3748901E-03  0.1132520E+04  0.7818609E-02  0.9174063E-01
       -2   -1    0    0    0  501  0.00000000000E+00  0.00000000000E+00  0.24315326385E+03  0.24315326386E+03  0.25500000920E-02 0. -1.
        2   -1    0    0  501    0  0.00000000000E+00  0.00000000000E+00 -0.13187162610E+04  0.13187162610E+04  0.25500000920E-02 0.  1.
    10030    2    1    2    0    0  0.00000000000E+00  0.00000000000E+00 -0.10755629972E+04  0.15618695249E+04  0.11325196033E+04 0.  0.
        5    1    3    3  502    0 -0.95280260368E+02  0.42527169432E+02 -0.13053170498E+04  0.13094890525E+04  0.46999998093E+01 0.  1.
       -5    1    3    3    0  502  0.95280260368E+02 -0.42527169432E+02  0.22975405261E+03  0.25238047239E+03  0.46999998093E+01 0. -1.
</event>
<event>
 5   0  0.3962999E-03  0.1103546E+04  0.7818609E-02  0.9201743E-01
        2   -1    0    0  501    0  0.00000000000E+00  0.00000000000E+00  0.35984958015E+03  0.35984958016E+03  0.25500000920E-02 0.  1.
       -2   -1    0    0    0  501  0.00000000000E+00  0.00000000000E+00 -0.84605748713E+03  0.84605748714E+03  0.25500000920E-02 0. -1.
    10030    2    1    2    0    0  0.00000000000E+00  0.00000000000E+00 -0.48620790698E+03  0.12059070673E+04  0.11035459783E+04 0.  0.
        3    1    3    3  502    0  0.14253417068E+03 -0.53061616370E+03 -0.18755667309E+03  0.58055750689E+03  0.10100000352E+00 0.  1.
       -3    1    3    3    0  502 -0.14253417068E+03  0.53061616370E+03 -0.29865123389E+03  0.62534956040E+03  0.10100000352E+00 0. -1.
</event>
<event>
 5   0  0.3713158E-03  0.1127097E+04  0.7818609E-02  0.9179176E-01
        2   -1    0    0  501    0  0.00000000000E+00  0.00000000000E+00  0.10690562608E+04  0.10690562608E+04  0.25500000920E-02 0. -1.
       -2   -1    0    0    0  501  0.00000000000E+00  0.00000000000E+00 -0.29707234322E+03  0.29707234323E+03  0.25500000920E-02 0.  1.
    10030    2    1    2    0    0  0.00000000000E+00  0.00000000000E+00  0.77198391763E+03  0.13661286041E+04  0.11270972424E+04 0.  0.
        4    1    3    3  502    0  0.88163508902E+01  0.28406182928E+03 -0.20385080278E+03  0.34975078783E+03  0.12699999809E+01 0.  1.
       -4    1    3    3    0  502 -0.88163508902E+01 -0.28406182928E+03  0.97583472040E+03  0.10163778162E+04  0.12699999809E+01 0. -1.
</event>
<event>
 5   0  0.2255788E-03  0.1054529E+04  0.7818609E-02  0.9250681E-01
        1   -1    0    0  501    0  0.00000000000E+00  0.00000000000E+00  0.39813516838E+03  0.39813516841E+03  0.50400001928E-02 0. -1.
       -1   -1    0    0    0  501  0.00000000000E+00  0.00000000000E+00 -0.69827440012E+03  0.69827440014E+03  0.50400001928E-02 0.  1.
    10030    2    1    2    0    0  0.00000000000E+00  0.00000000000E+00 -0.30013923175E+03  0.10964095685E+04  0.10545285125E+04 0.  0.
        3    1    3    3  502    0 -0.27403561087E+03 -0.25022417801E+03 -0.53951200255E+03  0.65481361194E+03  0.10100000352E+00 0.  1.
       -3    1    3    3    0  502  0.27403561087E+03  0.25022417801E+03  0.23937277081E+03  0.44159595661E+03  0.10100000352E+00 0. -1.
</event>
<event>
 5   0  0.2374100E-03  0.9918070E+03  0.7818609E-02  0.9317577E-01
        1   -1    0    0  501    0  0.00000000000E+00  0.00000000000E+00  0.78275348122E+03  0.78275348123E+03  0.50400001928E-02 0.  1.
       -1   -1    0    0    0  501  0.00000000000E+00  0.00000000000E+00 -0.31417333661E+03  0.31417333665E+03  0.50400001928E-02 0. -1.
    10030    2    1    2    0    0  0.00000000000E+00  0.00000000000E+00  0.46858014461E+03  0.10969268179E+04  0.99180698317E+03 0.  0.
        2    1    3    3  502    0 -0.72573432869E+02 -0.27904026744E+03  0.68052567710E+03  0.73908427882E+03  0.25500000920E-02 0.  1.
       -2    1    3    3    0  502  0.72573432869E+02  0.27904026744E+03 -0.21194553249E+03  0.35784253906E+03  0.25500000920E-02 0. -1.
</event>
<event>
 5   0  0.2255788E-03  0.1104525E+04  0.7818609E-02  0.9200793E-01
       -1   -1    0    0    0  501  0.00000000000E+00  0.00000000000E+00  0.33269445506E+03  0.33269445510E+03  0.50400001928E-02 0.  1.
        1   -1    0    0  501    0  0.00000000000E+00  0.00000000000E+00 -0.91673889463E+03  0.91673889464E+03  0.50400001928E-02 0. -1.
    10030    2    1    2    0    0  0.00000000000E+00  0.00000000000E+00 -0.58404443957E+03  0.12494333497E+04  0.11045251414E+04 0.  0.
        3    1    3    3  502    0  0.16348344763E+03 -0.21502985872E+03 -0.83691225364E+03  0.87942413447E+03  0.10100000352E+00 0. -1.
       -3    1    3    3    0  502 -0.16348344763E+03  0.21502985872E+03  0.25286781407E+03  0.37000921527E+03  0.10100000352E+00 0.  1.
</event>
<event>
 5   0  0.3713158E-03  0.1080344E+04  0.7818609E-02  0.9224564E-01
       -2   -1    0    0    0  501  0.00000000000E+00  0.00000000000E+00  0.37080736227E+03  0.37080736228E+03  0.25500000920E-02 0.  1.
        2   -1    0    0  501    0  0.00000000000E+00  0.00000000000E+00 -0.78689341460E+03  0.78689341460E+03  0.25500000920E-02 0. -1.
    10030    2    1    2    0    0  0.00000000000E+00  0.00000000000E+00 -0.41608605233E+03  0.11577007769E+04  0.10803441516E+04 0.  0.
        4    1    3    3  502    0 -0.57267049730E+02  0.40216429744E+03 -0.58958303312E+03  0.71597863304E+03  0.12699999809E+01 0. -1.
       -4    1    3    3    0  502  0.57267049730E+02 -0.40216429744E+03  0.17349698080E+03  0.44172214385E+03  0.12699999809E+01 0.  1.
</event>
<event>
 5   0  0.2298958E-03  0.1113779E+04  0.7818609E-02  0.9191865E-01
        1   -1    0    0  501    0  0.00000000000E+00  0.00000000000E+00  0.88995162398E+03  0.88995162400E+03  0.50400001928E-02 0.  1.
       -1   -1    0    0    0  501  0.00000000000E+00  0.00000000000E+00 -0.34847500663E+03  0.34847500666E+03  0.50400001928E-02 0. -1.
    10030    2    1    2    0    0  0.00000000000E+00  0.00000000000E+00  0.54147661736E+03  0.12384266307E+04  0.11137789693E+04 0.  0.
        1    1    3    3  502    0  0.11355051135E+03  0.36862911083E+03 -0.17589252245E+03  0.42393315447E+03  0.50400001928E-02 0. -1.
       -1    1    3    3    0  502 -0.11355051135E+03 -0.36862911083E+03  0.71736913981E+03  0.81449347619E+03  0.50400001928E-02 0.  1.
</event>
<event>
 5   0  0.2300702E-03  0.1099540E+04  0.7818609E-02  0.9205640E-01
        1   -1    0    0  501    0  0.00000000000E+00  0.00000000000E+00  0.22551498261E+04  0.22551498261E+04  0.50400001928E-02 0.  1.
       -1   -1    0    0    0  501  0.00000000000E+00  0.00000000000E+00 -0.13402536933E+03  0.13402536943E+03  0.50400001928E-02 0. -1.
    10030    2    1    2    0    0  0.00000000000E+00  0.00000000000E+00  0.21211244568E+04  0.23891751956E+04  0.10995404285E+04 0.  0.
        5    1    3    3  502    0  0.38928393199E+03 -0.36409878612E+03  0.76810694415E+03  0.93494399480E+03  0.46999998093E+01 0.  1.
       -5    1    3    3    0  502 -0.38928393199E+03  0.36409878612E+03  0.13530175127E+04  0.14542312008E+04  0.46999998093E+01 0. -1.
</event>
<event>
 5   0  0.2298958E-03  0.1111267E+04  0.7818609E-02  0.9194279E-01
       -1   -1    0    0    0  501  0.00000000000E+00  0.00000000000E+00  0.40058500344E+03  0.40058500347E+03  0.50400001928E-02 0.  1.
        1   -1    0    0  501    0  0.00000000000E+00  0.00000000000E+00 -0.77069421209E+03  0.77069421210E+03  0.50400001928E-02 0. -1.
    10030    2    1    2    0    0  0.00000000000E+00  0.00000000000E+00 -0.37010920864E+03  0.11712792156E+04  0.11112669232E+04 0.  0.
        1    1    3    3  502    0  0.41882912332E+03 -0.36460256193E+03 -0.16462539287E+03  0.57918423901E+03  0.50400001928E-02 0.  1.
       -1    1    3    3    0  502 -0.41882912332E+03  0.36460256193E+03 -0.20548381577E+03  0.59209497657E+03  0.50400001928E-02 0. -1.
</event>
<event>
 5   0  0.2374100E-03  0.1101037E+04  0.7818609E-02  0.9204181E-01
        1   -1    0    0  501    0  0.00000000000E+00  0.00000000000E+00  0.24679896266E+04  0.24679896266E+04  0.50400001928E-02 0. -1.
       -1   -1    0    0    0  501  0.00000000000E+00  0.00000000000E+00 -0.12280065695E+03  0.12280065705E+03  0.50400001928E-02 0.  1.
    10030    2    1    2    0    0  0.00000000000E+00  0.00000000000E+00  0.23451889696E+04  0.25907902836E+04  0.11010372339E+04 0.  0.
        2    1    3    3  502    0  0.22359335417E+03  0.44298211012E+03  0.61158387040E+03  0.78756711997E+03  0.25500000920E-02 0.  1.
       -2    1    3    3    0  502 -0.22359335417E+03 -0.44298211012E+03  0.17336050992E+04  0.18032231636E+04  0.25500000920E-02 0. -1.
</event>
<event>
 5   0  0.3748901E-03  0.1032513E+04  0.7818609E-02  0.9273587E-01
        2   -1    0    0  501    0  0.00000000000E+00  0.00000000000E+00  0.23521717953E+04  0.23521717953E+04  0.25500000920E-02 0.  1.
       -2   -1    0    0    0  501  0.00000000000E+00  0.00000000000E+00 -0.11330843520E+03  0.11330843523E+03  0.25500000920E-02 0. -1.
    10030    2    1    2    0    0  0.00000000000E+00  0.00000000000E+00  0.22388633601E+04  0.24654802305E+04  0.10325132551E+04 0.  0.
        5    1    3    3  502    0 -0.45428572311E+03 -0.17597053205E+03  0.15271707147E+04  0.16030014436E+04  0.46999998093E+01 0.  1.
       -5    1    3    3    0  502  0.45428572311E+03  0.17597053205E+03  0.71169264542E+03  0.86247878694E+03  0.46999998093E+01 0. -1.
</event>
<event>
 5   0  0.3713158E-03  0.1117470E+04  0.7818609E-02  0.9188330E-01
        2   -1    0    0  501    0  0.00000000000E+00  0.00000000000E+00  0.40217998951E+03  0.40217998952E+03  0.25500000920E-02 0.  1.
       -2   -1    0    0    0  501  0.00000000000E+00  0.00000000000E+00 -0.77623141244E+03  0.77623141244E+03  0.25500000920E-02 0. -1.
    10030    2    1    2    0    0  0.00000000000E+00  0.00000000000E+00 -0.37405142292E+03  0.11784114020E+04  0.11174698946E+04 0.  0.
        4    1    3    3  502    0 -0.33958667437E+03  0.33218066142E+03 -0.49720973693E+03  0.68766433427E+03  0.12699999809E+01 0. -1.
       -4    1    3    3    0  502  0.33958667437E+03 -0.33218066142E+03  0.12315831401E+03  0.49074706769E+03  0.12699999809E+01 0.  1.
</event>
<event>
 5   0  0.2255788E-03  0.1098557E+04  0.7818609E-02  0.9206600E-01
       -1   -1    0    0    0  501  0.00000000000E+00  0.00000000000E+00  0.71871561229E+03  0.71871561231E+03  0.50400001928E-02 0. -1.
        1   -1    0    0  501    0  0.00000000000E+00  0.00000000000E+00 -0.41978600168E+03  0.41978600171E+03  0.50400001928E-02 0.  1.
    10030    2    1    2    0    0  0.00000000000E+00  0.00000000000E+00  0.29892961062E+03  0.11385016140E+04  0.10985567864E+04 0.  0.
        3    1    3    3  502    0  0.14538706765E+03  0.45248850535E+03  0.43483791123E+03  0.64417952945E+03  0.10100000352E+00 0. -1.
       -3    1    3    3    0  502 -0.14538706765E+03 -0.45248850535E+03 -0.13590830062E+03  0.49432208457E+03  0.10100000352E+00 0.  1.
</event>
<event>
 5   0  0.1508625E-03  0.1105116E+04  0.7818609E-02  0.9200220E-01
        4   -1    0    0  501    0  0.00000000000E+00  0.00000000000E+00  0.23814502705E+03  0.23814841341E+03  0.12699999809E+01 0.  1.
       -4   -1    0    0    0  501  0.00000000000E+00  0.00000000000E+00 -0.12820644723E+04  0.12820651013E+04  0.12699999809E+01 0. -1.
    10030    2    1    2    0    0  0.00000000000E+00  0.00000000000E+00 -0.10439194452E+04  0.15202135147E+04  0.11051159768E+04 0.  0.
        5    1    3    3  502    0 -0.52967854191E+03  0.11129524221E+03 -0.36907298962E+03  0.65512056170E+03  0.46999998093E+01 0.  1.
       -5    1    3    3    0  502  0.52967854191E+03 -0.11129524221E+03 -0.67484645559E+03  0.86509295300E+03  0.46999998093E+01 0. -1.
</event>
<event>
 5   0  0.3713158E-03  0.1101727E+04  0.7818609E-02  0.9203510E-01
       -2   -1    0    0    0  501  0.00000000000E+00  0.00000000000E+00  0.24754784694E+03  0.24754784696E+03  0.25500000920E-02 0.  1.
        2   -1    0    0  501    0  0.00000000000E+00  0.00000000000E+00 -0.12258268290E+04  0.12258268290E+04  0.25500000920E-02 0. -1.
    10030    2    1    2    0    0  0.00000000000E+00  0.00000000000E+00 -0.97827898209E+03  0.14733746760E+04  0.11017273569E+04 0.  0.
        4    1    3    3  502    0 -0.11513010689E+03  0.37829313468E+03 -0.10020345193E+04  0.10772350848E+04  0.12699999809E+01 0. -1.
       -4    1    3    3    0  502  0.11513010689E+03 -0.37829313468E+03  0.23755537168E+02  0.39613959118E+03  0.12699999809E+01 0.  1.
</event>
<event>
 5   0  0.2298958E-03  0.1167811E+04  0.7818609E-02  0.9141507E-01
        1   -1    0    0  501    0  0.00000000000E+00  0.00000000000E+00  0.92260514520E+03  0.92260514522E+03  0.50400001928E-02 0.  1.
       -1   -1    0    0    0  501  0.00000000000E+00  0.00000000000E+00 -0.36954689105E+03  0.36954689108E+03  0.50400001928E-02 0. -1.
    10030    2    1    2    0    0  0.00000000000E+00  0.00000000000E+00  0.55305825416E+03  0.12921520363E+04  0.11678113942E+04 0.  0.
        1    1    3    3  502    0  0.26153500568E+03  0.23520044564E+03  0.79222881055E+03  0.86680234028E+03  0.50400001928E-02 0.  1.
       -1    1    3    3    0  502 -0.26153500568E+03 -0.23520044564E+03 -0.23917055639E+03  0.42534969601E+03  0.50400001928E-02 0. -1.
</event>
<event>
 5   0  0.3713158E-03  0.1111395E+04  0.7818609E-02  0.9194156E-01
       -2   -1    0    0    0  501  0.00000000000E+00  0.00000000000E+00  0.35220624971E+03  0.35220624972E+03  0.25500000920E-02 0. -1.
        2   -1    0    0  501    0  0.00000000000E+00  0.00000000000E+00 -0.87675810839E+03  0.87675810839E+03  0.25500000920E-02 0.  1.
    10030    2    1    2    0    0  0.00000000000E+00  0.00000000000E+00 -0.52455185867E+03  0.12289643581E+04  0.11113949528E+04 0.  0.
        4    1    3    3  502    0  0.33078184912E+03 -0.21628646714E+03  0.16969091927E+03  0.43010822889E+03  0.12699999809E+01 0. -1.
       -4    1    3    3    0  502 -0.33078184912E+03  0.21628646714E+03 -0.69424277795E+03  0.79885612923E+03  0.12699999809E+01 0.  1.
</event>
<event>
 5   0  0.2257667E-03  0.1121952E+04  0.7818609E-02  0.9184057E-01
        1   -1    0    0  501    0  0.00000000000E+00  0.00000000000E+00  0.40718860102E+03  0.40718860106E+03  0.50400001928E-02 0. -1.
       -1   -1    0    0    0  501  0.00000000000E+00  0.00000000000E+00 -0.77284549749E+03  0.77284549751E+03  0.50400001928E-02 0.  1.
    10030    2    1    2    0    0  0.00000000000E+00  0.00000000000E+00 -0.36565689647E+03  0.11800340986E+04  0.11219516513E+04 0.  0.
        4    1    3    3  502    0 -0.24076270318E+03 -0.11142193896E+03 -0.70269477901E+03  0.75110791040E+03  0.12699999809E+01 0.  1.
       -4    1    3    3    0  502  0.24076270318E+03  0.11142193896E+03  0.33703788254E+03  0.42892618816E+03  0.12699999809E+01 0. -1.
</event>
<event>
 5   0  0.2298958E-03  0.1097750E+04  0.7818609E-02  0.9207388E-01
       -1   -1    0    0    0  501  0.00000000000E+00  0.00000000000E+00  0.50980044687E+03  0.50980044690E+03  0.50400001928E-02 0. -1.
        1   -1    0    0  501    0  0.00000000000E+00  0.00000000000E+00 -0.59094414739E+03  0.59094414741E+03  0.50400001928E-02 0.  1.
    10030    2    1    2    0    0  0.00000000000E+00  0.00000000000E+00 -0.81143700516E+02  0.11007445943E+04  0.10977496808E+04 0.  0.
        1    1    3    3  502    0  0.33528126791E+03  0.33649562745E+03 -0.31631437323E+03  0.57069923659E+03  0.50400001928E-02 0.  1.
       -1    1    3    3    0  502 -0.33528126791E+03 -0.33649562745E+03  0.23517067271E+03  0.53004535772E+03  0.50400001928E-02 0. -1.
</event>
<event>
 5   0  0.3962999E-03  0.1107370E+04  0.7818609E-02  0.9198038E-01
        2   -1    0    0  501    0  0.00000000000E+00  0.00000000000E+00  0.17381514370E+04  0.17381514370E+04  0.25500000920E-02 0.  1.
       -2   -1    0    0    0  501  0.00000000000E+00  0.00000000000E+00 -0.17637530626E+03  0.17637530628E+03  0.25500000920E-02 0. -1.
    10030    2    1    2    0    0  0.00000000000E+00  0.00000000000E+00  0.15617761308E+04  0.19145267433E+04  0.11073698426E+04 0.  0.
        3    1    3    3  502    0 -0.96386639744E+02  0.33886089860E+03  0.42404989501E+02  0.35484543995E+03  0.10100000352E+00 0. -1.
       -3    1    3    3    0  502  0.96386639744E+02 -0.33886089860E+03  0.15193711413E+04  0.15596813034E+04  0.10100000352E+00 0.  1.
</event>
<event>
 5   0  0.2300702E-03  0.1084601E+04  0.7818609E-02  0.9220332E-01
       -1   -1    0    0    0  501  0.00000000000E+00  0.00000000000E+00  0.78916051393E+03  0.78916051395E+03  0.50400001928E-02 0. -1.
        1   -1    0    0  501    0  0.00000000000E+00  0.00000000000E+00 -0.37266142955E+03  0.37266142959E+03  0.50400001928E-02 0.  1.
    10030    2    1    2    0    0  0.00000000000E+00  0.00000000000E+00  0.41649908438E+03  0.11618219435E+04  0.10846007289E+04 0.  0.
        5    1    3    3  502    0  0.81133571860E+01  0.35638351847E+03  0.64599156406E+03  0.73783618076E+03  0.46999998093E+01 0. -1.
       -5    1    3    3    0  502 -0.81133571860E+01 -0.35638351847E+03 -0.22949247968E+03  0.42398576277E+03  0.46999998093E+01 0.  1.
</event>
<event>
 5   0  0.3962999E-03  0.1115359E+04  0.7818609E-02  0.9190350E-01
        2   -1    0    0  501    0  0.00000000000E+00  0.00000000000E+00  0.75938110412E+03  0.75938110412E+03  0.25500000920E-02 0. -1.
       -2   -1    0    0    0  501  0.00000000000E+00  0.00000000000E+00 -0.40955273038E+03  0.40955273039E+03  0.25500000920E-02 0.  1.
    10030    2    1    2    0    0  0.00000000000E+00  0.00000000000E+00  0.34982837374E+03  0.11689338345E+04  0.11153593225E+04 0.  0.
        3    1    3    3  502    0 -0.12982676861E+03 -0.12016227218E+02 -0.39335501794E+03  0.41440024120E+03  0.10100000352E+00 0.  1.
       -3    1    3    3    0  502  0.12982676861E+03  0.12016227218E+02  0.74318339168E+03  0.75453359331E+03  0.10100000352E+00 0. -1.
</event>
<event>
 5   0  0.3713158E-03  0.1099941E+04  0.7818609E-02  0.9205250E-01
       -2   -1    0    0    0  501  0.00000000000E+00  0.00000000000E+00  0.21035547288E+03  0.21035547289E+03  0.25500000920E-02 0.  1.
        2   -1    0    0  501    0  0.00000000000E+00  0.00000000000E+00 -0.14378871165E+04  0.14378871165E+04  0.25500000920E-02 0. -1.
    10030    2    1    2    0    0  0.00000000000E+00  0.00000000000E+00 -0.12275316436E+04  0.16482425894E+04  0.10999407699E+04 0.  0.
        4    1    3    3  502    0 -0.49919778757E+03  0.22814364529E+03 -0.56147203897E+03  0.78517540553E+03  0.12699999809E+01 0. -1.
       -4    1    3    3    0  502  0.49919778757E+03 -0.22814364529E+03 -0.66605960463E+03  0.86306718384E+03  0.12699999809E+01 0.  1.
</event>
<event>
 5   0  0.3962999E-03  0.1092556E+04  0.7818609E-02  0.9212478E-01
        2   -1    0    0  501    0  0.00000000000E+00  0.00000000000E+00  0.56664342183E+03  0.56664342184E+03  0.25500000920E-02 0.  1.
       -2   -1    0    0    0  501  0.00000000000E+00  0.00000000000E+00 -0.52664426410E+03  0.52664426411E+03  0.25500000920E-02 0. -1.
    10030    2    1    2    0    0  0.00000000000E+00  0.00000000000E+00  0.39999157729E+02  0.10932876859E+04  0.10925557339E+04 0.  0.
        3    1    3    3  502    0 -0.49481629094E+03  0.15380046193E+02  0.25110839194E+03  0.55509921843E+03  0.10100000352E+00 0.  1.
       -3    1    3    3    0  502  0.49481629094E+03 -0.15380046193E+02 -0.21110923421E+03  0.53818846752E+03  0.10100000352E+00 0. -1.
</event>
<event>
 5   0  0.3992414E-03  0.1099216E+04  0.7818609E-02  0.9205956E-01
        2   -1    0    0  501    0  0.00000000000E+00  0.00000000000E+00  0.80558934159E+03  0.80558934160E+03  0.25500000920E-02 0.  1.
       -2   -1    0    0    0  501  0.00000000000E+00  0.00000000000E+00 -0.37496664201E+03  0.37496664202E+03  0.25500000920E-02 0. -1.
    10030    2    1    2    0    0  0.00000000000E+00  0.00000000000E+00  0.43062269958E+03  0.11805559836E+04  0.10992163213E+04 0.  0.
        1    1    3    3  502    0 -0.44009983900E+03  0.32832975305E+03  0.18942743941E+03  0.58083650871E+03  0.50400001928E-02 0. -1.
       -1    1    3    3    0  502  0.44009983900E+03 -0.32832975305E+03  0.24119526017E+03  0.59971947490E+03  0.50400001928E-02 0.  1.
</event>
<event>
 5   0  0.1508625E-03  0.1088922E+04  0.7818609E-02  0.9216057E-01
        4   -1    0    0  501    0  0.00000000000E+00  0.00000000000E+00  0.15645592209E+04  0.15645597364E+04  0.12699999809E+01 0.  1.
       -4   -1    0    0    0  501  0.00000000000E+00  0.00000000000E+00 -0.18946783907E+03  0.18947209542E+03  0.12699999809E+01 0. -1.
    10030    2    1    2    0    0  0.00000000000E+00  0.00000000000E+00  0.13750913818E+04  0.17540318318E+04  0.10889221086E+04 0.  0.
        5    1    3    3  502    0  0.15628287059E+03 -0.50330358300E+03  0.46740858467E+03  0.70443715641E+03  0.46999998093E+01 0. -1.
       -5    1    3    3    0  502 -0.15628287059E+03  0.50330358300E+03  0.90768279717E+03  0.10495946754E+04  0.46999998093E+01 0.  1.
</event>
<event>
 5   0  0.2257667E-03  0.1098400E+04  0.7818609E-02  0.9206753E-01
        1   -1    0    0  501    0  0.00000000000E+00  0.00000000000E+00  0.52842673869E+03  0.52842673872E+03  0.50400001928E-02 0.  1.
       -1   -1    0    0    0  501  0.00000000000E+00  0.00000000000E+00 -0.57078991366E+03  0.57078991368E+03  0.50400001928E-02 0. -1.
    10030    2    1    2    0    0  0.00000000000E+00  0.00000000000E+00 -0.42363174966E+02  0.10992166524E+04  0.10984000229E+04 0.  0.
        4    1    3    3  502    0 -0.18995648412E+03  0.16985469933E+03  0.46568289362E+03  0.53084485027E+03  0.12699999809E+01 0.  1.
       -4    1    3    3    0  502  0.18995648412E+03 -0.16985469933E+03 -0.50804606859E+03  0.56837180213E+03  0.12699999809E+01 0. -1.
</event>
<event>
 5   0  0.3748901E-03  0.1089547E+04  0.7818609E-02  0.9215440E-01
        2   -1    0    0  501    0  0.00000000000E+00  0.00000000000E+00  0.28584861769E+03  0.28584861770E+03  0.25500000920E-02 0. -1.
       -2   -1    0    0    0  501  0.00000000000E+00  0.00000000000E+00 -0.10382352205E+04  0.10382352205E+04  0.25500000920E-02 0.  1.
    10030    2    1    2    0    0  0.00000000000E+00  0.00000000000E+00 -0.75238660280E+03  0.13240838382E+04  0.10895468831E+04 0.  0.
        5    1    3    3  502    0 -0.27629426728E+03 -0.24614117213E+03  0.10965584912E+03  0.38596695972E+03  0.46999998093E+01 0. -1.
       -5    1    3    3    0  502  0.27629426728E+03  0.24614117213E+03 -0.86204245192E+03  0.93811687847E+03  0.46999998093E+01 0.  1.
</event>
<event>
 5   0  0.2298958E-03  0.1085557E+04  0.7818609E-02  0.9219384E-01
        1   -1    0    0  501    0  0.00000000000E+00  0.00000000000E+00  0.46717143589E+03  0.46717143591E+03  0.50400001928E-02 0. -1.
       -1   -1    0    0    0  501  0.00000000000E+00  0.00000000000E+00 -0.63062209008E+03  0.63062209010E+03  0.50400001928E-02 0.  1.
    10030    2    1    2    0    0  0.00000000000E+00  0.00000000000E+00 -0.16345065419E+03  0.10977935260E+04  0.10855572345E+04 0.  0.
        1    1    3    3  502    0  0.27302061926E+03 -0.15195329579E+03  0.36710006980E+03  0.48207107766E+03  0.50400001928E-02 0. -1.
       -1    1    3    3    0  502 -0.27302061926E+03  0.15195329579E+03 -0.53055072399E+03  0.61572244835E+03  0.50400001928E-02 0.  1.
</event>
<event>
 5   0  0.2257667E-03  0.1113534E+04  0.7818609E-02  0.9192101E-01
        1   -1    0    0  501    0  0.00000000000E+00  0.00000000000E+00  0.11539564262E+04  0.11539564262E+04  0.50400001928E-02 0. -1.
       -1   -1    0    0    0  501  0.00000000000E+00  0.00000000000E+00 -0.26863171351E+03  0.26863171355E+03  0.50400001928E-02 0.  1.
    10030    2    1    2    0    0  0.00000000000E+00  0.00000000000E+00  0.88532471266E+03  0.14225881397E+04  0.11135336405E+04 0.  0.
        4    1    3    3  502    0  0.10814643267E+03  0.53437267097E+03  0.29847593449E+03  0.62156198303E+03  0.12699999809E+01 0. -1.
       -4    1    3    3    0  502 -0.10814643267E+03 -0.53437267097E+03  0.58684877817E+03  0.80102615670E+03  0.12699999809E+01 0.  1.
</event>
<event>
 5   0  0.2300702E-03  0.1099284E+04  0.7818609E-02  0.9205890E-01
        1   -1    0    0  501    0  0.00000000000E+00  0.00000000000E+00  0.90550716053E+03  0.90550716055E+03  0.50400001928E-02 0.  1.
       -1   -1    0    0    0  501  0.00000000000E+00  0.00000000000E+00 -0.33363204505E+03  0.33363204509E+03  0.50400001928E-02 0. -1.
    10030    2    1    2    0    0  0.00000000000E+00  0.00000000000E+00  0.57187511548E+03  0.12391392056E+04  0.10992837774E+04 0.  0.
        5    1    3    3  502    0 -0.50568565810E+02 -0.13034168975E+03  0.88510567657E+03  0.89609167200E+03  0.46999998093E+01 0.  1.
       -5    1    3    3    0  502  0.50568565810E+02  0.13034168975E+03 -0.31323056109E+03  0.34304753364E+03  0.46999998093E+01 0. -1.
</event>
<event>
 5   0  0.3713158E-03  0.1112648E+04  0.7818609E-02  0.9192952E-01
       -2   -1    0    0    0  501  0.00000000000E+00  0.00000000000E+00  0.39005189895E+03  0.39005189895E+03  0.25500000920E-02 0.  1.
        2   -1    0    0  501    0  0.00000000000E+00  0.00000000000E+00 -0.79347434376E+03  0.79347434377E+03  0.25500000920E-02 0. -1.
    10030    2    1    2    0    0  0.00000000000E+00  0.00000000000E+00 -0.40342244482E+03  0.11835262427E+04  0.11126476074E+04 0.  0.
        4    1    3    3  502    0  0.10648677158E+02  0.54113235903E+03 -0.33858184931E+03  0.63841750124E+03  0.12699999809E+01 0.  1.
       -4    1    3    3    0  502 -0.10648677158E+02 -0.54113235903E+03 -0.64840595507E+02  0.54510874148E+03  0.12699999809E+01 0. -1.
</event>
<event>
 5   0  0.2298958E-03  0.1106532E+04  0.7818609E-02  0.9198848E-01
       -1   -1    0    0    0  501  0.00000000000E+00  0.00000000000E+00  0.18159457858E+03  0.18159457865E+03  0.50400001928E-02 0. -1.
        1   -1    0    0  501    0  0.00000000000E+00  0.00000000000E+00 -0.16856414750E+04  0.16856414750E+04  0.50400001928E-02 0.  1.
    10030    2    1    2    0    0  0.00000000000E+00  0.00000000000E+00 -0.15040468965E+04  0.18672360537E+04  0.11065321566E+04 0.  0.
        1    1    3    3  502    0  0.54983452710E+03 -0.50596703154E+02 -0.69295440893E+03  0.88603828724E+03  0.50400001928E-02 0. -1.
       -1    1    3    3    0  502 -0.54983452710E+03  0.50596703154E+02 -0.81109248752E+03  0.98119776646E+03  0.50400001928E-02 0.  1.
</event>
<event>
 5   0  0.3744875E-03  0.1091203E+04  0.7818609E-02  0.9213809E-01
        2   -1    0    0  501    0  0.00000000000E+00  0.00000000000E+00  0.11450472000E+04  0.11450472000E+04  0.25500000920E-02 0. -1.
       -2   -1    0    0    0  501  0.00000000000E+00  0.00000000000E+00 -0.25997256466E+03  0.25997256468E+03  0.25500000920E-02 0.  1.
    10030    2    1    2    0    0  0.00000000000E+00  0.00000000000E+00  0.88507463537E+03  0.14050197647E+04  0.10912027443E+04 0.  0.
        2    1    3    3  502    0 -0.38280134412E+03  0.20570559359E+03  0.86730326840E+03  0.97008588263E+03  0.25500000920E-02 0. -1.
       -2    1    3    3    0  502  0.38280134412E+03 -0.20570559359E+03  0.17771366975E+02  0.43493388209E+03  0.25500000920E-02 0.  1.
</event>
<event>
 5   0  0.3748901E-03  0.1104562E+04  0.7818609E-02  0.9200757E-01
        2   -1    0    0  501    0  0.00000000000E+00  0.00000000000E+00  0.51892820179E+03  0.51892820179E+03  0.25500000920E-02 0.  1.
       -2   -1    0    0    0  501  0.00000000000E+00  0.00000000000E+00 -0.58777697192E+03  0.58777697193E+03  0.25500000920E-02 0. -1.
    10030    2    1    2    0    0  0.00000000000E+00  0.00000000000E+00 -0.68848770136E+02  0.11067051737E+04  0.11045615367E+04 0.  0.
        5    1    3    3  502    0 -0.32761514318E+03 -0.43215973787E+03  0.70172831752E+02  0.54684553339E+03  0.46999998093E+01 0. -1.
       -5    1    3    3    0  502  0.32761514318E+03  0.43215973787E+03 -0.13902160189E+03  0.55985964033E+03  0.46999998093E+01 0.  1.
</event>
<event>
 5   0  0.2255788E-03  0.1105920E+04  0.7818609E-02  0.9199441E-01
       -1   -1    0    0    0  501  0.00000000000E+00  0.00000000000E+00  0.23464781401E+03  0.23464781406E+03  0.50400001928E-02 0.  1.
        1   -1    0    0  501    0  0.00000000000E+00  0.00000000000E+00 -0.13030787509E+04  0.13030787509E+04  0.50400001928E-02 0. -1.
    10030    2    1    2    0    0  0.00000000000E+00  0.00000000000E+00 -0.10684309369E+04  0.15377265649E+04  0.11059196723E+04 0.  0.
        3    1    3    3  502    0 -0.34229727075E+03  0.16862649051E+03  0.22246671441E+02  0.38222668596E+03  0.10100000352E+00 0.  1.
       -3    1    3    3    0  502  0.34229727075E+03 -0.16862649051E+03 -0.10906776083E+04  0.11554998790E+04  0.10100000352E+00 0. -1.
</event>
<event>
 5   0  0.1508625E-03  0.1096983E+04  0.7818609E-02  0.9208137E-01
        3   -1    0    0  501    0  0.00000000000E+00  0.00000000000E+00  0.27310059731E+03  0.27310061599E+03  0.10100000352E+00 0. -1.
       -3   -1    0    0    0  501  0.00000000000E+00  0.00000000000E+00 -0.11015831470E+04  0.11015831516E+04  0.10100000352E+00 0.  1.
    10030    2    1    2    0    0  0.00000000000E+00  0.00000000000E+00 -0.82848254968E+03  0.13746837676E+04  0.10969831930E+04 0.  0.
        1    1    3    3  502    0  0.20459629573E+03  0.82059883751E+02  0.21514612141E+03  0.30802811938E+03  0.50400001928E-02 0. -1.
       -1    1    3    3    0  502 -0.20459629573E+03 -0.82059883751E+02 -0.10436286711E+04  0.10666556482E+04  0.50400001928E-02 0.  1.
</event>
<event>
 5   0  0.2300702E-03  0.1095509E+04  0.7818609E-02  0.9209581E-01
        1   -1    0    0  501    0  0.00000000000E+00  0.00000000000E+00  0.17898662162E+04  0.17898662162E+04  0.50400001928E-02 0. -1.
       -1   -1    0    0    0  501  0.00000000000E+00  0.00000000000E+00 -0.16762969780E+03  0.16762969788E+03  0.50400001928E-02 0.  1.
    10030    2    1    2    0    0  0.00000000000E+00  0.00000000000E+00  0.16222365184E+04  0.19574959140E+04  0.10955085267E+04 0.  0.
        5    1    3    3  502    0 -0.31051235198E+03  0.44235749537E+03  0.65215428033E+03  0.84700966334E+03  0.46999998093E+01 0.  1.
       -5    1    3    3    0  502  0.31051235198E+03 -0.44235749537E+03  0.97008223803E+03  0.11104862507E+04  0.46999998093E+01 0. -1.
</event>
<event>
 5   0  0.3744875E-03  0.1108112E+04  0.7818609E-02  0.9197322E-01
        2   -1    0    0  501    0  0.00000000000E+00  0.00000000000E+00  0.25577082750E+03  0.25577082752E+03  0.25500000920E-02 0.  1.
       -2   -1    0    0    0  501  0.00000000000E+00  0.00000000000E+00 -0.12002067035E+04  0.12002067035E+04  0.25500000920E-02 0. -1.
    10030    2    1    2    0    0  0.00000000000E+00  0.00000000000E+00 -0.94443587597E+03  0.14559775310E+04  0.11081116582E+04 0.  0.
        2    1    3    3  502    0  0.30896775243E+03 -0.45284385605E+03 -0.57773559509E+03  0.79643395699E+03  0.25500000920E-02 0. -1.
       -2    1    3    3    0  502 -0.30896775243E+03  0.45284385605E+03 -0.36670028089E+03  0.65954357401E+03  0.25500000920E-02 0.  1.
</event>
<event>
 5   0  0.2257667E-03  0.1102662E+04  0.7818609E-02  0.9202601E-01
        1   -1    0    0  501    0  0.00000000000E+00  0.00000000000E+00  0.47921044313E+03  0.47921044316E+03  0.50400001928E-02 0. -1.
       -1   -1    0    0    0  501  0.00000000000E+00  0.00000000000E+00 -0.63430563037E+03  0.63430563039E+03  0.50400001928E-02 0.  1.
    10030    2    1    2    0    0  0.00000000000E+00  0.00000000000E+00 -0.15509518724E+03  0.11135160736E+04  0.11026620194E+04 0.  0.
        4    1    3    3  502    0  0.35856532857E+03  0.41660447857E+03 -0.12081656444E+03  0.56278472044E+03  0.12699999809E+01 0. -1.
       -4    1    3    3    0  502 -0.35856532857E+03 -0.41660447857E+03 -0.34278622797E+02  0.55073135311E+03  0.12699999809E+01 0.  1.
</event>
<event>
 5   0  0.3962999E-03  0.1091471E+04  0.7818609E-02  0.9213545E-01
        2   -1    0    0  501    0  0.00000000000E+00  0.00000000000E+00  0.54712990918E+03  0.54712990918E+03  0.25500000920E-02 0. -1.
       -2   -1    0    0    0  501  0.00000000000E+00  0.00000000000E+00 -0.54434469930E+03  0.54434469930E+03  0.25500000920E-02 0.  1.
    10030    2    1    2    0    0  0.00000000000E+00  0.00000000000E+00  0.27852098784E+01  0.10914746085E+04  0.10914710548E+04 0.  0.
        3    1    3    3  502    0 -0.79252277370E+02  0.49923784384E+03 -0.20429692566E+03  0.54521242853E+03  0.10100000352E+00 0. -1.
       -3    1    3    3    0  502  0.79252277370E+02 -0.49923784384E+03  0.20708213553E+03  0.54626217995E+03  0.10100000352E+00 0.  1.
</event>
<event>
 5   0  0.3748901E-03  0.1095236E+04  0.7818609E-02  0.9209848E-01
        2   -1    0    0  501    0  0.00000000000E+00  0.00000000000E+00  0.22381185782E+03  0.22381185783E+03  0.25500000920E-02 0.  1.
       -2   -1    0    0    0  501  0.00000000000E+00  0.00000000000E+00 -0.13398997991E+04  0.13398997991E+04  0.25500000920E-02 0. -1.
    10030    2    1    2    0    0  0.00000000000E+00  0.00000000000E+00 -0.11160879413E+04  0.15637116570E+04  0.10952359807E+04 0.  0.
        5    1    3    3  502    0  0.82605628734E+02 -0.24885623790E+03  0.12832648369E+03  0.29196385642E+03  0.46999998093E+01 0.  1.
       -5    1    3    3    0  502 -0.82605628734E+02  0.24885623790E+03 -0.12444144250E+04  0.12717478005E+04  0.46999998093E+01 0. -1.
</event>
<event>
 5   0  0.3713158E-03  0.1096491E+04  0.7818609E-02  0.9208619E-01
        2   -1    0    0  501    0  0.00000000000E+00  0.00000000000E+00  0.28471856551E+03  0.28471856553E+03  0.25500000920E-02 0.  1.
       -2   -1    0    0    0  501  0.00000000000E+00  0.00000000000E+00 -0.10556841631E+04  0.10556841631E+04  0.25500000920E-02 0. -1.
    10030    2    1    2    0    0  0.00000000000E+00  0.00000000000E+00 -0.77096559762E+03  0.13404027287E+04  0.10964905482E+04 0.  0.
        4    1    3    3  502    0 -0.23833157894E+03 -0.37408114372E+03 -0.77939308863E+03  0.89676855605E+03  0.12699999809E+01 0. -1.
       -4    1    3    3    0  502  0.23833157894E+03  0.37408114372E+03  0.84274910175E+01  0.44363417261E+03  0.12699999809E+01 0.  1.
</event>
<event>
 5   0  0.2257667E-03  0.1124845E+04  0.7818609E-02  0.9181309E-01
       -1   -1    0    0    0  501  0.00000000000E+00  0.00000000000E+00  0.29410330109E+03  0.29410330113E+03  0.50400001928E-02 0.  1.
        1   -1    0    0  501    0  0.00000000000E+00  0.00000000000E+00 -0.10755368636E+04  0.10755368636E+04  0.50400001928E-02 0. -1.
    10030    2    1    2    0    0  0.00000000000E+00  0.00000000000E+00 -0.78143356248E+03  0.13696401647E+04  0.11248447752E+04 0.  0.
        4    1    3    3  502    0  0.36959149590E+02  0.37616779503E+03 -0.89782419955E+03  0.97414480184E+03  0.12699999809E+01 0. -1.
       -4    1    3    3    0  502 -0.36959149590E+02 -0.37616779503E+03  0.11639063706E+03  0.39549536287E+03  0.12699999809E+01 0.  1.
</event>
<event>
 5   0  0.3992414E-03  0.1100501E+04  0.7818609E-02  0.9204704E-01
        2   -1    0    0  501    0  0.00000000000E+00  0.00000000000E+00  0.89039263876E+03  0.89039263877E+03  0.25500000920E-02 0.  1.
       -2   -1    0    0    0  501  0.00000000000E+00  0.00000000000E+00 -0.34004704305E+03  0.34004704306E+03  0.25500000920E-02 0. -1.
    10030    2    1    2    0    0  0.00000000000E+00  0.00000000000E+00  0.55034559571E+03  0.12304396818E+04  0.11005005842E+04 0.  0.
        1    1    3    3  502    0  0.11102257781E+03 -0.52704840314E+03  0.40102106824E+03  0.67150869632E+03  0.50400001928E-02 0. -1.
       -1    1    3    3    0  502 -0.11102257781E+03  0.52704840314E+03  0.14932452748E+03  0.55893098551E+03  0.50400001928E-02 0.  1.
</event>
<event>
 5   0  0.2257667E-03  0.1081506E+04  0.7818609E-02  0.9223408E-01
        1   -1    0    0  501    0  0.00000000000E+00  0.00000000000E+00  0.54865400626E+03  0.54865400628E+03  0.50400001928E-02 0.  1.
       -1   -1    0    0    0  501  0.00000000000E+00  0.00000000000E+00 -0.53296529516E+03  0.53296529519E+03  0.50400001928E-02 0. -1.
    10030    2    1    2    0    0  0.00000000000E+00  0.00000000000E+00  0.15688711093E+02  0.10816193015E+04  0.10815055144E+04 0.  0.
        4    1    3    3  502    0 -0.57982061147E+02 -0.34488440689E+03 -0.40463661844E+03  0.53482668166E+03  0.12699999809E+01 0. -1.
       -4    1    3    3    0  502  0.57982061147E+02  0.34488440689E+03  0.42032532954E+03  0.54679261981E+03  0.12699999809E+01 0.  1.
</event>
<event>
 5   0  0.3713158E-03  0.1081720E+04  0.7818609E-02  0.9223194E-01
       -2   -1    0    0    0  501  0.00000000000E+00  0.00000000000E+00  0.35346420925E+03  0.35346420926E+03  0.25500000920E-02 0. -1.
        2   -1    0    0  501    0  0.00000000000E+00  0.00000000000E+00 -0.82760794723E+03  0.82760794724E+03  0.25500000920E-02 0.  1.
    10030    2    1    2    0    0  0.00000000000E+00  0.00000000000E+00 -0.47414373798E+03  0.11810721565E+04  0.10817204605E+04 0.  0.
        4    1    3    3  502    0 -0.27771577994E+02 -0.46681786886E+03 -0.53376078870E+03  0.70964242805E+03  0.12699999809E+01 0.  1.
       -4    1    3    3    0  502  0.27771577994E+02  0.46681786886E+03  0.59617050721E+02  0.47142972845E+03  0.12699999809E+01 0. -1.
</event>
<event>
 5   0  0.2298958E-03  0.1092949E+04  0.7818609E-02  0.9212091E-01
        1   -1    0    0  501    0  0.00000000000E+00  0.00000000000E+00  0.26195142962E+03  0.26195142967E+03  0.50400001928E-02 0. -1.
       -1   -1    0    0    0  501  0.00000000000E+00  0.00000000000E+00 -0.11400375604E+04  0.11400375604E+04  0.50400001928E-02 0.  1.
    10030    2    1    2    0    0  0.00000000000E+00  0.00000000000E+00 -0.87808613080E+03  0.14019889901E+04  0.10929491641E+04 0.  0.
        1    1    3    3  502    0  0.55287949680E+02 -0.54085925683E+03 -0.50987377998E+03  0.74535680356E+03  0.50400001928E-02 0.  1.
       -1    1    3    3    0  502 -0.55287949680E+02  0.54085925683E+03 -0.36821235081E+03  0.65663218653E+03  0.50400001928E-02 0. -1.
</event>
<event>
 5   0  0.3748901E-03  0.1102052E+04  0.7818609E-02  0.9203194E-01
       -2   -1    0    0    0  501  0.00000000000E+00  0.00000000000E+00  0.14508995674E+03  0.14508995677E+03  0.25500000920E-02 0.  1.
        2   -1    0    0  501    0  0.00000000000E+00  0.00000000000E+00 -0.20926988820E+04  0.20926988820E+04  0.25500000920E-02 0. -1.
    10030    2    1    2    0    0  0.00000000000E+00  0.00000000000E+00 -0.19476089252E+04  0.22377888388E+04  0.11020518868E+04 0.  0.
        5    1    3    3  502    0 -0.22144313655E+03 -0.32096796885E+03 -0.17642920087E+04  0.18068773842E+04  0.46999998093E+01 0. -1.
       -5    1    3    3    0  502  0.22144313655E+03  0.32096796885E+03 -0.18331691659E+03  0.43091145454E+03  0.46999998093E+01 0.  1.
</event>
<event>
 5   0  0.3748901E-03  0.1099515E+04  0.7818609E-02  0.9205665E-01
       -2   -1    0    0    0  501  0.00000000000E+00  0.00000000000E+00  0.76116836198E+03  0.76116836198E+03  0.25500000920E-02 0.  1.
        2   -1    0    0  501    0  0.00000000000E+00  0.00000000000E+00 -0.39706487149E+03  0.39706487150E+03  0.25500000920E-02 0. -1.
    10030    2    1    2    0    0  0.00000000000E+00  0.00000000000E+00  0.36410349049E+03  0.11582332335E+04  0.10995148345E+04 0.  0.
        5    1    3    3  502    0 -0.38477648444E+03  0.75133717692E+02  0.58800621193E+03  0.70673291545E+03  0.46999998093E+01 0.  1.
       -5    1    3    3    0  502  0.38477648444E+03 -0.75133717692E+02 -0.22390272144E+03  0.45150031803E+03  0.46999998093E+01 0. -1.
</event>
<event>
 5   0  0.3744875E-03  0.1006608E+04  0.7818609E-02  0.9301327E-01
       -2   -1    0    0    0  501  0.00000000000E+00  0.00000000000E+00  0.31396915497E+03  0.31396915498E+03  0.25500000920E-02 0. -1.
        2   -1    0    0  501    0  0.00000000000E+00  0.00000000000E+00 -0.80681511004E+03  0.80681511004E+03  0.25500000920E-02 0.  1.
    10030    2    1    2    0    0  0.00000000000E+00  0.00000000000E+00 -0.49284595507E+03  0.11207842650E+04  0.10066082819E+04 0.  0.
        2    1    3    3  502    0 -0.33879033468E+03 -0.15255829191E+03 -0.62443434130E+03  0.72661624666E+03  0.25500000920E-02 0.  1.
       -2    1    3    3    0  502  0.33879033468E+03  0.15255829191E+03  0.13158838623E+03  0.39416801836E+03  0.25500000920E-02 0. -1.
</event>
<event>
 5   0  0.3744875E-03  0.1100723E+04  0.7818609E-02  0.9204488E-01
       -2   -1    0    0    0  501  0.00000000000E+00  0.00000000000E+00  0.20628610740E+03  0.20628610741E+03  0.25500000920E-02 0.  1.
        2   -1    0    0  501    0  0.00000000000E+00  0.00000000000E+00 -0.14683370618E+04  0.14683370618E+04  0.25500000920E-02 0. -1.
    10030    2    1    2    0    0  0.00000000000E+00  0.00000000000E+00 -0.12620509544E+04  0.16746231692E+04  0.11007225569E+04 0.  0.
        2    1    3    3  502    0 -0.44943741319E+01 -0.43364452920E+03 -0.11548062211E+03  0.44878006996E+03  0.25500000920E-02 0.  1.
       -2    1    3    3    0  502  0.44943741319E+01  0.43364452920E+03 -0.11465703323E+04  0.12258430993E+04  0.25500000920E-02 0. -1.
</event>
<event>
 5   0  0.3992414E-03  0.1092692E+04  0.7818609E-02  0.9212344E-01
       -2   -1    0    0    0  501  0.00000000000E+00  0.00000000000E+00  0.31001910168E+03  0.31001910169E+03  0.25500000920E-02 0.  1.
        2   -1    0    0  501    0  0.00000000000E+00  0.00000000000E+00 -0.96282450096E+03  0.96282450096E+03  0.25500000920E-02 0. -1.
    10030    2    1    2    0    0  0.00000000000E+00  0.00000000000E+00 -0.65280539928E+03  0.12728436026E+04  0.10926920643E+04 0.  0.
        1    1    3    3  502    0  0.20804039571E+03 -0.36461351451E+03 -0.73372435995E+03  0.84532553352E+03  0.50400001928E-02 0. -1.
       -1    1    3    3    0  502 -0.20804039571E+03  0.36461351451E+03  0.80918960672E+02  0.42751806913E+03  0.50400001928E-02 0.  1.
</event>
<event>
 5   0  0.2255788E-03  0.1115016E+04  0.7818609E-02  0.9190679E-01
       -1   -1    0    0    0  501  0.00000000000E+00  0.00000000000E+00  0.43480799325E+03  0.43480799328E+03  0.50400001928E-02 0.  1.
        1   -1    0    0  501    0  0.00000000000E+00  0.00000000000E+00 -0.71483282074E+03  0.71483282076E+03  0.50400001928E-02 0. -1.
    10030    2    1    2    0    0  0.00000000000E+00  0.00000000000E+00 -0.28002482749E+03  0.11496408140E+04  0.11150157386E+04 0.  0.
        3    1    3    3  502    0  0.11684685356E+03 -0.41187941156E+03 -0.50819693057E+03  0.66450129217E+03  0.10100000352E+00 0. -1.
       -3    1    3    3    0  502 -0.11684685356E+03  0.41187941156E+03  0.22817210308E+03  0.48513952187E+03  0.10100000352E+00 0.  1.
</event>
<event>
 5   0  0.2255788E-03  0.1095781E+04  0.7818609E-02  0.9209314E-01
       -1   -1    0    0    0  501  0.00000000000E+00  0.00000000000E+00  0.61073483585E+03  0.61073483588E+03  0.50400001928E-02 0.  1.
        1   -1    0    0  501    0  0.00000000000E+00  0.00000000000E+00 -0.49151238455E+03  0.49151238457E+03  0.50400001928E-02 0. -1.
    10030    2    1    2    0    0  0.00000000000E+00  0.00000000000E+00  0.11922245131E+03  0.11022472204E+04  0.10957805173E+04 0.  0.
        3    1    3    3  502    0  0.21434896884E+03  0.30019637927E+03  0.46711974555E+03  0.59520098576E+03  0.10100000352E+00 0.  1.
       -3    1    3    3    0  502 -0.21434896884E+03 -0.30019637927E+03 -0.34789729424E+03  0.50704623469E+03  0.10100000352E+00 0. -1.
</event>
<event>
 5   0  0.1508625E-03  0.1085339E+04  0.7818609E-02  0.9219601E-01
       -3   -1    0    0    0  501  0.00000000000E+00  0.00000000000E+00  0.51848531204E+03  0.51848532188E+03  0.10100000352E+00 0. -1.
        3   -1    0    0  501    0  0.00000000000E+00  0.00000000000E+00 -0.56798145507E+03  0.56798146405E+03  0.10100000352E+00 0.  1.
    10030    2    1    2    0    0  0.00000000000E+00  0.00000000000E+00 -0.49496143030E+02  0.10864667859E+04  0.10853387530E+04 0.  0.
        4    1    3    3  502    0 -0.38198820086E+03  0.37327301950E+03  0.71480432636E+02  0.53884951316E+03  0.12699999809E+01 0. -1.
       -4    1    3    3    0  502  0.38198820086E+03 -0.37327301950E+03 -0.12097657567E+03  0.54761727278E+03  0.12699999809E+01 0.  1.
</event>
<event>
 5   0  0.3962999E-03  0.1087450E+04  0.7818609E-02  0.9217511E-01
        2   -1    0    0  501    0  0.00000000000E+00  0.00000000000E+00  0.73052555902E+03  0.73052555902E+03  0.25500000920E-02 0. -1.
       -2   -1    0    0    0  501  0.00000000000E+00  0.00000000000E+00 -0.40469062390E+03  0.40469062391E+03  0.25500000920E-02 0.  1.
    10030    2    1    2    0    0  0.00000000000E+00  0.00000000000E+00  0.32583493511E+03  0.11352161829E+04  0.10874499423E+04 0.  0.
        3    1    3    3  502    0 -0.41804303112E+03 -0.32208015503E+03  0.29959285527E+03  0.60683728566E+03  0.10100000352E+00 0. -1.
       -3    1    3    3    0  502  0.41804303112E+03  0.32208015503E+03  0.26242079840E+02  0.52837889727E+03  0.10100000352E+00 0.  1.
</event>
<event>
 5   0  0.2298958E-03  0.1107501E+04  0.7818609E-02  0.9197911E-01
       -1   -1    0    0    0  501  0.00000000000E+00  0.00000000000E+00  0.55413366677E+03  0.55413366679E+03  0.50400001928E-02 0. -1.
        1   -1    0    0  501    0  0.00000000000E+00  0.00000000000E+00 -0.55336782104E+03  0.55336782106E+03  0.50400001928E-02 0.  1.
    10030    2    1    2    0    0  0.00000000000E+00  0.00000000000E+00  0.76584573023E+00  0.11075014879E+04  0.11075012231E+04 0.  0.
        1    1    3    3  502    0 -0.16829448331E+03 -0.26490908202E+03  0.45660653517E+03  0.55406622604E+03  0.50400001928E-02 0. -1.
       -1    1    3    3    0  502  0.16829448331E+03  0.26490908202E+03 -0.45584068944E+03  0.55343526182E+03  0.50400001928E-02 0.  1.
</event>
<event>
 5   0  0.3744875E-03  0.1118946E+04  0.7818609E-02  0.9186920E-01
       -2   -1    0    0    0  501  0.00000000000E+00  0.00000000000E+00  0.86275919291E+03  0.86275919291E+03  0.25500000920E-02 0.  1.
        2   -1    0    0  501    0  0.00000000000E+00  0.00000000000E+00 -0.36280109945E+03  0.36280109946E+03  0.25500000920E-02 0. -1.
    10030    2    1    2    0    0  0.00000000000E+00  0.00000000000E+00  0.49995809346E+03  0.12255602924E+04  0.11189459035E+04 0.  0.
        2    1    3    3  502    0  0.15009944499E+03 -0.47168479967E+03 -0.35621856994E+02  0.49627140793E+03  0.25500000920E-02 0. -1.
       -2    1    3    3    0  502 -0.15009944499E+03  0.47168479967E+03  0.53557995045E+03  0.72928888444E+03  0.25500000920E-02 0.  1.
</event>
<event>
 5   0  0.2257667E-03  0.1079896E+04  0.7818609E-02  0.9225011E-01
        1   -1    0    0  501    0  0.00000000000E+00  0.00000000000E+00  0.32352312375E+03  0.32352312379E+03  0.50400001928E-02 0.  1.
       -1   -1    0    0    0  501  0.00000000000E+00  0.00000000000E+00 -0.90115361854E+03  0.90115361856E+03  0.50400001928E-02 0. -1.
    10030    2    1    2    0    0  0.00000000000E+00  0.00000000000E+00 -0.57763049480E+03  0.12246767423E+04  0.10798963537E+04 0.  0.
        4    1    3    3  502    0  0.17381730640E+03 -0.50841146950E+03 -0.22829652503E+03  0.58379413714E+03  0.12699999809E+01 0. -1.
       -4    1    3    3    0  502 -0.17381730640E+03  0.50841146950E+03 -0.34933396977E+03  0.64088260520E+03  0.12699999809E+01 0.  1.
</event>
<event>
 5   0  0.2298958E-03  0.1093564E+04  0.7818609E-02  0.9211487E-01
       -1   -1    0    0    0  501  0.00000000000E+00  0.00000000000E+00  0.30493523808E+03  0.30493523812E+03  0.50400001928E-02 0.  1.
        1   -1    0    0  501    0  0.00000000000E+00  0.00000000000E+00 -0.98043992752E+03  0.98043992753E+03  0.50400001928E-02 0. -1.
    10030    2    1    2    0    0  0.00000000000E+00  0.00000000000E+00 -0.67550468943E+03  0.12853751656E+04  0.10935642327E+04 0.  0.
        1    1    3    3  502    0 -0.48549212053E+03 -0.18926579625E+03 -0.53248080289E+03  0.74502345346E+03  0.50400001928E-02 0. -1.
       -1    1    3    3    0  502  0.48549212053E+03  0.18926579625E+03 -0.14302388654E+03  0.54035171219E+03  0.50400001928E-02 0.  1.
</event>
<event>
 5   0  0.2374100E-03  0.1093244E+04  0.7818609E-02  0.9211802E-01
       -1   -1    0    0    0  501  0.00000000000E+00  0.00000000000E+00  0.65691481811E+03  0.65691481813E+03  0.50400001928E-02 0. -1.
        1   -1    0    0  501    0  0.00000000000E+00  0.00000000000E+00 -0.45484666030E+03  0.45484666033E+03  0.50400001928E-02 0.  1.
    10030    2    1    2    0    0  0.00000000000E+00  0.00000000000E+00  0.20206815782E+03  0.11117614785E+04  0.10932438175E+04 0.  0.
        2    1    3    3  502    0 -0.13278524567E+03  0.39423796002E+02  0.63877172292E+03  0.65361722068E+03  0.25500000920E-02 0. -1.
       -2    1    3    3    0  502  0.13278524567E+03 -0.39423796002E+02 -0.43670356510E+03  0.45814425778E+03  0.25500000920E-02 0.  1.
</event>
<event>
 5   0  0.2255788E-03  0.1091394E+04  0.7818609E-02  0.9213621E-01
        1   -1    0    0  501    0  0.00000000000E+00  0.00000000000E+00  0.10203495813E+04  0.10203495814E+04  0.50400001928E-02 0. -1.
       -1   -1    0    0    0  501  0.00000000000E+00  0.00000000000E+00 -0.29184604217E+03  0.29184604221E+03  0.50400001928E-02 0.  1.
    10030    2    1    2    0    0  0.00000000000E+00  0.00000000000E+00  0.72850353917E+03  0.13121956236E+04  0.10913935807E+04 0.  0.
        3    1    3    3  502    0  0.13876808152E+03  0.15403164251E+03 -0.24265105630E+03  0.31915806846E+03  0.10100000352E+00 0.  1.
       -3    1    3    3    0  502 -0.13876808152E+03 -0.15403164251E+03  0.97115459547E+03  0.99303755510E+03  0.10100000352E+00 0. -1.
</event>
<event>
 5   0  0.3713158E-03  0.1067808E+04  0.7818609E-02  0.9237149E-01
       -2   -1    0    0    0  501  0.00000000000E+00  0.00000000000E+00  0.23239992236E+03  0.23239992237E+03  0.25500000920E-02 0. -1.
        2   -1    0    0  501    0  0.00000000000E+00  0.00000000000E+00 -0.12265654784E+04  0.12265654784E+04  0.25500000920E-02 0.  1.
    10030    2    1    2    0    0  0.00000000000E+00  0.00000000000E+00 -0.99416555601E+03  0.14589654007E+04  0.10678084509E+04 0.  0.
        4    1    3    3  502    0  0.20869424820E+02 -0.14775026412E+03  0.20332846898E+03  0.25220973938E+03  0.12699999809E+01 0. -1.
       -4    1    3    3    0  502 -0.20869424820E+02  0.14775026412E+03 -0.11974940250E+04  0.12067556614E+04  0.12699999809E+01 0.  1.
</event>
<event>
 5   0  0.3713158E-03  0.1145938E+04  0.7818609E-02  0.9161539E-01
       -2   -1    0    0    0  501  0.00000000000E+00  0.00000000000E+00  0.24338056441E+03  0.24338056442E+03  0.25500000920E-02 0.  1.
        2   -1    0    0  501    0  0.00000000000E+00  0.00000000000E+00 -0.13488888886E+04  0.13488888886E+04  0.25500000920E-02 0. -1.
    10030    2    1    2    0    0  0.00000000000E+00  0.00000000000E+00 -0.11055083242E+04  0.15922694530E+04  0.11459377628E+04 0.  0.
        4    1    3    3  502    0  0.24610249588E+03 -0.51063283024E+03 -0.66883608331E+03  0.87673008676E+03  0.12699999809E+01 0. -1.
       -4    1    3    3    0  502 -0.24610249588E+03  0.51063283024E+03 -0.43667224085E+03  0.71553936623E+03  0.12699999809E+01 0.  1.
</event>
<event>
 5   0  0.2374100E-03  0.1080757E+04  0.7818609E-02  0.9224153E-01
        1   -1    0    0  501    0  0.00000000000E+00  0.00000000000E+00  0.15827031686E+04  0.15827031686E+04  0.50400001928E-02 0.  1.
       -1   -1    0    0    0  501  0.00000000000E+00  0.00000000000E+00 -0.18449998870E+03  0.18449998877E+03  0.50400001928E-02 0. -1.
    10030    2    1    2    0    0  0.00000000000E+00  0.00000000000E+00  0.13982031799E+04  0.17672031574E+04  0.10807566179E+04 0.  0.
        2    1    3    3  502    0  0.50973457822E+02 -0.36989401444E+03  0.60367694897E+02  0.37823819732E+03  0.25500000920E-02 0. -1.
       -2    1    3    3    0  502 -0.50973457822E+02  0.36989401444E+03  0.13378354850E+04  0.13889649601E+04  0.25500000920E-02 0.  1.
</event>
<event>
 5   0  0.3713158E-03  0.1169473E+04  0.7818609E-02  0.9140004E-01
        2   -1    0    0  501    0  0.00000000000E+00  0.00000000000E+00  0.32305836899E+03  0.32305836900E+03  0.25500000920E-02 0.  1.
       -2   -1    0    0    0  501  0.00000000000E+00  0.00000000000E+00 -0.10583746217E+04  0.10583746217E+04  0.25500000920E-02 0. -1.
    10030    2    1    2    0    0  0.00000000000E+00  0.00000000000E+00 -0.73531625273E+03  0.13814329907E+04  0.11694730079E+04 0.  0.
        4    1    3    3  502    0 -0.15812218947E+03 -0.40595350329E+03  0.93048683622E+02  0.44548910655E+03  0.12699999809E+01 0.  1.
       -4    1    3    3    0  502  0.15812218947E+03  0.40595350329E+03 -0.82836493635E+03  0.93594388417E+03  0.12699999809E+01 0. -1.
</event>
<event>
 5   0  0.3992414E-03  0.1118476E+04  0.7818609E-02  0.9187369E-01
       -2   -1    0    0    0  501  0.00000000000E+00  0.00000000000E+00  0.26069559666E+03  0.26069559668E+03  0.25500000920E-02 0. -1.
        2   -1    0    0  501    0  0.00000000000E+00  0.00000000000E+00 -0.11996643278E+04  0.11996643278E+04  0.25500000920E-02 0.  1.
    10030    2    1    2    0    0  0.00000000000E+00  0.00000000000E+00 -0.93896873113E+03  0.14603599245E+04  0.11184761200E+04 0.  0.
        1    1    3    3  502    0  0.44959657094E+03  0.67947602111E+02 -0.44402768181E+02  0.45686492433E+03  0.50400001928E-02 0. -1.
       -1    1    3    3    0  502 -0.44959657094E+03 -0.67947602111E+02 -0.89456596295E+03  0.10034950002E+04  0.50400001928E-02 0.  1.
</event>
<event>
 5   0  0.3713158E-03  0.1091297E+04  0.7818609E-02  0.9213716E-01
        2   -1    0    0  501    0  0.00000000000E+00  0.00000000000E+00  0.35145745289E+03  0.35145745290E+03  0.25500000920E-02 0. -1.
       -2   -1    0    0    0  501  0.00000000000E+00  0.00000000000E+00 -0.84713566535E+03  0.84713566535E+03  0.25500000920E-02 0.  1.
    10030    2    1    2    0    0  0.00000000000E+00  0.00000000000E+00 -0.49567821246E+03  0.11985931182E+04  0.10912967391E+04 0.  0.
        4    1    3    3  502    0  0.18895537263E+03 -0.28618256452E+03 -0.71397983318E+03  0.79206906780E+03  0.12699999809E+01 0.  1.
       -4    1    3    3    0  502 -0.18895537263E+03  0.28618256452E+03  0.21830162072E+03  0.40652405044E+03  0.12699999809E+01 0. -1.
</event>
<event>
 5   0  0.2255788E-03  0.1077115E+04  0.7818609E-02  0.9227789E-01
       -1   -1    0    0    0  501  0.00000000000E+00  0.00000000000E+00  0.19146463697E+03  0.19146463704E+03  0.50400001928E-02 0. -1.
        1   -1    0    0  501    0  0.00000000000E+00  0.00000000000E+00 -0.15148703364E+04  0.15148703364E+04  0.50400001928E-02 0.  1.
    10030    2    1    2    0    0  0.00000000000E+00  0.00000000000E+00 -0.13234056994E+04  0.17063349734E+04  0.10771148482E+04 0.  0.
        3    1    3    3  502    0 -0.19260770670E+03 -0.20320469909E+03 -0.13905152205E+04  0.14184225277E+04  0.10100000352E+00 0.  1.
       -3    1    3    3    0  502  0.19260770670E+03  0.20320469909E+03  0.67109521053E+02  0.28791244577E+03  0.10100000352E+00 0. -1.
</event>
<event>
 5   0  0.3748901E-03  0.1099221E+04  0.7818609E-02  0.9205951E-01
        2   -1    0    0  501    0  0.00000000000E+00  0.00000000000E+00  0.99514944348E+03  0.99514944348E+03  0.25500000920E-02 0. -1.
       -2   -1    0    0    0  501  0.00000000000E+00  0.00000000000E+00 -0.30354408198E+03  0.30354408199E+03  0.25500000920E-02 0.  1.
    10030    2    1    2    0    0  0.00000000000E+00  0.00000000000E+00  0.69160536150E+03  0.12986935255E+04  0.10992210410E+04 0.  0.
        5    1    3    3  502    0 -0.10306971795E+03  0.10131337162E+03 -0.28066670480E+03  0.31572718478E+03  0.46999998093E+01 0.  1.
       -5    1    3    3    0  502  0.10306971795E+03 -0.10131337162E+03  0.97227206630E+03  0.98296634069E+03  0.46999998093E+01 0. -1.
</event>
<event>
 5   0  0.2255788E-03  0.1102981E+04  0.7818609E-02  0.9202291E-01
        1   -1    0    0  501    0  0.00000000000E+00  0.00000000000E+00  0.25182394410E+03  0.25182394415E+03  0.50400001928E-02 0. -1.
       -1   -1    0    0    0  501  0.00000000000E+00  0.00000000000E+00 -0.12077554150E+04  0.12077554150E+04  0.50400001928E-02 0.  1.
    10030    2    1    2    0    0  0.00000000000E+00  0.00000000000E+00 -0.95593147088E+03  0.14595793591E+04  0.11029809285E+04 0.  0.
        3    1    3    3  502    0 -0.30624933239E+02 -0.52014466232E+03 -0.23884144967E+03  0.57317851020E+03  0.10100000352E+00 0. -1.
       -3    1    3    3    0  502  0.30624933239E+02  0.52014466232E+03 -0.71709002121E+03  0.88640084894E+03  0.10100000352E+00 0.  1.
</event>
<event>
 5   0  0.2255788E-03  0.1092830E+04  0.7818609E-02  0.9212209E-01
       -1   -1    0    0    0  501  0.00000000000E+00  0.00000000000E+00  0.20256708163E+03  0.20256708169E+03  0.50400001928E-02 0. -1.
        1   -1    0    0  501    0  0.00000000000E+00  0.00000000000E+00 -0.14739279258E+04  0.14739279259E+04  0.50400001928E-02 0.  1.
    10030    2    1    2    0    0  0.00000000000E+00  0.00000000000E+00 -0.12713608442E+04  0.16764950075E+04  0.10928298651E+04 0.  0.
        3    1    3    3  502    0  0.53238643379E+03 -0.45513542633E+02 -0.46034794151E+03  0.70528507350E+03  0.10100000352E+00 0. -1.
       -3    1    3    3    0  502 -0.53238643379E+03  0.45513542633E+02 -0.81101290271E+03  0.97120993405E+03  0.10100000352E+00 0.  1.
</event>
<event>
 5   0  0.3962999E-03  0.1102657E+04  0.7818609E-02  0.9202606E-01
        2   -1    0    0  501    0  0.00000000000E+00  0.00000000000E+00  0.15458620521E+04  0.15458620521E+04  0.25500000920E-02 0.  1.
       -2   -1    0    0    0  501  0.00000000000E+00  0.00000000000E+00 -0.19663032619E+03  0.19663032621E+03  0.25500000920E-02 0. -1.
    10030    2    1    2    0    0  0.00000000000E+00  0.00000000000E+00  0.13492317259E+04  0.17424923783E+04  0.11026574438E+04 0.  0.
        3    1    3    3  502    0 -0.48394314705E+03 -0.21226377955E+01  0.25724042070E+03  0.54806762303E+03  0.10100000352E+00 0. -1.
       -3    1    3    3    0  502  0.48394314705E+03  0.21226377955E+01  0.10919913052E+04  0.11944247553E+04  0.10100000352E+00 0.  1.
</event>
<event>
 5   0  0.2298958E-03  0.1079756E+04  0.7818609E-02  0.9225151E-01
       -1   -1    0    0    0  501  0.00000000000E+00  0.00000000000E+00  0.21950071404E+03  0.21950071409E+03  0.50400001928E-02 0. -1.
        1   -1    0    0  501    0  0.00000000000E+00  0.00000000000E+00 -0.13278695194E+04  0.13278695194E+04  0.50400001928E-02 0.  1.
    10030    2    1    2    0    0  0.00000000000E+00  0.00000000000E+00 -0.11083688053E+04  0.15473702335E+04  0.10797560978E+04 0.  0.
        1    1    3    3  502    0  0.18734574087E+03 -0.37347597052E+03 -0.10441313339E+04  0.11246301479E+04  0.50400001928E-02 0.  1.
       -1    1    3    3    0  502 -0.18734574087E+03  0.37347597052E+03 -0.64237471457E+02  0.42274008556E+03  0.50400001928E-02 0. -1.
</event>
<event>
 5   0  0.2257667E-03  0.1099391E+04  0.7818609E-02  0.9205785E-01
       -1   -1    0    0    0  501  0.00000000000E+00  0.00000000000E+00  0.52851555972E+03  0.52851555974E+03  0.50400001928E-02 0. -1.
        1   -1    0    0  501    0  0.00000000000E+00  0.00000000000E+00 -0.57172466746E+03  0.57172466748E+03  0.50400001928E-02 0.  1.
    10030    2    1    2    0    0  0.00000000000E+00  0.00000000000E+00 -0.43209107745E+02  0.11002402272E+04  0.10993914365E+04 0.  0.
        4    1    3    3  502    0 -0.62466368070E+02  0.13169009034E+02 -0.56800070930E+03  0.57157841860E+03  0.12699999809E+01 0.  1.
       -4    1    3    3    0  502  0.62466368070E+02 -0.13169009034E+02  0.52479160156E+03  0.52866180863E+03  0.12699999809E+01 0. -1.
</event>
<event>
 5   0  0.2300702E-03  0.1086061E+04  0.7818609E-02  0.9218886E-01
        1   -1    0    0  501    0  0.00000000000E+00  0.00000000000E+00  0.19719841955E+04  0.19719841955E+04  0.50400001928E-02 0. -1.
       -1   -1    0    0    0  501  0.00000000000E+00  0.00000000000E+00 -0.14953561655E+03  0.14953561663E+03  0.50400001928E-02 0.  1.
    10030    2    1    2    0    0  0.00000000000E+00  0.00000000000E+00  0.18224485789E+04  0.21215198121E+04  0.10860605372E+04 0.  0.
        5    1    3    3  502    0  0.57951376154E+02  0.43913831205E+03  0.15247903556E+04  0.15878313945E+04  0.46999998093E+01 0. -1.
       -5    1    3    3    0  502 -0.57951376154E+02 -0.43913831205E+03  0.29765822338E+03  0.53368841758E+03  0.46999998093E+01 0.  1.
</event>
<event>
 5   0  0.2257667E-03  0.1099012E+04  0.7818609E-02  0.9206155E-01
        1   -1    0    0  501    0  0.00000000000E+00  0.00000000000E+00  0.53484285358E+03  0.53484285360E+03  0.50400001928E-02 0.  1.
       -1   -1    0    0    0  501  0.00000000000E+00  0.00000000000E+00 -0.56457122420E+03  0.56457122422E+03  0.50400001928E-02 0. -1.
    10030    2    1    2    0    0  0.00000000000E+00  0.00000000000E+00 -0.29728370622E+02  0.10994140778E+04  0.10990120739E+04 0.  0.
        4    1    3    3  502    0 -0.18028407487E+03  0.44269948760E+03 -0.28601699525E+03  0.55703906366E+03  0.12699999809E+01 0. -1.
       -4    1    3    3    0  502  0.18028407487E+03 -0.44269948760E+03  0.25628862463E+03  0.54237501416E+03  0.12699999809E+01 0.  1.
</event>
<event>
 5   0  0.2298958E-03  0.1131685E+04  0.7818609E-02  0.9174849E-01
       -1   -1    0    0    0  501  0.00000000000E+00  0.00000000000E+00  0.28951766120E+03  0.28951766124E+03  0.50400001928E-02 0.  1.
        1   -1    0    0  501    0  0.00000000000E+00  0.00000000000E+00 -0.11058996549E+04  0.11058996549E+04  0.50400001928E-02 0. -1.
    10030    2    1    2    0    0  0.00000000000E+00  0.00000000000E+00 -0.81638199367E+03  0.13954173161E+04  0.11316845526E+04 0.  0.
        1    1    3    3  502    0  0.18551692398E+03 -0.54941972985E+02  0.24746213201E+03  0.31412204043E+03  0.50400001928E-02 0.  1.
       -1    1    3    3    0  502 -0.18551692398E+03  0.54941972985E+02 -0.10638441257E+04  0.10812952757E+04  0.50400001928E-02 0. -1.
</event>
<event>
 5   0  0.3713158E-03  0.1121612E+04  0.7818609E-02  0.9184379E-01
        2   -1    0    0  501    0  0.00000000000E+00  0.00000000000E+00  0.88176638836E+03  0.88176638836E+03  0.25500000920E-02 0.  1.
       -2   -1    0    0    0  501  0.00000000000E+00  0.00000000000E+00 -0.35667454691E+03  0.35667454692E+03  0.25500000920E-02 0. -1.
    10030    2    1    2    0    0  0.00000000000E+00  0.00000000000E+00  0.52509184144E+03  0.12384409353E+04  0.11216124590E+04 0.  0.
        4    1    3    3  502    0 -0.52467117328E+01  0.51371217159E+03  0.14234111000E+02  0.51393768693E+03  0.12699999809E+01 0. -1.
       -4    1    3    3    0  502  0.52467117328E+01 -0.51371217159E+03  0.51085773044E+03  0.72450324836E+03  0.12699999809E+01 0.  1.
</event>
<event>
 5   0  0.2257667E-03  0.1098915E+04  0.7818609E-02  0.9206250E-01
       -1   -1    0    0    0  501  0.00000000000E+00  0.00000000000E+00  0.32719752891E+03  0.32719752895E+03  0.50400001928E-02 0. -1.
        1   -1    0    0  501    0  0.00000000000E+00  0.00000000000E+00 -0.92269458671E+03  0.92269458673E+03  0.50400001928E-02 0.  1.
    10030    2    1    2    0    0  0.00000000000E+00  0.00000000000E+00 -0.59549705781E+03  0.12498921157E+04  0.10989147169E+04 0.  0.
        4    1    3    3  502    0  0.24876797620E+03  0.22786992577E+02 -0.85436826171E+03  0.89014127672E+03  0.12699999809E+01 0.  1.
       -4    1    3    3    0  502 -0.24876797620E+03 -0.22786992577E+02  0.25887120390E+03  0.35975083895E+03  0.12699999809E+01 0. -1.
</event>
<event>
 5   0  0.2257667E-03  0.9856105E+03  0.7818609E-02  0.9324469E-01
        1   -1    0    0  501    0  0.00000000000E+00  0.00000000000E+00  0.71352406197E+03  0.71352406198E+03  0.50400001928E-02 0. -1.
       -1   -1    0    0    0  501  0.00000000000E+00  0.00000000000E+00 -0.34036276700E+03  0.34036276704E+03  0.50400001928E-02 0.  1.
    10030    2    1    2    0    0  0.00000000000E+00  0.00000000000E+00  0.37316129496E+03  0.10538868290E+04  0.98561051959E+03 0.  0.
        4    1    3    3  502    0 -0.18870174093E+03 -0.18079829450E+03  0.63332577063E+03  0.68512737135E+03  0.12699999809E+01 0. -1.
       -4    1    3    3    0  502  0.18870174093E+03  0.18079829450E+03 -0.26016447567E+03  0.36875945768E+03  0.12699999809E+01 0.  1.
</event>
<event>
 5   0  0.2255788E-03  0.1104215E+04  0.7818609E-02  0.9201093E-01
        1   -1    0    0  501    0  0.00000000000E+00  0.00000000000E+00  0.32817898438E+03  0.32817898442E+03  0.50400001928E-02 0. -1.
       -1   -1    0    0    0  501  0.00000000000E+00  0.00000000000E+00 -0.92883049132E+03  0.92883049133E+03  0.50400001928E-02 0.  1.
    10030    2    1    2    0    0  0.00000000000E+00  0.00000000000E+00 -0.60065150694E+03  0.12570094758E+04  0.11042149199E+04 0.  0.
        3    1    3    3  502    0 -0.32246374154E+03 -0.30034127177E+03 -0.67896968487E+03  0.80943658634E+03  0.10100000352E+00 0.  1.
       -3    1    3    3    0  502  0.32246374154E+03  0.30034127177E+03  0.78318177927E+02  0.44757288941E+03  0.10100000352E+00 0. -1.
</event>
<event>
 5   0  0.2255788E-03  0.1092694E+04  0.7818609E-02  0.9212342E-01
       -1   -1    0    0    0  501  0.00000000000E+00  0.00000000000E+00  0.60860528691E+03  0.60860528693E+03  0.50400001928E-02 0. -1.
        1   -1    0    0  501    0  0.00000000000E+00  0.00000000000E+00 -0.49045788910E+03  0.49045788913E+03  0.50400001928E-02 0.  1.
    10030    2    1    2    0    0  0.00000000000E+00  0.00000000000E+00  0.11814739781E+03  0.10990631761E+04  0.10926944026E+04 0.  0.
        3    1    3    3  502    0  0.48056579850E+02 -0.29668579255E+03  0.51798217918E+03  0.59886345899E+03  0.10100000352E+00 0. -1.
       -3    1    3    3    0  502 -0.48056579850E+02  0.29668579255E+03 -0.39983478137E+03  0.50019971707E+03  0.10100000352E+00 0.  1.
</event>
<event>
 5   0  0.3713158E-03  0.1075245E+04  0.7818609E-02  0.9229661E-01
        2   -1    0    0  501    0  0.00000000000E+00  0.00000000000E+00  0.88412285203E+03  0.88412285203E+03  0.25500000920E-02 0. -1.
       -2   -1    0    0    0  501  0.00000000000E+00  0.00000000000E+00 -0.32692075243E+03  0.32692075244E+03  0.25500000920E-02 0.  1.
    10030    2    1    2    0    0  0.00000000000E+00  0.00000000000E+00  0.55720209960E+03  0.12110436045E+04  0.10752452893E+04 0.  0.
        4    1    3    3  502    0 -0.52254309465E+03  0.12643182513E+03  0.27809364593E+03  0.60528834532E+03  0.12699999809E+01 0.  1.
       -4    1    3    3    0  502  0.52254309465E+03 -0.12643182513E+03  0.27910845367E+03  0.60575525915E+03  0.12699999809E+01 0. -1.
</event>
<event>
 5   0  0.2374100E-03  0.1098421E+04  0.7818609E-02  0.9206732E-01
        1   -1    0    0  501    0  0.00000000000E+00  0.00000000000E+00  0.65990671058E+03  0.65990671059E+03  0.50400001928E-02 0. -1.
       -1   -1    0    0    0  501  0.00000000000E+00  0.00000000000E+00 -0.45708302420E+03  0.45708302423E+03  0.50400001928E-02 0.  1.
    10030    2    1    2    0    0  0.00000000000E+00  0.00000000000E+00  0.20282368637E+03  0.11169897348E+04  0.10984209666E+04 0.  0.
        2    1    3    3  502    0  0.13889975420E+03 -0.25402301521E+03  0.57600403892E+03  0.64467161162E+03  0.25500000920E-02 0. -1.
       -2    1    3    3    0  502 -0.13889975420E+03  0.25402301521E+03 -0.37318035255E+03  0.47231812320E+03  0.25500000920E-02 0.  1.
</event>
<event>
 5   0  0.2257667E-03  0.1125176E+04  0.7818609E-02  0.9180995E-01
        1   -1    0    0  501    0  0.00000000000E+00  0.00000000000E+00  0.11729048410E+04  0.11729048410E+04  0.50400001928E-02 0. -1.
       -1   -1    0    0    0  501  0.00000000000E+00  0.00000000000E+00 -0.26984725186E+03  0.26984725191E+03  0.50400001928E-02 0.  1.
    10030    2    1    2    0    0  0.00000000000E+00  0.00000000000E+00  0.90305758915E+03  0.14427520929E+04  0.11251758051E+04 0.  0.
        4    1    3    3  502    0  0.24188291311E+03  0.46743106981E+03  0.19667330720E+03  0.56185509818E+03  0.12699999809E+01 0.  1.
       -4    1    3    3    0  502 -0.24188291311E+03 -0.46743106981E+03  0.70638428195E+03  0.88089699476E+03  0.12699999809E+01 0. -1.
</event>
<event>
 5   0  0.3713158E-03  0.1105379E+04  0.7818609E-02  0.9199965E-01
       -2   -1    0    0    0  501  0.00000000000E+00  0.00000000000E+00  0.49063838374E+03  0.49063838374E+03  0.25500000920E-02 0. -1.
        2   -1    0    0  501    0  0.00000000000E+00  0.00000000000E+00 -0.62258769035E+03  0.62258769036E+03  0.25500000920E-02 0.  1.
    10030    2    1    2    0    0  0.00000000000E+00  0.00000000000E+00 -0.13194930662E+03  0.11132260741E+04  0.11053785200E+04 0.  0.
        4    1    3    3  502    0 -0.12561324211E+02  0.28277951500E+03  0.41209722069E+03  0.49994777044E+03  0.12699999809E+01 0. -1.
       -4    1    3    3    0  502  0.12561324211E+02 -0.28277951500E+03 -0.54404652730E+03  0.61327830366E+03  0.12699999809E+01 0.  1.
</event>
<event>
 5   0  0.3748901E-03  0.1020619E+04  0.7818609E-02  0.9286215E-01
       -2   -1    0    0    0  501  0.00000000000E+00  0.00000000000E+00  0.24543350904E+03  0.24543350905E+03  0.25500000920E-02 0. -1.
        2   -1    0    0  501    0  0.00000000000E+00  0.00000000000E+00 -0.10610431774E+04  0.10610431774E+04  0.25500000920E-02 0.  1.
    10030    2    1    2    0    0  0.00000000000E+00  0.00000000000E+00 -0.81560966832E+03  0.13064766864E+04  0.10206185385E+04 0.  0.
        5    1    3    3  502    0 -0.11906735222E+03 -0.16901707891E+03  0.18939159357E+03  0.28041945910E+03  0.46999998093E+01 0. -1.
       -5    1    3    3    0  502  0.11906735222E+03  0.16901707891E+03 -0.10050012619E+04  0.10260572273E+04  0.46999998093E+01 0.  1.
</event>
<event>
 5   0  0.2257667E-03  0.1104119E+04  0.7818609E-02  0.9201186E-01
        1   -1    0    0  501    0  0.00000000000E+00  0.00000000000E+00  0.19939355673E+04  0.19939355673E+04  0.50400001928E-02 0.  1.
       -1   -1    0    0    0  501  0.00000000000E+00  0.00000000000E+00 -0.15284843288E+03  0.15284843296E+03  0.50400001928E-02 0. -1.
    10030    2    1    2    0    0  0.00000000000E+00  0.00000000000E+00  0.18410871344E+04  0.21467840003E+04  0.11041194262E+04 0.  0.
        4    1    3    3  502    0  0.47170970129E+03 -0.80978921002E+02  0.38558246334E+03  0.61460806769E+03  0.12699999809E+01 0.  1.
       -4    1    3    3    0  502 -0.47170970129E+03  0.80978921002E+02  0.14555046711E+04  0.15321759326E+04  0.12699999809E+01 0. -1.
</event>
<event>
 5   0  0.3713158E-03  0.1096295E+04  0.7818609E-02  0.9208811E-01
        2   -1    0    0  501    0  0.00000000000E+00  0.00000000000E+00  0.15300295304E+04  0.15300295304E+04  0.25500000920E-02 0.  1.
       -2   -1    0    0    0  501  0.00000000000E+00  0.00000000000E+00 -0.19637890860E+03  0.19637890861E+03  0.25500000920E-02 0. -1.
    10030    2    1    2    0    0  0.00000000000E+00  0.00000000000E+00  0.13336506218E+04  0.17264084390E+04  0.10962947219E+04 0.  0.
        4    1    3    3  502    0 -0.20021471336E+03 -0.21934470750E+03 -0.58706279241E+02  0.30273102298E+03  0.12699999809E+01 0. -1.
       -4    1    3    3    0  502  0.20021471336E+03  0.21934470750E+03  0.13923569011E+04  0.14236774161E+04  0.12699999809E+01 0.  1.
</event>
<event>
 5   0  0.3962999E-03  0.1100530E+04  0.7818609E-02  0.9204676E-01
       -2   -1    0    0    0  501  0.00000000000E+00  0.00000000000E+00  0.20233400127E+03  0.20233400129E+03  0.25500000920E-02 0.  1.
        2   -1    0    0  501    0  0.00000000000E+00  0.00000000000E+00 -0.14964932984E+04  0.14964932984E+04  0.25500000920E-02 0. -1.
    10030    2    1    2    0    0  0.00000000000E+00  0.00000000000E+00 -0.12941592971E+04  0.16988272997E+04  0.11005298305E+04 0.  0.
        3    1    3    3  502    0 -0.13904499226E+03 -0.16803213336E+03  0.13276384389E+03  0.25533224661E+03  0.10100000352E+00 0.  1.
       -3    1    3    3    0  502  0.13904499226E+03  0.16803213336E+03 -0.14269231410E+04  0.14434950531E+04  0.10100000352E+00 0. -1.
</event>
<event>
 5   0  0.2300702E-03  0.1088199E+04  0.7818609E-02  0.9216771E-01
       -1   -1    0    0    0  501  0.00000000000E+00  0.00000000000E+00  0.23760256652E+03  0.23760256658E+03  0.50400001928E-02 0.  1.
        1   -1    0    0  501    0  0.00000000000E+00  0.00000000000E+00 -0.12459640566E+04  0.12459640566E+04  0.50400001928E-02 0. -1.
    10030    2    1    2    0    0  0.00000000000E+00  0.00000000000E+00 -0.10083614900E+04  0.14835666231E+04  0.10881989849E+04 0.  0.
        5    1    3    3  502    0 -0.38261016661E+03 -0.34077723384E+03 -0.75371914030E+03  0.91139140612E+03  0.46999998093E+01 0.  1.
       -5    1    3    3    0  502  0.38261016661E+03  0.34077723384E+03 -0.25464234973E+03  0.57217521702E+03  0.46999998093E+01 0. -1.
</event>
<event>
 5   0  0.3744875E-03  0.1099020E+04  0.7818609E-02  0.9206148E-01
       -2   -1    0    0    0  501  0.00000000000E+00  0.00000000000E+00  0.51620892218E+03  0.51620892219E+03  0.25500000920E-02 0.  1.
        2   -1    0    0  501    0  0.00000000000E+00  0.00000000000E+00 -0.58495904482E+03  0.58495904482E+03  0.25500000920E-02 0. -1.
    10030    2    1    2    0    0  0.00000000000E+00  0.00000000000E+00 -0.68750122635E+02  0.11011679670E+04  0.10990197051E+04 0.  0.
        2    1    3    3  502    0  0.37803936311E+03 -0.37274986165E+03  0.10769370259E+03  0.54171408787E+03  0.25500000920E-02 0.  1.
       -2    1    3    3    0  502 -0.37803936311E+03  0.37274986165E+03 -0.17644382522E+03  0.55945387914E+03  0.25500000920E-02 0. -1.
</event>
<event>
 5   0  0.2300702E-03  0.1104171E+04  0.7818609E-02  0.9201137E-01
       -1   -1    0    0    0  501  0.00000000000E+00  0.00000000000E+00  0.45811605327E+03  0.45811605329E+03  0.50400001928E-02 0.  1.
        1   -1    0    0  501    0  0.00000000000E+00  0.00000000000E+00 -0.66532951583E+03  0.66532951585E+03  0.50400001928E-02 0. -1.
    10030    2    1    2    0    0  0.00000000000E+00  0.00000000000E+00 -0.20721346256E+03  0.11234455691E+04  0.11041705157E+04 0.  0.
        5    1    3    3  502    0 -0.47635286271E+02 -0.40075701699E+03 -0.48687971861E+03  0.63241541534E+03  0.46999998093E+01 0. -1.
       -5    1    3    3    0  502  0.47635286271E+02  0.40075701699E+03  0.27966625605E+03  0.49103015380E+03  0.46999998093E+01 0.  1.
</event>
<event>
 5   0  0.3744875E-03  0.1103795E+04  0.7818609E-02  0.9201501E-01
       -2   -1    0    0    0  501  0.00000000000E+00  0.00000000000E+00  0.32334063443E+03  0.32334063444E+03  0.25500000920E-02 0.  1.
        2   -1    0    0  501    0  0.00000000000E+00  0.00000000000E+00 -0.94201236689E+03  0.94201236689E+03  0.25500000920E-02 0. -1.
    10030    2    1    2    0    0  0.00000000000E+00  0.00000000000E+00 -0.61867173246E+03  0.12653530013E+04  0.11037950468E+04 0.  0.
        2    1    3    3  502    0  0.16954134139E+02  0.35369022144E+03 -0.79462473808E+03  0.86994982026E+03  0.25500000920E-02 0. -1.
       -2    1    3    3    0  502 -0.16954134139E+02 -0.35369022144E+03  0.17595300562E+03  0.39540318107E+03  0.25500000920E-02 0.  1.
</event>
<event>
 5   0  0.2255788E-03  0.1097723E+04  0.7818609E-02  0.9207414E-01
       -1   -1    0    0    0  501  0.00000000000E+00  0.00000000000E+00  0.49216069754E+03  0.49216069756E+03  0.50400001928E-02 0. -1.
        1   -1    0    0  501    0  0.00000000000E+00  0.00000000000E+00 -0.61209484572E+03  0.61209484574E+03  0.50400001928E-02 0.  1.
    10030    2    1    2    0    0  0.00000000000E+00  0.00000000000E+00 -0.11993414819E+03  0.11042555433E+04  0.10977231459E+04 0.  0.
        3    1    3    3  502    0  0.44251315188E+03 -0.54698335503E+02  0.26199883907E+03  0.51715877578E+03  0.10100000352E+00 0. -1.
       -3    1    3    3    0  502 -0.44251315188E+03  0.54698335503E+02 -0.38193298725E+03  0.58709676753E+03  0.10100000352E+00 0.  1.
</event>
<event>
 5   0  0.3962999E-03  0.1102201E+04  0.7818609E-02  0.9203049E-01
        2   -1    0    0  501    0  0.00000000000E+00  0.00000000000E+00  0.87395392617E+03  0.87395392618E+03  0.25500000920E-02 0. -1.
       -2   -1    0    0    0  501  0.00000000000E+00  0.00000000000E+00 -0.34751460357E+03  0.34751460358E+03  0.25500000920E-02 0.  1.
    10030    2    1    2    0    0  0.00000000000E+00  0.00000000000E+00  0.52643932260E+03  0.12214685298E+04  0.11022009839E+04 0.  0.
        3    1    3    3  502    0  0.46644007115E+03  0.25002783191E+03  0.43357941258E+03  0.68415741896E+03  0.10100000352E+00 0.  1.
       -3    1    3    3    0  502 -0.46644007115E+03 -0.25002783191E+03  0.92859910020E+02  0.53731111080E+03  0.10100000352E+00 0. -1.
</event>
<event>
 5   0  0.2374100E-03  0.1102857E+04  0.7818609E-02  0.9202412E-01
       -1   -1    0    0    0  501  0.00000000000E+00  0.00000000000E+00  0.26056564641E+03  0.26056564646E+03  0.50400001928E-02 0. -1.
        1   -1    0    0  501    0  0.00000000000E+00  0.00000000000E+00 -0.11669737824E+04  0.11669737824E+04  0.50400001928E-02 0.  1.
    10030    2    1    2    0    0  0.00000000000E+00  0.00000000000E+00 -0.90640813601E+03  0.14275394289E+04  0.11028567958E+04 0.  0.
        2    1    3    3  502    0  0.19212187994E+03  0.35796738130E+03 -0.93582979193E+03  0.10202102050E+04  0.25500000920E-02 0.  1.
       -2    1    3    3    0  502 -0.19212187994E+03 -0.35796738130E+03  0.29421655922E+02  0.40732922393E+03  0.25500000920E-02 0. -1.
</event>
<event>
 5   0  0.2298958E-03  0.1106591E+04  0.7818609E-02  0.9198791E-01
        1   -1    0    0  501    0  0.00000000000E+00  0.00000000000E+00  0.81184268544E+03  0.81184268545E+03  0.50400001928E-02 0.  1.
       -1   -1    0    0    0  501  0.00000000000E+00  0.00000000000E+00 -0.37708779276E+03  0.37708779280E+03  0.50400001928E-02 0. -1.
    10030    2    1    2    0    0  0.00000000000E+00  0.00000000000E+00  0.43475489267E+03  0.11889304783E+04  0.11065911013E+04 0.  0.
        1    1    3    3  502    0 -0.44762040007E+03 -0.32519229543E+03  0.21234779820E+03  0.59262605325E+03  0.50400001928E-02 0.  1.
       -1    1    3    3    0  502  0.44762040007E+03  0.32519229543E+03  0.22240709448E+03  0.59630442500E+03  0.50400001928E-02 0. -1.
</event>
<event>
 5   0  0.3744875E-03  0.1090350E+04  0.7818609E-02  0.9214648E-01
       -2   -1    0    0    0  501  0.00000000000E+00  0.00000000000E+00  0.18871464140E+03  0.18871464142E+03  0.25500000920E-02 0.  1.
        2   -1    0    0  501    0  0.00000000000E+00  0.00000000000E+00 -0.15749493367E+04  0.15749493367E+04  0.25500000920E-02 0. -1.
    10030    2    1    2    0    0  0.00000000000E+00  0.00000000000E+00 -0.13862346953E+04  0.17636639782E+04  0.10903504012E+04 0.  0.
        2    1    3    3  502    0  0.40310185966E+03 -0.16783996645E+03 -0.16511490532E+03  0.46682362361E+03  0.25500000920E-02 0.  1.
       -2    1    3    3    0  502 -0.40310185966E+03  0.16783996645E+03 -0.12211197900E+04  0.12968403545E+04  0.25500000920E-02 0. -1.
</event>
<event>
 5   0  0.2255788E-03  0.1090448E+04  0.7818609E-02  0.9214552E-01
       -1   -1    0    0    0  501  0.00000000000E+00  0.00000000000E+00  0.29895800688E+03  0.29895800692E+03  0.50400001928E-02 0. -1.
        1   -1    0    0  501    0  0.00000000000E+00  0.00000000000E+00 -0.99435191118E+03  0.99435191120E+03  0.50400001928E-02 0.  1.
    10030    2    1    2    0    0  0.00000000000E+00  0.00000000000E+00 -0.69539390431E+03  0.12933099181E+04  0.10904484684E+04 0.  0.
        3    1    3    3  502    0  0.85662306038E+02  0.42834474380E+03 -0.73466472000E+03  0.85472189116E+03  0.10100000352E+00 0.  1.
       -3    1    3    3    0  502 -0.85662306038E+02 -0.42834474380E+03  0.39270815689E+02  0.43858802695E+03  0.10100000352E+00 0. -1.
</event>
<event>
 5   0  0.3713158E-03  0.1091381E+04  0.7818609E-02  0.9213633E-01
       -2   -1    0    0    0  501  0.00000000000E+00  0.00000000000E+00  0.17558803420E+03  0.17558803422E+03  0.25500000920E-02 0. -1.
        2   -1    0    0  501    0  0.00000000000E+00  0.00000000000E+00 -0.16958910993E+04  0.16958910993E+04  0.25500000920E-02 0.  1.
    10030    2    1    2    0    0  0.00000000000E+00  0.00000000000E+00 -0.15203030651E+04  0.18714791335E+04  0.10913811147E+04 0.  0.
        4    1    3    3  502    0 -0.40301778045E+03  0.10142217097E+03 -0.13665799507E+04  0.14283739576E+04  0.12699999809E+01 0.  1.
       -4    1    3    3    0  502  0.40301778045E+03 -0.10142217097E+03 -0.15372311435E+03  0.44310517590E+03  0.12699999809E+01 0. -1.
</event>
<event>
 5   0  0.3962999E-03  0.1106661E+04  0.7818609E-02  0.9198723E-01
       -2   -1    0    0    0  501  0.00000000000E+00  0.00000000000E+00  0.22367564686E+03  0.22367564687E+03  0.25500000920E-02 0.  1.
        2   -1    0    0  501    0  0.00000000000E+00  0.00000000000E+00 -0.13688341496E+04  0.13688341496E+04  0.25500000920E-02 0. -1.
    10030    2    1    2    0    0  0.00000000000E+00  0.00000000000E+00 -0.11451585028E+04  0.15925097965E+04  0.11066614006E+04 0.  0.
        3    1    3    3  502    0  0.14275811812E+03  0.49756525620E+03 -0.29123747909E+03  0.59394473134E+03  0.10100000352E+00 0. -1.
       -3    1    3    3    0  502 -0.14275811812E+03 -0.49756525620E+03 -0.85392102367E+03  0.99856506515E+03  0.10100000352E+00 0.  1.
</event>
<event>
 5   0  0.3748901E-03  0.1096830E+04  0.7818609E-02  0.9208287E-01
        2   -1    0    0  501    0  0.00000000000E+00  0.00000000000E+00  0.71480969512E+03  0.71480969513E+03  0.25500000920E-02 0.  1.
       -2   -1    0    0    0  501  0.00000000000E+00  0.00000000000E+00 -0.42075426939E+03  0.42075426939E+03  0.25500000920E-02 0. -1.
    10030    2    1    2    0    0  0.00000000000E+00  0.00000000000E+00  0.29405542574E+03  0.11355639645E+04  0.10968303990E+04 0.  0.
        5    1    3    3  502    0 -0.38837042752E+03 -0.11341141950E+01  0.54787515783E+03  0.67158182953E+03  0.46999998093E+01 0.  1.
       -5    1    3    3    0  502  0.38837042752E+03  0.11341141950E+01 -0.25381973210E+03  0.46398213499E+03  0.46999998093E+01 0. -1.
</event>
<event>
 5   0  0.2257667E-03  0.1098329E+04  0.7818609E-02  0.9206822E-01
        1   -1    0    0  501    0  0.00000000000E+00  0.00000000000E+00  0.53524609145E+03  0.53524609148E+03  0.50400001928E-02 0. -1.
       -1   -1    0    0    0  501  0.00000000000E+00  0.00000000000E+00 -0.56344458720E+03  0.56344458723E+03  0.50400001928E-02 0.  1.
    10030    2    1    2    0    0  0.00000000000E+00  0.00000000000E+00 -0.28198495751E+02  0.10986906787E+04  0.10983287542E+04 0.  0.
        4    1    3    3  502    0 -0.29920030812E+03  0.27630818679E+03 -0.38261290765E+03  0.55880344350E+03  0.12699999809E+01 0.  1.
       -4    1    3    3    0  502  0.29920030812E+03 -0.27630818679E+03  0.35441441190E+03  0.53988723520E+03  0.12699999809E+01 0. -1.
</event>
<event>
 5   0  0.2298958E-03  0.1114217E+04  0.7818609E-02  0.9191445E-01
        1   -1    0    0  501    0  0.00000000000E+00  0.00000000000E+00  0.59672708895E+03  0.59672708897E+03  0.50400001928E-02 0. -1.
       -1   -1    0    0    0  501  0.00000000000E+00  0.00000000000E+00 -0.52012035094E+03  0.52012035097E+03  0.50400001928E-02 0.  1.
    10030    2    1    2    0    0  0.00000000000E+00  0.00000000000E+00  0.76606738003E+02  0.11168474399E+04  0.11142170398E+04 0.  0.
        1    1    3    3  502    0 -0.45420993796E+03  0.11261727286E+03 -0.26470248863E+03  0.53763995889E+03  0.50400001928E-02 0.  1.
       -1    1    3    3    0  502  0.45420993796E+03 -0.11261727286E+03  0.34130922663E+03  0.57920748104E+03  0.50400001928E-02 0. -1.
</event>
<event>
 5   0  0.2300702E-03  0.1104635E+04  0.7818609E-02  0.9200686E-01
        1   -1    0    0  501    0  0.00000000000E+00  0.00000000000E+00  0.56499739757E+03  0.56499739760E+03  0.50400001928E-02 0. -1.
       -1   -1    0    0    0  501  0.00000000000E+00  0.00000000000E+00 -0.53992249736E+03  0.53992249739E+03  0.50400001928E-02 0.  1.
    10030    2    1    2    0    0  0.00000000000E+00  0.00000000000E+00  0.25074900210E+02  0.11049198950E+04  0.11046353352E+04 0.  0.
        5    1    3    3  502    0 -0.15451060061E+03 -0.52837286839E+03  0.57060737162E+02  0.55347035285E+03  0.46999998093E+01 0.  1.
       -5    1    3    3    0  502  0.15451060061E+03  0.52837286839E+03 -0.31985836952E+02  0.55144954214E+03  0.46999998093E+01 0. -1.
</event>
<event>
 5   0  0.3713158E-03  0.1107304E+04  0.7818609E-02  0.9198102E-01
       -2   -1    0    0    0  501  0.00000000000E+00  0.00000000000E+00  0.20953395225E+03  0.20953395227E+03  0.25500000920E-02 0.  1.
        2   -1    0    0  501    0  0.00000000000E+00  0.00000000000E+00 -0.14629168992E+04  0.14629168992E+04  0.25500000920E-02 0. -1.
    10030    2    1    2    0    0  0.00000000000E+00  0.00000000000E+00 -0.12533829469E+04  0.16724508514E+04  0.11073044021E+04 0.  0.
        4    1    3    3  502    0 -0.52742187693E+02  0.54920007730E+03 -0.69634414414E+03  0.88842514780E+03  0.12699999809E+01 0. -1.
       -4    1    3    3    0  502  0.52742187693E+02 -0.54920007730E+03 -0.55703880277E+03  0.78402570363E+03  0.12699999809E+01 0.  1.
</event>
<event>
 5   0  0.3713158E-03  0.1097910E+04  0.7818609E-02  0.9207232E-01
        2   -1    0    0  501    0  0.00000000000E+00  0.00000000000E+00  0.69912601663E+03  0.69912601664E+03  0.25500000920E-02 0. -1.
       -2   -1    0    0    0  501  0.00000000000E+00  0.00000000000E+00 -0.43104020081E+03  0.43104020082E+03  0.25500000920E-02 0.  1.
    10030    2    1    2    0    0  0.00000000000E+00  0.00000000000E+00  0.26808581582E+03  0.11301662175E+04  0.10979096841E+04 0.  0.
        4    1    3    3  502    0 -0.18544100913E+03  0.23303039124E+03  0.60874030302E+03  0.67768569450E+03  0.12699999809E+01 0. -1.
       -4    1    3    3    0  502  0.18544100913E+03 -0.23303039124E+03 -0.34065448720E+03  0.45248052296E+03  0.12699999809E+01 0.  1.
</event>
<event>
 5   0  0.3748901E-03  0.1090984E+04  0.7818609E-02  0.9214024E-01
       -2   -1    0    0    0  501  0.00000000000E+00  0.00000000000E+00  0.94540159590E+02  0.94540159624E+02  0.25500000920E-02 0. -1.
        2   -1    0    0  501    0  0.00000000000E+00  0.00000000000E+00 -0.31474605440E+04  0.31474605440E+04  0.25500000920E-02 0.  1.
    10030    2    1    2    0    0  0.00000000000E+00  0.00000000000E+00 -0.30529203844E+04  0.32420007036E+04  0.10909838169E+04 0.  0.
        5    1    3    3  502    0  0.38984670779E+02  0.33231475936E+03 -0.28066309514E+04  0.28265088521E+04  0.46999998093E+01 0.  1.
       -5    1    3    3    0  502 -0.38984670779E+02 -0.33231475936E+03 -0.24628943300E+03  0.41549185149E+03  0.46999998093E+01 0. -1.
</event>
<event>
 5   0  0.3713158E-03  0.1091423E+04  0.7818609E-02  0.9213592E-01
       -2   -1    0    0    0  501  0.00000000000E+00  0.00000000000E+00  0.24998793144E+03  0.24998793145E+03  0.25500000920E-02 0.  1.
        2   -1    0    0  501    0  0.00000000000E+00  0.00000000000E+00 -0.11912610607E+04  0.11912610607E+04  0.25500000920E-02 0. -1.
    10030    2    1    2    0    0  0.00000000000E+00  0.00000000000E+00 -0.94127312931E+03  0.14412489922E+04  0.10914227199E+04 0.  0.
        4    1    3    3  502    0  0.10987245455E+03  0.45957829534E+03 -0.11016733457E+03  0.48520368952E+03  0.12699999809E+01 0.  1.
       -4    1    3    3    0  502 -0.10987245455E+03 -0.45957829534E+03 -0.83110579474E+03  0.95604530267E+03  0.12699999809E+01 0. -1.
</event>
<event>
 5   0  0.3744875E-03  0.1084357E+04  0.7818609E-02  0.9220574E-01
       -2   -1    0    0    0  501  0.00000000000E+00  0.00000000000E+00  0.41041476955E+03  0.41041476956E+03  0.25500000920E-02 0. -1.
        2   -1    0    0  501    0  0.00000000000E+00  0.00000000000E+00 -0.71624508797E+03  0.71624508798E+03  0.25500000920E-02 0.  1.
    10030    2    1    2    0    0  0.00000000000E+00  0.00000000000E+00 -0.30583031843E+03  0.11266598575E+04  0.10843570680E+04 0.  0.
        2    1    3    3  502    0 -0.40872936706E+03 -0.21174897642E+03  0.14472182327E+03  0.48253676611E+03  0.25500000920E-02 0. -1.
       -2    1    3    3    0  502  0.40872936706E+03  0.21174897642E+03 -0.45055214170E+03  0.64412309143E+03  0.25500000920E-02 0.  1.
</event>
<event>
 5   0  0.3748901E-03  0.1107032E+04  0.7818609E-02  0.9198365E-01
        2   -1    0    0  501    0  0.00000000000E+00  0.00000000000E+00  0.18913906503E+04  0.18913906503E+04  0.25500000920E-02 0. -1.
       -2   -1    0    0    0  501  0.00000000000E+00  0.00000000000E+00 -0.16198651407E+03  0.16198651409E+03  0.25500000920E-02 0.  1.
    10030    2    1    2    0    0  0.00000000000E+00  0.00000000000E+00  0.17294041363E+04  0.20533771644E+04  0.11070316675E+04 0.  0.
        5    1    3    3  502    0 -0.36441257372E+03 -0.35398083515E+03  0.45723112933E+03  0.68350665773E+03  0.46999998093E+01 0.  1.
       -5    1    3    3    0  502  0.36441257372E+03  0.35398083515E+03  0.12721730069E+04  0.13698705067E+04  0.46999998093E+01 0. -1.
</event>
<event>
 5   0  0.3748901E-03  0.1095052E+04  0.7818609E-02  0.9210028E-01
        2   -1    0    0  501    0  0.00000000000E+00  0.00000000000E+00  0.15264031400E+04  0.15264031400E+04  0.25500000920E-02 0. -1.
       -2   -1    0    0    0  501  0.00000000000E+00  0.00000000000E+00 -0.19639941848E+03  0.19639941850E+03  0.25500000920E-02 0.  1.
    10030    2    1    2    0    0  0.00000000000E+00  0.00000000000E+00  0.13300037216E+04  0.17228025585E+04  0.10950519423E+04 0.  0.
        5    1    3    3  502    0  0.19531288716E+03  0.14108840532E+03  0.14384793549E+04  0.14585259704E+04  0.46999998093E+01 0. -1.
       -5    1    3    3    0  502 -0.19531288716E+03 -0.14108840532E+03 -0.10847563331E+03  0.26427658812E+03  0.46999998093E+01 0.  1.
</event>
<event>
 5   0  0.1508625E-03  0.1101360E+04  0.7818609E-02  0.9203868E-01
       -4   -1    0    0    0  501  0.00000000000E+00  0.00000000000E+00  0.48104095726E+03  0.48104263372E+03  0.12699999809E+01 0.  1.
        4   -1    0    0  501    0  0.00000000000E+00  0.00000000000E+00 -0.63039681871E+03  0.63039809799E+03  0.12699999809E+01 0. -1.
    10030    2    1    2    0    0  0.00000000000E+00  0.00000000000E+00 -0.14935586146E+03  0.11114407317E+04  0.11013597626E+04 0.  0.
        5    1    3    3  502    0  0.51997745773E+03 -0.46687261925E+01 -0.25752103046E+03  0.58029089660E+03  0.46999998093E+01 0.  1.
       -5    1    3    3    0  502 -0.51997745773E+03  0.46687261925E+01  0.10816516900E+03  0.53114983511E+03  0.46999998093E+01 0. -1.
</event>
<event>
 5   0  0.2374100E-03  0.1114778E+04  0.7818609E-02  0.9190907E-01
       -1   -1    0    0    0  501  0.00000000000E+00  0.00000000000E+00  0.51976839687E+03  0.51976839689E+03  0.50400001928E-02 0. -1.
        1   -1    0    0  501    0  0.00000000000E+00  0.00000000000E+00 -0.59773250022E+03  0.59773250024E+03  0.50400001928E-02 0.  1.
    10030    2    1    2    0    0  0.00000000000E+00  0.00000000000E+00 -0.77964103355E+02  0.11175008971E+04  0.11147779392E+04 0.  0.
        2    1    3    3  502    0  0.23294084687E+03  0.15106944078E+03 -0.52348346726E+03  0.59255240661E+03  0.25500000920E-02 0.  1.
       -2    1    3    3    0  502 -0.23294084687E+03 -0.15106944078E+03  0.44551936391E+03  0.52494849052E+03  0.25500000920E-02 0. -1.
</event>
<event>
 5   0  0.1508625E-03  0.1111458E+04  0.7818609E-02  0.9194096E-01
        4   -1    0    0  501    0  0.00000000000E+00  0.00000000000E+00  0.78989742763E+03  0.78989844859E+03  0.12699999809E+01 0.  1.
       -4   -1    0    0    0  501  0.00000000000E+00  0.00000000000E+00 -0.39097830991E+03  0.39098037255E+03  0.12699999809E+01 0. -1.
    10030    2    1    2    0    0  0.00000000000E+00  0.00000000000E+00  0.39891911772E+03  0.11808788211E+04  0.11114577490E+04 0.  0.
        2    1    3    3  502    0 -0.52492841805E+03 -0.93808211617E+02  0.36570903183E+03  0.64660105213E+03  0.25500000920E-02 0.  1.
       -2    1    3    3    0  502  0.52492841805E+03  0.93808211617E+02  0.33210085891E+02  0.53427776901E+03  0.25500000920E-02 0. -1.
</event>
<event>
 5   0  0.2255788E-03  0.1112617E+04  0.7818609E-02  0.9192981E-01
       -1   -1    0    0    0  501  0.00000000000E+00  0.00000000000E+00  0.46299110376E+03  0.46299110378E+03  0.50400001928E-02 0. -1.
        1   -1    0    0  501    0  0.00000000000E+00  0.00000000000E+00 -0.66843408403E+03  0.66843408405E+03  0.50400001928E-02 0.  1.
    10030    2    1    2    0    0  0.00000000000E+00  0.00000000000E+00 -0.20544298028E+03  0.11314251878E+04  0.11126167972E+04 0.  0.
        3    1    3    3  502    0 -0.16692440117E+03  0.25054630563E+03 -0.57843489219E+03  0.65209212667E+03  0.10100000352E+00 0.  1.
       -3    1    3    3    0  502  0.16692440117E+03 -0.25054630563E+03  0.37299191191E+03  0.47933306116E+03  0.10100000352E+00 0. -1.
</event>
<event>
 5   0  0.3962999E-03  0.1106048E+04  0.7818609E-02  0.9199317E-01
       -2   -1    0    0    0  501  0.00000000000E+00  0.00000000000E+00  0.73722359448E+03  0.73722359448E+03  0.25500000920E-02 0.  1.
        2   -1    0    0  501    0  0.00000000000E+00  0.00000000000E+00 -0.41484788969E+03  0.41484788970E+03  0.25500000920E-02 0. -1.
    10030    2    1    2    0    0  0.00000000000E+00  0.00000000000E+00  0.32237570478E+03  0.11520714842E+04  0.11060481950E+04 0.  0.
        3    1    3    3  502    0  0.54548285723E+02 -0.51663397966E+03 -0.36305075358E+02  0.52077274613E+03  0.10100000352E+00 0. -1.
       -3    1    3    3    0  502 -0.54548285723E+02  0.51663397966E+03  0.35868078014E+03  0.63129873805E+03  0.10100000352E+00 0.  1.
</event>
<event>
 5   0  0.2298958E-03  0.1099733E+04  0.7818609E-02  0.9205453E-01
       -1   -1    0    0    0  501  0.00000000000E+00  0.00000000000E+00  0.65073478970E+03  0.65073478972E+03  0.50400001928E-02 0.  1.
        1   -1    0    0  501    0  0.00000000000E+00  0.00000000000E+00 -0.46463307203E+03  0.46463307205E+03  0.50400001928E-02 0. -1.
    10030    2    1    2    0    0  0.00000000000E+00  0.00000000000E+00  0.18610171768E+03  0.11153678618E+04  0.10997325210E+04 0.  0.
        1    1    3    3  502    0 -0.42776924223E+03  0.13423716963E+03 -0.22982531459E+03  0.50381129162E+03  0.50400001928E-02 0. -1.
       -1    1    3    3    0  502  0.42776924223E+03 -0.13423716963E+03  0.41592703227E+03  0.61155657016E+03  0.50400001928E-02 0.  1.
</event>
<event>
 5   0  0.2374100E-03  0.1123385E+04  0.7818609E-02  0.9182694E-01
       -1   -1    0    0    0  501  0.00000000000E+00  0.00000000000E+00  0.35953331837E+03  0.35953331841E+03  0.50400001928E-02 0.  1.
        1   -1    0    0  501    0  0.00000000000E+00  0.00000000000E+00 -0.87752295078E+03  0.87752295079E+03  0.50400001928E-02 0. -1.
    10030    2    1    2    0    0  0.00000000000E+00  0.00000000000E+00 -0.51798963241E+03  0.12370562692E+04  0.11233854877E+04 0.  0.
        2    1    3    3  502    0  0.28621467068E+03  0.89091891839E+02 -0.78207844873E+03  0.83755770122E+03  0.25500000920E-02 0. -1.
       -2    1    3    3    0  502 -0.28621467068E+03 -0.89091891839E+02  0.26408881632E+03  0.39949856798E+03  0.25500000920E-02 0.  1.
</event>
<event>
 5   0  0.2300702E-03  0.1105453E+04  0.7818609E-02  0.9199893E-01
        1   -1    0    0  501    0  0.00000000000E+00  0.00000000000E+00  0.39783344821E+03  0.39783344825E+03  0.50400001928E-02 0. -1.
       -1   -1    0    0    0  501  0.00000000000E+00  0.00000000000E+00 -0.76792579302E+03  0.76792579304E+03  0.50400001928E-02 0.  1.
    10030    2    1    2    0    0  0.00000000000E+00  0.00000000000E+00 -0.37009234481E+03  0.11657592413E+04  0.11054529682E+04 0.  0.
        5    1    3    3  502    0 -0.46206093671E+03  0.76357686481E+02  0.12448578192E+03  0.48461284075E+03  0.46999998093E+01 0. -1.
       -5    1    3    3    0  502  0.46206093671E+03 -0.76357686481E+02 -0.49457812674E+03  0.68114640054E+03  0.46999998093E+01 0.  1.
</event>
<event>
 5   0  0.3744875E-03  0.1102695E+04  0.7818609E-02  0.9202569E-01
       -2   -1    0    0    0  501  0.00000000000E+00  0.00000000000E+00  0.19131202542E+03  0.19131202544E+03  0.25500000920E-02 0. -1.
        2   -1    0    0  501    0  0.00000000000E+00  0.00000000000E+00 -0.15889451123E+04  0.15889451123E+04  0.25500000920E-02 0.  1.
    10030    2    1    2    0    0  0.00000000000E+00  0.00000000000E+00 -0.13976330868E+04  0.17802571377E+04  0.11026954389E+04 0.  0.
        2    1    3    3  502    0  0.40664622056E+03 -0.24196550922E+03 -0.24196200885E+03  0.53146408164E+03  0.25500000920E-02 0. -1.
       -2    1    3    3    0  502 -0.40664622056E+03  0.24196550922E+03 -0.11556710780E+04  0.12487930560E+04  0.25500000920E-02 0.  1.
</event>
<event>
 5   0  0.3713158E-03  0.1100342E+04  0.7818609E-02  0.9204859E-01
       -2   -1    0    0    0  501  0.00000000000E+00  0.00000000000E+00  0.14558092612E+03  0.14558092614E+03  0.25500000920E-02 0.  1.
        2   -1    0    0  501    0  0.00000000000E+00  0.00000000000E+00 -0.20791742072E+04  0.20791742072E+04  0.25500000920E-02 0. -1.
    10030    2    1    2    0    0  0.00000000000E+00  0.00000000000E+00 -0.19335932811E+04  0.22247551334E+04  0.11003419590E+04 0.  0.
        4    1    3    3  502    0  0.22864962703E+03 -0.36739011547E+03 -0.16537298934E+04  0.17094093489E+04  0.12699999809E+01 0. -1.
       -4    1    3    3    0  502 -0.22864962703E+03  0.36739011547E+03 -0.27986338772E+03  0.51534578448E+03  0.12699999809E+01 0.  1.
</event>
<event>
 5   0  0.2255788E-03  0.1091838E+04  0.7818609E-02  0.9213184E-01
       -1   -1    0    0    0  501  0.00000000000E+00  0.00000000000E+00  0.25259792608E+03  0.25259792613E+03  0.50400001928E-02 0. -1.
        1   -1    0    0  501    0  0.00000000000E+00  0.00000000000E+00 -0.11798485820E+04  0.11798485820E+04  0.50400001928E-02 0.  1.
    10030    2    1    2    0    0  0.00000000000E+00  0.00000000000E+00 -0.92725065595E+03  0.14324465082E+04  0.10918375428E+04 0.  0.
        3    1    3    3  502    0  0.19817955383E+03 -0.76865110515E+02  0.19607491179E+03  0.28918637936E+03  0.10100000352E+00 0. -1.
       -3    1    3    3    0  502 -0.19817955383E+03  0.76865110515E+02 -0.11233255677E+04  0.11432601288E+04  0.10100000352E+00 0.  1.
</event>
<event>
 5   0  0.3744875E-03  0.1092353E+04  0.7818609E-02  0.9212678E-01
       -2   -1    0    0    0  501  0.00000000000E+00  0.00000000000E+00  0.24061862332E+03  0.24061862334E+03  0.25500000920E-02 0.  1.
        2   -1    0    0  501    0  0.00000000000E+00  0.00000000000E+00 -0.12397569931E+04  0.12397569931E+04  0.25500000920E-02 0. -1.
    10030    2    1    2    0    0  0.00000000000E+00  0.00000000000E+00 -0.99913836977E+03  0.14803756164E+04  0.10923527286E+04 0.  0.
        2    1    3    3  502    0  0.47020657546E+03  0.55208338814E+02 -0.13049579641E+03  0.49109198443E+03  0.25500000920E-02 0.  1.
       -2    1    3    3    0  502 -0.47020657546E+03 -0.55208338814E+02 -0.86864257336E+03  0.98928363200E+03  0.25500000920E-02 0. -1.
</event>
<event>
 5   0  0.2300702E-03  0.1110997E+04  0.7818609E-02  0.9194539E-01
        1   -1    0    0  501    0  0.00000000000E+00  0.00000000000E+00  0.32025954523E+03  0.32025954527E+03  0.50400001928E-02 0.  1.
       -1   -1    0    0    0  501  0.00000000000E+00  0.00000000000E+00 -0.96352691678E+03  0.96352691679E+03  0.50400001928E-02 0. -1.
    10030    2    1    2    0    0  0.00000000000E+00  0.00000000000E+00 -0.64326737155E+03  0.12837864621E+04  0.11109971957E+04 0.  0.
        5    1    3    3  502    0  0.59901300562E+02 -0.91804423222E+02  0.30761418095E+03  0.32659576276E+03  0.46999998093E+01 0.  1.
       -5    1    3    3    0  502 -0.59901300562E+02  0.91804423222E+02 -0.95088155251E+03  0.95719069930E+03  0.46999998093E+01 0. -1.
</event>
<event>
 5   0  0.1508625E-03  0.1101851E+04  0.7818609E-02  0.9203389E-01
       -3   -1    0    0    0  501  0.00000000000E+00  0.00000000000E+00  0.16888749667E+03  0.16888752687E+03  0.10100000352E+00 0.  1.
        3   -1    0    0  501    0  0.00000000000E+00  0.00000000000E+00 -0.17971670009E+04  0.17971670038E+04  0.10100000352E+00 0. -1.
    10030    2    1    2    0    0  0.00000000000E+00  0.00000000000E+00 -0.16282795043E+04  0.19660545306E+04  0.11018512937E+04 0.  0.
        4    1    3    3  502    0  0.30126458016E+03 -0.44373131028E+03 -0.58943144234E+03  0.79692462699E+03  0.12699999809E+01 0. -1.
       -4    1    3    3    0  502 -0.30126458016E+03  0.44373131028E+03 -0.10388480619E+04  0.11691299036E+04  0.12699999809E+01 0.  1.
</event>
<event>
 5   0  0.2257667E-03  0.1091277E+04  0.7818609E-02  0.9213736E-01
       -1   -1    0    0    0  501  0.00000000000E+00  0.00000000000E+00  0.11392074291E+04  0.11392074291E+04  0.50400001928E-02 0.  1.
        1   -1    0    0  501    0  0.00000000000E+00  0.00000000000E+00 -0.26134074040E+03  0.26134074045E+03  0.50400001928E-02 0. -1.
    10030    2    1    2    0    0  0.00000000000E+00  0.00000000000E+00  0.87786668868E+03  0.14005481695E+04  0.10912768907E+04 0.  0.
        4    1    3    3  502    0 -0.43181730424E+03  0.32815181122E+03  0.36225170271E+03  0.65220986229E+03  0.12699999809E+01 0. -1.
       -4    1    3    3    0  502  0.43181730424E+03 -0.32815181122E+03  0.51561498596E+03  0.74833830725E+03  0.12699999809E+01 0.  1.
</event>
<event>
 5   0  0.2374100E-03  0.1109934E+04  0.7818609E-02  0.9195563E-01
       -1   -1    0    0    0  501  0.00000000000E+00  0.00000000000E+00  0.81400741376E+03  0.81400741378E+03  0.50400001928E-02 0.  1.
        1   -1    0    0  501    0  0.00000000000E+00  0.00000000000E+00 -0.37836055581E+03  0.37836055585E+03  0.50400001928E-02 0. -1.
    10030    2    1    2    0    0  0.00000000000E+00  0.00000000000E+00  0.43564685795E+03  0.11923679696E+04  0.11099338675E+04 0.  0.
        2    1    3    3  502    0 -0.79491275486E+02  0.47389295443E+03 -0.80457872496E+02  0.48720310384E+03  0.25500000920E-02 0. -1.
       -2    1    3    3    0  502  0.79491275486E+02 -0.47389295443E+03  0.51610473045E+03  0.70516486578E+03  0.25500000920E-02 0.  1.
</event>
<event>
 5   0  0.2300702E-03  0.1103490E+04  0.7818609E-02  0.9201797E-01
       -1   -1    0    0    0  501  0.00000000000E+00  0.00000000000E+00  0.48107304552E+03  0.48107304555E+03  0.50400001928E-02 0. -1.
        1   -1    0    0  501    0  0.00000000000E+00  0.00000000000E+00 -0.63279872001E+03  0.63279872003E+03  0.50400001928E-02 0.  1.
    10030    2    1    2    0    0  0.00000000000E+00  0.00000000000E+00 -0.15172567448E+03  0.11138717656E+04  0.11034897507E+04 0.  0.
        5    1    3    3  502    0 -0.35169712961E+03 -0.41571993837E+03  0.13777962665E+02  0.54472549085E+03  0.46999998093E+01 0. -1.
       -5    1    3    3    0  502  0.35169712961E+03  0.41571993837E+03 -0.16550363715E+03  0.56914627473E+03  0.46999998093E+01 0.  1.
</event>
<event>
 5   0  0.2298958E-03  0.1101134E+04  0.7818609E-02  0.9204087E-01
        1   -1    0    0  501    0  0.00000000000E+00  0.00000000000E+00  0.55573616672E+03  0.55573616674E+03  0.50400001928E-02 0.  1.
       -1   -1    0    0    0  501  0.00000000000E+00  0.00000000000E+00 -0.54544617976E+03  0.54544617978E+03  0.50400001928E-02 0. -1.
    10030    2    1    2    0    0  0.00000000000E+00  0.00000000000E+00  0.10289986957E+02  0.11011823465E+04  0.11011342681E+04 0.  0.
        1    1    3    3  502    0  0.49456574199E+03  0.17391803187E+03  0.17332312483E+03  0.55216271206E+03  0.50400001928E-02 0.  1.
       -1    1    3    3    0  502 -0.49456574199E+03 -0.17391803187E+03 -0.16303313787E+03  0.54901963447E+03  0.50400001928E-02 0. -1.
</event>
<event>
 5   0  0.3962999E-03  0.1110234E+04  0.7818609E-02  0.9195275E-01
       -2   -1    0    0    0  501  0.00000000000E+00  0.00000000000E+00  0.98312187528E+03  0.98312187529E+03  0.25500000920E-02 0.  1.
        2   -1    0    0  501    0  0.00000000000E+00  0.00000000000E+00 -0.31344503508E+03  0.31344503509E+03  0.25500000920E-02 0. -1.
    10030    2    1    2    0    0  0.00000000000E+00  0.00000000000E+00  0.66967684021E+03  0.12965669104E+04  0.11102336163E+04 0.  0.
        3    1    3    3  502    0 -0.35106612591E+03  0.11461303595E+03 -0.14917298313E+03  0.39829155385E+03  0.10100000352E+00 0. -1.
       -3    1    3    3    0  502  0.35106612591E+03 -0.11461303595E+03  0.81884982333E+03  0.89827535653E+03  0.10100000352E+00 0.  1.
</event>
<event>
 5   0  0.3962999E-03  0.1111732E+04  0.7818609E-02  0.9193832E-01
       -2   -1    0    0    0  501  0.00000000000E+00  0.00000000000E+00  0.29652063578E+03  0.29652063579E+03  0.25500000920E-02 0. -1.
        2   -1    0    0  501    0  0.00000000000E+00  0.00000000000E+00 -0.10420425835E+04  0.10420425835E+04  0.25500000920E-02 0.  1.
    10030    2    1    2    0    0  0.00000000000E+00  0.00000000000E+00 -0.74552194770E+03  0.13385632193E+04  0.11117322148E+04 0.  0.
        3    1    3    3  502    0 -0.12449013717E+02  0.28615934408E+02  0.29546508880E+03  0.29710852991E+03  0.10100000352E+00 0. -1.
       -3    1    3    3    0  502  0.12449013717E+02 -0.28615934408E+02 -0.10409870365E+04  0.10414546894E+04  0.10100000352E+00 0.  1.
</event>
<event>
 5   0  0.2300702E-03  0.1092006E+04  0.7818609E-02  0.9213019E-01
       -1   -1    0    0    0  501  0.00000000000E+00  0.00000000000E+00  0.43121272833E+03  0.43121272836E+03  0.50400001928E-02 0.  1.
        1   -1    0    0  501    0  0.00000000000E+00  0.00000000000E+00 -0.69135036421E+03  0.69135036423E+03  0.50400001928E-02 0. -1.
    10030    2    1    2    0    0  0.00000000000E+00  0.00000000000E+00 -0.26013763588E+03  0.11225630926E+04  0.10920056352E+04 0.  0.
        5    1    3    3  502    0  0.41211528310E+02  0.40854665899E+03 -0.49998303022E+03  0.64700377367E+03  0.46999998093E+01 0. -1.
       -5    1    3    3    0  502 -0.41211528310E+02 -0.40854665899E+03  0.23984539433E+03  0.47555931893E+03  0.46999998093E+01 0.  1.
</event>
<event>
 5   0  0.2255788E-03  0.1102404E+04  0.7818609E-02  0.9202852E-01
        1   -1    0    0  501    0  0.00000000000E+00  0.00000000000E+00  0.14306969201E+04  0.14306969201E+04  0.50400001928E-02 0.  1.
       -1   -1    0    0    0  501  0.00000000000E+00  0.00000000000E+00 -0.21236052798E+03  0.21236052804E+03  0.50400001928E-02 0. -1.
    10030    2    1    2    0    0  0.00000000000E+00  0.00000000000E+00  0.12183363921E+04  0.16430574481E+04  0.11024038341E+04 0.  0.
        3    1    3    3  502    0 -0.48749919563E+03  0.13602082222E+03  0.28376765491E+03  0.58024238211E+03  0.10100000352E+00 0. -1.
       -3    1    3    3    0  502  0.48749919563E+03 -0.13602082222E+03  0.93456873720E+03  0.10628150660E+04  0.10100000352E+00 0.  1.
</event>
<event>
 5   0  0.2255788E-03  0.1103922E+04  0.7818609E-02  0.9201378E-01
       -1   -1    0    0    0  501  0.00000000000E+00  0.00000000000E+00  0.13836608896E+03  0.13836608906E+03  0.50400001928E-02 0. -1.
        1   -1    0    0  501    0  0.00000000000E+00  0.00000000000E+00 -0.22018455610E+04  0.22018455610E+04  0.50400001928E-02 0.  1.
    10030    2    1    2    0    0  0.00000000000E+00  0.00000000000E+00 -0.20634794720E+04  0.23402116500E+04  0.11039216619E+04 0.  0.
        3    1    3    3  502    0 -0.22595452095E+03 -0.28281925824E+03 -0.14842602969E+03  0.39124477614E+03  0.10100000352E+00 0. -1.
       -3    1    3    3    0  502  0.22595452095E+03  0.28281925824E+03 -0.19150534423E+04  0.19489668739E+04  0.10100000352E+00 0.  1.
</event>
<event>
 5   0  0.3744875E-03  0.1096030E+04  0.7818609E-02  0.9209070E-01
        2   -1    0    0  501    0  0.00000000000E+00  0.00000000000E+00  0.35206513561E+03  0.35206513562E+03  0.25500000920E-02 0. -1.
       -2   -1    0    0    0  501  0.00000000000E+00  0.00000000000E+00 -0.85302449940E+03  0.85302449941E+03  0.25500000920E-02 0.  1.
    10030    2    1    2    0    0  0.00000000000E+00  0.00000000000E+00 -0.50095936380E+03  0.12050896350E+04  0.10960295362E+04 0.  0.
        2    1    3    3  502    0  0.37506969898E+03 -0.39483204320E+03 -0.18314397556E+03  0.57455316309E+03  0.25500000920E-02 0. -1.
       -2    1    3    3    0  502 -0.37506969898E+03  0.39483204320E+03 -0.31781538823E+03  0.63053647193E+03  0.25500000920E-02 0.  1.
</event>
<event>
 5   0  0.3744875E-03  0.1103468E+04  0.7818609E-02  0.9201818E-01
       -2   -1    0    0    0  501  0.00000000000E+00  0.00000000000E+00  0.11417193503E+04  0.11417193503E+04  0.25500000920E-02 0. -1.
        2   -1    0    0  501    0  0.00000000000E+00  0.00000000000E+00 -0.26662462149E+03  0.26662462150E+03  0.25500000920E-02 0.  1.
    10030    2    1    2    0    0  0.00000000000E+00  0.00000000000E+00  0.87509472883E+03  0.14083439718E+04  0.11034681502E+04 0.  0.
        2    1    3    3  502    0  0.45502012104E+03 -0.26240241913E+03  0.22203910636E+03  0.57026283842E+03  0.25500000920E-02 0.  1.
       -2    1    3    3    0  502 -0.45502012104E+03  0.26240241913E+03  0.65305562247E+03  0.83808113341E+03  0.25500000920E-02 0. -1.
</event>
<event>
 5   0  0.2257667E-03  0.1107796E+04  0.7818609E-02  0.9197626E-01
       -1   -1    0    0    0  501  0.00000000000E+00  0.00000000000E+00  0.45947368286E+03  0.45947368288E+03  0.50400001928E-02 0.  1.
        1   -1    0    0  501    0  0.00000000000E+00  0.00000000000E+00 -0.66772759512E+03  0.66772759514E+03  0.50400001928E-02 0. -1.
    10030    2    1    2    0    0  0.00000000000E+00  0.00000000000E+00 -0.20825391226E+03  0.11272012780E+04  0.11077964746E+04 0.  0.
        4    1    3    3  502    0  0.38894441600E+03  0.35807855969E+03 -0.27225946547E+03  0.59466363861E+03  0.12699999809E+01 0. -1.
       -4    1    3    3    0  502 -0.38894441600E+03 -0.35807855969E+03  0.64005553208E+02  0.53253763941E+03  0.12699999809E+01 0.  1.
</event>
<event>
 5   0  0.3992414E-03  0.1031902E+04  0.7818609E-02  0.9274231E-01
       -2   -1    0    0    0  501  0.00000000000E+00  0.00000000000E+00  0.25827504149E+03  0.25827504150E+03  0.25500000920E-02 0. -1.
        2   -1    0    0  501    0  0.00000000000E+00  0.00000000000E+00 -0.10307055583E+04  0.10307055583E+04  0.25500000920E-02 0.  1.
    10030    2    1    2    0    0  0.00000000000E+00  0.00000000000E+00 -0.77243051678E+03  0.12889805998E+04  0.10319021675E+04 0.  0.
        1    1    3    3  502    0  0.27420231706E+03  0.26340803474E+03 -0.82186434708E+03  0.90555602172E+03  0.50400001928E-02 0.  1.
       -1    1    3    3    0  502 -0.27420231706E+03 -0.26340803474E+03  0.49433830301E+02  0.38342457805E+03  0.50400001928E-02 0. -1.
</event>
<event>
 5   0  0.1508625E-03  0.1087516E+04  0.7818609E-02  0.9217446E-01
       -3   -1    0    0    0  501  0.00000000000E+00  0.00000000000E+00  0.90236884421E+03  0.90236884986E+03  0.10100000352E+00 0. -1.
        3   -1    0    0  501    0  0.00000000000E+00  0.00000000000E+00 -0.32766290784E+03  0.32766292340E+03  0.10100000352E+00 0.  1.
    10030    2    1    2    0    0  0.00000000000E+00  0.00000000000E+00  0.57470593637E+03  0.12300317733E+04  0.10875160918E+04 0.  0.
        4    1    3    3  502    0  0.43244037636E+03 -0.49082174541E+02 -0.81336179575E+02  0.44275379837E+03  0.12699999809E+01 0.  1.
       -4    1    3    3    0  502 -0.43244037636E+03  0.49082174541E+02  0.65604211595E+03  0.78727797490E+03  0.12699999809E+01 0. -1.
</event>
<event>
 5   0  0.3748901E-03  0.1090339E+04  0.7818609E-02  0.9214660E-01
        2   -1    0    0  501    0  0.00000000000E+00  0.00000000000E+00  0.17752976337E+04  0.17752976337E+04  0.25500000920E-02 0.  1.
       -2   -1    0    0    0  501  0.00000000000E+00  0.00000000000E+00 -0.16741404026E+03  0.16741404028E+03  0.25500000920E-02 0. -1.
    10030    2    1    2    0    0  0.00000000000E+00  0.00000000000E+00  0.16078835934E+04  0.19427116740E+04  0.10903389373E+04 0.  0.
        5    1    3    3  502    0 -0.39936062830E+03  0.15419127150E+03  0.20255476391E+03  0.47361839283E+03  0.46999998093E+01 0. -1.
       -5    1    3    3    0  502  0.39936062830E+03 -0.15419127150E+03  0.14053288295E+04  0.14690932811E+04  0.46999998093E+01 0.  1.
</event>
<event>
 5   0  0.3748901E-03  0.1103952E+04  0.7818609E-02  0.9201349E-01
       -2   -1    0    0    0  501  0.00000000000E+00  0.00000000000E+00  0.47033229563E+03  0.47033229564E+03  0.25500000920E-02 0.  1.
        2   -1    0    0  501    0  0.00000000000E+00  0.00000000000E+00 -0.64779184476E+03  0.64779184477E+03  0.25500000920E-02 0. -1.
    10030    2    1    2    0    0  0.00000000000E+00  0.00000000000E+00 -0.17745954913E+03  0.11181241404E+04  0.11039518566E+04 0.  0.
        5    1    3    3  502    0 -0.40637503148E+03  0.11061303774E+03  0.27261268167E+03  0.50171274105E+03  0.46999998093E+01 0.  1.
       -5    1    3    3    0  502  0.40637503148E+03 -0.11061303774E+03 -0.45007223079E+03  0.61641139936E+03  0.46999998093E+01 0. -1.
</event>
<event>
 5   0  0.3744875E-03  0.1096917E+04  0.7818609E-02  0.9208202E-01
       -2   -1    0    0    0  501  0.00000000000E+00  0.00000000000E+00  0.40846869137E+03  0.40846869137E+03  0.25500000920E-02 0.  1.
        2   -1    0    0  501    0  0.00000000000E+00  0.00000000000E+00 -0.73642530096E+03  0.73642530096E+03  0.25500000920E-02 0. -1.
    10030    2    1    2    0    0  0.00000000000E+00  0.00000000000E+00 -0.32795660959E+03  0.11448939923E+04  0.10969169139E+04 0.  0.
        2    1    3    3  502    0 -0.23045284011E+03 -0.31968414831E+03  0.23415027766E+03  0.45840246370E+03  0.25500000920E-02 0.  1.
       -2    1    3    3    0  502  0.23045284011E+03  0.31968414831E+03 -0.56210688725E+03  0.68649152864E+03  0.25500000920E-02 0. -1.
</event>
<event>
 5   0  0.2300702E-03  0.1116661E+04  0.7818609E-02  0.9189103E-01
        1   -1    0    0  501    0  0.00000000000E+00  0.00000000000E+00  0.56324949202E+03  0.56324949204E+03  0.50400001928E-02 0. -1.
       -1   -1    0    0    0  501  0.00000000000E+00  0.00000000000E+00 -0.55345448785E+03  0.55345448788E+03  0.50400001928E-02 0.  1.
    10030    2    1    2    0    0  0.00000000000E+00  0.00000000000E+00  0.97950041632E+01  0.11167039799E+04  0.11166610214E+04 0.  0.
        5    1    3    3  502    0 -0.27047079770E+03  0.47410445749E+03 -0.11250113725E+03  0.55732224512E+03  0.46999998093E+01 0.  1.
       -5    1    3    3    0  502  0.27047079770E+03 -0.47410445749E+03  0.12229614141E+03  0.55938173480E+03  0.46999998093E+01 0. -1.
</event>
<event>
 5   0  0.3962999E-03  0.1085033E+04  0.7818609E-02  0.9219904E-01
        2   -1    0    0  501    0  0.00000000000E+00  0.00000000000E+00  0.59670487875E+03  0.59670487876E+03  0.25500000920E-02 0. -1.
       -2   -1    0    0    0  501  0.00000000000E+00  0.00000000000E+00 -0.49324892878E+03  0.49324892879E+03  0.25500000920E-02 0.  1.
    10030    2    1    2    0    0  0.00000000000E+00  0.00000000000E+00  0.10345594997E+03  0.10899538075E+04  0.10850327963E+04 0.  0.
        3    1    3    3  502    0  0.46739237968E+03  0.27313760662E+03  0.16010515576E+02  0.54158668332E+03  0.10100000352E+00 0.  1.
       -3    1    3    3    0  502 -0.46739237968E+03 -0.27313760662E+03  0.87445434398E+02  0.54836712423E+03  0.10100000352E+00 0. -1.
</event>
<event>
 5   0  0.2255788E-03  0.1091911E+04  0.7818609E-02  0.9213112E-01
       -1   -1    0    0    0  501  0.00000000000E+00  0.00000000000E+00  0.21840726150E+03  0.21840726155E+03  0.50400001928E-02 0.  1.
        1   -1    0    0  501    0  0.00000000000E+00  0.00000000000E+00 -0.13647323093E+04  0.13647323093E+04  0.50400001928E-02 0. -1.
    10030    2    1    2    0    0  0.00000000000E+00  0.00000000000E+00 -0.11463250478E+04  0.15831395708E+04  0.10919110704E+04 0.  0.
        3    1    3    3  502    0 -0.26295176344E+03  0.19271821748E+03  0.61784584224E+02  0.33181513873E+03  0.10100000352E+00 0.  1.
       -3    1    3    3    0  502  0.26295176344E+03 -0.19271821748E+03 -0.12081096320E+04  0.12513244321E+04  0.10100000352E+00 0. -1.
</event>
<event>
 5   0  0.3713158E-03  0.1096954E+04  0.7818609E-02  0.9208166E-01
        2   -1    0    0  501    0  0.00000000000E+00  0.00000000000E+00  0.66157536788E+03  0.66157536789E+03  0.25500000920E-02 0. -1.
       -2   -1    0    0    0  501  0.00000000000E+00  0.00000000000E+00 -0.45471285600E+03  0.45471285601E+03  0.25500000920E-02 0.  1.
    10030    2    1    2    0    0  0.00000000000E+00  0.00000000000E+00  0.20686251188E+03  0.11162882239E+04  0.10969536453E+04 0.  0.
        4    1    3    3  502    0 -0.26380831806E+03  0.49378392534E+01  0.59274523002E+03  0.64882026136E+03  0.12699999809E+01 0. -1.
       -4    1    3    3    0  502  0.26380831806E+03 -0.49378392534E+01 -0.38588271814E+03  0.46746796254E+03  0.12699999809E+01 0.  1.
</event>
<event>
 5   0  0.2374100E-03  0.1094216E+04  0.7818609E-02  0.9210848E-01
        1   -1    0    0  501    0  0.00000000000E+00  0.00000000000E+00  0.48634212514E+03  0.48634212516E+03  0.50400001928E-02 0. -1.
       -1   -1    0    0    0  501  0.00000000000E+00  0.00000000000E+00 -0.61546603422E+03  0.61546603424E+03  0.50400001928E-02 0.  1.
    10030    2    1    2    0    0  0.00000000000E+00  0.00000000000E+00 -0.12912390908E+03  0.11018081594E+04  0.10942158088E+04 0.  0.
        2    1    3    3  502    0  0.27538600571E+03  0.45972698623E+03 -0.17551135334E+03  0.56390654294E+03  0.25500000920E-02 0.  1.
       -2    1    3    3    0  502 -0.27538600571E+03 -0.45972698623E+03  0.46387444259E+02  0.53790161647E+03  0.25500000920E-02 0. -1.
</event>
<event>
 5   0  0.2298958E-03  0.1097022E+04  0.7818609E-02  0.9208100E-01
       -1   -1    0    0    0  501  0.00000000000E+00  0.00000000000E+00  0.10880195992E+04  0.10880195992E+04  0.50400001928E-02 0. -1.
        1   -1    0    0  501    0  0.00000000000E+00  0.00000000000E+00 -0.27652452144E+03  0.27652452148E+03  0.50400001928E-02 0.  1.
    10030    2    1    2    0    0  0.00000000000E+00  0.00000000000E+00  0.81149507774E+03  0.13645441207E+04  0.10970216024E+04 0.  0.
        1    1    3    3  502    0 -0.44579533516E+03 -0.30400889863E+03  0.28318315158E+03  0.60938295731E+03  0.50400001928E-02 0. -1.
       -1    1    3    3    0  502  0.44579533516E+03  0.30400889863E+03  0.52831192616E+03  0.75516116336E+03  0.50400001928E-02 0.  1.
</event>
<event>
 5   0  0.3748901E-03  0.1079505E+04  0.7818609E-02  0.9225401E-01
        2   -1    0    0  501    0  0.00000000000E+00  0.00000000000E+00  0.75281862817E+03  0.75281862817E+03  0.25500000920E-02 0. -1.
       -2   -1    0    0    0  501  0.00000000000E+00  0.00000000000E+00 -0.38698908710E+03  0.38698908711E+03  0.25500000920E-02 0.  1.
    10030    2    1    2    0    0  0.00000000000E+00  0.00000000000E+00  0.36582954107E+03  0.11398077153E+04  0.10795046895E+04 0.  0.
        5    1    3    3  502    0  0.41419961856E+03 -0.13547235578E+03  0.51913076582E+03  0.67781481631E+03  0.46999998093E+01 0. -1.
       -5    1    3    3    0  502 -0.41419961856E+03  0.13547235578E+03 -0.15330122475E+03  0.46199289897E+03  0.46999998093E+01 0.  1.
</event>
<event>
 5   0  0.2300702E-03  0.1098511E+04  0.7818609E-02  0.9206645E-01
       -1   -1    0    0    0  501  0.00000000000E+00  0.00000000000E+00  0.21546335832E+03  0.21546335838E+03  0.50400001928E-02 0. -1.
        1   -1    0    0  501    0  0.00000000000E+00  0.00000000000E+00 -0.14001516863E+04  0.14001516863E+04  0.50400001928E-02 0.  1.
    10030    2    1    2    0    0  0.00000000000E+00  0.00000000000E+00 -0.11846883280E+04  0.16156150447E+04  0.10985106000E+04 0.  0.
        5    1    3    3  502    0 -0.48267090221E+03 -0.63206267726E+02 -0.96642244338E+03  0.10821093573E+04  0.46999998093E+01 0.  1.
       -5    1    3    3    0  502  0.48267090221E+03  0.63206267726E+02 -0.21826588463E+03  0.53350568742E+03  0.46999998093E+01 0. -1.
</event>
<event>
 5   0  0.3962999E-03  0.1102634E+04  0.7818609E-02  0.9202629E-01
        2   -1    0    0  501    0  0.00000000000E+00  0.00000000000E+00  0.31019505480E+03  0.31019505481E+03  0.25500000920E-02 0.  1.
       -2   -1    0    0    0  501  0.00000000000E+00  0.00000000000E+00 -0.97986790450E+03  0.97986790450E+03  0.25500000920E-02 0. -1.
    10030    2    1    2    0    0  0.00000000000E+00  0.00000000000E+00 -0.66967284969E+03  0.12900629593E+04  0.11026335354E+04 0.  0.
        3    1    3    3  502    0 -0.30820197807E+03  0.43331523544E+03 -0.16448581137E+03  0.55660232203E+03  0.10100000352E+00 0.  1.
       -3    1    3    3    0  502  0.30820197807E+03 -0.43331523544E+03 -0.50518703832E+03  0.73346063728E+03  0.10100000352E+00 0. -1.
</event>
<event>
 5   0  0.3992414E-03  0.1113859E+04  0.7818609E-02  0.9191789E-01
        2   -1    0    0  501    0  0.00000000000E+00  0.00000000000E+00  0.98636538677E+03  0.98636538678E+03  0.25500000920E-02 0. -1.
       -2   -1    0    0    0  501  0.00000000000E+00  0.00000000000E+00 -0.31445772900E+03  0.31445772901E+03  0.25500000920E-02 0.  1.
    10030    2    1    2    0    0  0.00000000000E+00  0.00000000000E+00  0.67190765777E+03  0.13008231158E+04  0.11138585538E+04 0.  0.
        1    1    3    3  502    0  0.41656402895E+03 -0.35264175069E+03  0.46541404026E+03  0.71728099336E+03  0.50400001928E-02 0. -1.
       -1    1    3    3    0  502 -0.41656402895E+03  0.35264175069E+03  0.20649361751E+03  0.58354212242E+03  0.50400001928E-02 0.  1.
</event>
<event>
 5   0  0.2374100E-03  0.1098579E+04  0.7818609E-02  0.9206578E-01
        1   -1    0    0  501    0  0.00000000000E+00  0.00000000000E+00  0.68931763969E+03  0.68931763970E+03  0.50400001928E-02 0.  1.
       -1   -1    0    0    0  501  0.00000000000E+00  0.00000000000E+00 -0.43770697731E+03  0.43770697733E+03  0.50400001928E-02 0. -1.
    10030    2    1    2    0    0  0.00000000000E+00  0.00000000000E+00  0.25161066238E+03  0.11270246170E+04  0.10985793380E+04 0.  0.
        2    1    3    3  502    0  0.53366777114E+03 -0.84354946887E+02  0.24236280035E+02  0.54083680006E+03  0.25500000920E-02 0.  1.
       -2    1    3    3    0  502 -0.53366777114E+03  0.84354946887E+02  0.22737438235E+03  0.58618781698E+03  0.25500000920E-02 0. -1.
</event>
<event>
 5   0  0.1508625E-03  0.1105996E+04  0.7818609E-02  0.9199368E-01
       -4   -1    0    0    0  501  0.00000000000E+00  0.00000000000E+00  0.40887767162E+03  0.40887964397E+03  0.12699999809E+01 0.  1.
        4   -1    0    0  501    0  0.00000000000E+00  0.00000000000E+00 -0.74791266514E+03  0.74791374341E+03  0.12699999809E+01 0. -1.
    10030    2    1    2    0    0  0.00000000000E+00  0.00000000000E+00 -0.33903499352E+03  0.11567933874E+04  0.11059955761E+04 0.  0.
        5    1    3    3  502    0  0.36961069737E+03 -0.27983269854E+03  0.14576745913E+03  0.48599243711E+03  0.46999998093E+01 0.  1.
       -5    1    3    3    0  502 -0.36961069737E+03  0.27983269854E+03 -0.48480245265E+03  0.67080095027E+03  0.46999998093E+01 0. -1.
</event>
<event>
 5   0  0.3962999E-03  0.1100933E+04  0.7818609E-02  0.9204283E-01
       -2   -1    0    0    0  501  0.00000000000E+00  0.00000000000E+00  0.24536394984E+03  0.24536394986E+03  0.25500000920E-02 0.  1.
        2   -1    0    0  501    0  0.00000000000E+00  0.00000000000E+00 -0.12349536873E+04  0.12349536873E+04  0.25500000920E-02 0. -1.
    10030    2    1    2    0    0  0.00000000000E+00  0.00000000000E+00 -0.98958973745E+03  0.14803176371E+04  0.11009325403E+04 0.  0.
        3    1    3    3  502    0  0.37286892759E+03  0.38530106122E+03 -0.32725836715E+03  0.62816096187E+03  0.10100000352E+00 0.  1.
       -3    1    3    3    0  502 -0.37286892759E+03 -0.38530106122E+03 -0.66233137030E+03  0.85215667528E+03  0.10100000352E+00 0. -1.
</event>
<event>
 5   0  0.3962999E-03  0.1111420E+04  0.7818609E-02  0.9194132E-01
       -2   -1    0    0    0  501  0.00000000000E+00  0.00000000000E+00  0.31970836636E+03  0.31970836637E+03  0.25500000920E-02 0.  1.
        2   -1    0    0  501    0  0.00000000000E+00  0.00000000000E+00 -0.96592358810E+03  0.96592358810E+03  0.25500000920E-02 0. -1.
    10030    2    1    2    0    0  0.00000000000E+00  0.00000000000E+00 -0.64621522174E+03  0.12856319545E+04  0.11114204468E+04 0.  0.
        3    1    3    3  502    0 -0.18142073026E+03 -0.97921257653E+02 -0.92005144594E+03  0.94286622988E+03  0.10100000352E+00 0. -1.
       -3    1    3    3    0  502  0.18142073026E+03  0.97921257653E+02  0.27383622421E+03  0.34276572460E+03  0.10100000352E+00 0.  1.
</event>
<event>
 5   0  0.2257667E-03  0.1063148E+04  0.7818609E-02  0.9241874E-01
        1   -1    0    0  501    0  0.00000000000E+00  0.00000000000E+00  0.74752004063E+03  0.74752004065E+03  0.50400001928E-02 0.  1.
       -1   -1    0    0    0  501  0.00000000000E+00  0.00000000000E+00 -0.37801089160E+03  0.37801089163E+03  0.50400001928E-02 0. -1.
    10030    2    1    2    0    0  0.00000000000E+00  0.00000000000E+00  0.36950914903E+03  0.11255309323E+04  0.10631476230E+04 0.  0.
        4    1    3    3  502    0  0.22934664021E+03  0.42847151290E+03  0.41275503335E+03  0.63761747874E+03  0.12699999809E+01 0.  1.
       -4    1    3    3    0  502 -0.22934664021E+03 -0.42847151290E+03 -0.43245884316E+02  0.48791345355E+03  0.12699999809E+01 0. -1.
</event>
<event>
 5   0  0.2257667E-03  0.1093648E+04  0.7818609E-02  0.9211405E-01
        1   -1    0    0  501    0  0.00000000000E+00  0.00000000000E+00  0.91841838062E+03  0.91841838063E+03  0.50400001928E-02 0. -1.
       -1   -1    0    0    0  501  0.00000000000E+00  0.00000000000E+00 -0.32557764482E+03  0.32557764486E+03  0.50400001928E-02 0.  1.
    10030    2    1    2    0    0  0.00000000000E+00  0.00000000000E+00  0.59284073580E+03  0.12439960255E+04  0.10936480117E+04 0.  0.
        4    1    3    3  502    0  0.91561102311E+02  0.36529661533E+03 -0.15455585429E+03  0.40708006292E+03  0.12699999809E+01 0.  1.
       -4    1    3    3    0  502 -0.91561102311E+02 -0.36529661533E+03  0.74739659009E+03  0.83691596257E+03  0.12699999809E+01 0. -1.
</event>
<event>
 5   0  0.2298958E-03  0.9794773E+03  0.7818609E-02  0.9331345E-01
       -1   -1    0    0    0  501  0.00000000000E+00  0.00000000000E+00  0.39163844827E+03  0.39163844830E+03  0.50400001928E-02 0. -1.
        1   -1    0    0  501    0  0.00000000000E+00  0.00000000000E+00 -0.61241162570E+03  0.61241162572E+03  0.50400001928E-02 0.  1.
    10030    2    1    2    0    0  0.00000000000E+00  0.00000000000E+00 -0.22077317743E+03  0.10040500740E+04  0.97947728675E+03 0.  0.
        1    1    3    3  502    0  0.30509174827E+03  0.13646620431E+03  0.25656034200E+03  0.42133977844E+03  0.50400001928E-02 0. -1.
       -1    1    3    3    0  502 -0.30509174827E+03 -0.13646620431E+03 -0.47733351943E+03  0.58271029558E+03  0.50400001928E-02 0.  1.
</event>
<event>
 5   0  0.2298958E-03  0.1169651E+04  0.7818609E-02  0.9139843E-01
        1   -1    0    0  501    0  0.00000000000E+00  0.00000000000E+00  0.63288233481E+03  0.63288233483E+03  0.50400001928E-02 0.  1.
       -1   -1    0    0    0  501  0.00000000000E+00  0.00000000000E+00 -0.54041803892E+03  0.54041803894E+03  0.50400001928E-02 0. -1.
    10030    2    1    2    0    0  0.00000000000E+00  0.00000000000E+00  0.92464295891E+02  0.11733003738E+04  0.11696512818E+04 0.  0.
        1    1    3    3  502    0  0.37562033001E+03 -0.21700181706E+03  0.43968101909E+03  0.61765671655E+03  0.50400001928E-02 0.  1.
       -1    1    3    3    0  502 -0.37562033001E+03  0.21700181706E+03 -0.34721672320E+03  0.55564365723E+03  0.50400001928E-02 0. -1.
</event>
<event>
 5   0  0.2374100E-03  0.1099554E+04  0.7818609E-02  0.9205626E-01
        1   -1    0    0  501    0  0.00000000000E+00  0.00000000000E+00  0.86725986747E+03  0.86725986749E+03  0.50400001928E-02 0.  1.
       -1   -1    0    0    0  501  0.00000000000E+00  0.00000000000E+00 -0.34851724933E+03  0.34851724937E+03  0.50400001928E-02 0. -1.
    10030    2    1    2    0    0  0.00000000000E+00  0.00000000000E+00  0.51874261814E+03  0.12157771169E+04  0.10995544980E+04 0.  0.
        2    1    3    3  502    0 -0.12499363340E+03 -0.31064360257E+03 -0.22275963342E+03  0.40217497497E+03  0.25500000920E-02 0. -1.
       -2    1    3    3    0  502  0.12499363340E+03  0.31064360257E+03  0.74150225156E+03  0.81360214188E+03  0.25500000920E-02 0.  1.
</event>
<event>
 5   0  0.2300702E-03  0.1138349E+04  0.7818609E-02  0.9168599E-01
       -1   -1    0    0    0  501  0.00000000000E+00  0.00000000000E+00  0.49871219839E+03  0.49871219841E+03  0.50400001928E-02 0.  1.
        1   -1    0    0  501    0  0.00000000000E+00  0.00000000000E+00 -0.64959284403E+03  0.64959284405E+03  0.50400001928E-02 0. -1.
    10030    2    1    2    0    0  0.00000000000E+00  0.00000000000E+00 -0.15088064564E+03  0.11483050425E+04  0.11383494636E+04 0.  0.
        5    1    3    3  502    0  0.45608446361E+02 -0.44271968589E+03  0.28242551289E+03  0.52713101880E+03  0.46999998093E+01 0.  1.
       -5    1    3    3    0  502 -0.45608446361E+02  0.44271968589E+03 -0.43330615853E+03  0.62117402366E+03  0.46999998093E+01 0. -1.
</event>
<event>
 5   0  0.2374100E-03  0.1111934E+04  0.7818609E-02  0.9193638E-01
        1   -1    0    0  501    0  0.00000000000E+00  0.00000000000E+00  0.70874736070E+03  0.70874736072E+03  0.50400001928E-02 0. -1.
       -1   -1    0    0    0  501  0.00000000000E+00  0.00000000000E+00 -0.43612036724E+03  0.43612036727E+03  0.50400001928E-02 0.  1.
    10030    2    1    2    0    0  0.00000000000E+00  0.00000000000E+00  0.27262699346E+03  0.11448677280E+04  0.11119337377E+04 0.  0.
        2    1    3    3  502    0  0.36180820232E+02 -0.10006556965E+03  0.69816555114E+03  0.70622751772E+03  0.25500000920E-02 0. -1.
       -2    1    3    3    0  502 -0.36180820232E+02  0.10006556965E+03 -0.42553855768E+03  0.43864021027E+03  0.25500000920E-02 0.  1.
</event>
<event>
 5   0  0.3992414E-03  0.1101524E+04  0.7818609E-02  0.9203708E-01
       -2   -1    0    0    0  501  0.00000000000E+00  0.00000000000E+00  0.38107508257E+03  0.38107508258E+03  0.25500000920E-02 0.  1.
        2   -1    0    0  501    0  0.00000000000E+00  0.00000000000E+00 -0.79600818644E+03  0.79600818644E+03  0.25500000920E-02 0. -1.
    10030    2    1    2    0    0  0.00000000000E+00  0.00000000000E+00 -0.41493310387E+03  0.11770832690E+04  0.11015241902E+04 0.  0.
        1    1    3    3  502    0 -0.16725515458E+03 -0.16170148629E+02 -0.76794757091E+03  0.78611655124E+03  0.50400001928E-02 0. -1.
       -1    1    3    3    0  502  0.16725515458E+03  0.16170148629E+02  0.35301446705E+03  0.39096671778E+03  0.50400001928E-02 0.  1.
</event>
<event>
 5   0  0.3992414E-03  0.1097863E+04  0.7818609E-02  0.9207278E-01
       -2   -1    0    0    0  501  0.00000000000E+00  0.00000000000E+00  0.88753870195E+03  0.88753870196E+03  0.25500000920E-02 0.  1.
        2   -1    0    0  501    0  0.00000000000E+00  0.00000000000E+00 -0.33950695025E+03  0.33950695026E+03  0.25500000920E-02 0. -1.
    10030    2    1    2    0    0  0.00000000000E+00  0.00000000000E+00  0.54803175170E+03  0.12270456522E+04  0.10978625742E+04 0.  0.
        1    1    3    3  502    0  0.41251750576E+03 -0.17096720650E+01 -0.13074646982E+03  0.43274502300E+03  0.50400001928E-02 0. -1.
       -1    1    3    3    0  502 -0.41251750576E+03  0.17096720650E+01  0.67877822152E+03  0.79430062922E+03  0.50400001928E-02 0.  1.
</event>
<event>
 5   0  0.3744875E-03  0.1101589E+04  0.7818609E-02  0.9203645E-01
       -2   -1    0    0    0  501  0.00000000000E+00  0.00000000000E+00  0.35810443709E+03  0.35810443710E+03  0.25500000920E-02 0.  1.
        2   -1    0    0  501    0  0.00000000000E+00  0.00000000000E+00 -0.84716766788E+03  0.84716766788E+03  0.25500000920E-02 0. -1.
    10030    2    1    2    0    0  0.00000000000E+00  0.00000000000E+00 -0.48906323079E+03  0.12052721050E+04  0.11015888540E+04 0.  0.
        2    1    3    3  502    0 -0.22127940007E+03 -0.14909410374E+03 -0.77173573489E+03  0.81655965439E+03  0.25500000920E-02 0. -1.
       -2    1    3    3    0  502  0.22127940007E+03  0.14909410374E+03  0.28267250409E+03  0.38871245059E+03  0.25500000920E-02 0.  1.
</event>
<event>
 5   0  0.2257667E-03  0.1096909E+04  0.7818609E-02  0.9208210E-01
        1   -1    0    0  501    0  0.00000000000E+00  0.00000000000E+00  0.91343609267E+03  0.91343609268E+03  0.50400001928E-02 0. -1.
       -1   -1    0    0    0  501  0.00000000000E+00  0.00000000000E+00 -0.32930844979E+03  0.32930844983E+03  0.50400001928E-02 0.  1.
    10030    2    1    2    0    0  0.00000000000E+00  0.00000000000E+00  0.58412764287E+03  0.12427445425E+04  0.10969087905E+04 0.  0.
        4    1    3    3  502    0  0.26883095371E+03  0.43920617697E+03  0.50591413572E+03  0.72188840771E+03  0.12699999809E+01 0. -1.
       -4    1    3    3    0  502 -0.26883095371E+03 -0.43920617697E+03  0.78213507154E+02  0.52085613480E+03  0.12699999809E+01 0.  1.
</event>
<event>
 5   0  0.2257667E-03  0.1099642E+04  0.7818609E-02  0.9205541E-01
        1   -1    0    0  501    0  0.00000000000E+00  0.00000000000E+00  0.54777850313E+03  0.54777850315E+03  0.50400001928E-02 0. -1.
       -1   -1    0    0    0  501  0.00000000000E+00  0.00000000000E+00 -0.55187091792E+03  0.55187091795E+03  0.50400001928E-02 0.  1.
    10030    2    1    2    0    0  0.00000000000E+00  0.00000000000E+00 -0.40924147987E+01  0.10996494211E+04  0.10996418060E+04 0.  0.
        4    1    3    3  502    0 -0.52549539215E+03  0.16137309355E+03  0.86650746493E+01  0.54978484783E+03  0.12699999809E+01 0. -1.
       -4    1    3    3    0  502  0.52549539215E+03 -0.16137309355E+03 -0.12757489448E+02  0.54986457326E+03  0.12699999809E+01 0.  1.
</event>
<event>
 5   0  0.2298958E-03  0.1111999E+04  0.7818609E-02  0.9193575E-01
       -1   -1    0    0    0  501  0.00000000000E+00  0.00000000000E+00  0.21751646226E+03  0.21751646231E+03  0.50400001928E-02 0. -1.
        1   -1    0    0  501    0  0.00000000000E+00  0.00000000000E+00 -0.14212055841E+04  0.14212055841E+04  0.50400001928E-02 0.  1.
    10030    2    1    2    0    0  0.00000000000E+00  0.00000000000E+00 -0.12036891218E+04  0.16387220464E+04  0.11119993001E+04 0.  0.
        1    1    3    3  502    0  0.62779692215E+02 -0.50928379045E+03 -0.28638121835E+03  0.58764400041E+03  0.50400001928E-02 0. -1.
       -1    1    3    3    0  502 -0.62779692215E+02  0.50928379045E+03 -0.91730790349E+03  0.10510780460E+04  0.50400001928E-02 0.  1.
</event>
<event>
 5   0  0.2374100E-03  0.1104675E+04  0.7818609E-02  0.9200647E-01
       -1   -1    0    0    0  501  0.00000000000E+00  0.00000000000E+00  0.30541403027E+03  0.30541403031E+03  0.50400001928E-02 0.  1.
        1   -1    0    0  501    0  0.00000000000E+00  0.00000000000E+00 -0.99889522492E+03  0.99889522493E+03  0.50400001928E-02 0. -1.
    10030    2    1    2    0    0  0.00000000000E+00  0.00000000000E+00 -0.69348119465E+03  0.13043092552E+04  0.11046748236E+04 0.  0.
        2    1    3    3  502    0 -0.49533122583E+03 -0.78352783734E+02 -0.62005684242E+03  0.79747267654E+03  0.25500000920E-02 0. -1.
       -2    1    3    3    0  502  0.49533122583E+03  0.78352783734E+02 -0.73424352234E+02  0.50683657870E+03  0.25500000920E-02 0.  1.
</event>
<event>
 5   0  0.1508625E-03  0.1104567E+04  0.7818609E-02  0.9200752E-01
        4   -1    0    0  501    0  0.00000000000E+00  0.00000000000E+00  0.10555250825E+04  0.10555258465E+04  0.12699999809E+01 0.  1.
       -4   -1    0    0    0  501  0.00000000000E+00  0.00000000000E+00 -0.28896954888E+03  0.28897233965E+03  0.12699999809E+01 0. -1.
    10030    2    1    2    0    0  0.00000000000E+00  0.00000000000E+00  0.76655553360E+03  0.13444981862E+04  0.11045668773E+04 0.  0.
        1    1    3    3  502    0  0.28934434604E+03  0.44887687151E+03  0.21197239568E+03  0.57458062352E+03  0.50400001928E-02 0.  1.
       -1    1    3    3    0  502 -0.28934434604E+03 -0.44887687151E+03  0.55458313792E+03  0.76991756264E+03  0.50400001928E-02 0. -1.
</event>
<event>
 5   0  0.3962999E-03  0.1092376E+04  0.7818609E-02  0.9212655E-01
       -2   -1    0    0    0  501  0.00000000000E+00  0.00000000000E+00  0.22982378748E+03  0.22982378750E+03  0.25500000920E-02 0. -1.
        2   -1    0    0  501    0  0.00000000000E+00  0.00000000000E+00 -0.12980433869E+04  0.12980433869E+04  0.25500000920E-02 0.  1.
    10030    2    1    2    0    0  0.00000000000E+00  0.00000000000E+00 -0.10682195994E+04  0.15278671744E+04  0.10923758465E+04 0.  0.
        3    1    3    3  502    0 -0.40708833603E+03  0.45247735927E+02 -0.28742795008E+02  0.41060251997E+03  0.10100000352E+00 0. -1.
       -3    1    3    3    0  502  0.40708833603E+03 -0.45247735927E+02 -0.10394768044E+04  0.11172646544E+04  0.10100000352E+00 0.  1.
</event>
<event>
 5   0  0.3992414E-03  0.1102362E+04  0.7818609E-02  0.9202892E-01
        2   -1    0    0  501    0  0.00000000000E+00  0.00000000000E+00  0.81277241894E+03  0.81277241894E+03  0.25500000920E-02 0.  1.
       -2   -1    0    0    0  501  0.00000000000E+00  0.00000000000E+00 -0.37378328910E+03  0.37378328911E+03  0.25500000920E-02 0. -1.
    10030    2    1    2    0    0  0.00000000000E+00  0.00000000000E+00  0.43898912984E+03  0.11865557080E+04  0.11023624595E+04 0.  0.
        1    1    3    3  502    0 -0.17645745926E+03 -0.51836184319E+03  0.15172126692E+03  0.56820381754E+03  0.50400001928E-02 0.  1.
       -1    1    3    3    0  502  0.17645745926E+03  0.51836184319E+03  0.28726786292E+03  0.61835189051E+03  0.50400001928E-02 0. -1.
</event>
<event>
 5   0  0.3962999E-03  0.1004251E+04  0.7818609E-02  0.9303895E-01
       -2   -1    0    0    0  501  0.00000000000E+00  0.00000000000E+00  0.26322845178E+03  0.26322845179E+03  0.25500000920E-02 0.  1.
        2   -1    0    0  501    0  0.00000000000E+00  0.00000000000E+00 -0.95783709089E+03  0.95783709089E+03  0.25500000920E-02 0. -1.
    10030    2    1    2    0    0  0.00000000000E+00  0.00000000000E+00 -0.69460863911E+03  0.12210655427E+04  0.10042509139E+04 0.  0.
        3    1    3    3  502    0  0.25717335448E+03 -0.40240916741E+03 -0.53590043658E+03  0.71781652280E+03  0.10100000352E+00 0. -1.
       -3    1    3    3    0  502 -0.25717335448E+03  0.40240916741E+03 -0.15870820253E+03  0.50324901989E+03  0.10100000352E+00 0.  1.
</event>
<event>
 5   0  0.2257667E-03  0.1105357E+04  0.7818609E-02  0.9199987E-01
        1   -1    0    0  501    0  0.00000000000E+00  0.00000000000E+00  0.36584503480E+03  0.36584503483E+03  0.50400001928E-02 0.  1.
       -1   -1    0    0    0  501  0.00000000000E+00  0.00000000000E+00 -0.83492552484E+03  0.83492552486E+03  0.50400001928E-02 0. -1.
    10030    2    1    2    0    0  0.00000000000E+00  0.00000000000E+00 -0.46908049004E+03  0.12007705597E+04  0.11053566985E+04 0.  0.
        4    1    3    3  502    0  0.32866897509E+03 -0.32697846253E+03  0.92284060107E+02  0.47271150906E+03  0.12699999809E+01 0.  1.
       -4    1    3    3    0  502 -0.32866897509E+03  0.32697846253E+03 -0.56136455015E+03  0.72805905063E+03  0.12699999809E+01 0. -1.
</event>
<event>
 5   0  0.3744875E-03  0.1085367E+04  0.7818609E-02  0.9219573E-01
        2   -1    0    0  501    0  0.00000000000E+00  0.00000000000E+00  0.18645789494E+04  0.18645789494E+04  0.25500000920E-02 0.  1.
       -2   -1    0    0    0  501  0.00000000000E+00  0.00000000000E+00 -0.15794742997E+03  0.15794742999E+03  0.25500000920E-02 0. -1.
    10030    2    1    2    0    0  0.00000000000E+00  0.00000000000E+00  0.17066315195E+04  0.20225263794E+04  0.10853671325E+04 0.  0.
        2    1    3    3  502    0  0.46588447450E+03  0.25523439914E+03  0.64654418089E+03  0.83678690234E+03  0.25500000920E-02 0. -1.
       -2    1    3    3    0  502 -0.46588447450E+03 -0.25523439914E+03  0.10600873386E+04  0.11857394771E+04  0.25500000920E-02 0.  1.
</event>
<event>
 5   0  0.3744875E-03  0.1089796E+04  0.7818609E-02  0.9215195E-01
       -2   -1    0    0    0  501  0.00000000000E+00  0.00000000000E+00  0.23847655472E+03  0.23847655473E+03  0.25500000920E-02 0. -1.
        2   -1    0    0  501    0  0.00000000000E+00  0.00000000000E+00 -0.12450445397E+04  0.12450445397E+04  0.25500000920E-02 0.  1.
    10030    2    1    2    0    0  0.00000000000E+00  0.00000000000E+00 -0.10065679850E+04  0.14835210945E+04  0.10897961870E+04 0.  0.
        2    1    3    3  502    0 -0.27871068640E+03  0.17190133786E+03  0.89592237239E+02  0.33949445600E+03  0.25500000920E-02 0. -1.
       -2    1    3    3    0  502  0.27871068640E+03 -0.17190133786E+03 -0.10961602222E+04  0.11440266385E+04  0.25500000920E-02 0.  1.
</event>
<event>
 5   0  0.2257667E-03  0.1113147E+04  0.7818609E-02  0.9192472E-01
       -1   -1    0    0    0  501  0.00000000000E+00  0.00000000000E+00  0.49269913529E+03  0.49269913531E+03  0.50400001928E-02 0.  1.
        1   -1    0    0  501    0  0.00000000000E+00  0.00000000000E+00 -0.62872841490E+03  0.62872841492E+03  0.50400001928E-02 0. -1.
    10030    2    1    2    0    0  0.00000000000E+00  0.00000000000E+00 -0.13602927962E+03  0.11214275502E+04  0.11131467942E+04 0.  0.
        4    1    3    3  502    0 -0.19390794786E+03  0.22622938133E+03 -0.54160991433E+03  0.61816093166E+03  0.12699999809E+01 0. -1.
       -4    1    3    3    0  502  0.19390794786E+03 -0.22622938133E+03  0.40558063472E+03  0.50326661858E+03  0.12699999809E+01 0.  1.
</event>
<event>
 5   0  0.2374100E-03  0.1072061E+04  0.7818609E-02  0.9232860E-01
        1   -1    0    0  501    0  0.00000000000E+00  0.00000000000E+00  0.56155440973E+03  0.56155440975E+03  0.50400001928E-02 0.  1.
       -1   -1    0    0    0  501  0.00000000000E+00  0.00000000000E+00 -0.51166629391E+03  0.51166629394E+03  0.50400001928E-02 0. -1.
    10030    2    1    2    0    0  0.00000000000E+00  0.00000000000E+00  0.49888115818E+02  0.10732207037E+04  0.10720605649E+04 0.  0.
        2    1    3    3  502    0  0.46066956346E+03 -0.27170427893E+03 -0.10994677047E+02  0.53493975812E+03  0.25500000920E-02 0. -1.
       -2    1    3    3    0  502 -0.46066956346E+03  0.27170427893E+03  0.60882792865E+02  0.53828094557E+03  0.25500000920E-02 0.  1.
</event>
<event>
 5   0  0.2300702E-03  0.1077278E+04  0.7818609E-02  0.9227626E-01
       -1   -1    0    0    0  501  0.00000000000E+00  0.00000000000E+00  0.18230344074E+03  0.18230344081E+03  0.50400001928E-02 0. -1.
        1   -1    0    0  501    0  0.00000000000E+00  0.00000000000E+00 -0.15914783549E+04  0.15914783549E+04  0.50400001928E-02 0.  1.
    10030    2    1    2    0    0  0.00000000000E+00  0.00000000000E+00 -0.14091749141E+04  0.17737817957E+04  0.10772780143E+04 0.  0.
        5    1    3    3  502    0  0.25268938500E+03 -0.16066112648E+03 -0.14417632376E+04  0.14725376892E+04  0.46999998093E+01 0.  1.
       -5    1    3    3    0  502 -0.25268938500E+03  0.16066112648E+03  0.32588323490E+02  0.30124410647E+03  0.46999998093E+01 0. -1.
</event>
<event>
 5   0  0.3713158E-03  0.1102674E+04  0.7818609E-02  0.9202589E-01
        2   -1    0    0  501    0  0.00000000000E+00  0.00000000000E+00  0.41488267782E+03  0.41488267783E+03  0.25500000920E-02 0.  1.
       -2   -1    0    0    0  501  0.00000000000E+00  0.00000000000E+00 -0.73267146317E+03  0.73267146317E+03  0.25500000920E-02 0. -1.
    10030    2    1    2    0    0  0.00000000000E+00  0.00000000000E+00 -0.31778878534E+03  0.11475541410E+04  0.11026743828E+04 0.  0.
        4    1    3    3  502    0  0.43842831692E+03 -0.11534657751E+03 -0.48542721476E+03  0.66420284232E+03  0.12699999809E+01 0. -1.
       -4    1    3    3    0  502 -0.43842831692E+03  0.11534657751E+03  0.16763842942E+03  0.48335129868E+03  0.12699999809E+01 0.  1.
</event>
<event>
 5   0  0.2300702E-03  0.1095511E+04  0.7818609E-02  0.9209579E-01
       -1   -1    0    0    0  501  0.00000000000E+00  0.00000000000E+00  0.30055458686E+03  0.30055458690E+03  0.50400001928E-02 0.  1.
        1   -1    0    0  501    0  0.00000000000E+00  0.00000000000E+00 -0.99827429603E+03  0.99827429604E+03  0.50400001928E-02 0. -1.
    10030    2    1    2    0    0  0.00000000000E+00  0.00000000000E+00 -0.69771970917E+03  0.12988288829E+04  0.10955106912E+04 0.  0.
        5    1    3    3  502    0 -0.37335205052E+02  0.51694257204E+03 -0.55891482859E+03  0.76225416755E+03  0.46999998093E+01 0. -1.
       -5    1    3    3    0  502  0.37335205052E+02 -0.51694257204E+03 -0.13880488058E+03  0.53657471539E+03  0.46999998093E+01 0.  1.
</event>
<event>
 5   0  0.3992414E-03  0.1090756E+04  0.7818609E-02  0.9214249E-01
        2   -1    0    0  501    0  0.00000000000E+00  0.00000000000E+00  0.10843578271E+04  0.10843578271E+04  0.25500000920E-02 0. -1.
       -2   -1    0    0    0  501  0.00000000000E+00  0.00000000000E+00 -0.27429808647E+03  0.27429808649E+03  0.25500000920E-02 0.  1.
    10030    2    1    2    0    0  0.00000000000E+00  0.00000000000E+00  0.81005974058E+03  0.13586559135E+04  0.10907562093E+04 0.  0.
        1    1    3    3  502    0 -0.12853535519E+03 -0.20410671034E+03  0.10143051567E+04  0.10425909254E+04  0.50400001928E-02 0. -1.
       -1    1    3    3    0  502  0.12853535519E+03  0.20410671034E+03 -0.20424541610E+03  0.31606498819E+03  0.50400001928E-02 0.  1.
</event>
<event>
 5   0  0.2300702E-03  0.1093207E+04  0.7818609E-02  0.9211838E-01
        1   -1    0    0  501    0  0.00000000000E+00  0.00000000000E+00  0.12255371280E+04  0.12255371280E+04  0.50400001928E-02 0.  1.
       -1   -1    0    0    0  501  0.00000000000E+00  0.00000000000E+00 -0.24379159855E+03  0.24379159860E+03  0.50400001928E-02 0. -1.
    10030    2    1    2    0    0  0.00000000000E+00  0.00000000000E+00  0.98174552948E+03  0.14693287266E+04  0.10932074928E+04 0.  0.
        5    1    3    3  502    0  0.69763898862E+02  0.36381243595E+03  0.10310534293E+04  0.10955910524E+04  0.46999998093E+01 0.  1.
       -5    1    3    3    0  502 -0.69763898862E+02 -0.36381243595E+03 -0.49307899803E+02  0.37373767420E+03  0.46999998093E+01 0. -1.
</event>
<event>
 5   0  0.2298958E-03  0.1127468E+04  0.7818609E-02  0.9178826E-01
        1   -1    0    0  501    0  0.00000000000E+00  0.00000000000E+00  0.57679125547E+03  0.57679125549E+03  0.50400001928E-02 0.  1.
       -1   -1    0    0    0  501  0.00000000000E+00  0.00000000000E+00 -0.55097226778E+03  0.55097226780E+03  0.50400001928E-02 0. -1.
    10030    2    1    2    0    0  0.00000000000E+00  0.00000000000E+00  0.25818987685E+02  0.11277635233E+04  0.11274679350E+04 0.  0.
        1    1    3    3  502    0 -0.36893480881E+03 -0.88894156166E+02  0.42988917460E+03  0.57342808321E+03  0.50400001928E-02 0.  1.
       -1    1    3    3    0  502  0.36893480881E+03  0.88894156166E+02 -0.40407018691E+03  0.55433544008E+03  0.50400001928E-02 0. -1.
</event>
<event>
 5   0  0.2255788E-03  0.1105559E+04  0.7818609E-02  0.9199790E-01
       -1   -1    0    0    0  501  0.00000000000E+00  0.00000000000E+00  0.35338355038E+03  0.35338355042E+03  0.50400001928E-02 0. -1.
        1   -1    0    0  501    0  0.00000000000E+00  0.00000000000E+00 -0.86468480001E+03  0.86468480002E+03  0.50400001928E-02 0.  1.
    10030    2    1    2    0    0  0.00000000000E+00  0.00000000000E+00 -0.51130124963E+03  0.12180683504E+04  0.11055593781E+04 0.  0.
        3    1    3    3  502    0 -0.46470174514E+03  0.14302075386E+03 -0.54540208855E+03  0.73066141021E+03  0.10100000352E+00 0.  1.
       -3    1    3    3    0  502  0.46470174514E+03 -0.14302075386E+03  0.34100838924E+02  0.48740694023E+03  0.10100000352E+00 0. -1.
</event>
<event>
 5   0  0.2300702E-03  0.1128380E+04  0.7818609E-02  0.9177964E-01
        1   -1    0    0  501    0  0.00000000000E+00  0.00000000000E+00  0.61646158240E+03  0.61646158242E+03  0.50400001928E-02 0. -1.
       -1   -1    0    0    0  501  0.00000000000E+00  0.00000000000E+00 -0.51635030227E+03  0.51635030229E+03  0.50400001928E-02 0.  1.
    10030    2    1    2    0    0  0.00000000000E+00  0.00000000000E+00  0.10011128013E+03  0.11328118847E+04  0.11283795894E+04 0.  0.
        5    1    3    3  502    0  0.19459840625E+03  0.34251344548E+03 -0.35539213972E+03  0.53057484206E+03  0.46999998093E+01 0.  1.
       -5    1    3    3    0  502 -0.19459840625E+03 -0.34251344548E+03  0.45550341985E+03  0.60223704265E+03  0.46999998093E+01 0. -1.
</event>
<event>
 5   0  0.3713158E-03  0.1112058E+04  0.7818609E-02  0.9193518E-01
       -2   -1    0    0    0  501  0.00000000000E+00  0.00000000000E+00  0.18164737795E+03  0.18164737797E+03  0.25500000920E-02 0.  1.
        2   -1    0    0  501    0  0.00000000000E+00  0.00000000000E+00 -0.17020256747E+04  0.17020256747E+04  0.25500000920E-02 0. -1.
    10030    2    1    2    0    0  0.00000000000E+00  0.00000000000E+00 -0.15203782967E+04  0.18836730527E+04  0.11120584536E+04 0.  0.
        4    1    3    3  502    0  0.47228743131E+02  0.14119823644E+03 -0.16676301479E+04  0.16742638439E+04  0.12699999809E+01 0. -1.
       -4    1    3    3    0  502 -0.47228743131E+02 -0.14119823644E+03  0.14725185111E+03  0.20940920874E+03  0.12699999809E+01 0.  1.
</event>
<event>
 5   0  0.3962999E-03  0.1096459E+04  0.7818609E-02  0.9208650E-01
       -2   -1    0    0    0  501  0.00000000000E+00  0.00000000000E+00  0.15390374112E+03  0.15390374114E+03  0.25500000920E-02 0.  1.
        2   -1    0    0  501    0  0.00000000000E+00  0.00000000000E+00 -0.19528804663E+04  0.19528804663E+04  0.25500000920E-02 0. -1.
    10030    2    1    2    0    0  0.00000000000E+00  0.00000000000E+00 -0.17989767252E+04  0.21067842074E+04  0.10964590457E+04 0.  0.
        3    1    3    3  502    0  0.45272531594E+03 -0.20652800235E+03 -0.45738272173E+03  0.67587942104E+03  0.10100000352E+00 0.  1.
       -3    1    3    3    0  502 -0.45272531594E+03  0.20652800235E+03 -0.13415940035E+04  0.14309047864E+04  0.10100000352E+00 0. -1.
</event>
<event>
 5   0  0.3744875E-03  0.1097180E+04  0.7818609E-02  0.9207944E-01
        2   -1    0    0  501    0  0.00000000000E+00  0.00000000000E+00  0.13705950855E+04  0.13705950855E+04  0.25500000920E-02 0.  1.
       -2   -1    0    0    0  501  0.00000000000E+00  0.00000000000E+00 -0.21957701514E+03  0.21957701516E+03  0.25500000920E-02 0. -1.
    10030    2    1    2    0    0  0.00000000000E+00  0.00000000000E+00  0.11510180703E+04  0.15901721006E+04  0.10971803459E+04 0.  0.
        2    1    3    3  502    0 -0.28394802188E+03  0.46157796411E+03  0.69908889690E+03  0.88453715685E+03  0.25500000920E-02 0. -1.
       -2    1    3    3    0  502  0.28394802188E+03 -0.46157796411E+03  0.45192917342E+03  0.70563494377E+03  0.25500000920E-02 0.  1.
</event>
<event>
 5   0  0.3992414E-03  0.9947087E+03  0.7818609E-02  0.9314367E-01
        2   -1    0    0  501    0  0.00000000000E+00  0.00000000000E+00  0.11215168901E+04  0.11215168901E+04  0.25500000920E-02 0.  1.
       -2   -1    0    0    0  501  0.00000000000E+00  0.00000000000E+00 -0.22055962143E+03  0.22055962145E+03  0.25500000920E-02 0. -1.
    10030    2    1    2    0    0  0.00000000000E+00  0.00000000000E+00  0.90095726864E+03  0.13420765115E+04  0.99470868241E+03 0.  0.
        1    1    3    3  502    0 -0.31443720419E+03 -0.21128294065E+03  0.15683339806E+02  0.37915327186E+03  0.50400001928E-02 0. -1.
       -1    1    3    3    0  502  0.31443720419E+03  0.21128294065E+03  0.88527392883E+03  0.96292323966E+03  0.50400001928E-02 0.  1.
</event>
<event>
 5   0  0.3748901E-03  0.1089338E+04  0.7818609E-02  0.9215646E-01
        2   -1    0    0  501    0  0.00000000000E+00  0.00000000000E+00  0.19118890348E+04  0.19118890348E+04  0.25500000920E-02 0.  1.
       -2   -1    0    0    0  501  0.00000000000E+00  0.00000000000E+00 -0.15516829033E+03  0.15516829035E+03  0.25500000920E-02 0. -1.
    10030    2    1    2    0    0  0.00000000000E+00  0.00000000000E+00  0.17567207445E+04  0.20670573252E+04  0.10893384283E+04 0.  0.
        5    1    3    3  502    0  0.70865464335E+01 -0.37880467481E+03  0.16208258160E+04  0.16645244416E+04  0.46999998093E+01 0.  1.
       -5    1    3    3    0  502 -0.70865464335E+01  0.37880467481E+03  0.13589492853E+03  0.40253288362E+03  0.46999998093E+01 0. -1.
</event>
<event>
 5   0  0.3962999E-03  0.1063911E+04  0.7818609E-02  0.9241099E-01
       -2   -1    0    0    0  501  0.00000000000E+00  0.00000000000E+00  0.36403573655E+03  0.36403573656E+03  0.25500000920E-02 0. -1.
        2   -1    0    0  501    0  0.00000000000E+00  0.00000000000E+00 -0.77733202443E+03  0.77733202443E+03  0.25500000920E-02 0.  1.
    10030    2    1    2    0    0  0.00000000000E+00  0.00000000000E+00 -0.41329628788E+03  0.11413677610E+04  0.10639109663E+04 0.  0.
        3    1    3    3  502    0  0.45573744799E+03 -0.13347552321E+03 -0.46381756961E+03  0.66380651162E+03  0.10100000352E+00 0. -1.
       -3    1    3    3    0  502 -0.45573744799E+03  0.13347552321E+03  0.50521281729E+02  0.47756124937E+03  0.10100000352E+00 0.  1.
</event>
<event>
 5   0  0.2298958E-03  0.1109217E+04  0.7818609E-02  0.9196255E-01
       -1   -1    0    0    0  501  0.00000000000E+00  0.00000000000E+00  0.23023859560E+03  0.23023859565E+03  0.50400001928E-02 0.  1.
        1   -1    0    0  501    0  0.00000000000E+00  0.00000000000E+00 -0.13359642002E+04  0.13359642002E+04  0.50400001928E-02 0. -1.
    10030    2    1    2    0    0  0.00000000000E+00  0.00000000000E+00 -0.11057256046E+04  0.15662027958E+04  0.11092168792E+04 0.  0.
        1    1    3    3  502    0  0.55202576905E+03 -0.47910007158E+02 -0.51936849119E+03  0.75945470448E+03  0.50400001928E-02 0.  1.
       -1    1    3    3    0  502 -0.55202576905E+03  0.47910007158E+02 -0.58635711338E+03  0.80674809136E+03  0.50400001928E-02 0. -1.
</event>
<event>
 5   0  0.2255788E-03  0.1106039E+04  0.7818609E-02  0.9199326E-01
       -1   -1    0    0    0  501  0.00000000000E+00  0.00000000000E+00  0.22032796303E+03  0.22032796309E+03  0.50400001928E-02 0. -1.
        1   -1    0    0  501    0  0.00000000000E+00  0.00000000000E+00 -0.13880701070E+04  0.13880701070E+04  0.50400001928E-02 0.  1.
    10030    2    1    2    0    0  0.00000000000E+00  0.00000000000E+00 -0.11677421440E+04  0.16083980701E+04  0.11060391662E+04 0.  0.
        3    1    3    3  502    0 -0.27369154581E+03  0.18582464079E+03 -0.12283159952E+04  0.12720841378E+04  0.10100000352E+00 0.  1.
       -3    1    3    3    0  502  0.27369154581E+03 -0.18582464079E+03  0.60573851280E+02  0.33631393226E+03  0.10100000352E+00 0. -1.
</event>
<event>
 5   0  0.2300702E-03  0.1108420E+04  0.7818609E-02  0.9197024E-01
       -1   -1    0    0    0  501  0.00000000000E+00  0.00000000000E+00  0.17131171884E+03  0.17131171891E+03  0.50400001928E-02 0. -1.
        1   -1    0    0  501    0  0.00000000000E+00  0.00000000000E+00 -0.17929229011E+04  0.17929229012E+04  0.50400001928E-02 0.  1.
    10030    2    1    2    0    0  0.00000000000E+00  0.00000000000E+00 -0.16216111823E+04  0.19642346201E+04  0.11084199638E+04 0.  0.
        5    1    3    3  502    0  0.11133471798E+03 -0.10855161017E+03 -0.17534375039E+04  0.17603249818E+04  0.46999998093E+01 0.  1.
       -5    1    3    3    0  502 -0.11133471798E+03  0.10855161017E+03  0.13182632161E+03  0.20390963824E+03  0.46999998093E+01 0. -1.
</event>
<event>
 5   0  0.2255788E-03  0.1142393E+04  0.7818609E-02  0.9164830E-01
       -1   -1    0    0    0  501  0.00000000000E+00  0.00000000000E+00  0.32030979872E+03  0.32030979876E+03  0.50400001928E-02 0. -1.
        1   -1    0    0  501    0  0.00000000000E+00  0.00000000000E+00 -0.10185939012E+04  0.10185939012E+04  0.50400001928E-02 0.  1.
    10030    2    1    2    0    0  0.00000000000E+00  0.00000000000E+00 -0.69828410246E+03  0.13389037000E+04  0.11423932904E+04 0.  0.
        3    1    3    3  502    0 -0.20991215165E+03  0.18982419200E+03 -0.93064324394E+03  0.97272462340E+03  0.10100000352E+00 0.  1.
       -3    1    3    3    0  502  0.20991215165E+03 -0.18982419200E+03  0.23235914148E+03  0.36617907656E+03  0.10100000352E+00 0. -1.
</event>
<event>
 5   0  0.3744875E-03  0.1100255E+04  0.7818609E-02  0.9204943E-01
       -2   -1    0    0    0  501  0.00000000000E+00  0.00000000000E+00  0.86279600605E+03  0.86279600605E+03  0.25500000920E-02 0. -1.
        2   -1    0    0  501    0  0.00000000000E+00  0.00000000000E+00 -0.35076695199E+03  0.35076695200E+03  0.25500000920E-02 0.  1.
    10030    2    1    2    0    0  0.00000000000E+00  0.00000000000E+00  0.51202905406E+03  0.12135629581E+04  0.11002551072E+04 0.  0.
        2    1    3    3  502    0  0.11707006352E+03 -0.29286496466E+03  0.75317135169E+03  0.81654293966E+03  0.25500000920E-02 0. -1.
       -2    1    3    3    0  502 -0.11707006352E+03  0.29286496466E+03 -0.24114229763E+03  0.39702001840E+03  0.25500000920E-02 0.  1.
</event>
<event>
 5   0  0.3962999E-03  0.1099086E+04  0.7818609E-02  0.9206083E-01
       -2   -1    0    0    0  501  0.00000000000E+00  0.00000000000E+00  0.23670837447E+03  0.23670837448E+03  0.25500000920E-02 0.  1.
        2   -1    0    0  501    0  0.00000000000E+00  0.00000000000E+00 -0.12758206860E+04  0.12758206860E+04  0.25500000920E-02 0. -1.
    10030    2    1    2    0    0  0.00000000000E+00  0.00000000000E+00 -0.10391123115E+04  0.15125290605E+04  0.10990858760E+04 0.  0.
        3    1    3    3  502    0  0.45572886298E+02 -0.21928114391E+02 -0.12726113187E+04  0.12736158404E+04  0.10100000352E+00 0. -1.
       -3    1    3    3    0  502 -0.45572886298E+02  0.21928114391E+02  0.23349900720E+03  0.23891322008E+03  0.10100000352E+00 0.  1.
</event>
<event>
 5   0  0.2255788E-03  0.1100325E+04  0.7818609E-02  0.9204875E-01
        1   -1    0    0  501    0  0.00000000000E+00  0.00000000000E+00  0.22011738684E+04  0.22011738684E+04  0.50400001928E-02 0.  1.
       -1   -1    0    0    0  501  0.00000000000E+00  0.00000000000E+00 -0.13750795242E+03  0.13750795251E+03  0.50400001928E-02 0. -1.
    10030    2    1    2    0    0  0.00000000000E+00  0.00000000000E+00  0.20636659160E+04  0.23386818209E+04  0.11003252459E+04 0.  0.
        3    1    3    3  502    0 -0.18955232636E+03 -0.73729529471E+02 -0.54668671554E+02  0.21060579716E+03  0.10100000352E+00 0. -1.
       -3    1    3    3    0  502  0.18955232636E+03  0.73729529471E+02  0.21183345876E+04  0.21280760238E+04  0.10100000352E+00 0.  1.
</event>
<event>
 5   0  0.2374100E-03  0.9817725E+03  0.7818609E-02  0.9328765E-01
       -1   -1    0    0    0  501  0.00000000000E+00  0.00000000000E+00  0.16151159393E+04  0.16151159393E+04  0.50400001928E-02 0. -1.
        1   -1    0    0  501    0  0.00000000000E+00  0.00000000000E+00 -0.14919630388E+03  0.14919630396E+03  0.50400001928E-02 0.  1.
    10030    2    1    2    0    0  0.00000000000E+00  0.00000000000E+00  0.14659196354E+04  0.17643122433E+04  0.98177253693E+03 0.  0.
        2    1    3    3  502    0  0.30636867643E+03 -0.37340159600E+03  0.57548484168E+03  0.75131439544E+03  0.25500000920E-02 0.  1.
       -2    1    3    3    0  502 -0.30636867643E+03  0.37340159600E+03  0.89043479377E+03  0.10129978479E+04  0.25500000920E-02 0. -1.
</event>
<event>
 5   0  0.3744875E-03  0.1120390E+04  0.7818609E-02  0.9185543E-01
        2   -1    0    0  501    0  0.00000000000E+00  0.00000000000E+00  0.13813310704E+04  0.13813310704E+04  0.25500000920E-02 0. -1.
       -2   -1    0    0    0  501  0.00000000000E+00  0.00000000000E+00 -0.22718562457E+03  0.22718562459E+03  0.25500000920E-02 0.  1.
    10030    2    1    2    0    0  0.00000000000E+00  0.00000000000E+00  0.11541454458E+04  0.16085166950E+04  0.11203902213E+04 0.  0.
        2    1    3    3  502    0 -0.30504965793E+03  0.43373381335E+03  0.83644268456E+03  0.99036189305E+03  0.25500000920E-02 0. -1.
       -2    1    3    3    0  502  0.30504965793E+03 -0.43373381335E+03  0.31770276128E+03  0.61815480195E+03  0.25500000920E-02 0.  1.
</event>
<event>
 5   0  0.2374100E-03  0.1064997E+04  0.7818609E-02  0.9239996E-01
        1   -1    0    0  501    0  0.00000000000E+00  0.00000000000E+00  0.13691083222E+04  0.13691083222E+04  0.50400001928E-02 0. -1.
       -1   -1    0    0    0  501  0.00000000000E+00  0.00000000000E+00 -0.20710894726E+03  0.20710894732E+03  0.50400001928E-02 0.  1.
    10030    2    1    2    0    0  0.00000000000E+00  0.00000000000E+00  0.11619993749E+04  0.15762172695E+04  0.10649968701E+04 0.  0.
        2    1    3    3  502    0  0.26316007402E+03  0.39822226832E+03  0.93036099114E+03  0.10456604484E+04  0.25500000920E-02 0.  1.
       -2    1    3    3    0  502 -0.26316007402E+03 -0.39822226832E+03  0.23163838376E+03  0.53055682107E+03  0.25500000920E-02 0. -1.
</event>
<event>
 5   0  0.1508625E-03  0.1080576E+04  0.7818609E-02  0.9224334E-01
       -3   -1    0    0    0  501  0.00000000000E+00  0.00000000000E+00  0.15341329923E+03  0.15341333247E+03  0.10100000352E+00 0. -1.
        3   -1    0    0  501    0  0.00000000000E+00  0.00000000000E+00 -0.19027743002E+04  0.19027743029E+04  0.10100000352E+00 0.  1.
    10030    2    1    2    0    0  0.00000000000E+00  0.00000000000E+00 -0.17493610010E+04  0.20561876354E+04  0.10805756244E+04 0.  0.
        4    1    3    3  502    0 -0.31664122635E+03  0.19986686374E+03 -0.16158228389E+04  0.16586420618E+04  0.12699999809E+01 0.  1.
       -4    1    3    3    0  502  0.31664122635E+03 -0.19986686374E+03 -0.13353816206E+03  0.39754557358E+03  0.12699999809E+01 0. -1.
</event>
<event>
 5   0  0.3992414E-03  0.1094680E+04  0.7818609E-02  0.9210392E-01
       -2   -1    0    0    0  501  0.00000000000E+00  0.00000000000E+00  0.52488829513E+03  0.52488829513E+03  0.25500000920E-02 0. -1.
        2   -1    0    0  501    0  0.00000000000E+00  0.00000000000E+00 -0.57075238613E+03  0.57075238613E+03  0.25500000920E-02 0.  1.
    10030    2    1    2    0    0  0.00000000000E+00  0.00000000000E+00 -0.45864091000E+02  0.10956406813E+04  0.10946803130E+04 0.  0.
        1    1    3    3  502    0 -0.54472381278E+03 -0.10708592126E+02  0.29483170995E+02  0.54562621230E+03  0.50400001928E-02 0. -1.
       -1    1    3    3    0  502  0.54472381278E+03  0.10708592126E+02 -0.75347261994E+02  0.55001446896E+03  0.50400001928E-02 0.  1.
</event>
<event>
 5   0  0.2257667E-03  0.1098660E+04  0.7818609E-02  0.9206499E-01
        1   -1    0    0  501    0  0.00000000000E+00  0.00000000000E+00  0.47518599290E+03  0.47518599293E+03  0.50400001928E-02 0. -1.
       -1   -1    0    0    0  501  0.00000000000E+00  0.00000000000E+00 -0.63504272278E+03  0.63504272280E+03  0.50400001928E-02 0.  1.
    10030    2    1    2    0    0  0.00000000000E+00  0.00000000000E+00 -0.15985672988E+03  0.11102287157E+04  0.10986599233E+04 0.  0.
        4    1    3    3  502    0  0.62441334898E+02 -0.94976345973E+02  0.46317140796E+03  0.47691591780E+03  0.12699999809E+01 0. -1.
       -4    1    3    3    0  502 -0.62441334898E+02  0.94976345973E+02 -0.62302813784E+03  0.63331279794E+03  0.12699999809E+01 0.  1.
</event>
<event>
 5   0  0.2298958E-03  0.1097837E+04  0.7818609E-02  0.9207303E-01
       -1   -1    0    0    0  501  0.00000000000E+00  0.00000000000E+00  0.29467467309E+03  0.29467467313E+03  0.50400001928E-02 0.  1.
        1   -1    0    0  501    0  0.00000000000E+00  0.00000000000E+00 -0.10225228750E+04  0.10225228751E+04  0.50400001928E-02 0. -1.
    10030    2    1    2    0    0  0.00000000000E+00  0.00000000000E+00 -0.72784820195E+03  0.13171975482E+04  0.10978371354E+04 0.  0.
        1    1    3    3  502    0 -0.22825970466E+02 -0.13202032297E+03  0.27475571370E+03  0.30568135835E+03  0.50400001928E-02 0.  1.
       -1    1    3    3    0  502  0.22825970466E+02  0.13202032297E+03 -0.10026039157E+04  0.10115161898E+04  0.50400001928E-02 0. -1.
</event>
<event>
 5   0  0.2374100E-03  0.1098242E+04  0.7818609E-02  0.9206907E-01
       -1   -1    0    0    0  501  0.00000000000E+00  0.00000000000E+00  0.82400704388E+03  0.82400704389E+03  0.50400001928E-02 0. -1.
        1   -1    0    0  501    0  0.00000000000E+00  0.00000000000E+00 -0.36593598104E+03  0.36593598108E+03  0.50400001928E-02 0.  1.
    10030    2    1    2    0    0  0.00000000000E+00  0.00000000000E+00  0.45807106283E+03  0.11899430250E+04  0.10982419151E+04 0.  0.
        2    1    3    3  502    0 -0.39727786966E+02  0.52839063243E+03  0.72925794478E+02  0.53487674188E+03  0.25500000920E-02 0.  1.
       -2    1    3    3    0  502  0.39727786966E+02 -0.52839063243E+03  0.38514526835E+03  0.65506628309E+03  0.25500000920E-02 0. -1.
</event>
<event>
 5   0  0.3713158E-03  0.1099537E+04  0.7818609E-02  0.9205643E-01
        2   -1    0    0  501    0  0.00000000000E+00  0.00000000000E+00  0.21519582126E+03  0.21519582127E+03  0.25500000920E-02 0. -1.
       -2   -1    0    0    0  501  0.00000000000E+00  0.00000000000E+00 -0.14045127052E+04  0.14045127052E+04  0.25500000920E-02 0.  1.
    10030    2    1    2    0    0  0.00000000000E+00  0.00000000000E+00 -0.11893168840E+04  0.16197085265E+04  0.10995367481E+04 0.  0.
        4    1    3    3  502    0 -0.32068189465E+03 -0.22982914423E+03 -0.11586497200E+04  0.12239808412E+04  0.12699999809E+01 0.  1.
       -4    1    3    3    0  502  0.32068189465E+03  0.22982914423E+03 -0.30667164006E+02  0.39572768533E+03  0.12699999809E+01 0. -1.
</event>
<event>
 5   0  0.3748901E-03  0.1117663E+04  0.7818609E-02  0.9188146E-01
        2   -1    0    0  501    0  0.00000000000E+00  0.00000000000E+00  0.11592883484E+04  0.11592883484E+04  0.25500000920E-02 0. -1.
       -2   -1    0    0    0  501  0.00000000000E+00  0.00000000000E+00 -0.26938295140E+03  0.26938295142E+03  0.25500000920E-02 0.  1.
    10030    2    1    2    0    0  0.00000000000E+00  0.00000000000E+00  0.88990539702E+03  0.14286712998E+04  0.11176627700E+04 0.  0.
        5    1    3    3  502    0  0.54736210231E+03 -0.11103424369E+03  0.42150242264E+03  0.69972870215E+03  0.46999998093E+01 0. -1.
       -5    1    3    3    0  502 -0.54736210231E+03  0.11103424369E+03  0.46840297438E+03  0.72894259769E+03  0.46999998093E+01 0.  1.
</event>
<event>
 5   0  0.2255788E-03  0.1100073E+04  0.7818609E-02  0.9205121E-01
       -1   -1    0    0    0  501  0.00000000000E+00  0.00000000000E+00  0.47622728118E+03  0.47622728121E+03  0.50400001928E-02 0. -1.
        1   -1    0    0  501    0  0.00000000000E+00  0.00000000000E+00 -0.63528523518E+03  0.63528523520E+03  0.50400001928E-02 0.  1.
    10030    2    1    2    0    0  0.00000000000E+00  0.00000000000E+00 -0.15905795400E+03  0.11115125164E+04  0.11000730164E+04 0.  0.
        3    1    3    3  502    0 -0.25355200615E+03 -0.46547249580E+03 -0.22798158932E+03  0.57699989553E+03  0.10100000352E+00 0. -1.
       -3    1    3    3    0  502  0.25355200615E+03  0.46547249580E+03  0.68923635320E+02  0.53451262088E+03  0.10100000352E+00 0.  1.
</event>
<event>
 5   0  0.3713158E-03  0.1094059E+04  0.7818609E-02  0.9211002E-01
       -2   -1    0    0    0  501  0.00000000000E+00  0.00000000000E+00  0.18655950139E+03  0.18655950140E+03  0.25500000920E-02 0. -1.
        2   -1    0    0  501    0  0.00000000000E+00  0.00000000000E+00 -0.16039977541E+04  0.16039977541E+04  0.25500000920E-02 0.  1.
    10030    2    1    2    0    0  0.00000000000E+00  0.00000000000E+00 -0.14174382527E+04  0.17905572555E+04  0.10940585382E+04 0.  0.
        4    1    3    3  502    0  0.22931507654E+03 -0.24577788257E+03 -0.14150245996E+04  0.14544031085E+04  0.12699999809E+01 0.  1.
       -4    1    3    3    0  502 -0.22931507654E+03  0.24577788257E+03 -0.24136531425E+01  0.33615414695E+03  0.12699999809E+01 0. -1.
</event>
<event>
 5   0  0.2257667E-03  0.1114522E+04  0.7818609E-02  0.9191152E-01
        1   -1    0    0  501    0  0.00000000000E+00  0.00000000000E+00  0.41706753251E+03  0.41706753254E+03  0.50400001928E-02 0. -1.
       -1   -1    0    0    0  501  0.00000000000E+00  0.00000000000E+00 -0.74457984610E+03  0.74457984612E+03  0.50400001928E-02 0.  1.
    10030    2    1    2    0    0  0.00000000000E+00  0.00000000000E+00 -0.32751231359E+03  0.11616473787E+04  0.11145224613E+04 0.  0.
        4    1    3    3  502    0  0.70891626119E+02 -0.54271808086E+03 -0.54590159443E+02  0.55004566752E+03  0.12699999809E+01 0. -1.
       -4    1    3    3    0  502 -0.70891626119E+02  0.54271808086E+03 -0.27292215414E+03  0.61160171114E+03  0.12699999809E+01 0.  1.
</event>
<event>
 5   0  0.2300702E-03  0.1104224E+04  0.7818609E-02  0.9201085E-01
       -1   -1    0    0    0  501  0.00000000000E+00  0.00000000000E+00  0.23895355352E+03  0.23895355357E+03  0.50400001928E-02 0.  1.
        1   -1    0    0  501    0  0.00000000000E+00  0.00000000000E+00 -0.12756766808E+04  0.12756766808E+04  0.50400001928E-02 0. -1.
    10030    2    1    2    0    0  0.00000000000E+00  0.00000000000E+00 -0.10367231273E+04  0.15146302344E+04  0.11042236659E+04 0.  0.
        5    1    3    3  502    0  0.33623672045E+03  0.39263178900E+03 -0.78430471331E+03  0.93934595716E+03  0.46999998093E+01 0. -1.
       -5    1    3    3    0  502 -0.33623672045E+03 -0.39263178900E+03 -0.25241841397E+03  0.57528427722E+03  0.46999998093E+01 0.  1.
</event>
<event>
 5   0  0.2374100E-03  0.1116894E+04  0.7818609E-02  0.9188881E-01
       -1   -1    0    0    0  501  0.00000000000E+00  0.00000000000E+00  0.17811917482E+03  0.17811917489E+03  0.50400001928E-02 0.  1.
        1   -1    0    0  501    0  0.00000000000E+00  0.00000000000E+00 -0.17508670123E+04  0.17508670123E+04  0.50400001928E-02 0. -1.
    10030    2    1    2    0    0  0.00000000000E+00  0.00000000000E+00 -0.15727478374E+04  0.19289861872E+04  0.11168938849E+04 0.  0.
        2    1    3    3  502    0 -0.41685363566E+02 -0.55091482065E+03 -0.64587064669E+03  0.84993746912E+03  0.25500000920E-02 0.  1.
       -2    1    3    3    0  502  0.41685363566E+02  0.55091482065E+03 -0.92687719076E+03  0.10790487180E+04  0.25500000920E-02 0. -1.
</event>
<event>
 5   0  0.2374100E-03  0.1092512E+04  0.7818609E-02  0.9212521E-01
       -1   -1    0    0    0  501  0.00000000000E+00  0.00000000000E+00  0.44264320987E+03  0.44264320990E+03  0.50400001928E-02 0.  1.
        1   -1    0    0  501    0  0.00000000000E+00  0.00000000000E+00 -0.67412256221E+03  0.67412256223E+03  0.50400001928E-02 0. -1.
    10030    2    1    2    0    0  0.00000000000E+00  0.00000000000E+00 -0.23147935234E+03  0.11167657721E+04  0.10925122879E+04 0.  0.
        2    1    3    3  502    0 -0.15956816235E+03  0.23452523608E+03  0.36145540429E+03  0.45947153785E+03  0.25500000920E-02 0.  1.
       -2    1    3    3    0  502  0.15956816235E+03 -0.23452523608E+03 -0.59293475663E+03  0.65729423428E+03  0.25500000920E-02 0. -1.
</event>
<event>
 5   0  0.2300702E-03  0.1124896E+04  0.7818609E-02  0.9181260E-01
       -1   -1    0    0    0  501  0.00000000000E+00  0.00000000000E+00  0.65519244824E+03  0.65519244826E+03  0.50400001928E-02 0.  1.
        1   -1    0    0  501    0  0.00000000000E+00  0.00000000000E+00 -0.48283204209E+03  0.48283204212E+03  0.50400001928E-02 0. -1.
    10030    2    1    2    0    0  0.00000000000E+00  0.00000000000E+00  0.17236040615E+03  0.11380244904E+04  0.11248962757E+04 0.  0.
        5    1    3    3  502    0 -0.27822833093E+03  0.22189914947E+03 -0.35442015010E+03  0.50228076756E+03  0.46999998093E+01 0. -1.
       -5    1    3    3    0  502  0.27822833093E+03 -0.22189914947E+03  0.52678055624E+03  0.63574372282E+03  0.46999998093E+01 0.  1.
</event>
<event>
 5   0  0.2300702E-03  0.1100944E+04  0.7818609E-02  0.9204273E-01
       -1   -1    0    0    0  501  0.00000000000E+00  0.00000000000E+00  0.58389910353E+03  0.58389910355E+03  0.50400001928E-02 0. -1.
        1   -1    0    0  501    0  0.00000000000E+00  0.00000000000E+00 -0.51895808269E+03  0.51895808272E+03  0.50400001928E-02 0.  1.
    10030    2    1    2    0    0  0.00000000000E+00  0.00000000000E+00  0.64941020838E+02  0.11028571863E+04  0.11009435213E+04 0.  0.
        5    1    3    3  502    0 -0.29578935705E+03  0.40436722469E+03  0.26088631265E+03  0.56487870758E+03  0.46999998093E+01 0. -1.
       -5    1    3    3    0  502  0.29578935705E+03 -0.40436722469E+03 -0.19594529181E+03  0.53797847869E+03  0.46999998093E+01 0.  1.
</event>
<event>
 5   0  0.2374100E-03  0.1118786E+04  0.7818609E-02  0.9187073E-01
        1   -1    0    0  501    0  0.00000000000E+00  0.00000000000E+00  0.63564320915E+03  0.63564320917E+03  0.50400001928E-02 0. -1.
       -1   -1    0    0    0  501  0.00000000000E+00  0.00000000000E+00 -0.49228967658E+03  0.49228967660E+03  0.50400001928E-02 0.  1.
    10030    2    1    2    0    0  0.00000000000E+00  0.00000000000E+00  0.14335353258E+03  0.11279328858E+04  0.11187861098E+04 0.  0.
        2    1    3    3  502    0 -0.29027166663E+03 -0.50038283802E+02 -0.40777314836E+03  0.50303122252E+03  0.25500000920E-02 0.  1.
       -2    1    3    3    0  502  0.29027166663E+03  0.50038283802E+02  0.55112668094E+03  0.62490166326E+03  0.25500000920E-02 0. -1.
</event>
<event>
 5   0  0.1508625E-03  0.1095909E+04  0.7818609E-02  0.9209189E-01
        4   -1    0    0  501    0  0.00000000000E+00  0.00000000000E+00  0.66747994044E+03  0.66748114864E+03  0.12699999809E+01 0. -1.
       -4   -1    0    0    0  501  0.00000000000E+00  0.00000000000E+00 -0.44982977972E+03  0.44983157251E+03  0.12699999809E+01 0.  1.
    10030    2    1    2    0    0  0.00000000000E+00  0.00000000000E+00  0.21765016072E+03  0.11173127211E+04  0.10959088121E+04 0.  0.
        5    1    3    3  502    0  0.11432933495E+03  0.26506864940E+03 -0.36599541311E+03  0.46616233024E+03  0.46999998093E+01 0.  1.
       -5    1    3    3    0  502 -0.11432933495E+03 -0.26506864940E+03  0.58364557383E+03  0.65115039090E+03  0.46999998093E+01 0. -1.
</event>
<event>
 5   0  0.3748901E-03  0.1100595E+04  0.7818609E-02  0.9204612E-01
       -2   -1    0    0    0  501  0.00000000000E+00  0.00000000000E+00  0.42229039101E+03  0.42229039102E+03  0.25500000920E-02 0.  1.
        2   -1    0    0  501    0  0.00000000000E+00  0.00000000000E+00 -0.71710667120E+03  0.71710667120E+03  0.25500000920E-02 0. -1.
    10030    2    1    2    0    0  0.00000000000E+00  0.00000000000E+00 -0.29481628019E+03  0.11393970622E+04  0.11005948511E+04 0.  0.
        5    1    3    3  502    0 -0.38342486776E+03 -0.75816876347E+02 -0.54841751975E+03  0.67345875443E+03  0.46999998093E+01 0. -1.
       -5    1    3    3    0  502  0.38342486776E+03  0.75816876347E+02  0.25360123956E+03  0.46593830779E+03  0.46999998093E+01 0.  1.
</event>
<event>
 5   0  0.3992414E-03  0.1095604E+04  0.7818609E-02  0.9209487E-01
        2   -1    0    0  501    0  0.00000000000E+00  0.00000000000E+00  0.37555137317E+03  0.37555137318E+03  0.25500000920E-02 0. -1.
       -2   -1    0    0    0  501  0.00000000000E+00  0.00000000000E+00 -0.79905684459E+03  0.79905684459E+03  0.25500000920E-02 0.  1.
    10030    2    1    2    0    0  0.00000000000E+00  0.00000000000E+00 -0.42350547141E+03  0.11746082178E+04  0.10956037518E+04 0.  0.
        1    1    3    3  502    0 -0.10772262153E+03 -0.53490342580E+03 -0.15965812850E+03  0.56852137704E+03  0.50400001928E-02 0.  1.
       -1    1    3    3    0  502  0.10772262153E+03  0.53490342580E+03 -0.26384734291E+03  0.60608684073E+03  0.50400001928E-02 0. -1.
</event>
<event>
 5   0  0.2300702E-03  0.1110444E+04  0.7818609E-02  0.9195072E-01
        1   -1    0    0  501    0  0.00000000000E+00  0.00000000000E+00  0.11879967388E+04  0.11879967388E+04  0.50400001928E-02 0. -1.
       -1   -1    0    0    0  501  0.00000000000E+00  0.00000000000E+00 -0.25948857476E+03  0.25948857481E+03  0.50400001928E-02 0.  1.
    10030    2    1    2    0    0  0.00000000000E+00  0.00000000000E+00  0.92850816403E+03  0.14474853136E+04  0.11104442005E+04 0.  0.
        5    1    3    3  502    0  0.19224631482E+03 -0.10083900718E+03  0.11303540917E+04  0.11510211177E+04  0.46999998093E+01 0. -1.
       -5    1    3    3    0  502 -0.19224631482E+03  0.10083900718E+03 -0.20184592764E+03  0.29646419587E+03  0.46999998093E+01 0.  1.
</event>
<event>
 5   0  0.2374100E-03  0.1093546E+04  0.7818609E-02  0.9211506E-01
       -1   -1    0    0    0  501  0.00000000000E+00  0.00000000000E+00  0.73009656468E+03  0.73009656469E+03  0.50400001928E-02 0.  1.
        1   -1    0    0  501    0  0.00000000000E+00  0.00000000000E+00 -0.40948086784E+03  0.40948086787E+03  0.50400001928E-02 0. -1.
    10030    2    1    2    0    0  0.00000000000E+00  0.00000000000E+00  0.32061569683E+03  0.11395774326E+04  0.10935457465E+04 0.  0.
        2    1    3    3  502    0 -0.33057699065E+03 -0.39606363791E+03 -0.28460860450E+02  0.51667937118E+03  0.25500000920E-02 0. -1.
       -2    1    3    3    0  502  0.33057699065E+03  0.39606363791E+03  0.34907655728E+03  0.62289806138E+03  0.25500000920E-02 0.  1.
</event>
<event>
 5   0  0.2298958E-03  0.1092884E+04  0.7818609E-02  0.9212155E-01
        1   -1    0    0  501    0  0.00000000000E+00  0.00000000000E+00  0.66332148190E+03  0.66332148192E+03  0.50400001928E-02 0.  1.
       -1   -1    0    0    0  501  0.00000000000E+00  0.00000000000E+00 -0.45015718470E+03  0.45015718473E+03  0.50400001928E-02 0. -1.
    10030    2    1    2    0    0  0.00000000000E+00  0.00000000000E+00  0.21316429720E+03  0.11134786667E+04  0.10928841309E+04 0.  0.
        1    1    3    3  502    0 -0.53114442178E+03  0.92710973441E+02  0.19707713607E+03  0.57406368895E+03  0.50400001928E-02 0. -1.
       -1    1    3    3    0  502  0.53114442178E+03 -0.92710973441E+02  0.16087161131E+02  0.53941497770E+03  0.50400001928E-02 0.  1.
</event>
<event>
 5   0  0.3748901E-03  0.1108101E+04  0.7818609E-02  0.9197332E-01
       -2   -1    0    0    0  501  0.00000000000E+00  0.00000000000E+00  0.73005990532E+03  0.73005990533E+03  0.25500000920E-02 0. -1.
        2   -1    0    0  501    0  0.00000000000E+00  0.00000000000E+00 -0.42047466229E+03  0.42047466230E+03  0.25500000920E-02 0.  1.
    10030    2    1    2    0    0  0.00000000000E+00  0.00000000000E+00  0.30958524303E+03  0.11505345676E+04  0.11081005228E+04 0.  0.
        5    1    3    3  502    0  0.35505994053E+03  0.22153544943E+03  0.53174366313E+03  0.67669707403E+03  0.46999998093E+01 0. -1.
       -5    1    3    3    0  502 -0.35505994053E+03 -0.22153544943E+03 -0.22215842010E+03  0.47383749360E+03  0.46999998093E+01 0.  1.
</event>
<event>
 5   0  0.3748901E-03  0.1127434E+04  0.7818609E-02  0.9178857E-01
        2   -1    0    0  501    0  0.00000000000E+00  0.00000000000E+00  0.39745411960E+03  0.39745411961E+03  0.25500000920E-02 0. -1.
       -2   -1    0    0    0  501  0.00000000000E+00  0.00000000000E+00 -0.79953157431E+03  0.79953157432E+03  0.25500000920E-02 0.  1.
    10030    2    1    2    0    0  0.00000000000E+00  0.00000000000E+00 -0.40207745471E+03  0.11969856939E+04  0.11274344646E+04 0.  0.
        5    1    3    3  502    0  0.35728004466E+03  0.23817243636E+03  0.18670325629E+03  0.46824708826E+03  0.46999998093E+01 0.  1.
       -5    1    3    3    0  502 -0.35728004466E+03 -0.23817243636E+03 -0.58878071099E+03  0.72873860567E+03  0.46999998093E+01 0. -1.
</event>
<event>
 5   0  0.3713158E-03  0.1094196E+04  0.7818609E-02  0.9210867E-01
        2   -1    0    0  501    0  0.00000000000E+00  0.00000000000E+00  0.10413571346E+04  0.10413571346E+04  0.25500000920E-02 0.  1.
       -2   -1    0    0    0  501  0.00000000000E+00  0.00000000000E+00 -0.28742911962E+03  0.28742911964E+03  0.25500000920E-02 0. -1.
    10030    2    1    2    0    0  0.00000000000E+00  0.00000000000E+00  0.75392801501E+03  0.13287862543E+04  0.10941962611E+04 0.  0.
        4    1    3    3  502    0  0.40685999548E+03  0.29783893733E+03  0.63478109131E+03  0.81067363057E+03  0.12699999809E+01 0. -1.
       -4    1    3    3    0  502 -0.40685999548E+03 -0.29783893733E+03  0.11914692370E+03  0.51811262370E+03  0.12699999809E+01 0.  1.
</event>
<event>
 5   0  0.2300702E-03  0.1156364E+04  0.7818609E-02  0.9151932E-01
        1   -1    0    0  501    0  0.00000000000E+00  0.00000000000E+00  0.10714407190E+04  0.10714407190E+04  0.50400001928E-02 0.  1.
       -1   -1    0    0    0  501  0.00000000000E+00  0.00000000000E+00 -0.31200474001E+03  0.31200474005E+03  0.50400001928E-02 0. -1.
    10030    2    1    2    0    0  0.00000000000E+00  0.00000000000E+00  0.75943597897E+03  0.13834454590E+04  0.11563642731E+04 0.  0.
        5    1    3    3  502    0 -0.26559373148E+03  0.25324819473E+03 -0.15477900554E+03  0.39831307898E+03  0.46999998093E+01 0. -1.
       -5    1    3    3    0  502  0.26559373148E+03 -0.25324819473E+03  0.91421498451E+03  0.98513238006E+03  0.46999998093E+01 0.  1.
</event>
<event>
 5   0  0.3744875E-03  0.1112554E+04  0.7818609E-02  0.9193042E-01
       -2   -1    0    0    0  501  0.00000000000E+00  0.00000000000E+00  0.32712107372E+03  0.32712107373E+03  0.25500000920E-02 0.  1.
        2   -1    0    0  501    0  0.00000000000E+00  0.00000000000E+00 -0.94596120670E+03  0.94596120670E+03  0.25500000920E-02 0. -1.
    10030    2    1    2    0    0  0.00000000000E+00  0.00000000000E+00 -0.61884013298E+03  0.12730822804E+04  0.11125535414E+04 0.  0.
        2    1    3    3  502    0  0.52539958980E+01  0.18304017116E+03  0.29164469870E+03  0.34436599573E+03  0.25500000920E-02 0.  1.
       -2    1    3    3    0  502 -0.52539958980E+01 -0.18304017116E+03 -0.91048483169E+03  0.92871628470E+03  0.25500000920E-02 0. -1.
</event>
<event>
 5   0  0.2374100E-03  0.1089936E+04  0.7818609E-02  0.9215057E-01
        1   -1    0    0  501    0  0.00000000000E+00  0.00000000000E+00  0.71114574033E+03  0.71114574035E+03  0.50400001928E-02 0.  1.
       -1   -1    0    0    0  501  0.00000000000E+00  0.00000000000E+00 -0.41762192644E+03  0.41762192647E+03  0.50400001928E-02 0. -1.
    10030    2    1    2    0    0  0.00000000000E+00  0.00000000000E+00  0.29352381389E+03  0.11287676668E+04  0.10899358772E+04 0.  0.
        2    1    3    3  502    0 -0.32862039778E+03 -0.15468834170E+03  0.56752530896E+03  0.67379880173E+03  0.25500000920E-02 0.  1.
       -2    1    3    3    0  502  0.32862039778E+03  0.15468834170E+03 -0.27400149507E+03  0.45496886509E+03  0.25500000920E-02 0. -1.
</event>
<event>
 5   0  0.3744875E-03  0.1093762E+04  0.7818609E-02  0.9211293E-01
        2   -1    0    0  501    0  0.00000000000E+00  0.00000000000E+00  0.53375330298E+03  0.53375330299E+03  0.25500000920E-02 0.  1.
       -2   -1    0    0    0  501  0.00000000000E+00  0.00000000000E+00 -0.56033144219E+03  0.56033144219E+03  0.25500000920E-02 0. -1.
    10030    2    1    2    0    0  0.00000000000E+00  0.00000000000E+00 -0.26578139203E+02  0.10940847452E+04  0.10937618718E+04 0.  0.
        2    1    3    3  502    0 -0.24671273063E+03  0.42340579106E+03 -0.25613454499E+03  0.55294171529E+03  0.25500000920E-02 0. -1.
       -2    1    3    3    0  502  0.24671273063E+03 -0.42340579106E+03  0.22955640579E+03  0.54114302989E+03  0.25500000920E-02 0.  1.
</event>
<event>
 5   0  0.2300702E-03  0.1106469E+04  0.7818609E-02  0.9198909E-01
        1   -1    0    0  501    0  0.00000000000E+00  0.00000000000E+00  0.60688884272E+03  0.60688884274E+03  0.50400001928E-02 0.  1.
       -1   -1    0    0    0  501  0.00000000000E+00  0.00000000000E+00 -0.50432380949E+03  0.50432380952E+03  0.50400001928E-02 0. -1.
    10030    2    1    2    0    0  0.00000000000E+00  0.00000000000E+00  0.10256503323E+03  0.11112126523E+04  0.11064691467E+04 0.  0.
        5    1    3    3  502    0  0.15411940307E+02  0.25587936137E+03  0.54362356231E+03  0.60104945136E+03  0.46999998093E+01 0.  1.
       -5    1    3    3    0  502 -0.15411940307E+02 -0.25587936137E+03 -0.44105852908E+03  0.51016320090E+03  0.46999998093E+01 0. -1.
</event>
<event>
 5   0  0.3713158E-03  0.1099684E+04  0.7818609E-02  0.9205500E-01
       -2   -1    0    0    0  501  0.00000000000E+00  0.00000000000E+00  0.26103128838E+03  0.26103128840E+03  0.25500000920E-02 0. -1.
        2   -1    0    0  501    0  0.00000000000E+00  0.00000000000E+00 -0.11582000644E+04  0.11582000644E+04  0.25500000920E-02 0.  1.
    10030    2    1    2    0    0  0.00000000000E+00  0.00000000000E+00 -0.89716877605E+03  0.14192313528E+04  0.10996844184E+04 0.  0.
        4    1    3    3  502    0 -0.58618045361E+02  0.81040523239E+02  0.24919041372E+03  0.26851651130E+03  0.12699999809E+01 0. -1.
       -4    1    3    3    0  502  0.58618045361E+02 -0.81040523239E+02 -0.11463591898E+04  0.11507148415E+04  0.12699999809E+01 0.  1.
</event>
<event>
 5   0  0.2298958E-03  0.1092486E+04  0.7818609E-02  0.9212547E-01
       -1   -1    0    0    0  501  0.00000000000E+00  0.00000000000E+00  0.28839457457E+03  0.28839457461E+03  0.50400001928E-02 0.  1.
        1   -1    0    0  501    0  0.00000000000E+00  0.00000000000E+00 -0.10346292044E+04  0.10346292045E+04  0.50400001928E-02 0. -1.
    10030    2    1    2    0    0  0.00000000000E+00  0.00000000000E+00 -0.74623462988E+03  0.13230237791E+04  0.10924860627E+04 0.  0.
        1    1    3    3  502    0  0.25933430841E+03  0.29979610315E+03  0.82022833016E+02  0.40479591419E+03  0.50400001928E-02 0.  1.
       -1    1    3    3    0  502 -0.25933430841E+03 -0.29979610315E+03 -0.82825746289E+03  0.91822786488E+03  0.50400001928E-02 0. -1.
</event>
<event>
 5   0  0.2300702E-03  0.1101263E+04  0.7818609E-02  0.9203962E-01
        1   -1    0    0  501    0  0.00000000000E+00  0.00000000000E+00  0.29664877687E+03  0.29664877691E+03  0.50400001928E-02 0. -1.
       -1   -1    0    0    0  501  0.00000000000E+00  0.00000000000E+00 -0.10220677788E+04  0.10220677788E+04  0.50400001928E-02 0.  1.
    10030    2    1    2    0    0  0.00000000000E+00  0.00000000000E+00 -0.72541900195E+03  0.13187165557E+04  0.11012631956E+04 0.  0.
        5    1    3    3  502    0  0.21839708506E+03 -0.43792065339E+03 -0.60481696353E+02  0.49310436118E+03  0.46999998093E+01 0.  1.
       -5    1    3    3    0  502 -0.21839708506E+03  0.43792065339E+03 -0.66493730560E+03  0.82561219456E+03  0.46999998093E+01 0. -1.
</event>
<event>
 5   0  0.2257667E-03  0.1089548E+04  0.7818609E-02  0.9215439E-01
        1   -1    0    0  501    0  0.00000000000E+00  0.00000000000E+00  0.67645078993E+03  0.67645078994E+03  0.50400001928E-02 0. -1.
       -1   -1    0    0    0  501  0.00000000000E+00  0.00000000000E+00 -0.43872926187E+03  0.43872926190E+03  0.50400001928E-02 0.  1.
    10030    2    1    2    0    0  0.00000000000E+00  0.00000000000E+00  0.23772152805E+03  0.11151800518E+04  0.10895480821E+04 0.  0.
        4    1    3    3  502    0 -0.36841947008E+03 -0.39554846489E+03  0.18817125743E+03  0.57236485656E+03  0.12699999809E+01 0.  1.
       -4    1    3    3    0  502  0.36841947008E+03  0.39554846489E+03  0.49550270628E+02  0.54281519528E+03  0.12699999809E+01 0. -1.
</event>
<event>
 5   0  0.3744875E-03  0.1112998E+04  0.7818609E-02  0.9192615E-01
       -2   -1    0    0    0  501  0.00000000000E+00  0.00000000000E+00  0.55529113983E+03  0.55529113984E+03  0.25500000920E-02 0. -1.
        2   -1    0    0  501    0  0.00000000000E+00  0.00000000000E+00 -0.55770975487E+03  0.55770975487E+03  0.25500000920E-02 0.  1.
    10030    2    1    2    0    0  0.00000000000E+00  0.00000000000E+00 -0.24186150349E+01  0.11130008947E+04  0.11129982668E+04 0.  0.
        2    1    3    3  502    0 -0.19614033752E+03  0.39090245022E+02  0.51811090176E+03  0.55537193464E+03  0.25500000920E-02 0. -1.
       -2    1    3    3    0  502  0.19614033752E+03 -0.39090245022E+02 -0.52052951679E+03  0.55762896008E+03  0.25500000920E-02 0.  1.
</event>
<event>
 5   0  0.3992414E-03  0.1107811E+04  0.7818609E-02  0.9197612E-01
        2   -1    0    0  501    0  0.00000000000E+00  0.00000000000E+00  0.31627101867E+03  0.31627101868E+03  0.25500000920E-02 0.  1.
       -2   -1    0    0    0  501  0.00000000000E+00  0.00000000000E+00 -0.97008976972E+03  0.97008976972E+03  0.25500000920E-02 0. -1.
    10030    2    1    2    0    0  0.00000000000E+00  0.00000000000E+00 -0.65381875105E+03  0.12863607884E+04  0.11078109580E+04 0.  0.
        1    1    3    3  502    0  0.31138755946E+03 -0.83847433036E+02 -0.84984846642E+03  0.90897470818E+03  0.50400001928E-02 0. -1.
       -1    1    3    3    0  502 -0.31138755946E+03  0.83847433036E+02  0.19602971537E+03  0.37738608022E+03  0.50400001928E-02 0.  1.
</event>
<event>
 5   0  0.2300702E-03  0.1099797E+04  0.7818609E-02  0.9205390E-01
       -1   -1    0    0    0  501  0.00000000000E+00  0.00000000000E+00  0.76519107466E+03  0.76519107468E+03  0.50400001928E-02 0.  1.
        1   -1    0    0  501    0  0.00000000000E+00  0.00000000000E+00 -0.39518007754E+03  0.39518007757E+03  0.50400001928E-02 0. -1.
    10030    2    1    2    0    0  0.00000000000E+00  0.00000000000E+00  0.37001099712E+03  0.11603711523E+04  0.10997968326E+04 0.  0.
        5    1    3    3  502    0 -0.54027534753E+03  0.10511195423E+02  0.29238650810E+03  0.61442647770E+03  0.46999998093E+01 0.  1.
       -5    1    3    3    0  502  0.54027534753E+03 -0.10511195423E+02  0.77624489028E+02  0.54594467455E+03  0.46999998093E+01 0. -1.
</event>
<event>
 5   0  0.3748901E-03  0.1086435E+04  0.7818609E-02  0.9218515E-01
       -2   -1    0    0    0  501  0.00000000000E+00  0.00000000000E+00  0.15756631509E+03  0.15756631511E+03  0.25500000920E-02 0. -1.
        2   -1    0    0  501    0  0.00000000000E+00  0.00000000000E+00 -0.18727698395E+04  0.18727698395E+04  0.25500000920E-02 0.  1.
    10030    2    1    2    0    0  0.00000000000E+00  0.00000000000E+00 -0.17152035244E+04  0.20303361546E+04  0.10864353504E+04 0.  0.
        5    1    3    3  502    0  0.33213758127E+03  0.42314661917E+03 -0.71657296109E+03  0.89602864506E+03  0.46999998093E+01 0.  1.
       -5    1    3    3    0  502 -0.33213758127E+03 -0.42314661917E+03 -0.99863056329E+03  0.11343075095E+04  0.46999998093E+01 0. -1.
</event>
<event>
 5   0  0.3748901E-03  0.1096699E+04  0.7818609E-02  0.9208416E-01
        2   -1    0    0  501    0  0.00000000000E+00  0.00000000000E+00  0.11584810386E+04  0.11584810386E+04  0.25500000920E-02 0. -1.
       -2   -1    0    0    0  501  0.00000000000E+00  0.00000000000E+00 -0.25955277509E+03  0.25955277510E+03  0.25500000920E-02 0.  1.
    10030    2    1    2    0    0  0.00000000000E+00  0.00000000000E+00  0.89892826348E+03  0.14180338137E+04  0.10966986249E+04 0.  0.
        5    1    3    3  502    0  0.24923885172E+03  0.48841031471E+03  0.45009458525E+03  0.70941656760E+03  0.46999998093E+01 0. -1.
       -5    1    3    3    0  502 -0.24923885172E+03 -0.48841031471E+03  0.44883367823E+03  0.70861724607E+03  0.46999998093E+01 0.  1.
</event>
<event>
 5   0  0.3748901E-03  0.1101516E+04  0.7818609E-02  0.9203716E-01
        2   -1    0    0  501    0  0.00000000000E+00  0.00000000000E+00  0.72057815280E+03  0.72057815281E+03  0.25500000920E-02 0. -1.
       -2   -1    0    0    0  501  0.00000000000E+00  0.00000000000E+00 -0.42095967471E+03  0.42095967472E+03  0.25500000920E-02 0.  1.
    10030    2    1    2    0    0  0.00000000000E+00  0.00000000000E+00  0.29961847809E+03  0.11415378275E+04  0.11015159460E+04 0.  0.
        5    1    3    3  502    0 -0.45987603514E+03  0.20819378333E+03  0.37799479528E+03  0.63066058571E+03  0.46999998093E+01 0.  1.
       -5    1    3    3    0  502  0.45987603514E+03 -0.20819378333E+03 -0.78376317193E+02  0.51087724182E+03  0.46999998093E+01 0. -1.
</event>
<event>
 5   0  0.2257667E-03  0.1108574E+04  0.7818609E-02  0.9196875E-01
        1   -1    0    0  501    0  0.00000000000E+00  0.00000000000E+00  0.17622185912E+04  0.17622185912E+04  0.50400001928E-02 0.  1.
       -1   -1    0    0    0  501  0.00000000000E+00  0.00000000000E+00 -0.17434503559E+03  0.17434503566E+03  0.50400001928E-02 0. -1.
    10030    2    1    2    0    0  0.00000000000E+00  0.00000000000E+00  0.15878735556E+04  0.19365636268E+04  0.11085739724E+04 0.  0.
        4    1    3    3  502    0 -0.48071364430E+02  0.10242547832E+03  0.17418281627E+04  0.17454995835E+04  0.12699999809E+01 0.  1.
       -4    1    3    3    0  502  0.48071364430E+02 -0.10242547832E+03 -0.15395460715E+03  0.19106404332E+03  0.12699999809E+01 0. -1.
</event>
<event>
 5   0  0.3713158E-03  0.1098374E+04  0.7818609E-02  0.9206779E-01
       -2   -1    0    0    0  501  0.00000000000E+00  0.00000000000E+00  0.82170726175E+03  0.82170726175E+03  0.25500000920E-02 0. -1.
        2   -1    0    0  501    0  0.00000000000E+00  0.00000000000E+00 -0.36704812313E+03  0.36704812314E+03  0.25500000920E-02 0.  1.
    10030    2    1    2    0    0  0.00000000000E+00  0.00000000000E+00  0.45465913862E+03  0.11887553849E+04  0.10983735397E+04 0.  0.
        4    1    3    3  502    0 -0.42597316246E+03 -0.97971329550E+02  0.58718466726E+03  0.73201022050E+03  0.12699999809E+01 0. -1.
       -4    1    3    3    0  502  0.42597316246E+03  0.97971329550E+02 -0.13252552864E+03  0.45674516439E+03  0.12699999809E+01 0.  1.
</event>
<event>
 5   0  0.2298958E-03  0.1124551E+04  0.7818609E-02  0.9181588E-01
        1   -1    0    0  501    0  0.00000000000E+00  0.00000000000E+00  0.94740165012E+03  0.94740165013E+03  0.50400001928E-02 0. -1.
       -1   -1    0    0    0  501  0.00000000000E+00  0.00000000000E+00 -0.33370627413E+03  0.33370627417E+03  0.50400001928E-02 0.  1.
    10030    2    1    2    0    0  0.00000000000E+00  0.00000000000E+00  0.61369537598E+03  0.12811079243E+04  0.11245512435E+04 0.  0.
        1    1    3    3  502    0  0.90957325028E+02 -0.90828579677E+02  0.93043849011E+03  0.93927570488E+03  0.50400001928E-02 0. -1.
       -1    1    3    3    0  502 -0.90957325028E+02  0.90828579677E+02 -0.31674311413E+03  0.34183221943E+03  0.50400001928E-02 0.  1.
</event>
<event>
 5   0  0.1508625E-03  0.1090235E+04  0.7818609E-02  0.9214762E-01
       -3   -1    0    0    0  501  0.00000000000E+00  0.00000000000E+00  0.14754904667E+04  0.14754904701E+04  0.10100000352E+00 0. -1.
        3   -1    0    0  501    0  0.00000000000E+00  0.00000000000E+00 -0.20139270645E+03  0.20139273178E+03  0.10100000352E+00 0.  1.
    10030    2    1    2    0    0  0.00000000000E+00  0.00000000000E+00  0.12740977602E+04  0.16768832019E+04  0.10902349152E+04 0.  0.
        5    1    3    3  502    0  0.37802424115E+03 -0.16944061229E+03  0.92124039179E+02  0.42440708828E+03  0.46999998093E+01 0.  1.
       -5    1    3    3    0  502 -0.37802424115E+03  0.16944061229E+03  0.11819737210E+04  0.12524761136E+04  0.46999998093E+01 0. -1.
</event>
<event>
 5   0  0.2298958E-03  0.1097938E+04  0.7818609E-02  0.9207204E-01
        1   -1    0    0  501    0  0.00000000000E+00  0.00000000000E+00  0.42835783047E+03  0.42835783050E+03  0.50400001928E-02 0.  1.
       -1   -1    0    0    0  501  0.00000000000E+00  0.00000000000E+00 -0.70353995415E+03  0.70353995416E+03  0.50400001928E-02 0. -1.
    10030    2    1    2    0    0  0.00000000000E+00  0.00000000000E+00 -0.27518212368E+03  0.11318977847E+04  0.10979377914E+04 0.  0.
        1    1    3    3  502    0  0.22825260339E+03 -0.47470032050E+03  0.21877634807E+02  0.52717954832E+03  0.50400001928E-02 0. -1.
       -1    1    3    3    0  502 -0.22825260339E+03  0.47470032050E+03 -0.29705975849E+03  0.60471823635E+03  0.50400001928E-02 0.  1.
</event>
<event>
 5   0  0.2374100E-03  0.1101461E+04  0.7818609E-02  0.9203769E-01
        1   -1    0    0  501    0  0.00000000000E+00  0.00000000000E+00  0.21842398198E+03  0.21842398204E+03  0.50400001928E-02 0. -1.
       -1   -1    0    0    0  501  0.00000000000E+00  0.00000000000E+00 -0.13886019243E+04  0.13886019243E+04  0.50400001928E-02 0.  1.
    10030    2    1    2    0    0  0.00000000000E+00  0.00000000000E+00 -0.11701779423E+04  0.16070259064E+04  0.11014607787E+04 0.  0.
        2    1    3    3  502    0 -0.82417199841E+02  0.22227535906E+03 -0.13103504900E+04  0.13316220698E+04  0.25500000920E-02 0.  1.
       -2    1    3    3    0  502  0.82417199841E+02 -0.22227535906E+03  0.14017254767E+03  0.27540383658E+03  0.25500000920E-02 0. -1.
</event>
<event>
 5   0  0.3713158E-03  0.1099797E+04  0.7818609E-02  0.9205390E-01
       -2   -1    0    0    0  501  0.00000000000E+00  0.00000000000E+00  0.21288394847E+03  0.21288394848E+03  0.25500000920E-02 0. -1.
        2   -1    0    0  501    0  0.00000000000E+00  0.00000000000E+00 -0.14204379655E+04  0.14204379655E+04  0.25500000920E-02 0.  1.
    10030    2    1    2    0    0  0.00000000000E+00  0.00000000000E+00 -0.12075540170E+04  0.16333219140E+04  0.10997971498E+04 0.  0.
        4    1    3    3  502    0 -0.49721894259E+03 -0.21368527830E+03 -0.45903568618E+03  0.70965023013E+03  0.12699999809E+01 0.  1.
       -4    1    3    3    0  502  0.49721894259E+03  0.21368527830E+03 -0.74851833083E+03  0.92367168383E+03  0.12699999809E+01 0. -1.
</event>
<event>
 5   0  0.2257667E-03  0.1057425E+04  0.7818609E-02  0.9247711E-01
        1   -1    0    0  501    0  0.00000000000E+00  0.00000000000E+00  0.15039004735E+04  0.15039004735E+04  0.50400001928E-02 0. -1.
       -1   -1    0    0    0  501  0.00000000000E+00  0.00000000000E+00 -0.18587468051E+03  0.18587468057E+03  0.50400001928E-02 0.  1.
    10030    2    1    2    0    0  0.00000000000E+00  0.00000000000E+00  0.13180257930E+04  0.16897751541E+04  0.10574252127E+04 0.  0.
        4    1    3    3  502    0  0.91677787968E+01 -0.39513928667E+03  0.12201765153E+04  0.12825955892E+04  0.12699999809E+01 0. -1.
       -4    1    3    3    0  502 -0.91677787968E+01  0.39513928667E+03  0.97849277735E+02  0.40717956493E+03  0.12699999809E+01 0.  1.
</event>
<event>
 5   0  0.2298958E-03  0.1094195E+04  0.7818609E-02  0.9210868E-01
        1   -1    0    0  501    0  0.00000000000E+00  0.00000000000E+00  0.32697565722E+03  0.32697565726E+03  0.50400001928E-02 0. -1.
       -1   -1    0    0    0  501  0.00000000000E+00  0.00000000000E+00 -0.91540646267E+03  0.91540646269E+03  0.50400001928E-02 0.  1.
    10030    2    1    2    0    0  0.00000000000E+00  0.00000000000E+00 -0.58843080545E+03  0.12423821199E+04  0.10941949183E+04 0.  0.
        1    1    3    3  502    0  0.28274484354E+03 -0.46787067835E+03 -0.31877882012E+03  0.63282505828E+03  0.50400001928E-02 0. -1.
       -1    1    3    3    0  502 -0.28274484354E+03  0.46787067835E+03 -0.26965198533E+03  0.60955706166E+03  0.50400001928E-02 0.  1.
</event>
<event>
 5   0  0.3992414E-03  0.1094726E+04  0.7818609E-02  0.9210347E-01
        2   -1    0    0  501    0  0.00000000000E+00  0.00000000000E+00  0.77732897383E+03  0.77732897384E+03  0.25500000920E-02 0.  1.
       -2   -1    0    0    0  501  0.00000000000E+00  0.00000000000E+00 -0.38543075284E+03  0.38543075285E+03  0.25500000920E-02 0. -1.
    10030    2    1    2    0    0  0.00000000000E+00  0.00000000000E+00  0.39189822099E+03  0.11627597267E+04  0.10947264345E+04 0.  0.
        1    1    3    3  502    0 -0.42791805899E+03  0.34117569100E+03  0.18577386801E+03  0.57795038489E+03  0.50400001928E-02 0.  1.
       -1    1    3    3    0  502  0.42791805899E+03 -0.34117569100E+03  0.20612435298E+03  0.58480934180E+03  0.50400001928E-02 0. -1.
</event>
<event>
 5   0  0.3748901E-03  0.1104031E+04  0.7818609E-02  0.9201272E-01
       -2   -1    0    0    0  501  0.00000000000E+00  0.00000000000E+00  0.94123215849E+03  0.94123215850E+03  0.25500000920E-02 0. -1.
        2   -1    0    0  501    0  0.00000000000E+00  0.00000000000E+00 -0.32374690200E+03  0.32374690201E+03  0.25500000920E-02 0.  1.
    10030    2    1    2    0    0  0.00000000000E+00  0.00000000000E+00  0.61748525649E+03  0.12649790605E+04  0.11040307883E+04 0.  0.
        5    1    3    3  502    0 -0.36433971173E+03  0.28720072129E+03 -0.33980840612E+02  0.46519293565E+03  0.46999998093E+01 0. -1.
       -5    1    3    3    0  502  0.36433971173E+03 -0.28720072129E+03  0.65146609710E+03  0.79978612486E+03  0.46999998093E+01 0.  1.
</event>
<event>
 5   0  0.2257667E-03  0.1094170E+04  0.7818609E-02  0.9210893E-01
       -1   -1    0    0    0  501  0.00000000000E+00  0.00000000000E+00  0.64820451537E+03  0.64820451539E+03  0.50400001928E-02 0. -1.
        1   -1    0    0  501    0  0.00000000000E+00  0.00000000000E+00 -0.46173995820E+03  0.46173995822E+03  0.50400001928E-02 0.  1.
    10030    2    1    2    0    0  0.00000000000E+00  0.00000000000E+00  0.18646455718E+03  0.11099444736E+04  0.10941698695E+04 0.  0.
        4    1    3    3  502    0  0.39717588422E+03 -0.20093664651E+03 -0.22943539397E+03  0.50076584531E+03  0.12699999809E+01 0.  1.
       -4    1    3    3    0  502 -0.39717588422E+03  0.20093664651E+03  0.41589995115E+03  0.60917862831E+03  0.12699999809E+01 0. -1.
</event>
<event>
 5   0  0.3713158E-03  0.1084278E+04  0.7818609E-02  0.9220653E-01
       -2   -1    0    0    0  501  0.00000000000E+00  0.00000000000E+00  0.37844855785E+03  0.37844855786E+03  0.25500000920E-02 0. -1.
        2   -1    0    0  501    0  0.00000000000E+00  0.00000000000E+00 -0.77663018307E+03  0.77663018307E+03  0.25500000920E-02 0.  1.
    10030    2    1    2    0    0  0.00000000000E+00  0.00000000000E+00 -0.39818162522E+03  0.11550787409E+04  0.10842777740E+04 0.  0.
        4    1    3    3  502    0 -0.17353276073E+03  0.37986684308E+03 -0.56735198984E+03  0.70448728220E+03  0.12699999809E+01 0.  1.
       -4    1    3    3    0  502  0.17353276073E+03 -0.37986684308E+03  0.16917036462E+03  0.45059145873E+03  0.12699999809E+01 0. -1.
</event>
<event>
 5   0  0.3744875E-03  0.1103110E+04  0.7818609E-02  0.9202166E-01
        2   -1    0    0  501    0  0.00000000000E+00  0.00000000000E+00  0.12993368227E+04  0.12993368227E+04  0.25500000920E-02 0. -1.
       -2   -1    0    0    0  501  0.00000000000E+00  0.00000000000E+00 -0.23412954917E+03  0.23412954918E+03  0.25500000920E-02 0.  1.
    10030    2    1    2    0    0  0.00000000000E+00  0.00000000000E+00  0.10652072735E+04  0.15334663719E+04  0.11031104107E+04 0.  0.
        2    1    3    3  502    0 -0.45044616122E+03 -0.71309498470E+02  0.10138026334E+03  0.46718812756E+03  0.25500000920E-02 0.  1.
       -2    1    3    3    0  502  0.45044616122E+03  0.71309498470E+02  0.96382701019E+03  0.10662782443E+04  0.25500000920E-02 0. -1.
</event>
<event>
 5   0  0.2298958E-03  0.1098415E+04  0.7818609E-02  0.9206738E-01
       -1   -1    0    0    0  501  0.00000000000E+00  0.00000000000E+00  0.69285706712E+03  0.69285706714E+03  0.50400001928E-02 0.  1.
        1   -1    0    0  501    0  0.00000000000E+00  0.00000000000E+00 -0.43534094306E+03  0.43534094309E+03  0.50400001928E-02 0. -1.
    10030    2    1    2    0    0  0.00000000000E+00  0.00000000000E+00  0.25751612406E+03  0.11281980102E+04  0.10984153113E+04 0.  0.
        1    1    3    3  502    0 -0.88239879265E+02  0.49873131688E+03 -0.89391539950E+02  0.51430540554E+03  0.50400001928E-02 0.  1.
       -1    1    3    3    0  502  0.88239879265E+02 -0.49873131688E+03  0.34690766401E+03  0.61389260469E+03  0.50400001928E-02 0. -1.
</event>
<event>
 5   0  0.3744875E-03  0.1104715E+04  0.7818609E-02  0.9200608E-01
        2   -1    0    0  501    0  0.00000000000E+00  0.00000000000E+00  0.16110278761E+03  0.16110278763E+03  0.25500000920E-02 0. -1.
       -2   -1    0    0    0  501  0.00000000000E+00  0.00000000000E+00 -0.18938156977E+04  0.18938156977E+04  0.25500000920E-02 0.  1.
    10030    2    1    2    0    0  0.00000000000E+00  0.00000000000E+00 -0.17327129101E+04  0.20549184853E+04  0.11047153265E+04 0.  0.
        2    1    3    3  502    0 -0.42576374603E+03  0.71317523358E+02 -0.15073285786E+04  0.15679286975E+04  0.25500000920E-02 0.  1.
       -2    1    3    3    0  502  0.42576374603E+03 -0.71317523358E+02 -0.22538433150E+03  0.48698978784E+03  0.25500000920E-02 0. -1.
</event>
<event>
 5   0  0.2374100E-03  0.1097024E+04  0.7818609E-02  0.9208097E-01
        1   -1    0    0  501    0  0.00000000000E+00  0.00000000000E+00  0.14231940316E+04  0.14231940316E+04  0.50400001928E-02 0. -1.
       -1   -1    0    0    0  501  0.00000000000E+00  0.00000000000E+00 -0.21140159819E+03  0.21140159825E+03  0.50400001928E-02 0.  1.
    10030    2    1    2    0    0  0.00000000000E+00  0.00000000000E+00  0.12117924335E+04  0.16345956299E+04  0.10970241435E+04 0.  0.
        2    1    3    3  502    0 -0.13935805748E+02  0.44755191369E+03  0.13384076497E+03  0.46734384826E+03  0.25500000920E-02 0.  1.
       -2    1    3    3    0  502  0.13935805748E+02 -0.44755191369E+03  0.10779516685E+04  0.11672517816E+04  0.25500000920E-02 0. -1.
</event>
<event>
 5   0  0.2257667E-03  0.1071601E+04  0.7818609E-02  0.9233322E-01
        1   -1    0    0  501    0  0.00000000000E+00  0.00000000000E+00  0.12312732372E+04  0.12312732372E+04  0.50400001928E-02 0. -1.
       -1   -1    0    0    0  501  0.00000000000E+00  0.00000000000E+00 -0.23315866947E+03  0.23315866953E+03  0.50400001928E-02 0.  1.
    10030    2    1    2    0    0  0.00000000000E+00  0.00000000000E+00  0.99811456774E+03  0.14644319067E+04  0.10716007275E+04 0.  0.
        4    1    3    3  502    0  0.31614900277E+03  0.43251299457E+03  0.48823324616E+03  0.72483860133E+03  0.12699999809E+01 0. -1.
       -4    1    3    3    0  502 -0.31614900277E+03 -0.43251299457E+03  0.50988132158E+03  0.73959330542E+03  0.12699999809E+01 0.  1.
</event>
<event>
 5   0  0.3992414E-03  0.1098320E+04  0.7818609E-02  0.9206831E-01
       -2   -1    0    0    0  501  0.00000000000E+00  0.00000000000E+00  0.16964276915E+03  0.16964276917E+03  0.25500000920E-02 0.  1.
        2   -1    0    0  501    0  0.00000000000E+00  0.00000000000E+00 -0.17777166220E+04  0.17777166220E+04  0.25500000920E-02 0. -1.
    10030    2    1    2    0    0  0.00000000000E+00  0.00000000000E+00 -0.16080738529E+04  0.19473593912E+04  0.10983201183E+04 0.  0.
        1    1    3    3  502    0  0.20107328335E+03 -0.44485782578E+03 -0.35813438122E+03  0.60546608945E+03  0.50400001928E-02 0.  1.
       -1    1    3    3    0  502 -0.20107328335E+03  0.44485782578E+03 -0.12499394717E+04  0.13418933018E+04  0.50400001928E-02 0. -1.
</event>
<event>
 5   0  0.3744875E-03  0.1100919E+04  0.7818609E-02  0.9204297E-01
        2   -1    0    0  501    0  0.00000000000E+00  0.00000000000E+00  0.80751472732E+03  0.80751472732E+03  0.25500000920E-02 0. -1.
       -2   -1    0    0    0  501  0.00000000000E+00  0.00000000000E+00 -0.37523212581E+03  0.37523212582E+03  0.25500000920E-02 0.  1.
    10030    2    1    2    0    0  0.00000000000E+00  0.00000000000E+00  0.43228260150E+03  0.11827468531E+04  0.11009186487E+04 0.  0.
        2    1    3    3  502    0  0.14734894370E+03 -0.47389951140E+03 -0.39704280344E+02  0.49786432690E+03  0.25500000920E-02 0. -1.
       -2    1    3    3    0  502 -0.14734894370E+03  0.47389951140E+03  0.47198688185E+03  0.68488252625E+03  0.25500000920E-02 0.  1.
</event>
<event>
 5   0  0.2298958E-03  0.1093670E+04  0.7818609E-02  0.9211384E-01
        1   -1    0    0  501    0  0.00000000000E+00  0.00000000000E+00  0.92214640049E+03  0.92214640051E+03  0.50400001928E-02 0. -1.
       -1   -1    0    0    0  501  0.00000000000E+00  0.00000000000E+00 -0.32427422439E+03  0.32427422443E+03  0.50400001928E-02 0.  1.
    10030    2    1    2    0    0  0.00000000000E+00  0.00000000000E+00  0.59787217610E+03  0.12464206249E+04  0.10936696189E+04 0.  0.
        1    1    3    3  502    0 -0.45619449513E+03 -0.10907850107E+03 -0.21423790838E+02  0.46954287942E+03  0.50400001928E-02 0.  1.
       -1    1    3    3    0  502  0.45619449513E+03  0.10907850107E+03  0.61929596694E+03  0.77687774551E+03  0.50400001928E-02 0. -1.
</event>
<event>
 5   0  0.2374100E-03  0.1098973E+04  0.7818609E-02  0.9206194E-01
        1   -1    0    0  501    0  0.00000000000E+00  0.00000000000E+00  0.12000041209E+04  0.12000041209E+04  0.50400001928E-02 0.  1.
       -1   -1    0    0    0  501  0.00000000000E+00  0.00000000000E+00 -0.25161175610E+03  0.25161175615E+03  0.50400001928E-02 0. -1.
    10030    2    1    2    0    0  0.00000000000E+00  0.00000000000E+00  0.94839236477E+03  0.14516158770E+04  0.10989725096E+04 0.  0.
        2    1    3    3  502    0 -0.12880716370E+03 -0.12982429100E+03 -0.21023303981E+03  0.27864594558E+03  0.25500000920E-02 0. -1.
       -2    1    3    3    0  502  0.12880716370E+03  0.12982429100E+03  0.11586254046E+04  0.11729699315E+04  0.25500000920E-02 0.  1.
</event>
<event>
 5   0  0.3992414E-03  0.1103528E+04  0.7818609E-02  0.9201760E-01
        2   -1    0    0  501    0  0.00000000000E+00  0.00000000000E+00  0.14066084082E+04  0.14066084082E+04  0.25500000920E-02 0.  1.
       -2   -1    0    0    0  501  0.00000000000E+00  0.00000000000E+00 -0.21643783286E+03  0.21643783287E+03  0.25500000920E-02 0. -1.
    10030    2    1    2    0    0  0.00000000000E+00  0.00000000000E+00  0.11901705754E+04  0.16230462411E+04  0.11035275721E+04 0.  0.
        1    1    3    3  502    0  0.33378488956E+03 -0.91534935279E+02  0.12270968743E+04  0.12749736216E+04  0.50400001928E-02 0.  1.
       -1    1    3    3    0  502 -0.33378488956E+03  0.91534935279E+02 -0.36926298899E+02  0.34807261951E+03  0.50400001928E-02 0. -1.
</event>
<event>
 5   0  0.2374100E-03  0.1116337E+04  0.7818609E-02  0.9189413E-01
       -1   -1    0    0    0  501  0.00000000000E+00  0.00000000000E+00  0.32871902038E+03  0.32871902042E+03  0.50400001928E-02 0.  1.
        1   -1    0    0  501    0  0.00000000000E+00  0.00000000000E+00 -0.94777670099E+03  0.94777670100E+03  0.50400001928E-02 0. -1.
    10030    2    1    2    0    0  0.00000000000E+00  0.00000000000E+00 -0.61905768061E+03  0.12764957214E+04  0.11163372765E+04 0.  0.
        2    1    3    3  502    0 -0.66658043905E+02 -0.37872735890E+03  0.15308058466E+03  0.41389778038E+03  0.25500000920E-02 0.  1.
       -2    1    3    3    0  502  0.66658043905E+02  0.37872735890E+03 -0.77213826527E+03  0.86259794105E+03  0.25500000920E-02 0. -1.
</event>
<event>
 5   0  0.2255788E-03  0.1123311E+04  0.7818609E-02  0.9182765E-01
        1   -1    0    0  501    0  0.00000000000E+00  0.00000000000E+00  0.10504206918E+04  0.10504206918E+04  0.50400001928E-02 0.  1.
       -1   -1    0    0    0  501  0.00000000000E+00  0.00000000000E+00 -0.30031475463E+03  0.30031475467E+03  0.50400001928E-02 0. -1.
    10030    2    1    2    0    0  0.00000000000E+00  0.00000000000E+00  0.75010593717E+03  0.13507354465E+04  0.11233108783E+04 0.  0.
        3    1    3    3  502    0  0.14915707150E+02 -0.46252198761E+03 -0.76763018267E+01  0.46282610466E+03  0.10100000352E+00 0. -1.
       -3    1    3    3    0  502 -0.14915707150E+02  0.46252198761E+03  0.75778223900E+03  0.88790934182E+03  0.10100000352E+00 0.  1.
</event>
<event>
 5   0  0.3713158E-03  0.1171857E+04  0.7818609E-02  0.9137853E-01
        2   -1    0    0  501    0  0.00000000000E+00  0.00000000000E+00  0.46889795290E+03  0.46889795290E+03  0.25500000920E-02 0.  1.
       -2   -1    0    0    0  501  0.00000000000E+00  0.00000000000E+00 -0.73216809506E+03  0.73216809507E+03  0.25500000920E-02 0. -1.
    10030    2    1    2    0    0  0.00000000000E+00  0.00000000000E+00 -0.26327014217E+03  0.12010660480E+04  0.11718568530E+04 0.  0.
        4    1    3    3  502    0  0.12215612359E+03 -0.26269458018E+03  0.39035293594E+03  0.48611478941E+03  0.12699999809E+01 0.  1.
       -4    1    3    3    0  502 -0.12215612359E+03  0.26269458018E+03 -0.65362307811E+03  0.71495125856E+03  0.12699999809E+01 0. -1.
</event>
<event>
 5   0  0.3713158E-03  0.1095813E+04  0.7818609E-02  0.9209283E-01
        2   -1    0    0  501    0  0.00000000000E+00  0.00000000000E+00  0.23673317506E+04  0.23673317506E+04  0.25500000920E-02 0. -1.
       -2   -1    0    0    0  501  0.00000000000E+00  0.00000000000E+00 -0.12680999507E+03  0.12680999509E+03  0.25500000920E-02 0.  1.
    10030    2    1    2    0    0  0.00000000000E+00  0.00000000000E+00  0.22405217555E+04  0.24941417457E+04  0.10958126257E+04 0.  0.
        4    1    3    3  502    0 -0.15759284204E+03  0.37093131626E+03  0.27543203509E+03  0.48814953046E+03  0.12699999809E+01 0.  1.
       -4    1    3    3    0  502  0.15759284204E+03 -0.37093131626E+03  0.19650897204E+04  0.20059922152E+04  0.12699999809E+01 0. -1.
</event>
<event>
 5   0  0.3713158E-03  0.1087300E+04  0.7818609E-02  0.9217660E-01
        2   -1    0    0  501    0  0.00000000000E+00  0.00000000000E+00  0.84176320470E+03  0.84176320471E+03  0.25500000920E-02 0.  1.
       -2   -1    0    0    0  501  0.00000000000E+00  0.00000000000E+00 -0.35111426675E+03  0.35111426676E+03  0.25500000920E-02 0. -1.
    10030    2    1    2    0    0  0.00000000000E+00  0.00000000000E+00  0.49064893795E+03  0.11928774715E+04  0.10872995363E+04 0.  0.
        4    1    3    3  502    0 -0.40106219095E+03 -0.36566865373E+03  0.27982672183E+03  0.61063004551E+03  0.12699999809E+01 0.  1.
       -4    1    3    3    0  502  0.40106219095E+03  0.36566865373E+03  0.21082221612E+03  0.58224742596E+03  0.12699999809E+01 0. -1.
</event>
<event>
 5   0  0.3962999E-03  0.1098017E+04  0.7818609E-02  0.9207127E-01
        2   -1    0    0  501    0  0.00000000000E+00  0.00000000000E+00  0.92551878283E+03  0.92551878283E+03  0.25500000920E-02 0. -1.
       -2   -1    0    0    0  501  0.00000000000E+00  0.00000000000E+00 -0.32566611325E+03  0.32566611326E+03  0.25500000920E-02 0.  1.
    10030    2    1    2    0    0  0.00000000000E+00  0.00000000000E+00  0.59985266958E+03  0.12511848961E+04  0.10980165841E+04 0.  0.
        3    1    3    3  502    0 -0.10262484887E+03 -0.39860698363E+03  0.71391101679E+03  0.82406816290E+03  0.10100000352E+00 0. -1.
       -3    1    3    3    0  502  0.10262484887E+03  0.39860698363E+03 -0.11405834721E+03  0.42711673319E+03  0.10100000352E+00 0.  1.
</event>
<event>
 5   0  0.2298958E-03  0.1095837E+04  0.7818609E-02  0.9209259E-01
        1   -1    0    0  501    0  0.00000000000E+00  0.00000000000E+00  0.67426316121E+03  0.67426316123E+03  0.50400001928E-02 0. -1.
       -1   -1    0    0    0  501  0.00000000000E+00  0.00000000000E+00 -0.44524853437E+03  0.44524853439E+03  0.50400001928E-02 0.  1.
    10030    2    1    2    0    0  0.00000000000E+00  0.00000000000E+00  0.22901462685E+03  0.11195116956E+04  0.10958370031E+04 0.  0.
        1    1    3    3  502    0  0.49120184553E+03  0.23511236566E+03  0.52722579586E+02  0.54711675899E+03  0.50400001928E-02 0. -1.
       -1    1    3    3    0  502 -0.49120184553E+03 -0.23511236566E+03  0.17629204726E+03  0.57239493664E+03  0.50400001928E-02 0.  1.
</event>
<event>
 5   0  0.3744875E-03  0.1082323E+04  0.7818609E-02  0.9222594E-01
        2   -1    0    0  501    0  0.00000000000E+00  0.00000000000E+00  0.78859910719E+03  0.78859910719E+03  0.25500000920E-02 0. -1.
       -2   -1    0    0    0  501  0.00000000000E+00  0.00000000000E+00 -0.37136236120E+03  0.37136236121E+03  0.25500000920E-02 0.  1.
    10030    2    1    2    0    0  0.00000000000E+00  0.00000000000E+00  0.41723674599E+03  0.11599614684E+04  0.10823234757E+04 0.  0.
        2    1    3    3  502    0 -0.36552797951E+03 -0.25851668078E+03 -0.11718563496E+03  0.46278942414E+03  0.25500000920E-02 0.  1.
       -2    1    3    3    0  502  0.36552797951E+03  0.25851668078E+03  0.53442238095E+03  0.69717204427E+03  0.25500000920E-02 0. -1.
</event>
<event>
 5   0  0.3992414E-03  0.1090622E+04  0.7818609E-02  0.9214381E-01
        2   -1    0    0  501    0  0.00000000000E+00  0.00000000000E+00  0.51857247299E+03  0.51857247300E+03  0.25500000920E-02 0. -1.
       -2   -1    0    0    0  501  0.00000000000E+00  0.00000000000E+00 -0.57342793177E+03  0.57342793177E+03  0.25500000920E-02 0.  1.
    10030    2    1    2    0    0  0.00000000000E+00  0.00000000000E+00 -0.54855458778E+02  0.10920004048E+04  0.10906217322E+04 0.  0.
        1    1    3    3  502    0  0.17601118575E+03  0.27529008144E+03  0.40970103686E+03  0.52404151179E+03  0.50400001928E-02 0. -1.
       -1    1    3    3    0  502 -0.17601118575E+03 -0.27529008144E+03 -0.46455649564E+03  0.56795889298E+03  0.50400001928E-02 0.  1.
</event>
<event>
 5   0  0.2374100E-03  0.1106764E+04  0.7818609E-02  0.9198624E-01
        1   -1    0    0  501    0  0.00000000000E+00  0.00000000000E+00  0.31339506097E+03  0.31339506101E+03  0.50400001928E-02 0.  1.
       -1   -1    0    0    0  501  0.00000000000E+00  0.00000000000E+00 -0.97714309775E+03  0.97714309776E+03  0.50400001928E-02 0. -1.
    10030    2    1    2    0    0  0.00000000000E+00  0.00000000000E+00 -0.66374803678E+03  0.12905381588E+04  0.11067643303E+04 0.  0.
        2    1    3    3  502    0 -0.63017558762E+02  0.33753977178E+03  0.17415168724E+03  0.38501054585E+03  0.25500000920E-02 0.  1.
       -2    1    3    3    0  502  0.63017558762E+02 -0.33753977178E+03 -0.83789972402E+03  0.90552761292E+03  0.25500000920E-02 0. -1.
</event>
<event>
 5   0  0.2374100E-03  0.1115469E+04  0.7818609E-02  0.9190244E-01
        1   -1    0    0  501    0  0.00000000000E+00  0.00000000000E+00  0.96409360047E+03  0.96409360049E+03  0.50400001928E-02 0.  1.
       -1   -1    0    0    0  501  0.00000000000E+00  0.00000000000E+00 -0.32265315361E+03  0.32265315365E+03  0.50400001928E-02 0. -1.
    10030    2    1    2    0    0  0.00000000000E+00  0.00000000000E+00  0.64144044686E+03  0.12867467541E+04  0.11154691221E+04 0.  0.
        2    1    3    3  502    0  0.29329602823E+03  0.47082695268E+03  0.38765840680E+03  0.67674191529E+03  0.25500000920E-02 0.  1.
       -2    1    3    3    0  502 -0.29329602823E+03 -0.47082695268E+03  0.25378204006E+03  0.61000483884E+03  0.25500000920E-02 0. -1.
</event>
<event>
 5   0  0.3713158E-03  0.1107645E+04  0.7818609E-02  0.9197773E-01
        2   -1    0    0  501    0  0.00000000000E+00  0.00000000000E+00  0.12022781945E+04  0.12022781945E+04  0.25500000920E-02 0. -1.
       -2   -1    0    0    0  501  0.00000000000E+00  0.00000000000E+00 -0.25511504252E+03  0.25511504253E+03  0.25500000920E-02 0.  1.
    10030    2    1    2    0    0  0.00000000000E+00  0.00000000000E+00  0.94716315201E+03  0.14573932371E+04  0.11076448036E+04 0.  0.
        4    1    3    3  502    0 -0.52641342035E+03 -0.65714786755E+02  0.26434650248E+03  0.59271427231E+03  0.12699999809E+01 0.  1.
       -4    1    3    3    0  502  0.52641342035E+03  0.65714786755E+02  0.68281664953E+03  0.86467896476E+03  0.12699999809E+01 0. -1.
</event>
<event>
 5   0  0.3713158E-03  0.1115332E+04  0.7818609E-02  0.9190376E-01
        2   -1    0    0  501    0  0.00000000000E+00  0.00000000000E+00  0.96651646675E+03  0.96651646676E+03  0.25500000920E-02 0. -1.
       -2   -1    0    0    0  501  0.00000000000E+00  0.00000000000E+00 -0.32176492491E+03  0.32176492492E+03  0.25500000920E-02 0.  1.
    10030    2    1    2    0    0  0.00000000000E+00  0.00000000000E+00  0.64475154185E+03  0.12882813917E+04  0.11153315173E+04 0.  0.
        4    1    3    3  502    0  0.23340580850E+03  0.23831000507E+03 -0.19382310489E+03  0.38579649927E+03  0.12699999809E+01 0.  1.
       -4    1    3    3    0  502 -0.23340580850E+03 -0.23831000507E+03  0.83857464674E+03  0.90248489240E+03  0.12699999809E+01 0. -1.
</event>
<event>
 5   0  0.3713158E-03  0.1090023E+04  0.7818609E-02  0.9214971E-01
       -2   -1    0    0    0  501  0.00000000000E+00  0.00000000000E+00  0.14933825772E+03  0.14933825775E+03  0.25500000920E-02 0. -1.
        2   -1    0    0  501    0  0.00000000000E+00  0.00000000000E+00 -0.19890238638E+04  0.19890238638E+04  0.25500000920E-02 0.  1.
    10030    2    1    2    0    0  0.00000000000E+00  0.00000000000E+00 -0.18396856061E+04  0.21383621216E+04  0.10900226758E+04 0.  0.
        4    1    3    3  502    0 -0.39685916633E+02  0.28089805478E+03 -0.69245513169E+01  0.28377500148E+03  0.12699999809E+01 0. -1.
       -4    1    3    3    0  502  0.39685916633E+02 -0.28089805478E+03 -0.18327610548E+04  0.18545871201E+04  0.12699999809E+01 0.  1.
</event>
<event>
 5   0  0.2255788E-03  0.1209349E+04  0.7818609E-02  0.9104713E-01
       -1   -1    0    0    0  501  0.00000000000E+00  0.00000000000E+00  0.58908736902E+03  0.58908736904E+03  0.50400001928E-02 0.  1.
        1   -1    0    0  501    0  0.00000000000E+00  0.00000000000E+00 -0.62067367175E+03  0.62067367177E+03  0.50400001928E-02 0. -1.
    10030    2    1    2    0    0  0.00000000000E+00  0.00000000000E+00 -0.31586302729E+02  0.12097610408E+04  0.12093486186E+04 0.  0.
        3    1    3    3  502    0 -0.19383398390E+03 -0.53344188553E+03 -0.22442877998E+03  0.61032790042E+03  0.10100000352E+00 0. -1.
       -3    1    3    3    0  502  0.19383398390E+03  0.53344188553E+03  0.19284247725E+03  0.59943314038E+03  0.10100000352E+00 0.  1.
</event>
<event>
 5   0  0.1508625E-03  0.1090016E+04  0.7818609E-02  0.9214978E-01
       -3   -1    0    0    0  501  0.00000000000E+00  0.00000000000E+00  0.30404086304E+03  0.30404087982E+03  0.10100000352E+00 0. -1.
        3   -1    0    0  501    0  0.00000000000E+00  0.00000000000E+00 -0.97695313187E+03  0.97695313709E+03  0.10100000352E+00 0.  1.
    10030    2    1    2    0    0  0.00000000000E+00  0.00000000000E+00 -0.67291226883E+03  0.12809940169E+04  0.10900159402E+04 0.  0.
        3    1    3    3  502    0  0.52466456333E+03  0.12534686453E+03 -0.42785772963E+03  0.68851070251E+03  0.10100000352E+00 0.  1.
       -3    1    3    3    0  502 -0.52466456333E+03 -0.12534686453E+03 -0.24505453920E+03  0.59248331440E+03  0.10100000352E+00 0. -1.
</event>
<event>
 5   0  0.2255788E-03  0.1098383E+04  0.7818609E-02  0.9206769E-01
       -1   -1    0    0    0  501  0.00000000000E+00  0.00000000000E+00  0.73025521680E+03  0.73025521682E+03  0.50400001928E-02 0.  1.
        1   -1    0    0  501    0  0.00000000000E+00  0.00000000000E+00 -0.41302178042E+03  0.41302178045E+03  0.50400001928E-02 0. -1.
    10030    2    1    2    0    0  0.00000000000E+00  0.00000000000E+00  0.31723343638E+03  0.11432769973E+04  0.10983830112E+04 0.  0.
        3    1    3    3  502    0 -0.46537047498E+03  0.18511503046E+03  0.39315759547E+03  0.63671827252E+03  0.10100000352E+00 0. -1.
       -3    1    3    3    0  502  0.46537047498E+03 -0.18511503046E+03 -0.75924159084E+02  0.50655872475E+03  0.10100000352E+00 0.  1.
</event>
<event>
 5   0  0.3744875E-03  0.1037871E+04  0.7818609E-02  0.9267956E-01
       -2   -1    0    0    0  501  0.00000000000E+00  0.00000000000E+00  0.18947984403E+03  0.18947984404E+03  0.25500000920E-02 0.  1.
        2   -1    0    0  501    0  0.00000000000E+00  0.00000000000E+00 -0.14212291769E+04  0.14212291769E+04  0.25500000920E-02 0. -1.
    10030    2    1    2    0    0  0.00000000000E+00  0.00000000000E+00 -0.12317493329E+04  0.16107090209E+04  0.10378714425E+04 0.  0.
        2    1    3    3  502    0  0.49454376923E+03  0.38744779242E+01 -0.85980869456E+03  0.99189694148E+03  0.25500000920E-02 0. -1.
       -2    1    3    3    0  502 -0.49454376923E+03 -0.38744779242E+01 -0.37194063831E+03  0.61881207946E+03  0.25500000920E-02 0.  1.
</event>
<event>
 5   0  0.2374100E-03  0.1103661E+04  0.7818609E-02  0.9201631E-01
       -1   -1    0    0    0  501  0.00000000000E+00  0.00000000000E+00  0.48635839572E+03  0.48635839575E+03  0.50400001928E-02 0. -1.
        1   -1    0    0  501    0  0.00000000000E+00  0.00000000000E+00 -0.62611577658E+03  0.62611577660E+03  0.50400001928E-02 0.  1.
    10030    2    1    2    0    0  0.00000000000E+00  0.00000000000E+00 -0.13975738086E+03  0.11124741724E+04  0.11036605722E+04 0.  0.
        2    1    3    3  502    0 -0.21445213913E+03  0.90949989393E+02 -0.57412860009E+03  0.61958475610E+03  0.25500000920E-02 0.  1.
       -2    1    3    3    0  502  0.21445213913E+03 -0.90949989393E+02  0.43437121923E+03  0.49288941625E+03  0.25500000920E-02 0. -1.
</event>
<event>
 5   0  0.2374100E-03  0.1101830E+04  0.7818609E-02  0.9203410E-01
        1   -1    0    0  501    0  0.00000000000E+00  0.00000000000E+00  0.65174418576E+03  0.65174418578E+03  0.50400001928E-02 0.  1.
       -1   -1    0    0    0  501  0.00000000000E+00  0.00000000000E+00 -0.46568497985E+03  0.46568497987E+03  0.50400001928E-02 0. -1.
    10030    2    1    2    0    0  0.00000000000E+00  0.00000000000E+00  0.18605920592E+03  0.11174291657E+04  0.11018302556E+04 0.  0.
        2    1    3    3  502    0 -0.94177757978E+02  0.34543893689E+03 -0.33159838428E+03  0.48801126798E+03  0.25500000920E-02 0. -1.
       -2    1    3    3    0  502  0.94177757978E+02 -0.34543893689E+03  0.51765759020E+03  0.62941789767E+03  0.25500000920E-02 0.  1.
</event>
<event>
 5   0  0.2298958E-03  0.1091855E+04  0.7818609E-02  0.9213167E-01
        1   -1    0    0  501    0  0.00000000000E+00  0.00000000000E+00  0.72617116247E+03  0.72617116249E+03  0.50400001928E-02 0.  1.
       -1   -1    0    0    0  501  0.00000000000E+00  0.00000000000E+00 -0.41042256914E+03  0.41042256917E+03  0.50400001928E-02 0. -1.
    10030    2    1    2    0    0  0.00000000000E+00  0.00000000000E+00  0.31574859333E+03  0.11365937317E+04  0.10918553643E+04 0.  0.
        1    1    3    3  502    0  0.38654218613E+03  0.88854169539E+02 -0.23263288697E+03  0.45981298941E+03  0.50400001928E-02 0. -1.
       -1    1    3    3    0  502 -0.38654218613E+03 -0.88854169539E+02  0.54838148031E+03  0.67678074224E+03  0.50400001928E-02 0.  1.
</event>
<event>
 5   0  0.3744875E-03  0.1101618E+04  0.7818609E-02  0.9203616E-01
        2   -1    0    0  501    0  0.00000000000E+00  0.00000000000E+00  0.36837597070E+03  0.36837597071E+03  0.25500000920E-02 0. -1.
       -2   -1    0    0    0  501  0.00000000000E+00  0.00000000000E+00 -0.82358959926E+03  0.82358959927E+03  0.25500000920E-02 0.  1.
    10030    2    1    2    0    0  0.00000000000E+00  0.00000000000E+00 -0.45521362856E+03  0.11919655700E+04  0.11016181155E+04 0.  0.
        2    1    3    3  502    0  0.49514957947E+03 -0.73824476231E+02  0.20944309787E+02  0.50106069838E+03  0.25500000920E-02 0. -1.
       -2    1    3    3    0  502 -0.49514957947E+03  0.73824476231E+02 -0.47615793835E+03  0.69090487160E+03  0.25500000920E-02 0.  1.
</event>
<event>
 5   0  0.3713158E-03  0.1100165E+04  0.7818609E-02  0.9205031E-01
        2   -1    0    0  501    0  0.00000000000E+00  0.00000000000E+00  0.95361004052E+03  0.95361004052E+03  0.25500000920E-02 0. -1.
       -2   -1    0    0    0  501  0.00000000000E+00  0.00000000000E+00 -0.31731077189E+03  0.31731077190E+03  0.25500000920E-02 0.  1.
    10030    2    1    2    0    0  0.00000000000E+00  0.00000000000E+00  0.63629926863E+03  0.12709208124E+04  0.11001649659E+04 0.  0.
        4    1    3    3  502    0  0.83134143460E+01  0.42223490745E+03 -0.89031242964E+02  0.43160121067E+03  0.12699999809E+01 0.  1.
       -4    1    3    3    0  502 -0.83134143460E+01 -0.42223490745E+03  0.72533051159E+03  0.83931960175E+03  0.12699999809E+01 0. -1.
</event>
<event>
 5   0  0.2298958E-03  0.1106143E+04  0.7818609E-02  0.9199226E-01
       -1   -1    0    0    0  501  0.00000000000E+00  0.00000000000E+00  0.11008011325E+04  0.11008011325E+04  0.50400001928E-02 0.  1.
        1   -1    0    0  501    0  0.00000000000E+00  0.00000000000E+00 -0.27787745627E+03  0.27787745632E+03  0.50400001928E-02 0. -1.
    10030    2    1    2    0    0  0.00000000000E+00  0.00000000000E+00  0.82292367619E+03  0.13786785888E+04  0.11061425199E+04 0.  0.
        1    1    3    3  502    0 -0.24178230351E+03 -0.49556445856E+03  0.35792526568E+03  0.65738368608E+03  0.50400001928E-02 0. -1.
       -1    1    3    3    0  502  0.24178230351E+03  0.49556445856E+03  0.46499841050E+03  0.72129490271E+03  0.50400001928E-02 0.  1.
</event>
<event>
 5   0  0.3992414E-03  0.1137676E+04  0.7818609E-02  0.9169229E-01
       -2   -1    0    0    0  501  0.00000000000E+00  0.00000000000E+00  0.87144209643E+03  0.87144209644E+03  0.25500000920E-02 0.  1.
        2   -1    0    0  501    0  0.00000000000E+00  0.00000000000E+00 -0.37131161437E+03  0.37131161438E+03  0.25500000920E-02 0. -1.
    10030    2    1    2    0    0  0.00000000000E+00  0.00000000000E+00  0.50013048206E+03  0.12427537108E+04  0.11376758267E+04 0.  0.
        1    1    3    3  502    0 -0.23501921576E+03  0.51606988945E+03  0.29909281152E+03  0.64110737985E+03  0.50400001928E-02 0.  1.
       -1    1    3    3    0  502  0.23501921576E+03 -0.51606988945E+03  0.20103767054E+03  0.60164633097E+03  0.50400001928E-02 0. -1.
</event>
<event>
 5   0  0.2374100E-03  0.1101067E+04  0.7818609E-02  0.9204152E-01
        1   -1    0    0  501    0  0.00000000000E+00  0.00000000000E+00  0.76463136293E+03  0.76463136295E+03  0.50400001928E-02 0. -1.
       -1   -1    0    0    0  501  0.00000000000E+00  0.00000000000E+00 -0.39638361104E+03  0.39638361107E+03  0.50400001928E-02 0.  1.
    10030    2    1    2    0    0  0.00000000000E+00  0.00000000000E+00  0.36824775189E+03  0.11610149740E+04  0.11010673745E+04 0.  0.
        2    1    3    3  502    0 -0.31365390634E+03 -0.64673518224E+02 -0.28805784204E+03  0.43074210067E+03  0.25500000920E-02 0.  1.
       -2    1    3    3    0  502  0.31365390634E+03  0.64673518224E+02  0.65630559392E+03  0.73027287335E+03  0.25500000920E-02 0. -1.
</event>
<event>
 5   0  0.2257667E-03  0.1127351E+04  0.7818609E-02  0.9178936E-01
       -1   -1    0    0    0  501  0.00000000000E+00  0.00000000000E+00  0.52778219629E+03  0.52778219631E+03  0.50400001928E-02 0.  1.
        1   -1    0    0  501    0  0.00000000000E+00  0.00000000000E+00 -0.60201026223E+03  0.60201026225E+03  0.50400001928E-02 0. -1.
    10030    2    1    2    0    0  0.00000000000E+00  0.00000000000E+00 -0.74228065940E+02  0.11297924586E+04  0.11273514065E+04 0.  0.
        4    1    3    3  502    0 -0.28511416006E+03 -0.30994085914E+03  0.33836410471E+03  0.54022708252E+03  0.12699999809E+01 0.  1.
       -4    1    3    3    0  502  0.28511416006E+03  0.30994085914E+03 -0.41259217065E+03  0.58956537603E+03  0.12699999809E+01 0. -1.
</event>
<event>
 5   0  0.2298958E-03  0.1073247E+04  0.7818609E-02  0.9231667E-01
       -1   -1    0    0    0  501  0.00000000000E+00  0.00000000000E+00  0.11125505102E+03  0.11125505113E+03  0.50400001928E-02 0. -1.
        1   -1    0    0  501    0  0.00000000000E+00  0.00000000000E+00 -0.25883300097E+04  0.25883300098E+04  0.50400001928E-02 0.  1.
    10030    2    1    2    0    0  0.00000000000E+00  0.00000000000E+00 -0.24770749587E+04  0.26995850609E+04  0.10732470125E+04 0.  0.
        1    1    3    3  502    0 -0.97158333820E+02  0.49092420411E+03 -0.75132332597E+03  0.90273642675E+03  0.50400001928E-02 0. -1.
       -1    1    3    3    0  502  0.97158333820E+02 -0.49092420411E+03 -0.17257516328E+04  0.17968486341E+04  0.50400001928E-02 0.  1.
</event>
<event>
 5   0  0.2298958E-03  0.1099211E+04  0.7818609E-02  0.9205962E-01
        1   -1    0    0  501    0  0.00000000000E+00  0.00000000000E+00  0.41081103567E+03  0.41081103570E+03  0.50400001928E-02 0.  1.
       -1   -1    0    0    0  501  0.00000000000E+00  0.00000000000E+00 -0.73529189846E+03  0.73529189848E+03  0.50400001928E-02 0. -1.
    10030    2    1    2    0    0  0.00000000000E+00  0.00000000000E+00 -0.32448086279E+03  0.11461029342E+04  0.10992106738E+04 0.  0.
        1    1    3    3  502    0 -0.44270326915E+03 -0.32436948290E+01  0.17733603150E+03  0.47691170479E+03  0.50400001928E-02 0.  1.
       -1    1    3    3    0  502  0.44270326915E+03  0.32436948290E+01 -0.50181689429E+03  0.66919122939E+03  0.50400001928E-02 0. -1.
</event>
<event>
 5   0  0.2298958E-03  0.1094925E+04  0.7818609E-02  0.9210153E-01
        1   -1    0    0  501    0  0.00000000000E+00  0.00000000000E+00  0.23416615334E+04  0.23416615334E+04  0.50400001928E-02 0. -1.
       -1   -1    0    0    0  501  0.00000000000E+00  0.00000000000E+00 -0.12799245009E+03  0.12799245019E+03  0.50400001928E-02 0.  1.
    10030    2    1    2    0    0  0.00000000000E+00  0.00000000000E+00  0.22136690833E+04  0.24696539836E+04  0.10949246496E+04 0.  0.
        1    1    3    3  502    0  0.11062550995E+03  0.45512696489E+03  0.46752944532E+03  0.66178723159E+03  0.50400001928E-02 0.  1.
       -1    1    3    3    0  502 -0.11062550995E+03 -0.45512696489E+03  0.17461396380E+04  0.18078667520E+04  0.50400001928E-02 0. -1.
</event>
<event>
 5   0  0.2374100E-03  0.1165551E+04  0.7818609E-02  0.9143556E-01
       -1   -1    0    0    0  501  0.00000000000E+00  0.00000000000E+00  0.41171905097E+03  0.41171905100E+03  0.50400001928E-02 0. -1.
        1   -1    0    0  501    0  0.00000000000E+00  0.00000000000E+00 -0.82490036699E+03  0.82490036700E+03  0.50400001928E-02 0.  1.
    10030    2    1    2    0    0  0.00000000000E+00  0.00000000000E+00 -0.41318131602E+03  0.12366194180E+04  0.11655508505E+04 0.  0.
        2    1    3    3  502    0 -0.26141591839E+03 -0.14240319383E+00 -0.75920333480E+03  0.80294956644E+03  0.25500000920E-02 0.  1.
       -2    1    3    3    0  502  0.26141591839E+03  0.14240319383E+00  0.34602201878E+03  0.43366985156E+03  0.25500000920E-02 0. -1.
</event>
<event>
 5   0  0.2257667E-03  0.1092776E+04  0.7818609E-02  0.9212262E-01
        1   -1    0    0  501    0  0.00000000000E+00  0.00000000000E+00  0.12840828915E+04  0.12840828915E+04  0.50400001928E-02 0.  1.
       -1   -1    0    0    0  501  0.00000000000E+00  0.00000000000E+00 -0.23249266417E+03  0.23249266422E+03  0.50400001928E-02 0. -1.
    10030    2    1    2    0    0  0.00000000000E+00  0.00000000000E+00  0.10515902274E+04  0.15165755558E+04  0.10927760109E+04 0.  0.
        4    1    3    3  502    0 -0.84996310890E+02  0.28227034324E+03 -0.11265802429E+03  0.31558574568E+03  0.12699999809E+01 0. -1.
       -4    1    3    3    0  502  0.84996310890E+02 -0.28227034324E+03  0.11642482517E+04  0.12009898101E+04  0.12699999809E+01 0.  1.
</event>
<event>
 5   0  0.3744875E-03  0.1079209E+04  0.7818609E-02  0.9225696E-01
       -2   -1    0    0    0  501  0.00000000000E+00  0.00000000000E+00  0.12414546946E+03  0.12414546948E+03  0.25500000920E-02 0. -1.
        2   -1    0    0  501    0  0.00000000000E+00  0.00000000000E+00 -0.23454198050E+04  0.23454198050E+04  0.25500000920E-02 0.  1.
    10030    2    1    2    0    0  0.00000000000E+00  0.00000000000E+00 -0.22212743355E+04  0.24695652745E+04  0.10792094195E+04 0.  0.
        2    1    3    3  502    0 -0.22498218516E+03  0.42674795816E+03 -0.55744127130E+03  0.73720524577E+03  0.25500000920E-02 0. -1.
       -2    1    3    3    0  502  0.22498218516E+03 -0.42674795816E+03 -0.16638330642E+04  0.17323600287E+04  0.25500000920E-02 0.  1.
</event>
<event>
 5   0  0.2374100E-03  0.1095086E+04  0.7818609E-02  0.9209995E-01
        1   -1    0    0  501    0  0.00000000000E+00  0.00000000000E+00  0.10588140578E+04  0.10588140578E+04  0.50400001928E-02 0. -1.
       -1   -1    0    0    0  501  0.00000000000E+00  0.00000000000E+00 -0.28315010151E+03  0.28315010155E+03  0.50400001928E-02 0.  1.
    10030    2    1    2    0    0  0.00000000000E+00  0.00000000000E+00  0.77566395632E+03  0.13419641594E+04  0.10950859473E+04 0.  0.
        2    1    3    3  502    0 -0.29854792572E+03  0.94152618813E+02  0.93833740945E+03  0.98917777652E+03  0.25500000920E-02 0. -1.
       -2    1    3    3    0  502  0.29854792572E+03 -0.94152618813E+02 -0.16267345313E+03  0.35278638288E+03  0.25500000920E-02 0.  1.
</event>
<event>
 5   0  0.2300702E-03  0.1102856E+04  0.7818609E-02  0.9202413E-01
       -1   -1    0    0    0  501  0.00000000000E+00  0.00000000000E+00  0.77523921353E+03  0.77523921355E+03  0.50400001928E-02 0.  1.
        1   -1    0    0  501    0  0.00000000000E+00  0.00000000000E+00 -0.39223070833E+03  0.39223070837E+03  0.50400001928E-02 0. -1.
    10030    2    1    2    0    0  0.00000000000E+00  0.00000000000E+00  0.38300850520E+03  0.11674699219E+04  0.11028556132E+04 0.  0.
        5    1    3    3  502    0  0.47361141550E+03  0.27080847164E+03  0.10678058730E+03  0.55593991134E+03  0.46999998093E+01 0.  1.
       -5    1    3    3    0  502 -0.47361141550E+03 -0.27080847164E+03  0.27622791790E+03  0.61153001057E+03  0.46999998093E+01 0. -1.
</event>
<event>
 5   0  0.3992414E-03  0.1080482E+04  0.7818609E-02  0.9224427E-01
        2   -1    0    0  501    0  0.00000000000E+00  0.00000000000E+00  0.18999305128E+04  0.18999305128E+04  0.25500000920E-02 0.  1.
       -2   -1    0    0    0  501  0.00000000000E+00  0.00000000000E+00 -0.15361640147E+03  0.15361640149E+03  0.25500000920E-02 0. -1.
    10030    2    1    2    0    0  0.00000000000E+00  0.00000000000E+00  0.17463141113E+04  0.20535469143E+04  0.10804822783E+04 0.  0.
        1    1    3    3  502    0  0.27783545745E+03 -0.33920124442E+03  0.14730026310E+04  0.15368756543E+04  0.50400001928E-02 0.  1.
       -1    1    3    3    0  502 -0.27783545745E+03  0.33920124442E+03  0.27331148025E+03  0.51667125998E+03  0.50400001928E-02 0. -1.
</event>
<event>
 5   0  0.3992414E-03  0.1108969E+04  0.7818609E-02  0.9196494E-01
        2   -1    0    0  501    0  0.00000000000E+00  0.00000000000E+00  0.11131923111E+04  0.11131923111E+04  0.25500000920E-02 0.  1.
       -2   -1    0    0    0  501  0.00000000000E+00  0.00000000000E+00 -0.27619022331E+03  0.27619022332E+03  0.25500000920E-02 0. -1.
    10030    2    1    2    0    0  0.00000000000E+00  0.00000000000E+00  0.83700208782E+03  0.13893825344E+04  0.11089685893E+04 0.  0.
        1    1    3    3  502    0  0.40687695992E+03  0.53639322307E+01  0.89040740813E+03  0.97898058447E+03  0.50400001928E-02 0.  1.
       -1    1    3    3    0  502 -0.40687695992E+03 -0.53639322307E+01 -0.53405320314E+02  0.41040194998E+03  0.50400001928E-02 0. -1.
</event>
<event>
 5   0  0.3744875E-03  0.1107309E+04  0.7818609E-02  0.9198097E-01
        2   -1    0    0  501    0  0.00000000000E+00  0.00000000000E+00  0.16608287644E+04  0.16608287644E+04  0.25500000920E-02 0. -1.
       -2   -1    0    0    0  501  0.00000000000E+00  0.00000000000E+00 -0.18456660574E+03  0.18456660576E+03  0.25500000920E-02 0.  1.
    10030    2    1    2    0    0  0.00000000000E+00  0.00000000000E+00  0.14762621587E+04  0.18453953702E+04  0.11073094017E+04 0.  0.
        2    1    3    3  502    0 -0.40018123102E+03  0.92681870814E+02  0.11948422080E+03  0.42779834720E+03  0.25500000920E-02 0.  1.
       -2    1    3    3    0  502  0.40018123102E+03 -0.92681870814E+02  0.13567779379E+04  0.14175970230E+04  0.25500000920E-02 0. -1.
</event>
<event>
 5   0  0.3748901E-03  0.1108182E+04  0.7818609E-02  0.9197253E-01
       -2   -1    0    0    0  501  0.00000000000E+00  0.00000000000E+00  0.87792825968E+03  0.87792825968E+03  0.25500000920E-02 0. -1.
        2   -1    0    0  501    0  0.00000000000E+00  0.00000000000E+00 -0.34970616779E+03  0.34970616780E+03  0.25500000920E-02 0.  1.
    10030    2    1    2    0    0  0.00000000000E+00  0.00000000000E+00  0.52822209189E+03  0.12276344275E+04  0.11081821643E+04 0.  0.
        5    1    3    3  502    0  0.24199509215E+03 -0.44124359939E+03  0.73105733845E+01  0.50332203718E+03  0.46999998093E+01 0. -1.
       -5    1    3    3    0  502 -0.24199509215E+03  0.44124359939E+03  0.52091151850E+03  0.72431239030E+03  0.46999998093E+01 0.  1.
</event>
<event>
 5   0  0.2257667E-03  0.1101175E+04  0.7818609E-02  0.9204047E-01
       -1   -1    0    0    0  501  0.00000000000E+00  0.00000000000E+00  0.32079803568E+03  0.32079803572E+03  0.50400001928E-02 0. -1.
        1   -1    0    0  501    0  0.00000000000E+00  0.00000000000E+00 -0.94497673162E+03  0.94497673163E+03  0.50400001928E-02 0.  1.
    10030    2    1    2    0    0  0.00000000000E+00  0.00000000000E+00 -0.62417869594E+03  0.12657747674E+04  0.11011751528E+04 0.  0.
        4    1    3    3  502    0 -0.78313068828E+02  0.53706404427E+03 -0.20565043474E+03  0.58040024002E+03  0.12699999809E+01 0.  1.
       -4    1    3    3    0  502  0.78313068828E+02 -0.53706404427E+03 -0.41852826120E+03  0.68537452734E+03  0.12699999809E+01 0. -1.
</event>
<event>
 5   0  0.3992414E-03  0.1092946E+04  0.7818609E-02  0.9212095E-01
        2   -1    0    0  501    0  0.00000000000E+00  0.00000000000E+00  0.15788202364E+04  0.15788202364E+04  0.25500000920E-02 0.  1.
       -2   -1    0    0    0  501  0.00000000000E+00  0.00000000000E+00 -0.18914926873E+03  0.18914926875E+03  0.25500000920E-02 0. -1.
    10030    2    1    2    0    0  0.00000000000E+00  0.00000000000E+00  0.13896709677E+04  0.17679695052E+04  0.10929459148E+04 0.  0.
        1    1    3    3  502    0 -0.23299845542E+03  0.14173901213E+03 -0.71196051095E+02  0.28186362927E+03  0.50400001928E-02 0. -1.
       -1    1    3    3    0  502  0.23299845542E+03 -0.14173901213E+03  0.14608670188E+04  0.14861058759E+04  0.50400001928E-02 0.  1.
</event>
<event>
 5   0  0.2298958E-03  0.1095082E+04  0.7818609E-02  0.9209999E-01
        1   -1    0    0  501    0  0.00000000000E+00  0.00000000000E+00  0.59765671325E+03  0.59765671327E+03  0.50400001928E-02 0. -1.
       -1   -1    0    0    0  501  0.00000000000E+00  0.00000000000E+00 -0.50162765664E+03  0.50162765666E+03  0.50400001928E-02 0.  1.
    10030    2    1    2    0    0  0.00000000000E+00  0.00000000000E+00  0.96029056613E+02  0.10992843699E+04  0.10950819815E+04 0.  0.
        1    1    3    3  502    0  0.23317627692E+03 -0.21389318934E+03 -0.40055558895E+03  0.51045690556E+03  0.50400001928E-02 0.  1.
       -1    1    3    3    0  502 -0.23317627692E+03  0.21389318934E+03  0.49658464556E+03  0.58882746437E+03  0.50400001928E-02 0. -1.
</event>
<event>
 5   0  0.1508625E-03  0.1102482E+04  0.7818609E-02  0.9202776E-01
       -4   -1    0    0    0  501  0.00000000000E+00  0.00000000000E+00  0.13396805681E+04  0.13396811701E+04  0.12699999809E+01 0.  1.
        4   -1    0    0  501    0  0.00000000000E+00  0.00000000000E+00 -0.22681775897E+03  0.22682131444E+03  0.12699999809E+01 0. -1.
    10030    2    1    2    0    0  0.00000000000E+00  0.00000000000E+00  0.11128628092E+04  0.15665024846E+04  0.11024819282E+04 0.  0.
        4    1    3    3  502    0  0.51697811513E+03  0.31607100448E+02  0.28834041833E+03  0.59279607797E+03  0.12699999809E+01 0. -1.
       -4    1    3    3    0  502 -0.51697811513E+03 -0.31607100448E+02  0.82452239084E+03  0.97370640658E+03  0.12699999809E+01 0.  1.
</event>
<event>
 5   0  0.2298958E-03  0.1137789E+04  0.7818609E-02  0.9169123E-01
        1   -1    0    0  501    0  0.00000000000E+00  0.00000000000E+00  0.61961552654E+03  0.61961552656E+03  0.50400001928E-02 0. -1.
       -1   -1    0    0    0  501  0.00000000000E+00  0.00000000000E+00 -0.52232572114E+03  0.52232572117E+03  0.50400001928E-02 0.  1.
    10030    2    1    2    0    0  0.00000000000E+00  0.00000000000E+00  0.97289805399E+02  0.11419412477E+04  0.11377893070E+04 0.  0.
        1    1    3    3  502    0  0.30081094068E+03 -0.36628635490E+03  0.36441692601E+03  0.59787340784E+03  0.50400001928E-02 0. -1.
       -1    1    3    3    0  502 -0.30081094068E+03  0.36628635490E+03 -0.26712712061E+03  0.54406783989E+03  0.50400001928E-02 0.  1.
</event>
<event>
 5   0  0.2300702E-03  0.1095451E+04  0.7818609E-02  0.9209637E-01
       -1   -1    0    0    0  501  0.00000000000E+00  0.00000000000E+00  0.72382715864E+03  0.72382715866E+03  0.50400001928E-02 0. -1.
        1   -1    0    0  501    0  0.00000000000E+00  0.00000000000E+00 -0.41446832128E+03  0.41446832131E+03  0.50400001928E-02 0.  1.
    10030    2    1    2    0    0  0.00000000000E+00  0.00000000000E+00  0.30935883736E+03  0.11382954800E+04  0.10954513725E+04 0.  0.
        5    1    3    3  502    0 -0.41923885487E+03 -0.25899160831E+03 -0.93716925498E+02  0.50164013270E+03  0.46999998093E+01 0.  1.
       -5    1    3    3    0  502  0.41923885487E+03  0.25899160831E+03  0.40307576286E+03  0.63665534727E+03  0.46999998093E+01 0. -1.
</event>
<event>
 5   0  0.1508625E-03  0.1102866E+04  0.7818609E-02  0.9202403E-01
       -4   -1    0    0    0  501  0.00000000000E+00  0.00000000000E+00  0.49826252391E+03  0.49826414244E+03  0.12699999809E+01 0.  1.
        4   -1    0    0  501    0  0.00000000000E+00  0.00000000000E+00 -0.61027427113E+03  0.61027559258E+03  0.12699999809E+01 0. -1.
    10030    2    1    2    0    0  0.00000000000E+00  0.00000000000E+00 -0.11201174721E+03  0.11085397350E+04  0.11028661354E+04 0.  0.
        1    1    3    3  502    0  0.45055540575E+03  0.84216821231E+02  0.25214226010E+03  0.52313322011E+03  0.50400001928E-02 0.  1.
       -1    1    3    3    0  502 -0.45055540575E+03 -0.84216821231E+02 -0.36415400731E+03  0.58540651491E+03  0.50400001928E-02 0. -1.
</event>
<event>
 5   0  0.3992414E-03  0.1095010E+04  0.7818609E-02  0.9210069E-01
        2   -1    0    0  501    0  0.00000000000E+00  0.00000000000E+00  0.49377683838E+03  0.49377683838E+03  0.25500000920E-02 0.  1.
       -2   -1    0    0    0  501  0.00000000000E+00  0.00000000000E+00 -0.60707934695E+03  0.60707934695E+03  0.25500000920E-02 0. -1.
    10030    2    1    2    0    0  0.00000000000E+00  0.00000000000E+00 -0.11330250857E+03  0.11008561853E+04  0.10950099919E+04 0.  0.
        1    1    3    3  502    0  0.34975945519E+03  0.15664145898E+03  0.33645233785E+03  0.50996901753E+03  0.50400001928E-02 0.  1.
       -1    1    3    3    0  502 -0.34975945519E+03 -0.15664145898E+03 -0.44975484642E+03  0.59088716780E+03  0.50400001928E-02 0. -1.
</event>
<event>
 5   0  0.3962999E-03  0.1077075E+04  0.7818609E-02  0.9227829E-01
       -2   -1    0    0    0  501  0.00000000000E+00  0.00000000000E+00  0.17573616769E+03  0.17573616771E+03  0.25500000920E-02 0. -1.
        2   -1    0    0  501    0  0.00000000000E+00  0.00000000000E+00 -0.16503297334E+04  0.16503297334E+04  0.25500000920E-02 0.  1.
    10030    2    1    2    0    0  0.00000000000E+00  0.00000000000E+00 -0.14745935657E+04  0.18260659011E+04  0.10770749701E+04 0.  0.
        3    1    3    3  502    0  0.39322206132E+02 -0.16250059205E+03  0.13062205197E+03  0.21216693657E+03  0.10100000352E+00 0. -1.
       -3    1    3    3    0  502 -0.39322206132E+02  0.16250059205E+03 -0.16052156177E+04  0.16138989646E+04  0.10100000352E+00 0.  1.
</event>
<event>
 5   0  0.2298958E-03  0.1087881E+04  0.7818609E-02  0.9217085E-01
        1   -1    0    0  501    0  0.00000000000E+00  0.00000000000E+00  0.13163583748E+04  0.13163583748E+04  0.50400001928E-02 0. -1.
       -1   -1    0    0    0  501  0.00000000000E+00  0.00000000000E+00 -0.22476488204E+03  0.22476488209E+03  0.50400001928E-02 0.  1.
    10030    2    1    2    0    0  0.00000000000E+00  0.00000000000E+00  0.10915934927E+04  0.15411232569E+04  0.10878807561E+04 0.  0.
        1    1    3    3  502    0 -0.32743976162E+01  0.22025788974E+03  0.12503426497E+04  0.12695987561E+04  0.50400001928E-02 0. -1.
       -1    1    3    3    0  502  0.32743976162E+01 -0.22025788974E+03 -0.15874915698E+03  0.27152450081E+03  0.50400001928E-02 0.  1.
</event>
<event>
 5   0  0.2374100E-03  0.1097471E+04  0.7818609E-02  0.9207660E-01
        1   -1    0    0  501    0  0.00000000000E+00  0.00000000000E+00  0.97532884789E+03  0.97532884791E+03  0.50400001928E-02 0.  1.
       -1   -1    0    0    0  501  0.00000000000E+00  0.00000000000E+00 -0.30872750374E+03  0.30872750378E+03  0.50400001928E-02 0. -1.
    10030    2    1    2    0    0  0.00000000000E+00  0.00000000000E+00  0.66660134416E+03  0.12840563517E+04  0.10974713492E+04 0.  0.
        2    1    3    3  502    0 -0.43197265092E+03 -0.53337805332E+02 -0.57675682389E+02  0.43905782873E+03  0.25500000920E-02 0. -1.
       -2    1    3    3    0  502  0.43197265092E+03  0.53337805332E+02  0.72427702655E+03  0.84499852296E+03  0.25500000920E-02 0.  1.
</event>
<event>
 5   0  0.1508625E-03  0.1060598E+04  0.7818609E-02  0.9244470E-01
        3   -1    0    0  501    0  0.00000000000E+00  0.00000000000E+00  0.24487790132E+04  0.24487790153E+04  0.10100000352E+00 0.  1.
       -3   -1    0    0    0  501  0.00000000000E+00  0.00000000000E+00 -0.11483973124E+03  0.11483977565E+03  0.10100000352E+00 0. -1.
    10030    2    1    2    0    0  0.00000000000E+00  0.00000000000E+00  0.23339392820E+04  0.25636187910E+04  0.10605982903E+04 0.  0.
        1    1    3    3  502    0  0.24256867455E+03  0.15819292330E+03  0.22407710568E+04  0.22594068894E+04  0.50400001928E-02 0.  1.
       -1    1    3    3    0  502 -0.24256867455E+03 -0.15819292330E+03  0.93168225210E+02  0.30421190159E+03  0.50400001928E-02 0. -1.
</event>
<event>
 5   0  0.2257667E-03  0.1108396E+04  0.7818609E-02  0.9197047E-01
        1   -1    0    0  501    0  0.00000000000E+00  0.00000000000E+00  0.84158131106E+03  0.84158131108E+03  0.50400001928E-02 0.  1.
       -1   -1    0    0    0  501  0.00000000000E+00  0.00000000000E+00 -0.36495052937E+03  0.36495052940E+03  0.50400001928E-02 0. -1.
    10030    2    1    2    0    0  0.00000000000E+00  0.00000000000E+00  0.47663078169E+03  0.12065318405E+04  0.11083962198E+04 0.  0.
        4    1    3    3  502    0 -0.24092883727E+03  0.75681672029E+02 -0.29867673122E+03  0.39113146484E+03  0.12699999809E+01 0. -1.
       -4    1    3    3    0  502  0.24092883727E+03 -0.75681672029E+02  0.77530751292E+03  0.81540037564E+03  0.12699999809E+01 0.  1.
</event>
<event>
 5   0  0.2374100E-03  0.1055952E+04  0.7818609E-02  0.9249221E-01
        1   -1    0    0  501    0  0.00000000000E+00  0.00000000000E+00  0.43317455840E+03  0.43317455843E+03  0.50400001928E-02 0. -1.
       -1   -1    0    0    0  501  0.00000000000E+00  0.00000000000E+00 -0.64352478180E+03  0.64352478182E+03  0.50400001928E-02 0.  1.
    10030    2    1    2    0    0  0.00000000000E+00  0.00000000000E+00 -0.21035022341E+03  0.10766993402E+04  0.10559518231E+04 0.  0.
        2    1    3    3  502    0  0.31037217418E+03  0.42215379439E+03 -0.17136473483E+03  0.55128085852E+03  0.25500000920E-02 0.  1.
       -2    1    3    3    0  502 -0.31037217418E+03 -0.42215379439E+03 -0.38985488578E+02  0.52541848173E+03  0.25500000920E-02 0. -1.
</event>
<event>
 5   0  0.2255788E-03  0.1104268E+04  0.7818609E-02  0.9201042E-01
       -1   -1    0    0    0  501  0.00000000000E+00  0.00000000000E+00  0.92461075394E+03  0.92461075396E+03  0.50400001928E-02 0. -1.
        1   -1    0    0  501    0  0.00000000000E+00  0.00000000000E+00 -0.32970862176E+03  0.32970862180E+03  0.50400001928E-02 0.  1.
    10030    2    1    2    0    0  0.00000000000E+00  0.00000000000E+00  0.59490213218E+03  0.12543193758E+04  0.11042683322E+04 0.  0.
        3    1    3    3  502    0 -0.50237752892E+03 -0.23171310539E+02  0.38599266979E+02  0.50439072633E+03  0.10100000352E+00 0. -1.
       -3    1    3    3    0  502  0.50237752892E+03  0.23171310539E+02  0.55630286520E+03  0.74992864943E+03  0.10100000352E+00 0.  1.
</event>
<event>
 5   0  0.3992414E-03  0.1087394E+04  0.7818609E-02  0.9217566E-01
        2   -1    0    0  501    0  0.00000000000E+00  0.00000000000E+00  0.78377368073E+03  0.78377368074E+03  0.25500000920E-02 0.  1.
       -2   -1    0    0    0  501  0.00000000000E+00  0.00000000000E+00 -0.37715805942E+03  0.37715805943E+03  0.25500000920E-02 0. -1.
    10030    2    1    2    0    0  0.00000000000E+00  0.00000000000E+00  0.40661562131E+03  0.11609317402E+04  0.10873942440E+04 0.  0.
        1    1    3    3  502    0  0.25347180022E+03  0.18250673189E+03  0.67843181088E+03  0.74687775621E+03  0.50400001928E-02 0.  1.
       -1    1    3    3    0  502 -0.25347180022E+03 -0.18250673189E+03 -0.27181618957E+03  0.41405398395E+03  0.50400001928E-02 0. -1.
</event>
<event>
 5   0  0.2300702E-03  0.1049881E+04  0.7818609E-02  0.9255467E-01
       -1   -1    0    0    0  501  0.00000000000E+00  0.00000000000E+00  0.17212813157E+03  0.17212813164E+03  0.50400001928E-02 0.  1.
        1   -1    0    0  501    0  0.00000000000E+00  0.00000000000E+00 -0.16009144591E+04  0.16009144591E+04  0.50400001928E-02 0. -1.
    10030    2    1    2    0    0  0.00000000000E+00  0.00000000000E+00 -0.14287863276E+04  0.17730425908E+04  0.10498807832E+04 0.  0.
        5    1    3    3  502    0  0.22511149781E+03  0.47205676088E+03 -0.63834910905E+03  0.82524205356E+03  0.46999998093E+01 0. -1.
       -5    1    3    3    0  502 -0.22511149781E+03 -0.47205676088E+03 -0.79043721852E+03  0.94780053722E+03  0.46999998093E+01 0.  1.
</event>
<event>
 5   0  0.3744875E-03  0.1108029E+04  0.7818609E-02  0.9197401E-01
       -2   -1    0    0    0  501  0.00000000000E+00  0.00000000000E+00  0.32412626628E+03  0.32412626629E+03  0.25500000920E-02 0. -1.
        2   -1    0    0  501    0  0.00000000000E+00  0.00000000000E+00 -0.94695275550E+03  0.94695275551E+03  0.25500000920E-02 0.  1.
    10030    2    1    2    0    0  0.00000000000E+00  0.00000000000E+00 -0.62282648922E+03  0.12710790218E+04  0.11080293516E+04 0.  0.
        2    1    3    3  502    0 -0.47351570981E+03  0.25339580953E+03 -0.15535956523E+03  0.55907348196E+03  0.25500000920E-02 0.  1.
       -2    1    3    3    0  502  0.47351570981E+03 -0.25339580953E+03 -0.46746692399E+03  0.71200553983E+03  0.25500000920E-02 0. -1.
</event>
<event>
 5   0  0.2374100E-03  0.1035870E+04  0.7818609E-02  0.9270055E-01
        1   -1    0    0  501    0  0.00000000000E+00  0.00000000000E+00  0.34983582450E+03  0.34983582454E+03  0.50400001928E-02 0.  1.
       -1   -1    0    0    0  501  0.00000000000E+00  0.00000000000E+00 -0.76680776054E+03  0.76680776056E+03  0.50400001928E-02 0. -1.
    10030    2    1    2    0    0  0.00000000000E+00  0.00000000000E+00 -0.41697193604E+03  0.11166435851E+04  0.10358703108E+04 0.  0.
        2    1    3    3  502    0 -0.48070551895E+03 -0.43111718987E+02 -0.41107785560E+03  0.63397272783E+03  0.25500000920E-02 0. -1.
       -2    1    3    3    0  502  0.48070551895E+03  0.43111718987E+02 -0.58940804415E+01  0.48267085727E+03  0.25500000920E-02 0.  1.
</event>
<event>
 5   0  0.3962999E-03  0.1101642E+04  0.7818609E-02  0.9203593E-01
       -2   -1    0    0    0  501  0.00000000000E+00  0.00000000000E+00  0.39918998567E+03  0.39918998568E+03  0.25500000920E-02 0. -1.
        2   -1    0    0  501    0  0.00000000000E+00  0.00000000000E+00 -0.76004888259E+03  0.76004888260E+03  0.25500000920E-02 0.  1.
    10030    2    1    2    0    0  0.00000000000E+00  0.00000000000E+00 -0.36085889692E+03  0.11592388683E+04  0.11016422333E+04 0.  0.
        3    1    3    3  502    0  0.22734728659E+03  0.40035238794E+02  0.34583205741E+03  0.41579974892E+03  0.10100000352E+00 0. -1.
       -3    1    3    3    0  502 -0.22734728659E+03 -0.40035238794E+02 -0.70669095433E+03  0.74343911936E+03  0.10100000352E+00 0.  1.
</event>
<event>
 5   0  0.2298958E-03  0.1094446E+04  0.7818609E-02  0.9210622E-01
        1   -1    0    0  501    0  0.00000000000E+00  0.00000000000E+00  0.10020367905E+04  0.10020367905E+04  0.50400001928E-02 0. -1.
       -1   -1    0    0    0  501  0.00000000000E+00  0.00000000000E+00 -0.29884442497E+03  0.29884442502E+03  0.50400001928E-02 0.  1.
    10030    2    1    2    0    0  0.00000000000E+00  0.00000000000E+00  0.70319236556E+03  0.13008812156E+04  0.10944461769E+04 0.  0.
        1    1    3    3  502    0 -0.35808796810E+03 -0.38870881191E+03  0.52024453884E+03  0.74160360947E+03  0.50400001928E-02 0. -1.
       -1    1    3    3    0  502  0.35808796810E+03  0.38870881191E+03  0.18294782672E+03  0.55927760610E+03  0.50400001928E-02 0.  1.
</event>
<event>
 5   0  0.3962999E-03  0.1063158E+04  0.7818609E-02  0.9241863E-01
       -2   -1    0    0    0  501  0.00000000000E+00  0.00000000000E+00  0.12315866956E+03  0.12315866959E+03  0.25500000920E-02 0. -1.
        2   -1    0    0  501    0  0.00000000000E+00  0.00000000000E+00 -0.22944088688E+04  0.22944088688E+04  0.25500000920E-02 0.  1.
    10030    2    1    2    0    0  0.00000000000E+00  0.00000000000E+00 -0.21712501993E+04  0.24175675384E+04  0.10631582079E+04 0.  0.
        3    1    3    3  502    0 -0.11062413984E+03 -0.32575497273E+03 -0.16412194715E+03  0.38116928826E+03  0.10100000352E+00 0. -1.
       -3    1    3    3    0  502  0.11062413984E+03  0.32575497273E+03 -0.20071282521E+04  0.20363982501E+04  0.10100000352E+00 0.  1.
</event>
<event>
 5   0  0.2255788E-03  0.1096073E+04  0.7818609E-02  0.9209028E-01
       -1   -1    0    0    0  501  0.00000000000E+00  0.00000000000E+00  0.39623950638E+03  0.39623950641E+03  0.50400001928E-02 0.  1.
        1   -1    0    0  501    0  0.00000000000E+00  0.00000000000E+00 -0.75798537308E+03  0.75798537309E+03  0.50400001928E-02 0. -1.
    10030    2    1    2    0    0  0.00000000000E+00  0.00000000000E+00 -0.36174586670E+03  0.11542248795E+04  0.10960725343E+04 0.  0.
        3    1    3    3  502    0 -0.23614130399E+03 -0.95989845045E+02 -0.69175881156E+03  0.73722929226E+03  0.10100000352E+00 0. -1.
       -3    1    3    3    0  502  0.23614130399E+03  0.95989845045E+02  0.33001294486E+03  0.41699558724E+03  0.10100000352E+00 0.  1.
</event>
<event>
 5   0  0.2300702E-03  0.1104734E+04  0.7818609E-02  0.9200590E-01
        1   -1    0    0  501    0  0.00000000000E+00  0.00000000000E+00  0.19619083212E+03  0.19619083219E+03  0.50400001928E-02 0.  1.
       -1   -1    0    0    0  501  0.00000000000E+00  0.00000000000E+00 -0.15551662648E+04  0.15551662648E+04  0.50400001928E-02 0. -1.
    10030    2    1    2    0    0  0.00000000000E+00  0.00000000000E+00 -0.13589754327E+04  0.17513570970E+04  0.11047341104E+04 0.  0.
        5    1    3    3  502    0 -0.38667292540E+03  0.39396565713E+03 -0.70966645603E+03  0.89909591204E+03  0.46999998093E+01 0. -1.
       -5    1    3    3    0  502  0.38667292540E+03 -0.39396565713E+03 -0.64930897667E+03  0.85226118498E+03  0.46999998093E+01 0.  1.
</event>
<event>
 5   0  0.2255788E-03  0.9943460E+03  0.7818609E-02  0.9314768E-01
        1   -1    0    0  501    0  0.00000000000E+00  0.00000000000E+00  0.60911833766E+03  0.60911833768E+03  0.50400001928E-02 0.  1.
       -1   -1    0    0    0  501  0.00000000000E+00  0.00000000000E+00 -0.40580126760E+03  0.40580126764E+03  0.50400001928E-02 0. -1.
    10030    2    1    2    0    0  0.00000000000E+00  0.00000000000E+00  0.20331707005E+03  0.10149196053E+04  0.99434600330E+03 0.  0.
        3    1    3    3  502    0  0.31374806551E+03 -0.17204698358E+03  0.45397125295E+03  0.57803799346E+03  0.10100000352E+00 0.  1.
       -3    1    3    3    0  502 -0.31374806551E+03  0.17204698358E+03 -0.25065418290E+03  0.43688161186E+03  0.10100000352E+00 0. -1.
</event>
<event>
 5   0  0.3748901E-03  0.1096740E+04  0.7818609E-02  0.9208375E-01
       -2   -1    0    0    0  501  0.00000000000E+00  0.00000000000E+00  0.31617382491E+03  0.31617382492E+03  0.25500000920E-02 0. -1.
        2   -1    0    0  501    0  0.00000000000E+00  0.00000000000E+00 -0.95108940286E+03  0.95108940286E+03  0.25500000920E-02 0.  1.
    10030    2    1    2    0    0  0.00000000000E+00  0.00000000000E+00 -0.63491557795E+03  0.12672632278E+04  0.10967398494E+04 0.  0.
        5    1    3    3  502    0  0.33203177839E+03 -0.13873444150E+03 -0.79554697642E+03  0.87316059737E+03  0.46999998093E+01 0.  1.
       -5    1    3    3    0  502 -0.33203177839E+03  0.13873444150E+03  0.16063139847E+03  0.39410263040E+03  0.46999998093E+01 0. -1.
</event>
<event>
 5   0  0.3992414E-03  0.1100290E+04  0.7818609E-02  0.9204909E-01
       -2   -1    0    0    0  501  0.00000000000E+00  0.00000000000E+00  0.25715627995E+03  0.25715627996E+03  0.25500000920E-02 0. -1.
        2   -1    0    0  501    0  0.00000000000E+00  0.00000000000E+00 -0.11769479327E+04  0.11769479327E+04  0.25500000920E-02 0.  1.
    10030    2    1    2    0    0  0.00000000000E+00  0.00000000000E+00 -0.91979165272E+03  0.14341042126E+04  0.11002900564E+04 0.  0.
        1    1    3    3  502    0 -0.76412158568E+02  0.31364109050E+02  0.24902835095E+03  0.26236929111E+03  0.50400001928E-02 0. -1.
       -1    1    3    3    0  502  0.76412158568E+02 -0.31364109050E+02 -0.11688200037E+04  0.11717349215E+04  0.50400001928E-02 0.  1.
</event>
<event>
 5   0  0.3992414E-03  0.1105259E+04  0.7818609E-02  0.9200081E-01
        2   -1    0    0  501    0  0.00000000000E+00  0.00000000000E+00  0.16891401257E+04  0.16891401257E+04  0.25500000920E-02 0.  1.
       -2   -1    0    0    0  501  0.00000000000E+00  0.00000000000E+00 -0.18080165944E+03  0.18080165946E+03  0.25500000920E-02 0. -1.
    10030    2    1    2    0    0  0.00000000000E+00  0.00000000000E+00  0.15083384663E+04  0.18699417852E+04  0.11052589520E+04 0.  0.
        1    1    3    3  502    0  0.33020388886E+03 -0.42095382216E+03  0.98837164639E+03  0.11238839976E+04  0.50400001928E-02 0. -1.
       -1    1    3    3    0  502 -0.33020388886E+03  0.42095382216E+03  0.51996681988E+03  0.74605778758E+03  0.50400001928E-02 0.  1.
</event>
<event>
 5   0  0.2374100E-03  0.1092645E+04  0.7818609E-02  0.9212391E-01
       -1   -1    0    0    0  501  0.00000000000E+00  0.00000000000E+00  0.30286603671E+03  0.30286603675E+03  0.50400001928E-02 0. -1.
        1   -1    0    0  501    0  0.00000000000E+00  0.00000000000E+00 -0.98547867799E+03  0.98547867800E+03  0.50400001928E-02 0.  1.
    10030    2    1    2    0    0  0.00000000000E+00  0.00000000000E+00 -0.68261264128E+03  0.12883447147E+04  0.10926445378E+04 0.  0.
        2    1    3    3  502    0 -0.39138955481E+03  0.36426605290E+03 -0.47362124294E+03  0.71427769297E+03  0.25500000920E-02 0.  1.
       -2    1    3    3    0  502  0.39138955481E+03 -0.36426605290E+03 -0.20899139834E+03  0.57406702178E+03  0.25500000920E-02 0. -1.
</event>
<event>
 5   0  0.3748901E-03  0.1104668E+04  0.7818609E-02  0.9200654E-01
        2   -1    0    0  501    0  0.00000000000E+00  0.00000000000E+00  0.74577620318E+03  0.74577620318E+03  0.25500000920E-02 0. -1.
       -2   -1    0    0    0  501  0.00000000000E+00  0.00000000000E+00 -0.40906728607E+03  0.40906728608E+03  0.25500000920E-02 0.  1.
    10030    2    1    2    0    0  0.00000000000E+00  0.00000000000E+00  0.33670891711E+03  0.11548434893E+04  0.11046676377E+04 0.  0.
        5    1    3    3  502    0 -0.51344782518E+03 -0.87950572471E+02 -0.23521248311E+02  0.52147800673E+03  0.46999998093E+01 0.  1.
       -5    1    3    3    0  502  0.51344782518E+03  0.87950572471E+02  0.36023016542E+03  0.63336548253E+03  0.46999998093E+01 0. -1.
</event>
<event>
 5   0  0.3744875E-03  0.1076952E+04  0.7818609E-02  0.9227952E-01
        2   -1    0    0  501    0  0.00000000000E+00  0.00000000000E+00  0.10268403951E+04  0.10268403951E+04  0.25500000920E-02 0.  1.
       -2   -1    0    0    0  501  0.00000000000E+00  0.00000000000E+00 -0.28237711560E+03  0.28237711561E+03  0.25500000920E-02 0. -1.
    10030    2    1    2    0    0  0.00000000000E+00  0.00000000000E+00  0.74446327948E+03  0.13092175107E+04  0.10769516776E+04 0.  0.
        2    1    3    3  502    0 -0.34998042329E+03  0.37801998517E+03  0.56278887385E+03  0.76296574131E+03  0.25500000920E-02 0. -1.
       -2    1    3    3    0  502  0.34998042329E+03 -0.37801998517E+03  0.18167440563E+03  0.54625176938E+03  0.25500000920E-02 0.  1.
</event>
<event>
 5   0  0.2300702E-03  0.1015928E+04  0.7818609E-02  0.9291245E-01
       -1   -1    0    0    0  501  0.00000000000E+00  0.00000000000E+00  0.53588956559E+03  0.53588956561E+03  0.50400001928E-02 0.  1.
        1   -1    0    0  501    0  0.00000000000E+00  0.00000000000E+00 -0.48149401600E+03  0.48149401602E+03  0.50400001928E-02 0. -1.
    10030    2    1    2    0    0  0.00000000000E+00  0.00000000000E+00  0.54395549592E+02  0.10173835816E+04  0.10159283815E+04 0.  0.
        5    1    3    3  502    0 -0.39389313919E+03 -0.10479774456E+03 -0.27633893612E+03  0.49246286152E+03  0.46999998093E+01 0. -1.
       -5    1    3    3    0  502  0.39389313919E+03  0.10479774456E+03  0.33073448571E+03  0.52492072011E+03  0.46999998093E+01 0.  1.
</event>
<event>
 5   0  0.2257667E-03  0.1103710E+04  0.7818609E-02  0.9201584E-01
        1   -1    0    0  501    0  0.00000000000E+00  0.00000000000E+00  0.16168744922E+03  0.16168744929E+03  0.50400001928E-02 0. -1.
       -1   -1    0    0    0  501  0.00000000000E+00  0.00000000000E+00 -0.18835339885E+04  0.18835339885E+04  0.50400001928E-02 0.  1.
    10030    2    1    2    0    0  0.00000000000E+00  0.00000000000E+00 -0.17218465393E+04  0.20452214378E+04  0.11037097557E+04 0.  0.
        4    1    3    3  502    0 -0.28422886008E+03 -0.12880819367E+03 -0.17043419689E+04  0.17326744516E+04  0.12699999809E+01 0.  1.
       -4    1    3    3    0  502  0.28422886008E+03  0.12880819367E+03 -0.17504570409E+02  0.31254698614E+03  0.12699999809E+01 0. -1.
</event>
<event>
 5   0  0.2255788E-03  0.1107588E+04  0.7818609E-02  0.9197827E-01
       -1   -1    0    0    0  501  0.00000000000E+00  0.00000000000E+00  0.90961415567E+03  0.90961415568E+03  0.50400001928E-02 0.  1.
        1   -1    0    0  501    0  0.00000000000E+00  0.00000000000E+00 -0.33716268585E+03  0.33716268589E+03  0.50400001928E-02 0. -1.
    10030    2    1    2    0    0  0.00000000000E+00  0.00000000000E+00  0.57245146982E+03  0.12467768416E+04  0.11075882842E+04 0.  0.
        3    1    3    3  502    0  0.19742796176E+03  0.22459564447E+03 -0.23846959108E+03  0.38247713614E+03  0.10100000352E+00 0. -1.
       -3    1    3    3    0  502 -0.19742796176E+03 -0.22459564447E+03  0.81092106089E+03  0.86429970543E+03  0.10100000352E+00 0.  1.
</event>
<event>
 5   0  0.2255788E-03  0.1109759E+04  0.7818609E-02  0.9195732E-01
        1   -1    0    0  501    0  0.00000000000E+00  0.00000000000E+00  0.46693316956E+03  0.46693316959E+03  0.50400001928E-02 0. -1.
       -1   -1    0    0    0  501  0.00000000000E+00  0.00000000000E+00 -0.65939076837E+03  0.65939076839E+03  0.50400001928E-02 0.  1.
    10030    2    1    2    0    0  0.00000000000E+00  0.00000000000E+00 -0.19245759881E+03  0.11263239380E+04  0.11097592919E+04 0.  0.
        3    1    3    3  502    0  0.20492357284E+03 -0.28259313523E+03 -0.53398908569E+03  0.63796309033E+03  0.10100000352E+00 0.  1.
       -3    1    3    3    0  502 -0.20492357284E+03  0.28259313523E+03  0.34153148688E+03  0.48836084765E+03  0.10100000352E+00 0. -1.
</event>
<event>
 5   0  0.3744875E-03  0.1096662E+04  0.7818609E-02  0.9208452E-01
       -2   -1    0    0    0  501  0.00000000000E+00  0.00000000000E+00  0.25343608751E+03  0.25343608752E+03  0.25500000920E-02 0.  1.
        2   -1    0    0  501    0  0.00000000000E+00  0.00000000000E+00 -0.11863608053E+04  0.11863608053E+04  0.25500000920E-02 0. -1.
    10030    2    1    2    0    0  0.00000000000E+00  0.00000000000E+00 -0.93292471778E+03  0.14397968928E+04  0.10966615538E+04 0.  0.
        2    1    3    3  502    0  0.22646479366E+03  0.49263915155E+03 -0.35910188496E+03  0.65033360685E+03  0.25500000920E-02 0. -1.
       -2    1    3    3    0  502 -0.22646479366E+03 -0.49263915155E+03 -0.57382283282E+03  0.78946328596E+03  0.25500000920E-02 0.  1.
</event>
<event>
 5   0  0.3744875E-03  0.1079657E+04  0.7818609E-02  0.9225250E-01
        2   -1    0    0  501    0  0.00000000000E+00  0.00000000000E+00  0.11194135224E+04  0.11194135224E+04  0.25500000920E-02 0.  1.
       -2   -1    0    0    0  501  0.00000000000E+00  0.00000000000E+00 -0.26032807468E+03  0.26032807469E+03  0.25500000920E-02 0. -1.
    10030    2    1    2    0    0  0.00000000000E+00  0.00000000000E+00  0.85908544775E+03  0.13797415971E+04  0.10796569216E+04 0.  0.
        2    1    3    3  502    0 -0.32032840589E+03 -0.33898988460E+03  0.82161924783E+02  0.47357682732E+03  0.25500000920E-02 0. -1.
       -2    1    3    3    0  502  0.32032840589E+03  0.33898988460E+03  0.77692352297E+03  0.90616476980E+03  0.25500000920E-02 0.  1.
</event>
<event>
 5   0  0.2257667E-03  0.1105903E+04  0.7818609E-02  0.9199457E-01
       -1   -1    0    0    0  501  0.00000000000E+00  0.00000000000E+00  0.38855050902E+03  0.38855050905E+03  0.50400001928E-02 0.  1.
        1   -1    0    0  501    0  0.00000000000E+00  0.00000000000E+00 -0.78691316939E+03  0.78691316941E+03  0.50400001928E-02 0. -1.
    10030    2    1    2    0    0  0.00000000000E+00  0.00000000000E+00 -0.39836266037E+03  0.11754636785E+04  0.11059032734E+04 0.  0.
        4    1    3    3  502    0 -0.13076308456E+03 -0.51044369446E+02  0.36929525552E+03  0.39507608202E+03  0.12699999809E+01 0.  1.
       -4    1    3    3    0  502  0.13076308456E+03  0.51044369446E+02 -0.76765791589E+03  0.78038759643E+03  0.12699999809E+01 0. -1.
</event>
<event>
 5   0  0.2298958E-03  0.1085543E+04  0.7818609E-02  0.9219399E-01
       -1   -1    0    0    0  501  0.00000000000E+00  0.00000000000E+00  0.26183722622E+03  0.26183722627E+03  0.50400001928E-02 0. -1.
        1   -1    0    0  501    0  0.00000000000E+00  0.00000000000E+00 -0.11251290121E+04  0.11251290121E+04  0.50400001928E-02 0.  1.
    10030    2    1    2    0    0  0.00000000000E+00  0.00000000000E+00 -0.86329178584E+03  0.13869662383E+04  0.10855425550E+04 0.  0.
        1    1    3    3  502    0  0.70116910977E+02  0.38274265727E+03 -0.91512635066E+03  0.99441669365E+03  0.50400001928E-02 0.  1.
       -1    1    3    3    0  502 -0.70116910977E+02 -0.38274265727E+03  0.51834564821E+02  0.39254954469E+03  0.50400001928E-02 0. -1.
</event>
<event>
 5   0  0.2298958E-03  0.1091249E+04  0.7818609E-02  0.9213764E-01
        1   -1    0    0  501    0  0.00000000000E+00  0.00000000000E+00  0.78350254803E+03  0.78350254805E+03  0.50400001928E-02 0.  1.
       -1   -1    0    0    0  501  0.00000000000E+00  0.00000000000E+00 -0.37996814579E+03  0.37996814582E+03  0.50400001928E-02 0. -1.
    10030    2    1    2    0    0  0.00000000000E+00  0.00000000000E+00  0.40353440224E+03  0.11634706939E+04  0.10912488450E+04 0.  0.
        1    1    3    3  502    0  0.40595618933E+03  0.15306772404E+03  0.55453653379E+03  0.70408871822E+03  0.50400001928E-02 0.  1.
       -1    1    3    3    0  502 -0.40595618933E+03 -0.15306772404E+03 -0.15100213155E+03  0.45938197565E+03  0.50400001928E-02 0. -1.
</event>
<event>
 5   0  0.1508625E-03  0.1067068E+04  0.7818609E-02  0.9237897E-01
       -3   -1    0    0    0  501  0.00000000000E+00  0.00000000000E+00  0.25195243650E+03  0.25195245675E+03  0.10100000352E+00 0.  1.
        3   -1    0    0  501    0  0.00000000000E+00  0.00000000000E+00 -0.11298113468E+04  0.11298113513E+04  0.10100000352E+00 0. -1.
    10030    2    1    2    0    0  0.00000000000E+00  0.00000000000E+00 -0.87785891033E+03  0.13817638081E+04  0.10670683928E+04 0.  0.
        1    1    3    3  502    0 -0.12144101692E+03 -0.32247418731E+03 -0.96639308480E+03  0.10259888481E+04  0.50400001928E-02 0. -1.
       -1    1    3    3    0  502  0.12144101692E+03  0.32247418731E+03  0.88534174473E+02  0.35577495998E+03  0.50400001928E-02 0.  1.
</event>
<event>
 5   0  0.2300702E-03  0.1107283E+04  0.7818609E-02  0.9198122E-01
       -1   -1    0    0    0  501  0.00000000000E+00  0.00000000000E+00  0.64718798827E+03  0.64718798829E+03  0.50400001928E-02 0.  1.
        1   -1    0    0  501    0  0.00000000000E+00  0.00000000000E+00 -0.47361672757E+03  0.47361672760E+03  0.50400001928E-02 0. -1.
    10030    2    1    2    0    0  0.00000000000E+00  0.00000000000E+00  0.17357126070E+03  0.11208047159E+04  0.11072832649E+04 0.  0.
        5    1    3    3  502    0  0.16208498803E+03  0.44001290653E+03  0.38468214802E+03  0.60653552762E+03  0.46999998093E+01 0.  1.
       -5    1    3    3    0  502 -0.16208498803E+03 -0.44001290653E+03 -0.21111088732E+03  0.51426918827E+03  0.46999998093E+01 0. -1.
</event>
<event>
 5   0  0.3713158E-03  0.1067460E+04  0.7818609E-02  0.9237501E-01
        2   -1    0    0  501    0  0.00000000000E+00  0.00000000000E+00  0.21556622148E+04  0.21556622148E+04  0.25500000920E-02 0. -1.
       -2   -1    0    0    0  501  0.00000000000E+00  0.00000000000E+00 -0.13214866979E+03  0.13214866981E+03  0.25500000920E-02 0.  1.
    10030    2    1    2    0    0  0.00000000000E+00  0.00000000000E+00  0.20235135450E+04  0.22878108846E+04  0.10674603397E+04 0.  0.
        4    1    3    3  502    0 -0.52286717649E+03 -0.84370673649E+02  0.87027472107E+03  0.10187679804E+04  0.12699999809E+01 0. -1.
       -4    1    3    3    0  502  0.52286717649E+03  0.84370673649E+02  0.11532388239E+04  0.12690429042E+04  0.12699999809E+01 0.  1.
</event>
<event>
 5   0  0.3962999E-03  0.1069693E+04  0.7818609E-02  0.9235245E-01
        2   -1    0    0  501    0  0.00000000000E+00  0.00000000000E+00  0.69957616726E+03  0.69957616727E+03  0.25500000920E-02 0.  1.
       -2   -1    0    0    0  501  0.00000000000E+00  0.00000000000E+00 -0.40890606204E+03  0.40890606204E+03  0.25500000920E-02 0. -1.
    10030    2    1    2    0    0  0.00000000000E+00  0.00000000000E+00  0.29067010523E+03  0.11084822293E+04  0.10696932937E+04 0.  0.
        3    1    3    3  502    0 -0.41772185660E+03 -0.33319169645E+03  0.16969644850E+03  0.56062924549E+03  0.10100000352E+00 0.  1.
       -3    1    3    3    0  502  0.41772185660E+03  0.33319169645E+03  0.12097365673E+03  0.54785298382E+03  0.10100000352E+00 0. -1.
</event>
<event>
 5   0  0.3992414E-03  0.1064655E+04  0.7818609E-02  0.9240343E-01
       -2   -1    0    0    0  501  0.00000000000E+00  0.00000000000E+00  0.36447752927E+03  0.36447752928E+03  0.25500000920E-02 0. -1.
        2   -1    0    0  501    0  0.00000000000E+00  0.00000000000E+00 -0.77747590944E+03  0.77747590944E+03  0.25500000920E-02 0.  1.
    10030    2    1    2    0    0  0.00000000000E+00  0.00000000000E+00 -0.41299838016E+03  0.11419534387E+04  0.10646548709E+04 0.  0.
        1    1    3    3  502    0  0.40244851714E+03  0.45831149858E+01 -0.58020089241E+03  0.70612951324E+03  0.50400001928E-02 0.  1.
       -1    1    3    3    0  502 -0.40244851714E+03 -0.45831149858E+01  0.16720251225E+03  0.43582392548E+03  0.50400001928E-02 0. -1.
</event>
<event>
 5   0  0.3962999E-03  0.1120800E+04  0.7818609E-02  0.9185153E-01
        2   -1    0    0  501    0  0.00000000000E+00  0.00000000000E+00  0.83864142885E+03  0.83864142886E+03  0.25500000920E-02 0. -1.
       -2   -1    0    0    0  501  0.00000000000E+00  0.00000000000E+00 -0.37447231044E+03  0.37447231045E+03  0.25500000920E-02 0.  1.
    10030    2    1    2    0    0  0.00000000000E+00  0.00000000000E+00  0.46416911841E+03  0.12131137393E+04  0.11207997029E+04 0.  0.
        3    1    3    3  502    0  0.55436815489E+03 -0.17295458303E+02  0.31884131350E+03  0.63975227817E+03  0.10100000352E+00 0. -1.
       -3    1    3    3    0  502 -0.55436815489E+03  0.17295458303E+02  0.14532780491E+03  0.57336146113E+03  0.10100000352E+00 0.  1.
</event>
<event>
 5   0  0.3748901E-03  0.1095032E+04  0.7818609E-02  0.9210047E-01
       -2   -1    0    0    0  501  0.00000000000E+00  0.00000000000E+00  0.42093428504E+03  0.42093428505E+03  0.25500000920E-02 0. -1.
        2   -1    0    0  501    0  0.00000000000E+00  0.00000000000E+00 -0.71216324268E+03  0.71216324269E+03  0.25500000920E-02 0.  1.
    10030    2    1    2    0    0  0.00000000000E+00  0.00000000000E+00 -0.29122895764E+03  0.11330975277E+04  0.10950322834E+04 0.  0.
        5    1    3    3  502    0  0.41127474380E+03  0.33708332693E+03 -0.10778426059E+02  0.53189317409E+03  0.46999998093E+01 0.  1.
       -5    1    3    3    0  502 -0.41127474380E+03 -0.33708332693E+03 -0.28045053158E+03  0.60120435365E+03  0.46999998093E+01 0. -1.
</event>
<event>
 5   0  0.3748901E-03  0.1090256E+04  0.7818609E-02  0.9214741E-01
        2   -1    0    0  501    0  0.00000000000E+00  0.00000000000E+00  0.33481626706E+03  0.33481626707E+03  0.25500000920E-02 0.  1.
       -2   -1    0    0    0  501  0.00000000000E+00  0.00000000000E+00 -0.88754525564E+03  0.88754525565E+03  0.25500000920E-02 0. -1.
    10030    2    1    2    0    0  0.00000000000E+00  0.00000000000E+00 -0.55272898858E+03  0.12223615227E+04  0.10902560972E+04 0.  0.
        5    1    3    3  502    0  0.44246655231E+03  0.31243726138E+03 -0.20771810539E+03  0.58014014989E+03  0.46999998093E+01 0. -1.
       -5    1    3    3    0  502 -0.44246655231E+03 -0.31243726138E+03 -0.34501088319E+03  0.64222137283E+03  0.46999998093E+01 0.  1.
</event>
<event>
 5   0  0.2298958E-03  0.1096206E+04  0.7818609E-02  0.9208898E-01
       -1   -1    0    0    0  501  0.00000000000E+00  0.00000000000E+00  0.17145172486E+03  0.17145172494E+03  0.50400001928E-02 0. -1.
        1   -1    0    0  501    0  0.00000000000E+00  0.00000000000E+00 -0.17521941235E+04  0.17521941235E+04  0.50400001928E-02 0.  1.
    10030    2    1    2    0    0  0.00000000000E+00  0.00000000000E+00 -0.15807423987E+04  0.19236458485E+04  0.10962056465E+04 0.  0.
        1    1    3    3  502    0 -0.22082387720E+03 -0.46582074079E+03 -0.11170913460E+04  0.12303028987E+04  0.50400001928E-02 0.  1.
       -1    1    3    3    0  502  0.22082387720E+03  0.46582074079E+03 -0.46365105267E+03  0.69334294974E+03  0.50400001928E-02 0. -1.
</event>
<event>
 5   0  0.3713158E-03  0.1101891E+04  0.7818609E-02  0.9203350E-01
        2   -1    0    0  501    0  0.00000000000E+00  0.00000000000E+00  0.72367013301E+03  0.72367013301E+03  0.25500000920E-02 0. -1.
       -2   -1    0    0    0  501  0.00000000000E+00  0.00000000000E+00 -0.41944684561E+03  0.41944684562E+03  0.25500000920E-02 0.  1.
    10030    2    1    2    0    0  0.00000000000E+00  0.00000000000E+00  0.30422328739E+03  0.11431169786E+04  0.11018913822E+04 0.  0.
        4    1    3    3  502    0 -0.33105287871E+03 -0.10276403510E+03  0.59636582857E+03  0.68979001862E+03  0.12699999809E+01 0. -1.
       -4    1    3    3    0  502  0.33105287871E+03  0.10276403510E+03 -0.29214254117E+03  0.45332696001E+03  0.12699999809E+01 0.  1.
</event>
<event>
 5   0  0.2255788E-03  0.1110108E+04  0.7818609E-02  0.9195396E-01
        1   -1    0    0  501    0  0.00000000000E+00  0.00000000000E+00  0.94528489169E+03  0.94528489170E+03  0.50400001928E-02 0. -1.
       -1   -1    0    0    0  501  0.00000000000E+00  0.00000000000E+00 -0.32591736259E+03  0.32591736263E+03  0.50400001928E-02 0.  1.
    10030    2    1    2    0    0  0.00000000000E+00  0.00000000000E+00  0.61936752909E+03  0.12712022543E+04  0.11101076684E+04 0.  0.
        3    1    3    3  502    0  0.72896630932E+02  0.31867752446E+03 -0.20398153755E+03  0.38532812155E+03  0.10100000352E+00 0.  1.
       -3    1    3    3    0  502 -0.72896630932E+02 -0.31867752446E+03  0.82334906664E+03  0.88587413278E+03  0.10100000352E+00 0. -1.
</event>
<event>
 5   0  0.2374100E-03  0.1094739E+04  0.7818609E-02  0.9210335E-01
       -1   -1    0    0    0  501  0.00000000000E+00  0.00000000000E+00  0.40196371174E+03  0.40196371177E+03  0.50400001928E-02 0.  1.
        1   -1    0    0  501    0  0.00000000000E+00  0.00000000000E+00 -0.74537437388E+03  0.74537437390E+03  0.50400001928E-02 0. -1.
    10030    2    1    2    0    0  0.00000000000E+00  0.00000000000E+00 -0.34341066214E+03  0.11473380857E+04  0.10947391470E+04 0.  0.
        2    1    3    3  502    0  0.97979654013E+01 -0.51285669400E+03  0.28511318863E+02  0.51374204034E+03  0.25500000920E-02 0. -1.
       -2    1    3    3    0  502 -0.97979654013E+01  0.51285669400E+03 -0.37192198100E+03  0.63359604533E+03  0.25500000920E-02 0.  1.
</event>
<event>
 5   0  0.2257667E-03  0.1107855E+04  0.7818609E-02  0.9197570E-01
        1   -1    0    0  501    0  0.00000000000E+00  0.00000000000E+00  0.96413280666E+03  0.96413280668E+03  0.50400001928E-02 0.  1.
       -1   -1    0    0    0  501  0.00000000000E+00  0.00000000000E+00 -0.31825032514E+03  0.31825032518E+03  0.50400001928E-02 0. -1.
    10030    2    1    2    0    0  0.00000000000E+00  0.00000000000E+00  0.64588248152E+03  0.12823831319E+04  0.11078548267E+04 0.  0.
        4    1    3    3  502    0 -0.41163532733E+03 -0.58199197907E+02  0.74667443809E+03  0.85460816678E+03  0.12699999809E+01 0.  1.
       -4    1    3    3    0  502  0.41163532733E+03  0.58199197907E+02 -0.10079195657E+03  0.42777496508E+03  0.12699999809E+01 0. -1.
</event>
<event>
 5   0  0.3713158E-03  0.1107390E+04  0.7818609E-02  0.9198019E-01
        2   -1    0    0  501    0  0.00000000000E+00  0.00000000000E+00  0.82058985524E+03  0.82058985525E+03  0.25500000920E-02 0. -1.
       -2   -1    0    0    0  501  0.00000000000E+00  0.00000000000E+00 -0.37360726834E+03  0.37360726835E+03  0.25500000920E-02 0.  1.
    10030    2    1    2    0    0  0.00000000000E+00  0.00000000000E+00  0.44698258691E+03  0.11941971236E+04  0.11073903273E+04 0.  0.
        4    1    3    3  502    0  0.99189375357E+02  0.16510117858E+03  0.78329838422E+03  0.80663182616E+03  0.12699999809E+01 0. -1.
       -4    1    3    3    0  502 -0.99189375357E+02 -0.16510117858E+03 -0.33631579732E+03  0.38756529743E+03  0.12699999809E+01 0.  1.
</event>
<event>
 5   0  0.2300702E-03  0.1112004E+04  0.7818609E-02  0.9193570E-01
        1   -1    0    0  501    0  0.00000000000E+00  0.00000000000E+00  0.13128648250E+04  0.13128648250E+04  0.50400001928E-02 0. -1.
       -1   -1    0    0    0  501  0.00000000000E+00  0.00000000000E+00 -0.23546843724E+03  0.23546843730E+03  0.50400001928E-02 0.  1.
    10030    2    1    2    0    0  0.00000000000E+00  0.00000000000E+00  0.10773963878E+04  0.15483332623E+04  0.11120040085E+04 0.  0.
        5    1    3    3  502    0 -0.32228474024E+02 -0.31468952519E+02  0.13102923441E+04  0.13110747830E+04  0.46999998093E+01 0. -1.
       -5    1    3    3    0  502  0.32228474024E+02  0.31468952519E+02 -0.23289595638E+03  0.23725847931E+03  0.46999998093E+01 0.  1.
</event>
<event>
 5   0  0.2255788E-03  0.1076474E+04  0.7818609E-02  0.9228431E-01
        1   -1    0    0  501    0  0.00000000000E+00  0.00000000000E+00  0.10296766440E+04  0.10296766440E+04  0.50400001928E-02 0.  1.
       -1   -1    0    0    0  501  0.00000000000E+00  0.00000000000E+00 -0.28134933363E+03  0.28134933368E+03  0.50400001928E-02 0. -1.
    10030    2    1    2    0    0  0.00000000000E+00  0.00000000000E+00  0.74832731033E+03  0.13110259776E+04  0.10764735718E+04 0.  0.
        3    1    3    3  502    0  0.34942890941E+03  0.24975223156E+03  0.76922212938E+03  0.88101046215E+03  0.10100000352E+00 0.  1.
       -3    1    3    3    0  502 -0.34942890941E+03 -0.24975223156E+03 -0.20894819050E+02  0.43001551549E+03  0.10100000352E+00 0. -1.
</event>
<event>
 5   0  0.2300702E-03  0.1126341E+04  0.7818609E-02  0.9179892E-01
       -1   -1    0    0    0  501  0.00000000000E+00  0.00000000000E+00  0.45907204187E+03  0.45907204190E+03  0.50400001928E-02 0. -1.
        1   -1    0    0  501    0  0.00000000000E+00  0.00000000000E+00 -0.69087378841E+03  0.69087378843E+03  0.50400001928E-02 0.  1.
    10030    2    1    2    0    0  0.00000000000E+00  0.00000000000E+00 -0.23180174654E+03  0.11499458303E+04  0.11263406958E+04 0.  0.
        5    1    3    3  502    0 -0.38860732697E+03  0.23849070684E+03  0.22154874866E+03  0.50695109217E+03  0.46999998093E+01 0. -1.
       -5    1    3    3    0  502  0.38860732697E+03 -0.23849070684E+03 -0.45335049519E+03  0.64299473817E+03  0.46999998093E+01 0.  1.
</event>
<event>
 5   0  0.3748901E-03  0.1098176E+04  0.7818609E-02  0.9206971E-01
       -2   -1    0    0    0  501  0.00000000000E+00  0.00000000000E+00  0.27446674729E+03  0.27446674730E+03  0.25500000920E-02 0.  1.
        2   -1    0    0  501    0  0.00000000000E+00  0.00000000000E+00 -0.10984855564E+04  0.10984855564E+04  0.25500000920E-02 0. -1.
    10030    2    1    2    0    0  0.00000000000E+00  0.00000000000E+00 -0.82401880908E+03  0.13729523037E+04  0.10981762292E+04 0.  0.
        5    1    3    3  502    0 -0.13225369770E+03 -0.57195395764E+02 -0.10744011576E+04  0.10840305767E+04  0.46999998093E+01 0. -1.
       -5    1    3    3    0  502  0.13225369770E+03  0.57195395764E+02  0.25038234851E+03  0.28892172694E+03  0.46999998093E+01 0.  1.
</event>
<event>
 5   0  0.3992414E-03  0.1096942E+04  0.7818609E-02  0.9208178E-01
       -2   -1    0    0    0  501  0.00000000000E+00  0.00000000000E+00  0.16726470153E+03  0.16726470155E+03  0.25500000920E-02 0. -1.
        2   -1    0    0  501    0  0.00000000000E+00  0.00000000000E+00 -0.17984687041E+04  0.17984687041E+04  0.25500000920E-02 0.  1.
    10030    2    1    2    0    0  0.00000000000E+00  0.00000000000E+00 -0.16312040025E+04  0.19657334056E+04  0.10969418053E+04 0.  0.
        1    1    3    3  502    0  0.55440064334E+02 -0.25059024941E+03 -0.16842221850E+04  0.17036647094E+04  0.50400001928E-02 0.  1.
       -1    1    3    3    0  502 -0.55440064334E+02  0.25059024941E+03  0.53018182425E+02  0.26206869619E+03  0.50400001928E-02 0. -1.
</event>
<event>
 5   0  0.2374100E-03  0.1094547E+04  0.7818609E-02  0.9210523E-01
        1   -1    0    0  501    0  0.00000000000E+00  0.00000000000E+00  0.40506931291E+03  0.40506931294E+03  0.50400001928E-02 0. -1.
       -1   -1    0    0    0  501  0.00000000000E+00  0.00000000000E+00 -0.73940021215E+03  0.73940021217E+03  0.50400001928E-02 0.  1.
    10030    2    1    2    0    0  0.00000000000E+00  0.00000000000E+00 -0.33433089924E+03  0.11444695251E+04  0.10945470953E+04 0.  0.
        2    1    3    3  502    0 -0.38268308904E+03 -0.29119435081E+03 -0.44036366553E+03  0.65204344526E+03  0.25500000920E-02 0.  1.
       -2    1    3    3    0  502  0.38268308904E+03  0.29119435081E+03  0.10603276629E+03  0.49242607985E+03  0.25500000920E-02 0. -1.
</event>
<event>
 5   0  0.3748901E-03  0.1098327E+04  0.7818609E-02  0.9206824E-01
       -2   -1    0    0    0  501  0.00000000000E+00  0.00000000000E+00  0.12067641476E+03  0.12067641479E+03  0.25500000920E-02 0. -1.
        2   -1    0    0  501    0  0.00000000000E+00  0.00000000000E+00 -0.24990863346E+04  0.24990863346E+04  0.25500000920E-02 0.  1.
    10030    2    1    2    0    0  0.00000000000E+00  0.00000000000E+00 -0.23784099198E+04  0.26197627494E+04  0.10983274176E+04 0.  0.
        5    1    3    3  502    0  0.78118139729E+02  0.44716031562E+03 -0.45208073324E+03  0.64066673941E+03  0.46999998093E+01 0.  1.
       -5    1    3    3    0  502 -0.78118139729E+02 -0.44716031562E+03 -0.19263291866E+04  0.19790960100E+04  0.46999998093E+01 0. -1.
</event>
<event>
 5   0  0.3992414E-03  0.1088595E+04  0.7818609E-02  0.9216380E-01
       -2   -1    0    0    0  501  0.00000000000E+00  0.00000000000E+00  0.16277781241E+03  0.16277781243E+03  0.25500000920E-02 0. -1.
        2   -1    0    0  501    0  0.00000000000E+00  0.00000000000E+00 -0.18200244916E+04  0.18200244916E+04  0.25500000920E-02 0.  1.
    10030    2    1    2    0    0  0.00000000000E+00  0.00000000000E+00 -0.16572466792E+04  0.19828023040E+04  0.10885947001E+04 0.  0.
        1    1    3    3  502    0  0.43796551163E+03 -0.31951954031E+03 -0.91697840990E+03  0.10652492339E+04  0.50400001928E-02 0.  1.
       -1    1    3    3    0  502 -0.43796551163E+03  0.31951954031E+03 -0.74026826928E+03  0.91755307015E+03  0.50400001928E-02 0. -1.
</event>
<event>
 5   0  0.1508625E-03  0.1114087E+04  0.7818609E-02  0.9191569E-01
       -3   -1    0    0    0  501  0.00000000000E+00  0.00000000000E+00  0.54276084714E+03  0.54276085654E+03  0.10100000352E+00 0. -1.
        3   -1    0    0  501    0  0.00000000000E+00  0.00000000000E+00 -0.57170219662E+03  0.57170220555E+03  0.10100000352E+00 0.  1.
    10030    2    1    2    0    0  0.00000000000E+00  0.00000000000E+00 -0.28941349481E+02  0.11144630621E+04  0.11140872116E+04 0.  0.
        4    1    3    3  502    0 -0.22747934202E+03  0.29374851835E+03  0.40071262322E+03  0.54644968880E+03  0.12699999809E+01 0. -1.
       -4    1    3    3    0  502  0.22747934202E+03 -0.29374851835E+03 -0.42965397270E+03  0.56801337329E+03  0.12699999809E+01 0.  1.
</event>
<event>
 5   0  0.3992414E-03  0.1096678E+04  0.7818609E-02  0.9208435E-01
        2   -1    0    0  501    0  0.00000000000E+00  0.00000000000E+00  0.79172036271E+03  0.79172036272E+03  0.25500000920E-02 0.  1.
       -2   -1    0    0    0  501  0.00000000000E+00  0.00000000000E+00 -0.37977537544E+03  0.37977537545E+03  0.25500000920E-02 0. -1.
    10030    2    1    2    0    0  0.00000000000E+00  0.00000000000E+00  0.41194498727E+03  0.11714957382E+04  0.10966784360E+04 0.  0.
        1    1    3    3  502    0  0.38792479642E+03  0.76033598740E+02 -0.19996461406E+03  0.44300406626E+03  0.50400001928E-02 0. -1.
       -1    1    3    3    0  502 -0.38792479642E+03 -0.76033598740E+02  0.61190960133E+03  0.72849167191E+03  0.50400001928E-02 0.  1.
</event>
<event>
 5   0  0.3962999E-03  0.1098649E+04  0.7818609E-02  0.9206510E-01
        2   -1    0    0  501    0  0.00000000000E+00  0.00000000000E+00  0.30170536351E+03  0.30170536353E+03  0.25500000920E-02 0. -1.
       -2   -1    0    0    0  501  0.00000000000E+00  0.00000000000E+00 -0.10001716046E+04  0.10001716046E+04  0.25500000920E-02 0.  1.
    10030    2    1    2    0    0  0.00000000000E+00  0.00000000000E+00 -0.69846624111E+03  0.13018769682E+04  0.10986485108E+04 0.  0.
        3    1    3    3  502    0 -0.43446491815E+03  0.33369709571E+03 -0.30119227580E+03  0.62516422961E+03  0.10100000352E+00 0. -1.
       -3    1    3    3    0  502  0.43446491815E+03 -0.33369709571E+03 -0.39727396531E+03  0.67671273854E+03  0.10100000352E+00 0.  1.
</event>
<event>
 5   0  0.2257667E-03  0.1043694E+04  0.7818609E-02  0.9261879E-01
       -1   -1    0    0    0  501  0.00000000000E+00  0.00000000000E+00  0.79472750656E+03  0.79472750658E+03  0.50400001928E-02 0.  1.
        1   -1    0    0  501    0  0.00000000000E+00  0.00000000000E+00 -0.34266353214E+03  0.34266353218E+03  0.50400001928E-02 0. -1.
    10030    2    1    2    0    0  0.00000000000E+00  0.00000000000E+00  0.45206397442E+03  0.11373910388E+04  0.10436936994E+04 0.  0.
        4    1    3    3  502    0 -0.26120782036E+03 -0.45159585124E+03  0.23956378438E+03  0.57407382623E+03  0.12699999809E+01 0. -1.
       -4    1    3    3    0  502  0.26120782036E+03  0.45159585124E+03  0.21250019004E+03  0.56331721253E+03  0.12699999809E+01 0.  1.
</event>
<event>
 5   0  0.2257667E-03  0.1096391E+04  0.7818609E-02  0.9208716E-01
       -1   -1    0    0    0  501  0.00000000000E+00  0.00000000000E+00  0.61495875778E+03  0.61495875780E+03  0.50400001928E-02 0. -1.
        1   -1    0    0  501    0  0.00000000000E+00  0.00000000000E+00 -0.48868052717E+03  0.48868052720E+03  0.50400001928E-02 0.  1.
    10030    2    1    2    0    0  0.00000000000E+00  0.00000000000E+00  0.12627823061E+03  0.11036392850E+04  0.10963911163E+04 0.  0.
        4    1    3    3  502    0 -0.48432898353E+01 -0.27337590525E+03  0.54142118168E+03  0.60654460010E+03  0.12699999809E+01 0. -1.
       -4    1    3    3    0  502  0.48432898353E+01  0.27337590525E+03 -0.41514295108E+03  0.49709468490E+03  0.12699999809E+01 0.  1.
</event>
<event>
 5   0  0.2298958E-03  0.1109695E+04  0.7818609E-02  0.9195794E-01
        1   -1    0    0  501    0  0.00000000000E+00  0.00000000000E+00  0.17519067821E+04  0.17519067821E+04  0.50400001928E-02 0. -1.
       -1   -1    0    0    0  501  0.00000000000E+00  0.00000000000E+00 -0.17572606777E+03  0.17572606784E+03  0.50400001928E-02 0.  1.
    10030    2    1    2    0    0  0.00000000000E+00  0.00000000000E+00  0.15761807143E+04  0.19276328499E+04  0.11096948950E+04 0.  0.
        1    1    3    3  502    0 -0.99229836970E+02 -0.10944264034E+02 -0.15999670662E+03  0.18858760197E+03  0.50400001928E-02 0.  1.
       -1    1    3    3    0  502  0.99229836970E+02  0.10944264034E+02  0.17361774209E+04  0.17390452480E+04  0.50400001928E-02 0. -1.
</event>
<event>
 5   0  0.3748901E-03  0.1065609E+04  0.7818609E-02  0.9239376E-01
        2   -1    0    0  501    0  0.00000000000E+00  0.00000000000E+00  0.48909342700E+03  0.48909342700E+03  0.25500000920E-02 0. -1.
       -2   -1    0    0    0  501  0.00000000000E+00  0.00000000000E+00 -0.58042156133E+03  0.58042156134E+03  0.25500000920E-02 0.  1.
    10030    2    1    2    0    0  0.00000000000E+00  0.00000000000E+00 -0.91328134334E+02  0.10695149883E+04  0.10656085032E+04 0.  0.
        5    1    3    3  502    0  0.50810897682E+03 -0.56129203093E+02  0.10499639382E+03  0.52189228053E+03  0.46999998093E+01 0. -1.
       -5    1    3    3    0  502 -0.50810897682E+03  0.56129203093E+02 -0.19632452815E+03  0.54762270781E+03  0.46999998093E+01 0.  1.
</event>
<event>
 5   0  0.2298958E-03  0.1127044E+04  0.7818609E-02  0.9179227E-01
       -1   -1    0    0    0  501  0.00000000000E+00  0.00000000000E+00  0.66209913105E+03  0.66209913107E+03  0.50400001928E-02 0.  1.
        1   -1    0    0  501    0  0.00000000000E+00  0.00000000000E+00 -0.47962120593E+03  0.47962120596E+03  0.50400001928E-02 0. -1.
    10030    2    1    2    0    0  0.00000000000E+00  0.00000000000E+00  0.18247792512E+03  0.11417203370E+04  0.11270435372E+04 0.  0.
        1    1    3    3  502    0 -0.55752716957E+02  0.35881723948E+03 -0.34530035672E+03  0.50108932654E+03  0.50400001928E-02 0. -1.
       -1    1    3    3    0  502  0.55752716957E+02 -0.35881723948E+03  0.52777828184E+03  0.64063101049E+03  0.50400001928E-02 0.  1.
</event>
<event>
 5   0  0.1508625E-03  0.1092554E+04  0.7818609E-02  0.9212480E-01
        3   -1    0    0  501    0  0.00000000000E+00  0.00000000000E+00  0.75291110851E+03  0.75291111529E+03  0.10100000352E+00 0. -1.
       -3   -1    0    0    0  501  0.00000000000E+00  0.00000000000E+00 -0.39635308402E+03  0.39635309689E+03  0.10100000352E+00 0.  1.
    10030    2    1    2    0    0  0.00000000000E+00  0.00000000000E+00  0.35655802449E+03  0.11492642122E+04  0.10925541655E+04 0.  0.
        1    1    3    3  502    0 -0.13556399420E+03 -0.48573194848E+03  0.39919310552E+03  0.64317047337E+03  0.50400001928E-02 0. -1.
       -1    1    3    3    0  502  0.13556399420E+03  0.48573194848E+03 -0.42635081029E+02  0.50609373880E+03  0.50400001928E-02 0.  1.
</event>
<event>
 5   0  0.3748901E-03  0.1103937E+04  0.7818609E-02  0.9201363E-01
       -2   -1    0    0    0  501  0.00000000000E+00  0.00000000000E+00  0.26776794431E+03  0.26776794433E+03  0.25500000920E-02 0.  1.
        2   -1    0    0  501    0  0.00000000000E+00  0.00000000000E+00 -0.11378113371E+04  0.11378113371E+04  0.25500000920E-02 0. -1.
    10030    2    1    2    0    0  0.00000000000E+00  0.00000000000E+00 -0.87004339275E+03  0.14055792814E+04  0.11039373220E+04 0.  0.
        5    1    3    3  502    0  0.32543028214E+02  0.50299431022E+02 -0.11336339254E+04  0.11352255495E+04  0.46999998093E+01 0. -1.
       -5    1    3    3    0  502 -0.32543028214E+02 -0.50299431022E+02  0.26359053265E+03  0.27035373189E+03  0.46999998093E+01 0.  1.
</event>
<event>
 5   0  0.3992414E-03  0.1122071E+04  0.7818609E-02  0.9183943E-01
       -2   -1    0    0    0  501  0.00000000000E+00  0.00000000000E+00  0.10202688321E+04  0.10202688321E+04  0.25500000920E-02 0. -1.
        2   -1    0    0  501    0  0.00000000000E+00  0.00000000000E+00 -0.30850754913E+03  0.30850754914E+03  0.25500000920E-02 0.  1.
    10030    2    1    2    0    0  0.00000000000E+00  0.00000000000E+00  0.71176128296E+03  0.13287763812E+04  0.11220706517E+04 0.  0.
        1    1    3    3  502    0 -0.51685785799E+03  0.21491905194E+03  0.40063707677E+03  0.68836204976E+03  0.50400001928E-02 0. -1.
       -1    1    3    3    0  502  0.51685785799E+03 -0.21491905194E+03  0.31112420619E+03  0.64041433147E+03  0.50400001928E-02 0.  1.
</event>
<event>
 5   0  0.3713158E-03  0.1086881E+04  0.7818609E-02  0.9218073E-01
        2   -1    0    0  501    0  0.00000000000E+00  0.00000000000E+00  0.17488041756E+04  0.17488041756E+04  0.25500000920E-02 0. -1.
       -2   -1    0    0    0  501  0.00000000000E+00  0.00000000000E+00 -0.16887411339E+03  0.16887411341E+03  0.25500000920E-02 0.  1.
    10030    2    1    2    0    0  0.00000000000E+00  0.00000000000E+00  0.15799300622E+04  0.19176782890E+04  0.10868813268E+04 0.  0.
        4    1    3    3  502    0 -0.10050349526E+03  0.19265646712E+03 -0.88884648225E+02  0.23477555340E+03  0.12699999809E+01 0.  1.
       -4    1    3    3    0  502  0.10050349526E+03 -0.19265646712E+03  0.16688147104E+04  0.16829027356E+04  0.12699999809E+01 0. -1.
</event>
<event>
 5   0  0.3748901E-03  0.1099996E+04  0.7818609E-02  0.9205196E-01
       -2   -1    0    0    0  501  0.00000000000E+00  0.00000000000E+00  0.21699906787E+03  0.21699906789E+03  0.25500000920E-02 0.  1.
        2   -1    0    0  501    0  0.00000000000E+00  0.00000000000E+00 -0.13940054404E+04  0.13940054404E+04  0.25500000920E-02 0. -1.
    10030    2    1    2    0    0  0.00000000000E+00  0.00000000000E+00 -0.11770063725E+04  0.16110045082E+04  0.10999961476E+04 0.  0.
        5    1    3    3  502    0  0.48099037798E+03 -0.11403564030E+03 -0.23542726879E+03  0.54754356891E+03  0.46999998093E+01 0.  1.
       -5    1    3    3    0  502 -0.48099037798E+03  0.11403564030E+03 -0.94157910370E+03  0.10634609393E+04  0.46999998093E+01 0. -1.
</event>
<event>
 5   0  0.2257667E-03  0.1098059E+04  0.7818609E-02  0.9207085E-01
       -1   -1    0    0    0  501  0.00000000000E+00  0.00000000000E+00  0.54237606546E+03  0.54237606549E+03  0.50400001928E-02 0. -1.
        1   -1    0    0  501    0  0.00000000000E+00  0.00000000000E+00 -0.55576485424E+03  0.55576485426E+03  0.50400001928E-02 0.  1.
    10030    2    1    2    0    0  0.00000000000E+00  0.00000000000E+00 -0.13388788775E+02  0.10981409197E+04  0.10980592971E+04 0.  0.
        4    1    3    3  502    0 -0.20016278185E+03 -0.36880755980E+03  0.34737681662E+03  0.54475354155E+03  0.12699999809E+01 0. -1.
       -4    1    3    3    0  502  0.20016278185E+03  0.36880755980E+03 -0.36076560539E+03  0.55338737819E+03  0.12699999809E+01 0.  1.
</event>
<event>
 5   0  0.3992414E-03  0.1087813E+04  0.7818609E-02  0.9217152E-01
        2   -1    0    0  501    0  0.00000000000E+00  0.00000000000E+00  0.54720202241E+03  0.54720202242E+03  0.25500000920E-02 0. -1.
       -2   -1    0    0    0  501  0.00000000000E+00  0.00000000000E+00 -0.54063124291E+03  0.54063124292E+03  0.25500000920E-02 0.  1.
    10030    2    1    2    0    0  0.00000000000E+00  0.00000000000E+00  0.65707795020E+01  0.10878332653E+04  0.10878134206E+04 0.  0.
        1    1    3    3  502    0 -0.53109415612E+03 -0.45617046377E+02 -0.10484887176E+03  0.54326347523E+03  0.50400001928E-02 0.  1.
       -1    1    3    3    0  502  0.53109415612E+03  0.45617046377E+02  0.11141965126E+03  0.54456979011E+03  0.50400001928E-02 0. -1.
</event>
<event>
 5   0  0.2257667E-03  0.1093763E+04  0.7818609E-02  0.9211292E-01
       -1   -1    0    0    0  501  0.00000000000E+00  0.00000000000E+00  0.17349295894E+03  0.17349295901E+03  0.50400001928E-02 0. -1.
        1   -1    0    0  501    0  0.00000000000E+00  0.00000000000E+00 -0.17238706733E+04  0.17238706733E+04  0.50400001928E-02 0.  1.
    10030    2    1    2    0    0  0.00000000000E+00  0.00000000000E+00 -0.15503777144E+04  0.18973636323E+04  0.10937630895E+04 0.  0.
        4    1    3    3  502    0  0.15325354986E+02  0.32528484902E+03 -0.13034802817E+02  0.32590891134E+03  0.12699999809E+01 0. -1.
       -4    1    3    3    0  502 -0.15325354986E+02 -0.32528484902E+03 -0.15373429115E+04  0.15714547210E+04  0.12699999809E+01 0.  1.
</event>
<event>
 5   0  0.2374100E-03  0.1091318E+04  0.7818609E-02  0.9213695E-01
       -1   -1    0    0    0  501  0.00000000000E+00  0.00000000000E+00  0.20870254176E+03  0.20870254182E+03  0.50400001928E-02 0.  1.
        1   -1    0    0  501    0  0.00000000000E+00  0.00000000000E+00 -0.14266427171E+04  0.14266427171E+04  0.50400001928E-02 0. -1.
    10030    2    1    2    0    0  0.00000000000E+00  0.00000000000E+00 -0.12179401753E+04  0.16353452589E+04  0.10913183977E+04 0.  0.
        2    1    3    3  502    0  0.30639986648E+03 -0.89456337200E+02 -0.12721503187E+04  0.13115829169E+04  0.25500000920E-02 0. -1.
       -2    1    3    3    0  502 -0.30639986648E+03  0.89456337200E+02  0.54210143424E+02  0.32376234200E+03  0.25500000920E-02 0.  1.
</event>
<event>
 5   0  0.1508625E-03  0.1101603E+04  0.7818609E-02  0.9203631E-01
       -4   -1    0    0    0  501  0.00000000000E+00  0.00000000000E+00  0.47332853806E+03  0.47333024185E+03  0.12699999809E+01 0.  1.
        4   -1    0    0  501    0  0.00000000000E+00  0.00000000000E+00 -0.64095140986E+03  0.64095266807E+03  0.12699999809E+01 0. -1.
    10030    2    1    2    0    0  0.00000000000E+00  0.00000000000E+00 -0.16762287180E+03  0.11142829099E+04  0.11016029122E+04 0.  0.
        4    1    3    3  502    0  0.19501065133E+02 -0.45904534008E+03 -0.39108048123E+03  0.60336429418E+03  0.12699999809E+01 0. -1.
       -4    1    3    3    0  502 -0.19501065133E+02  0.45904534008E+03  0.22345760943E+03  0.51091861573E+03  0.12699999809E+01 0.  1.
</event>
<event>
 5   0  0.2298958E-03  0.1091447E+04  0.7818609E-02  0.9213569E-01
        1   -1    0    0  501    0  0.00000000000E+00  0.00000000000E+00  0.70261423212E+03  0.70261423214E+03  0.50400001928E-02 0. -1.
       -1   -1    0    0    0  501  0.00000000000E+00  0.00000000000E+00 -0.42386544104E+03  0.42386544107E+03  0.50400001928E-02 0.  1.
    10030    2    1    2    0    0  0.00000000000E+00  0.00000000000E+00  0.27874879108E+03  0.11264796732E+04  0.10914465473E+04 0.  0.
        1    1    3    3  502    0  0.19075747573E+03  0.39040085187E+02 -0.38679447993E+03  0.43303869634E+03  0.50400001928E-02 0.  1.
       -1    1    3    3    0  502 -0.19075747573E+03 -0.39040085187E+02  0.66554327101E+03  0.69344097687E+03  0.50400001928E-02 0. -1.
</event>
<event>
 5   0  0.2257667E-03  0.1095736E+04  0.7818609E-02  0.9209358E-01
        1   -1    0    0  501    0  0.00000000000E+00  0.00000000000E+00  0.88375836116E+03  0.88375836117E+03  0.50400001928E-02 0.  1.
       -1   -1    0    0    0  501  0.00000000000E+00  0.00000000000E+00 -0.33963933177E+03  0.33963933181E+03  0.50400001928E-02 0. -1.
    10030    2    1    2    0    0  0.00000000000E+00  0.00000000000E+00  0.54411902938E+03  0.12233976930E+04  0.10957355507E+04 0.  0.
        4    1    3    3  502    0 -0.22251598893E+03  0.39828746615E+03 -0.66614821603E+02  0.46106986280E+03  0.12699999809E+01 0. -1.
       -4    1    3    3    0  502  0.22251598893E+03 -0.39828746615E+03  0.61073385099E+03  0.76232783018E+03  0.12699999809E+01 0.  1.
</event>
<event>
 5   0  0.3713158E-03  0.1094236E+04  0.7818609E-02  0.9210828E-01
        2   -1    0    0  501    0  0.00000000000E+00  0.00000000000E+00  0.15962288504E+04  0.15962288504E+04  0.25500000920E-02 0. -1.
       -2   -1    0    0    0  501  0.00000000000E+00  0.00000000000E+00 -0.18752841581E+03  0.18752841583E+03  0.25500000920E-02 0.  1.
    10030    2    1    2    0    0  0.00000000000E+00  0.00000000000E+00  0.14087004346E+04  0.17837572663E+04  0.10942362955E+04 0.  0.
        4    1    3    3  502    0 -0.58941079850E+02 -0.30258346767E+03 -0.32475947090E+02  0.30997920227E+03  0.12699999809E+01 0.  1.
       -4    1    3    3    0  502  0.58941079850E+02  0.30258346767E+03  0.14411763817E+04  0.14737780640E+04  0.12699999809E+01 0. -1.
</event>
<event>
 5   0  0.3744875E-03  0.1100283E+04  0.7818609E-02  0.9204916E-01
       -2   -1    0    0    0  501  0.00000000000E+00  0.00000000000E+00  0.43866250680E+03  0.43866250681E+03  0.25500000920E-02 0.  1.
        2   -1    0    0  501    0  0.00000000000E+00  0.00000000000E+00 -0.68995163831E+03  0.68995163831E+03  0.25500000920E-02 0. -1.
    10030    2    1    2    0    0  0.00000000000E+00  0.00000000000E+00 -0.25128913151E+03  0.11286141451E+04  0.11002834457E+04 0.  0.
        2    1    3    3  502    0 -0.31231698404E+03 -0.36130515731E+03 -0.40575581657E+03  0.62667463480E+03  0.25500000920E-02 0. -1.
       -2    1    3    3    0  502  0.31231698404E+03  0.36130515731E+03  0.15446668506E+03  0.50193951032E+03  0.25500000920E-02 0.  1.
</event>
<event>
 5   0  0.2255788E-03  0.1107529E+04  0.7818609E-02  0.9197885E-01
        1   -1    0    0  501    0  0.00000000000E+00  0.00000000000E+00  0.88546228046E+03  0.88546228048E+03  0.50400001928E-02 0.  1.
       -1   -1    0    0    0  501  0.00000000000E+00  0.00000000000E+00 -0.34632184388E+03  0.34632184391E+03  0.50400001928E-02 0. -1.
    10030    2    1    2    0    0  0.00000000000E+00  0.00000000000E+00  0.53914043659E+03  0.12317841244E+04  0.11075286537E+04 0.  0.
        3    1    3    3  502    0  0.36622049019E+03 -0.41261538003E+03  0.21639372870E+03  0.59261720807E+03  0.10100000352E+00 0. -1.
       -3    1    3    3    0  502 -0.36622049019E+03  0.41261538003E+03  0.32274670788E+03  0.63916691632E+03  0.10100000352E+00 0.  1.
</event>
<event>
 5   0  0.3744875E-03  0.1130310E+04  0.7818609E-02  0.9176143E-01
       -2   -1    0    0    0  501  0.00000000000E+00  0.00000000000E+00  0.38330861067E+03  0.38330861068E+03  0.25500000920E-02 0.  1.
        2   -1    0    0  501    0  0.00000000000E+00  0.00000000000E+00 -0.83327105017E+03  0.83327105017E+03  0.25500000920E-02 0. -1.
    10030    2    1    2    0    0  0.00000000000E+00  0.00000000000E+00 -0.44996243950E+03  0.12165796609E+04  0.11303096364E+04 0.  0.
        2    1    3    3  502    0 -0.50828980163E+03  0.73261301486E+02 -0.47894408746E+03  0.70222017891E+03  0.25500000920E-02 0. -1.
       -2    1    3    3    0  502  0.50828980163E+03 -0.73261301486E+02  0.28981647961E+02  0.51435948194E+03  0.25500000920E-02 0.  1.
</event>
<event>
 5   0  0.2300702E-03  0.1113404E+04  0.7818609E-02  0.9192225E-01
        1   -1    0    0  501    0  0.00000000000E+00  0.00000000000E+00  0.51921346182E+03  0.51921346184E+03  0.50400001928E-02 0. -1.
       -1   -1    0    0    0  501  0.00000000000E+00  0.00000000000E+00 -0.59689764528E+03  0.59689764530E+03  0.50400001928E-02 0.  1.
    10030    2    1    2    0    0  0.00000000000E+00  0.00000000000E+00 -0.77684183463E+02  0.11161111071E+04  0.11134043161E+04 0.  0.
        5    1    3    3  502    0 -0.17678357537E+03  0.31565868734E+03 -0.46295736452E+03  0.58757505969E+03  0.46999998093E+01 0.  1.
       -5    1    3    3    0  502  0.17678357537E+03 -0.31565868734E+03  0.38527318106E+03  0.52853604745E+03  0.46999998093E+01 0. -1.
</event>
<event>
 5   0  0.3992414E-03  0.1033311E+04  0.7818609E-02  0.9272746E-01
        2   -1    0    0  501    0  0.00000000000E+00  0.00000000000E+00  0.88865880751E+03  0.88865880751E+03  0.25500000920E-02 0.  1.
       -2   -1    0    0    0  501  0.00000000000E+00  0.00000000000E+00 -0.30037699894E+03  0.30037699895E+03  0.25500000920E-02 0. -1.
    10030    2    1    2    0    0  0.00000000000E+00  0.00000000000E+00  0.58828180857E+03  0.11890358065E+04  0.10333105355E+04 0.  0.
        1    1    3    3  502    0 -0.31729658434E+03 -0.40678836147E+03  0.32625304795E+03  0.61040555762E+03  0.50400001928E-02 0.  1.
       -1    1    3    3    0  502  0.31729658434E+03  0.40678836147E+03  0.26202876061E+03  0.57863024884E+03  0.50400001928E-02 0. -1.
</event>
<event>
 5   0  0.3713158E-03  0.1099898E+04  0.7818609E-02  0.9205291E-01
       -2   -1    0    0    0  501  0.00000000000E+00  0.00000000000E+00  0.24382033736E+03  0.24382033738E+03  0.25500000920E-02 0. -1.
        2   -1    0    0  501    0  0.00000000000E+00  0.00000000000E+00 -0.12404376150E+04  0.12404376150E+04  0.25500000920E-02 0.  1.
    10030    2    1    2    0    0  0.00000000000E+00  0.00000000000E+00 -0.99661727760E+03  0.14842579523E+04  0.10998980276E+04 0.  0.
        4    1    3    3  502    0  0.14320281982E+03 -0.40553581109E+03 -0.96082965216E+03  0.10526925359E+04  0.12699999809E+01 0.  1.
       -4    1    3    3    0  502 -0.14320281982E+03  0.40553581109E+03 -0.35787625441E+02  0.43156541649E+03  0.12699999809E+01 0. -1.
</event>
<event>
 5   0  0.2255788E-03  0.1099686E+04  0.7818609E-02  0.9205498E-01
        1   -1    0    0  501    0  0.00000000000E+00  0.00000000000E+00  0.71925206246E+03  0.71925206248E+03  0.50400001928E-02 0.  1.
       -1   -1    0    0    0  501  0.00000000000E+00  0.00000000000E+00 -0.42033580636E+03  0.42033580639E+03  0.50400001928E-02 0. -1.
    10030    2    1    2    0    0  0.00000000000E+00  0.00000000000E+00  0.29891625610E+03  0.11395878689E+04  0.10996861292E+04 0.  0.
        3    1    3    3  502    0  0.25026962113E+03  0.91598737448E+02 -0.34893142142E+03  0.43906532432E+03  0.10100000352E+00 0. -1.
       -3    1    3    3    0  502 -0.25026962113E+03 -0.91598737448E+02  0.64784767752E+03  0.70052254456E+03  0.10100000352E+00 0.  1.
</event>
<event>
 5   0  0.3713158E-03  0.1102438E+04  0.7818609E-02  0.9202819E-01
       -2   -1    0    0    0  501  0.00000000000E+00  0.00000000000E+00  0.25578324917E+03  0.25578324918E+03  0.25500000920E-02 0. -1.
        2   -1    0    0  501    0  0.00000000000E+00  0.00000000000E+00 -0.11878891717E+04  0.11878891717E+04  0.25500000920E-02 0.  1.
    10030    2    1    2    0    0  0.00000000000E+00  0.00000000000E+00 -0.93210592253E+03  0.14436724209E+04  0.11024375756E+04 0.  0.
        4    1    3    3  502    0 -0.68701039865E+02 -0.25185379197E+03  0.16969587693E+03  0.31136549095E+03  0.12699999809E+01 0. -1.
       -4    1    3    3    0  502  0.68701039865E+02  0.25185379197E+03 -0.11018017995E+04  0.11323069299E+04  0.12699999809E+01 0.  1.
</event>
<event>
 5   0  0.3748901E-03  0.1100390E+04  0.7818609E-02  0.9204811E-01
        2   -1    0    0  501    0  0.00000000000E+00  0.00000000000E+00  0.16149662223E+04  0.16149662223E+04  0.25500000920E-02 0. -1.
       -2   -1    0    0    0  501  0.00000000000E+00  0.00000000000E+00 -0.18744339620E+03  0.18744339622E+03  0.25500000920E-02 0.  1.
    10030    2    1    2    0    0  0.00000000000E+00  0.00000000000E+00  0.14275228261E+04  0.18024096185E+04  0.11003903916E+04 0.  0.
        5    1    3    3  502    0 -0.30586416158E+03  0.41148348742E+03  0.38690016871E+03  0.64232809086E+03  0.46999998093E+01 0.  1.
       -5    1    3    3    0  502  0.30586416158E+03 -0.41148348742E+03  0.10406226574E+04  0.11600815277E+04  0.46999998093E+01 0. -1.
</event>
<event>
 5   0  0.3992414E-03  0.1107343E+04  0.7818609E-02  0.9198065E-01
        2   -1    0    0  501    0  0.00000000000E+00  0.00000000000E+00  0.86568349134E+03  0.86568349135E+03  0.25500000920E-02 0.  1.
       -2   -1    0    0    0  501  0.00000000000E+00  0.00000000000E+00 -0.35411557938E+03  0.35411557939E+03  0.25500000920E-02 0. -1.
    10030    2    1    2    0    0  0.00000000000E+00  0.00000000000E+00  0.51156791196E+03  0.12197990707E+04  0.11073427854E+04 0.  0.
        1    1    3    3  502    0 -0.18249284234E+03 -0.14351519258E+02 -0.31981668643E+03  0.36850009031E+03  0.50400001928E-02 0. -1.
       -1    1    3    3    0  502  0.18249284234E+03  0.14351519258E+02  0.83138459839E+03  0.85129898043E+03  0.50400001928E-02 0.  1.
</event>
<event>
 5   0  0.2257667E-03  0.1086428E+04  0.7818609E-02  0.9218522E-01
       -1   -1    0    0    0  501  0.00000000000E+00  0.00000000000E+00  0.28336268047E+03  0.28336268052E+03  0.50400001928E-02 0. -1.
        1   -1    0    0  501    0  0.00000000000E+00  0.00000000000E+00 -0.10413552859E+04  0.10413552859E+04  0.50400001928E-02 0.  1.
    10030    2    1    2    0    0  0.00000000000E+00  0.00000000000E+00 -0.75799260539E+03  0.13247179664E+04  0.10864275865E+04 0.  0.
        4    1    3    3  502    0  0.38958575548E+03 -0.14705438350E+03  0.46335529941E+02  0.41898764518E+03  0.12699999809E+01 0. -1.
       -4    1    3    3    0  502 -0.38958575548E+03  0.14705438350E+03 -0.80432813533E+03  0.90573032121E+03  0.12699999809E+01 0.  1.
</event>
<event>
 5   0  0.3992414E-03  0.1104666E+04  0.7818609E-02  0.9200656E-01
        2   -1    0    0  501    0  0.00000000000E+00  0.00000000000E+00  0.96853558704E+03  0.96853558704E+03  0.25500000920E-02 0. -1.
       -2   -1    0    0    0  501  0.00000000000E+00  0.00000000000E+00 -0.31498275788E+03  0.31498275789E+03  0.25500000920E-02 0.  1.
    10030    2    1    2    0    0  0.00000000000E+00  0.00000000000E+00  0.65355282915E+03  0.12835183449E+04  0.11046664842E+04 0.  0.
        1    1    3    3  502    0 -0.34036286313E+03  0.43220001017E+03  0.38403235390E+03  0.67091324048E+03  0.50400001928E-02 0. -1.
       -1    1    3    3    0  502  0.34036286313E+03 -0.43220001017E+03  0.26952047525E+03  0.61260510445E+03  0.50400001928E-02 0.  1.
</event>
<event>
 5   0  0.2374100E-03  0.1106371E+04  0.7818609E-02  0.9199005E-01
       -1   -1    0    0    0  501  0.00000000000E+00  0.00000000000E+00  0.17934770221E+03  0.17934770228E+03  0.50400001928E-02 0. -1.
        1   -1    0    0  501    0  0.00000000000E+00  0.00000000000E+00 -0.17062607813E+04  0.17062607813E+04  0.50400001928E-02 0.  1.
    10030    2    1    2    0    0  0.00000000000E+00  0.00000000000E+00 -0.15269130791E+04  0.18856084836E+04  0.11063705538E+04 0.  0.
        2    1    3    3  502    0 -0.43142460098E+03 -0.15511100583E+03 -0.12910454177E+04  0.13700309781E+04  0.25500000920E-02 0.  1.
       -2    1    3    3    0  502  0.43142460098E+03  0.15511100583E+03 -0.23586766143E+03  0.51557750549E+03  0.25500000920E-02 0. -1.
</event>
<event>
 5   0  0.3962999E-03  0.1096433E+04  0.7818609E-02  0.9208676E-01
       -2   -1    0    0    0  501  0.00000000000E+00  0.00000000000E+00  0.23189832632E+03  0.23189832633E+03  0.25500000920E-02 0.  1.
        2   -1    0    0  501    0  0.00000000000E+00  0.00000000000E+00 -0.12960036055E+04  0.12960036055E+04  0.25500000920E-02 0. -1.
    10030    2    1    2    0    0  0.00000000000E+00  0.00000000000E+00 -0.10641052792E+04  0.15279019319E+04  0.10964325187E+04 0.  0.
        3    1    3    3  502    0 -0.29441868084E+03  0.40360196880E+03 -0.84664339513E+03  0.98304728145E+03  0.10100000352E+00 0. -1.
       -3    1    3    3    0  502  0.29441868084E+03 -0.40360196880E+03 -0.21746188409E+03  0.54485465042E+03  0.10100000352E+00 0.  1.
</event>
<event>
 5   0  0.2257667E-03  0.1112796E+04  0.7818609E-02  0.9192809E-01
       -1   -1    0    0    0  501  0.00000000000E+00  0.00000000000E+00  0.60715248848E+03  0.60715248850E+03  0.50400001928E-02 0. -1.
        1   -1    0    0  501    0  0.00000000000E+00  0.00000000000E+00 -0.50988592232E+03  0.50988592234E+03  0.50400001928E-02 0.  1.
    10030    2    1    2    0    0  0.00000000000E+00  0.00000000000E+00  0.97266566163E+02  0.11170384108E+04  0.11127955906E+04 0.  0.
        4    1    3    3  502    0 -0.14530202762E+02 -0.53650525569E+03 -0.98649953077E+02  0.54569445876E+03  0.12699999809E+01 0.  1.
       -4    1    3    3    0  502  0.14530202762E+02  0.53650525569E+03  0.19591651924E+03  0.57134395209E+03  0.12699999809E+01 0. -1.
</event>
<event>
 5   0  0.2257667E-03  0.1083247E+04  0.7818609E-02  0.9221676E-01
       -1   -1    0    0    0  501  0.00000000000E+00  0.00000000000E+00  0.16220859927E+03  0.16220859935E+03  0.50400001928E-02 0.  1.
        1   -1    0    0  501    0  0.00000000000E+00  0.00000000000E+00 -0.18085106111E+04  0.18085106111E+04  0.50400001928E-02 0. -1.
    10030    2    1    2    0    0  0.00000000000E+00  0.00000000000E+00 -0.16463020119E+04  0.19707192105E+04  0.10832469212E+04 0.  0.
        4    1    3    3  502    0 -0.21186614454E+02  0.37819426289E+03 -0.15274568410E+04  0.15737235422E+04  0.12699999809E+01 0. -1.
       -4    1    3    3    0  502  0.21186614454E+02 -0.37819426289E+03 -0.11884517082E+03  0.39699566829E+03  0.12699999809E+01 0.  1.
</event>
<event>
 5   0  0.3992414E-03  0.1067546E+04  0.7818609E-02  0.9237414E-01
       -2   -1    0    0    0  501  0.00000000000E+00  0.00000000000E+00  0.43085248654E+03  0.43085248655E+03  0.25500000920E-02 0.  1.
        2   -1    0    0  501    0  0.00000000000E+00  0.00000000000E+00 -0.66127889988E+03  0.66127889988E+03  0.25500000920E-02 0. -1.
    10030    2    1    2    0    0  0.00000000000E+00  0.00000000000E+00 -0.23042641334E+03  0.10921313864E+04  0.10675460802E+04 0.  0.
        1    1    3    3  502    0  0.28507711461E+03  0.95945832758E+02  0.33589429862E+03  0.45088750699E+03  0.50400001928E-02 0.  1.
       -1    1    3    3    0  502 -0.28507711461E+03 -0.95945832758E+02 -0.56632071195E+03  0.64124387943E+03  0.50400001928E-02 0. -1.
</event>
<event>
 5   0  0.3713158E-03  0.1088447E+04  0.7818609E-02  0.9216526E-01
       -2   -1    0    0    0  501  0.00000000000E+00  0.00000000000E+00  0.19191119279E+03  0.19191119280E+03  0.25500000920E-02 0. -1.
        2   -1    0    0  501    0  0.00000000000E+00  0.00000000000E+00 -0.15433140494E+04  0.15433140494E+04  0.25500000920E-02 0.  1.
    10030    2    1    2    0    0  0.00000000000E+00  0.00000000000E+00 -0.13514028566E+04  0.17352252422E+04  0.10884470407E+04 0.  0.
        4    1    3    3  502    0  0.48175021096E+03 -0.20427666800E+03 -0.43728458652E+03  0.68193228795E+03  0.12699999809E+01 0. -1.
       -4    1    3    3    0  502 -0.48175021096E+03  0.20427666800E+03 -0.91411827009E+03  0.10532929542E+04  0.12699999809E+01 0.  1.
</event>
<event>
 5   0  0.2300702E-03  0.1075612E+04  0.7818609E-02  0.9229294E-01
       -1   -1    0    0    0  501  0.00000000000E+00  0.00000000000E+00  0.38394206580E+03  0.38394206583E+03  0.50400001928E-02 0. -1.
        1   -1    0    0  501    0  0.00000000000E+00  0.00000000000E+00 -0.75333050018E+03  0.75333050020E+03  0.50400001928E-02 0.  1.
    10030    2    1    2    0    0  0.00000000000E+00  0.00000000000E+00 -0.36938843438E+03  0.11372725660E+04  0.10756119533E+04 0.  0.
        5    1    3    3  502    0  0.22640354854E+03  0.95522657751E+02  0.32109021196E+03  0.40435647534E+03  0.46999998093E+01 0. -1.
       -5    1    3    3    0  502 -0.22640354854E+03 -0.95522657751E+02 -0.69047864634E+03  0.73291609069E+03  0.46999998093E+01 0.  1.
</event>
<event>
 5   0  0.3992414E-03  0.1100430E+04  0.7818609E-02  0.9204773E-01
       -2   -1    0    0    0  501  0.00000000000E+00  0.00000000000E+00  0.43086272449E+03  0.43086272449E+03  0.25500000920E-02 0. -1.
        2   -1    0    0  501    0  0.00000000000E+00  0.00000000000E+00 -0.70262894358E+03  0.70262894358E+03  0.25500000920E-02 0.  1.
    10030    2    1    2    0    0  0.00000000000E+00  0.00000000000E+00 -0.27176621909E+03  0.11334916681E+04  0.11004301358E+04 0.  0.
        1    1    3    3  502    0 -0.41876328335E+03  0.33806041387E+03 -0.25372795304E+03  0.59500034041E+03  0.50400001928E-02 0.  1.
       -1    1    3    3    0  502  0.41876328335E+03 -0.33806041387E+03 -0.18038266050E+02  0.53849132767E+03  0.50400001928E-02 0. -1.
</event>
<event>
 5   0  0.3962999E-03  0.1106810E+04  0.7818609E-02  0.9198580E-01
       -2   -1    0    0    0  501  0.00000000000E+00  0.00000000000E+00  0.28475238998E+03  0.28475238999E+03  0.25500000920E-02 0. -1.
        2   -1    0    0  501    0  0.00000000000E+00  0.00000000000E+00 -0.10755197772E+04  0.10755197772E+04  0.25500000920E-02 0.  1.
    10030    2    1    2    0    0  0.00000000000E+00  0.00000000000E+00 -0.79076738718E+03  0.13602721671E+04  0.11068095175E+04 0.  0.
        3    1    3    3  502    0  0.97533138096E+02 -0.52786651808E+03 -0.56073389399E+03  0.77625916034E+03  0.10100000352E+00 0.  1.
       -3    1    3    3    0  502 -0.97533138096E+02  0.52786651808E+03 -0.23003349318E+03  0.58401300681E+03  0.10100000352E+00 0. -1.
</event>
<event>
 5   0  0.2298958E-03  0.1098364E+04  0.7818609E-02  0.9206788E-01
        1   -1    0    0  501    0  0.00000000000E+00  0.00000000000E+00  0.30695766678E+03  0.30695766682E+03  0.50400001928E-02 0. -1.
       -1   -1    0    0    0  501  0.00000000000E+00  0.00000000000E+00 -0.98254900148E+03  0.98254900150E+03  0.50400001928E-02 0.  1.
    10030    2    1    2    0    0  0.00000000000E+00  0.00000000000E+00 -0.67559133471E+03  0.12895066683E+04  0.10983641455E+04 0.  0.
        1    1    3    3  502    0  0.52649845768E+03  0.84284945413E+02 -0.18339302036E+03  0.56385953738E+03  0.50400001928E-02 0. -1.
       -1    1    3    3    0  502 -0.52649845768E+03 -0.84284945413E+02 -0.49219831435E+03  0.72564713093E+03  0.50400001928E-02 0.  1.
</event>
<event>
 5   0  0.2257667E-03  0.1093124E+04  0.7818609E-02  0.9211919E-01
        1   -1    0    0  501    0  0.00000000000E+00  0.00000000000E+00  0.96376054178E+03  0.96376054179E+03  0.50400001928E-02 0. -1.
       -1   -1    0    0    0  501  0.00000000000E+00  0.00000000000E+00 -0.30996308986E+03  0.30996308990E+03  0.50400001928E-02 0.  1.
    10030    2    1    2    0    0  0.00000000000E+00  0.00000000000E+00  0.65379745191E+03  0.12737236317E+04  0.10931243213E+04 0.  0.
        4    1    3    3  502    0  0.36732563625E+03  0.71876940836E+02 -0.13719319973E+03  0.39864521146E+03  0.12699999809E+01 0.  1.
       -4    1    3    3    0  502 -0.36732563625E+03 -0.71876940836E+02  0.79099065164E+03  0.87507842023E+03  0.12699999809E+01 0. -1.
</event>
<event>
 5   0  0.2255788E-03  0.1080797E+04  0.7818609E-02  0.9224114E-01
       -1   -1    0    0    0  501  0.00000000000E+00  0.00000000000E+00  0.60082391687E+03  0.60082391689E+03  0.50400001928E-02 0.  1.
        1   -1    0    0  501    0  0.00000000000E+00  0.00000000000E+00 -0.48604974777E+03  0.48604974780E+03  0.50400001928E-02 0. -1.
    10030    2    1    2    0    0  0.00000000000E+00  0.00000000000E+00  0.11477416910E+03  0.10868736647E+04  0.10807965827E+04 0.  0.
        3    1    3    3  502    0  0.13682206191E+03  0.45987964279E+02 -0.46630504740E+03  0.48813479379E+03  0.10100000352E+00 0. -1.
       -3    1    3    3    0  502 -0.13682206191E+03 -0.45987964279E+02  0.58107921649E+03  0.59873887090E+03  0.10100000352E+00 0.  1.
</event>
<event>
 5   0  0.2300702E-03  0.1112230E+04  0.7818609E-02  0.9193353E-01
        1   -1    0    0  501    0  0.00000000000E+00  0.00000000000E+00  0.16848471464E+04  0.16848471464E+04  0.50400001928E-02 0.  1.
       -1   -1    0    0    0  501  0.00000000000E+00  0.00000000000E+00 -0.18355598503E+03  0.18355598510E+03  0.50400001928E-02 0. -1.
    10030    2    1    2    0    0  0.00000000000E+00  0.00000000000E+00  0.15012911614E+04  0.18684031315E+04  0.11122297922E+04 0.  0.
        5    1    3    3  502    0 -0.15128151507E+03  0.50499269381E+03  0.10480253999E+04  0.11731509052E+04  0.46999998093E+01 0. -1.
       -5    1    3    3    0  502  0.15128151507E+03 -0.50499269381E+03  0.45326576143E+03  0.69525222624E+03  0.46999998093E+01 0.  1.
</event>
<event>
 5   0  0.1508625E-03  0.1091907E+04  0.7818609E-02  0.9213116E-01
        3   -1    0    0  501    0  0.00000000000E+00  0.00000000000E+00  0.81140608700E+03  0.81140609328E+03  0.10100000352E+00 0.  1.
       -3   -1    0    0    0  501  0.00000000000E+00  0.00000000000E+00 -0.36734411233E+03  0.36734412622E+03  0.10100000352E+00 0. -1.
    10030    2    1    2    0    0  0.00000000000E+00  0.00000000000E+00  0.44406197467E+03  0.11787502195E+04  0.10919070668E+04 0.  0.
        3    1    3    3  502    0  0.31076661603E+02  0.48049820173E+03  0.49983203410E+03  0.69402907235E+03  0.10100000352E+00 0.  1.
       -3    1    3    3    0  502 -0.31076661603E+02 -0.48049820173E+03 -0.55770059431E+02  0.48472114715E+03  0.10100000352E+00 0. -1.
</event>
<event>
 5   0  0.2255788E-03  0.1068551E+04  0.7818609E-02  0.9236399E-01
        1   -1    0    0  501    0  0.00000000000E+00  0.00000000000E+00  0.63983842194E+03  0.63983842196E+03  0.50400001928E-02 0.  1.
       -1   -1    0    0    0  501  0.00000000000E+00  0.00000000000E+00 -0.44612832937E+03  0.44612832940E+03  0.50400001928E-02 0. -1.
    10030    2    1    2    0    0  0.00000000000E+00  0.00000000000E+00  0.19371009257E+03  0.10859667514E+04  0.10685505066E+04 0.  0.
        3    1    3    3  502    0 -0.27541410441E+03 -0.33559641878E+02  0.56088300738E+03  0.62575469366E+03  0.10100000352E+00 0.  1.
       -3    1    3    3    0  502  0.27541410441E+03  0.33559641878E+02 -0.36717291481E+03  0.46021205769E+03  0.10100000352E+00 0. -1.
</event>
<event>
 5   0  0.3713158E-03  0.1101346E+04  0.7818609E-02  0.9203881E-01
        2   -1    0    0  501    0  0.00000000000E+00  0.00000000000E+00  0.12991624422E+04  0.12991624422E+04  0.25500000920E-02 0.  1.
       -2   -1    0    0    0  501  0.00000000000E+00  0.00000000000E+00 -0.23341261862E+03  0.23341261864E+03  0.25500000920E-02 0. -1.
    10030    2    1    2    0    0  0.00000000000E+00  0.00000000000E+00  0.10657498235E+04  0.15325750608E+04  0.11013462810E+04 0.  0.
        4    1    3    3  502    0  0.17850360049E+03 -0.19879447182E+03  0.12029253855E+04  0.12322393734E+04  0.12699999809E+01 0.  1.
       -4    1    3    3    0  502 -0.17850360049E+03  0.19879447182E+03 -0.13717556197E+03  0.30033568738E+03  0.12699999809E+01 0. -1.
</event>
<event>
 5   0  0.3992414E-03  0.1138731E+04  0.7818609E-02  0.9168243E-01
       -2   -1    0    0    0  501  0.00000000000E+00  0.00000000000E+00  0.35306211783E+03  0.35306211784E+03  0.25500000920E-02 0. -1.
        2   -1    0    0  501    0  0.00000000000E+00  0.00000000000E+00 -0.91818657387E+03  0.91818657388E+03  0.25500000920E-02 0.  1.
    10030    2    1    2    0    0  0.00000000000E+00  0.00000000000E+00 -0.56512445604E+03  0.12712486917E+04  0.11387306905E+04 0.  0.
        1    1    3    3  502    0 -0.80492196978E+02 -0.36983085380E+03  0.19228776296E+03  0.42453320012E+03  0.50400001928E-02 0. -1.
       -1    1    3    3    0  502  0.80492196978E+02  0.36983085380E+03 -0.75741221900E+03  0.84671549160E+03  0.50400001928E-02 0.  1.
</event>
<event>
 5   0  0.2374100E-03  0.1009154E+04  0.7818609E-02  0.9298561E-01
       -1   -1    0    0    0  501  0.00000000000E+00  0.00000000000E+00  0.24433434440E+03  0.24433434445E+03  0.50400001928E-02 0.  1.
        1   -1    0    0  501    0  0.00000000000E+00  0.00000000000E+00 -0.10420066790E+04  0.10420066790E+04  0.50400001928E-02 0. -1.
    10030    2    1    2    0    0  0.00000000000E+00  0.00000000000E+00 -0.79767233462E+03  0.12863410235E+04  0.10091541385E+04 0.  0.
        2    1    3    3  502    0  0.63382338961E+02 -0.50055502104E+03 -0.39241596298E+03  0.63918928182E+03  0.25500000920E-02 0. -1.
       -2    1    3    3    0  502 -0.63382338961E+02  0.50055502104E+03 -0.40525637163E+03  0.64715174166E+03  0.25500000920E-02 0.  1.
</event>
<event>
 5   0  0.3748901E-03  0.1100192E+04  0.7818609E-02  0.9205005E-01
       -2   -1    0    0    0  501  0.00000000000E+00  0.00000000000E+00  0.15296609111E+03  0.15296609113E+03  0.25500000920E-02 0. -1.
        2   -1    0    0  501    0  0.00000000000E+00  0.00000000000E+00 -0.19782515455E+04  0.19782515455E+04  0.25500000920E-02 0.  1.
    10030    2    1    2    0    0  0.00000000000E+00  0.00000000000E+00 -0.18252854544E+04  0.21312176367E+04  0.11001916309E+04 0.  0.
        5    1    3    3  502    0 -0.59586976944E+02  0.20526774981E+03 -0.18944804346E+04  0.19065056160E+04  0.46999998093E+01 0.  1.
       -5    1    3    3    0  502  0.59586976944E+02 -0.20526774981E+03  0.69194980176E+02  0.22471202063E+03  0.46999998093E+01 0. -1.
</event>
<event>
 5   0  0.2374100E-03  0.1100447E+04  0.7818609E-02  0.9204756E-01
        1   -1    0    0  501    0  0.00000000000E+00  0.00000000000E+00  0.71346494313E+03  0.71346494315E+03  0.50400001928E-02 0. -1.
       -1   -1    0    0    0  501  0.00000000000E+00  0.00000000000E+00 -0.42433185058E+03  0.42433185061E+03  0.50400001928E-02 0.  1.
    10030    2    1    2    0    0  0.00000000000E+00  0.00000000000E+00  0.28913309255E+03  0.11377967938E+04  0.11004469995E+04 0.  0.
        2    1    3    3  502    0  0.35010137966E+03  0.33223637630E+03  0.41771852546E+03  0.63831085868E+03  0.25500000920E-02 0. -1.
       -2    1    3    3    0  502 -0.35010137966E+03 -0.33223637630E+03 -0.12858543292E+03  0.49948593508E+03  0.25500000920E-02 0.  1.
</event>
<event>
 5   0  0.3744875E-03  0.1063221E+04  0.7818609E-02  0.9241800E-01
       -2   -1    0    0    0  501  0.00000000000E+00  0.00000000000E+00  0.19793184409E+03  0.19793184410E+03  0.25500000920E-02 0. -1.
        2   -1    0    0  501    0  0.00000000000E+00  0.00000000000E+00 -0.14278124669E+04  0.14278124669E+04  0.25500000920E-02 0.  1.
    10030    2    1    2    0    0  0.00000000000E+00  0.00000000000E+00 -0.12298806228E+04  0.16257443110E+04  0.10632206819E+04 0.  0.
        2    1    3    3  502    0  0.47153432539E+03 -0.16577264030E+03 -0.89180159217E+03  0.10223185747E+04  0.25500000920E-02 0. -1.
       -2    1    3    3    0  502 -0.47153432539E+03  0.16577264030E+03 -0.33807903060E+03  0.60342573630E+03  0.25500000920E-02 0.  1.
</event>
<event>
 5   0  0.3962999E-03  0.1110315E+04  0.7818609E-02  0.9195196E-01
        2   -1    0    0  501    0  0.00000000000E+00  0.00000000000E+00  0.15775857061E+04  0.15775857062E+04  0.25500000920E-02 0.  1.
       -2   -1    0    0    0  501  0.00000000000E+00  0.00000000000E+00 -0.19536157036E+03  0.19536157037E+03  0.25500000920E-02 0. -1.
    10030    2    1    2    0    0  0.00000000000E+00  0.00000000000E+00  0.13822241358E+04  0.17729472765E+04  0.11103145877E+04 0.  0.
        3    1    3    3  502    0  0.35958413484E+03 -0.25704724763E+03  0.15475556637E+03  0.46831969109E+03  0.10100000352E+00 0. -1.
       -3    1    3    3    0  502 -0.35958413484E+03  0.25704724763E+03  0.12274685694E+04  0.13046275854E+04  0.10100000352E+00 0.  1.
</event>
<event>
 5   0  0.1508625E-03  0.1143996E+04  0.7818609E-02  0.9163341E-01
        3   -1    0    0  501    0  0.00000000000E+00  0.00000000000E+00  0.80644233239E+03  0.80644233872E+03  0.10100000352E+00 0. -1.
       -3   -1    0    0    0  501  0.00000000000E+00  0.00000000000E+00 -0.40570968810E+03  0.40570970067E+03  0.10100000352E+00 0.  1.
    10030    2    1    2    0    0  0.00000000000E+00  0.00000000000E+00  0.40073264429E+03  0.12121520394E+04  0.11439955919E+04 0.  0.
        4    1    3    3  502    0 -0.36536286168E+02 -0.41096346299E+03  0.62014360900E+03  0.74485272155E+03  0.12699999809E+01 0. -1.
       -4    1    3    3    0  502  0.36536286168E+02  0.41096346299E+03 -0.21941096471E+03  0.46729931784E+03  0.12699999809E+01 0.  1.
</event>
<event>
 5   0  0.3992414E-03  0.1104546E+04  0.7818609E-02  0.9200773E-01
        2   -1    0    0  501    0  0.00000000000E+00  0.00000000000E+00  0.95982278269E+03  0.95982278269E+03  0.25500000920E-02 0.  1.
       -2   -1    0    0    0  501  0.00000000000E+00  0.00000000000E+00 -0.31777243691E+03  0.31777243692E+03  0.25500000920E-02 0. -1.
    10030    2    1    2    0    0  0.00000000000E+00  0.00000000000E+00  0.64205034578E+03  0.12775952196E+04  0.11045455621E+04 0.  0.
        1    1    3    3  502    0 -0.49778149000E+03 -0.18451795901E+03  0.14495296910E+03  0.55031323104E+03  0.50400001928E-02 0.  1.
       -1    1    3    3    0  502  0.49778149000E+03  0.18451795901E+03  0.49709737667E+03  0.72728198858E+03  0.50400001928E-02 0. -1.
</event>
<event>
 5   0  0.3713158E-03  0.1084327E+04  0.7818609E-02  0.9220604E-01
        2   -1    0    0  501    0  0.00000000000E+00  0.00000000000E+00  0.17450706943E+04  0.17450706943E+04  0.25500000920E-02 0. -1.
       -2   -1    0    0    0  501  0.00000000000E+00  0.00000000000E+00 -0.16844087722E+03  0.16844087724E+03  0.25500000920E-02 0.  1.
    10030    2    1    2    0    0  0.00000000000E+00  0.00000000000E+00  0.15766298171E+04  0.19135115716E+04  0.10843269592E+04 0.  0.
        4    1    3    3  502    0 -0.33056450159E+03  0.41196121064E+02  0.15431643275E+04  0.15787107920E+04  0.12699999809E+01 0. -1.
       -4    1    3    3    0  502  0.33056450159E+03 -0.41196121064E+02  0.33465489552E+02  0.33480077955E+03  0.12699999809E+01 0.  1.
</event>
<event>
 5   0  0.2300702E-03  0.1101084E+04  0.7818609E-02  0.9204136E-01
        1   -1    0    0  501    0  0.00000000000E+00  0.00000000000E+00  0.53608049056E+03  0.53608049059E+03  0.50400001928E-02 0.  1.
       -1   -1    0    0    0  501  0.00000000000E+00  0.00000000000E+00 -0.56539373385E+03  0.56539373387E+03  0.50400001928E-02 0. -1.
    10030    2    1    2    0    0  0.00000000000E+00  0.00000000000E+00 -0.29313243287E+02  0.11014742245E+04  0.11010841026E+04 0.  0.
        5    1    3    3  502    0  0.54902358537E+03  0.40346615203E+02 -0.10215051267E+02  0.55061890989E+03  0.46999998093E+01 0. -1.
       -5    1    3    3    0  502 -0.54902358537E+03 -0.40346615203E+02 -0.19098192020E+02  0.55085531457E+03  0.46999998093E+01 0.  1.
</event>
<event>
 5   0  0.2374100E-03  0.1103961E+04  0.7818609E-02  0.9201340E-01
        1   -1    0    0  501    0  0.00000000000E+00  0.00000000000E+00  0.33298720576E+03  0.33298720580E+03  0.50400001928E-02 0. -1.
       -1   -1    0    0    0  501  0.00000000000E+00  0.00000000000E+00 -0.91499717729E+03  0.91499717730E+03  0.50400001928E-02 0.  1.
    10030    2    1    2    0    0  0.00000000000E+00  0.00000000000E+00 -0.58200997152E+03  0.12479843831E+04  0.11039607844E+04 0.  0.
        2    1    3    3  502    0  0.74949525668E+02  0.41937723678E+03  0.10576526215E+03  0.43895442680E+03  0.25500000920E-02 0. -1.
       -2    1    3    3    0  502 -0.74949525668E+02 -0.41937723678E+03 -0.68777523368E+03  0.80902995630E+03  0.25500000920E-02 0.  1.
</event>
<event>
 5   0  0.2300702E-03  0.1112438E+04  0.7818609E-02  0.9193153E-01
       -1   -1    0    0    0  501  0.00000000000E+00  0.00000000000E+00  0.26766746053E+03  0.26766746057E+03  0.50400001928E-02 0. -1.
        1   -1    0    0  501    0  0.00000000000E+00  0.00000000000E+00 -0.11558354290E+04  0.11558354290E+04  0.50400001928E-02 0.  1.
    10030    2    1    2    0    0  0.00000000000E+00  0.00000000000E+00 -0.88816796848E+03  0.14235028896E+04  0.11124379248E+04 0.  0.
        5    1    3    3  502    0  0.39375274958E+03 -0.28979438259E+03 -0.10471695488E+03  0.50000974252E+03  0.46999998093E+01 0. -1.
       -5    1    3    3    0  502 -0.39375274958E+03  0.28979438259E+03 -0.78345101360E+03  0.92349314707E+03  0.46999998093E+01 0.  1.
</event>
<event>
 5   0  0.3962999E-03  0.1109514E+04  0.7818609E-02  0.9195968E-01
        2   -1    0    0  501    0  0.00000000000E+00  0.00000000000E+00  0.17116809766E+04  0.17116809766E+04  0.25500000920E-02 0. -1.
       -2   -1    0    0    0  501  0.00000000000E+00  0.00000000000E+00 -0.17979708284E+03  0.17979708286E+03  0.25500000920E-02 0.  1.
    10030    2    1    2    0    0  0.00000000000E+00  0.00000000000E+00  0.15318838937E+04  0.18914780594E+04  0.11095138510E+04 0.  0.
        3    1    3    3  502    0  0.44260871402E+03 -0.21011013921E+03  0.32234991586E+03  0.58647951609E+03  0.10100000352E+00 0.  1.
       -3    1    3    3    0  502 -0.44260871402E+03  0.21011013921E+03  0.12095339779E+04  0.13049985434E+04  0.10100000352E+00 0. -1.
</event>
<event>
 5   0  0.3744875E-03  0.1101154E+04  0.7818609E-02  0.9204068E-01
       -2   -1    0    0    0  501  0.00000000000E+00  0.00000000000E+00  0.15562385872E+03  0.15562385874E+03  0.25500000920E-02 0.  1.
        2   -1    0    0  501    0  0.00000000000E+00  0.00000000000E+00 -0.19478684034E+04  0.19478684034E+04  0.25500000920E-02 0. -1.
    10030    2    1    2    0    0  0.00000000000E+00  0.00000000000E+00 -0.17922445447E+04  0.21034922622E+04  0.11011535719E+04 0.  0.
        2    1    3    3  502    0 -0.35704537539E+03  0.24479225362E+03 -0.15459770024E+04  0.16054437204E+04  0.25500000920E-02 0. -1.
       -2    1    3    3    0  502  0.35704537539E+03 -0.24479225362E+03 -0.24626754230E+03  0.49804854173E+03  0.25500000920E-02 0.  1.
</event>
<event>
 5   0  0.3748901E-03  0.1161731E+04  0.7818609E-02  0.9147029E-01
        2   -1    0    0  501    0  0.00000000000E+00  0.00000000000E+00  0.12254997838E+04  0.12254997838E+04  0.25500000920E-02 0. -1.
       -2   -1    0    0    0  501  0.00000000000E+00  0.00000000000E+00 -0.27532005594E+03  0.27532005595E+03  0.25500000920E-02 0.  1.
    10030    2    1    2    0    0  0.00000000000E+00  0.00000000000E+00  0.95017972790E+03  0.15008198398E+04  0.11617308966E+04 0.  0.
        5    1    3    3  502    0  0.30719818237E+03  0.26192658168E+03 -0.64425893731E+02  0.40883865182E+03  0.46999998093E+01 0.  1.
       -5    1    3    3    0  502 -0.30719818237E+03 -0.26192658168E+03  0.10146056216E+04  0.10919811880E+04  0.46999998093E+01 0. -1.
</event>
<event>
 5   0  0.2257667E-03  0.1110390E+04  0.7818609E-02  0.9195124E-01
       -1   -1    0    0    0  501  0.00000000000E+00  0.00000000000E+00  0.67441643213E+03  0.67441643215E+03  0.50400001928E-02 0.  1.
        1   -1    0    0  501    0  0.00000000000E+00  0.00000000000E+00 -0.45704937444E+03  0.45704937447E+03  0.50400001928E-02 0. -1.
    10030    2    1    2    0    0  0.00000000000E+00  0.00000000000E+00  0.21736705769E+03  0.11314658066E+04  0.11103902169E+04 0.  0.
        4    1    3    3  502    0  0.18825124613E+02 -0.10974824399E+03  0.66291979347E+03  0.67220780109E+03  0.12699999809E+01 0.  1.
       -4    1    3    3    0  502 -0.18825124613E+02  0.10974824399E+03 -0.44555273578E+03  0.45925800552E+03  0.12699999809E+01 0. -1.
</event>
<event>
 5   0  0.2298958E-03  0.1087231E+04  0.7818609E-02  0.9217728E-01
        1   -1    0    0  501    0  0.00000000000E+00  0.00000000000E+00  0.97714067420E+03  0.97714067422E+03  0.50400001928E-02 0. -1.
       -1   -1    0    0    0  501  0.00000000000E+00  0.00000000000E+00 -0.30243108782E+03  0.30243108786E+03  0.50400001928E-02 0.  1.
    10030    2    1    2    0    0  0.00000000000E+00  0.00000000000E+00  0.67470958638E+03  0.12795717621E+04  0.10872308257E+04 0.  0.
        1    1    3    3  502    0 -0.24038001724E+03 -0.34989617758E+03 -0.62288278563E+02  0.42905677648E+03  0.50400001928E-02 0. -1.
       -1    1    3    3    0  502  0.24038001724E+03  0.34989617758E+03  0.73699786494E+03  0.85051498560E+03  0.50400001928E-02 0.  1.
</event>
<event>
 5   0  0.3744875E-03  0.1104725E+04  0.7818609E-02  0.9200599E-01
       -2   -1    0    0    0  501  0.00000000000E+00  0.00000000000E+00  0.17598730770E+03  0.17598730772E+03  0.25500000920E-02 0. -1.
        2   -1    0    0  501    0  0.00000000000E+00  0.00000000000E+00 -0.17336725534E+04  0.17336725534E+04  0.25500000920E-02 0.  1.
    10030    2    1    2    0    0  0.00000000000E+00  0.00000000000E+00 -0.15576852457E+04  0.19096598612E+04  0.11047250611E+04 0.  0.
        2    1    3    3  502    0  0.54677274780E+03  0.16671011537E+02 -0.64644718540E+03  0.84683665715E+03  0.25500000920E-02 0. -1.
       -2    1    3    3    0  502 -0.54677274780E+03 -0.16671011537E+02 -0.91123806034E+03  0.10628232040E+04  0.25500000920E-02 0.  1.
</event>
<event>
 5   0  0.1508625E-03  0.1095575E+04  0.7818609E-02  0.9209515E-01
        3   -1    0    0  501    0  0.00000000000E+00  0.00000000000E+00  0.92351895430E+03  0.92351895982E+03  0.10100000352E+00 0. -1.
       -3   -1    0    0    0  501  0.00000000000E+00  0.00000000000E+00 -0.32492160101E+03  0.32492161670E+03  0.10100000352E+00 0.  1.
    10030    2    1    2    0    0  0.00000000000E+00  0.00000000000E+00  0.59859735330E+03  0.12484405765E+04  0.10955752287E+04 0.  0.
        2    1    3    3  502    0  0.45166497614E+03  0.38737417862E+02  0.64972850199E+03  0.79224299588E+03  0.25500000920E-02 0. -1.
       -2    1    3    3    0  502 -0.45166497614E+03 -0.38737417862E+02 -0.51131148690E+02  0.45619758065E+03  0.25500000920E-02 0.  1.
</event>
<event>
 5   0  0.2257667E-03  0.1078328E+04  0.7818609E-02  0.9226576E-01
       -1   -1    0    0    0  501  0.00000000000E+00  0.00000000000E+00  0.61935528196E+03  0.61935528198E+03  0.50400001928E-02 0.  1.
        1   -1    0    0  501    0  0.00000000000E+00  0.00000000000E+00 -0.46935554486E+03  0.46935554488E+03  0.50400001928E-02 0. -1.
    10030    2    1    2    0    0  0.00000000000E+00  0.00000000000E+00  0.14999973711E+03  0.10887108269E+04  0.10783280314E+04 0.  0.
        4    1    3    3  502    0 -0.14586538729E+03  0.46742094986E+03  0.30286561316E+03  0.57575016119E+03  0.12699999809E+01 0. -1.
       -4    1    3    3    0  502  0.14586538729E+03 -0.46742094986E+03 -0.15286587605E+03  0.51296066568E+03  0.12699999809E+01 0.  1.
</event>
<event>
 5   0  0.3713158E-03  0.1031229E+04  0.7818609E-02  0.9274941E-01
        2   -1    0    0  501    0  0.00000000000E+00  0.00000000000E+00  0.38117674956E+03  0.38117674957E+03  0.25500000920E-02 0. -1.
       -2   -1    0    0    0  501  0.00000000000E+00  0.00000000000E+00 -0.69746724564E+03  0.69746724565E+03  0.25500000920E-02 0.  1.
    10030    2    1    2    0    0  0.00000000000E+00  0.00000000000E+00 -0.31629049609E+03  0.10786439952E+04  0.10312289709E+04 0.  0.
        4    1    3    3  502    0 -0.21317965769E+03  0.36572568357E+03  0.14976344447E+03  0.44903401238E+03  0.12699999809E+01 0. -1.
       -4    1    3    3    0  502  0.21317965769E+03 -0.36572568357E+03 -0.46605394055E+03  0.62960998283E+03  0.12699999809E+01 0.  1.
</event>
<event>
 5   0  0.2300702E-03  0.1087704E+04  0.7818609E-02  0.9217260E-01
       -1   -1    0    0    0  501  0.00000000000E+00  0.00000000000E+00  0.14345176116E+03  0.14345176125E+03  0.50400001928E-02 0.  1.
        1   -1    0    0  501    0  0.00000000000E+00  0.00000000000E+00 -0.20618429739E+04  0.20618429739E+04  0.50400001928E-02 0. -1.
    10030    2    1    2    0    0  0.00000000000E+00  0.00000000000E+00 -0.19183912127E+04  0.22052947351E+04  0.10877040148E+04 0.  0.
        5    1    3    3  502    0  0.50425251569E+03  0.20207007757E+03 -0.90750488107E+03  0.10576814809E+04  0.46999998093E+01 0. -1.
       -5    1    3    3    0  502 -0.50425251569E+03 -0.20207007757E+03 -0.10108863317E+04  0.11476132543E+04  0.46999998093E+01 0.  1.
</event>
<event>
 5   0  0.3962999E-03  0.1100858E+04  0.7818609E-02  0.9204356E-01
       -2   -1    0    0    0  501  0.00000000000E+00  0.00000000000E+00  0.27185604171E+03  0.27185604172E+03  0.25500000920E-02 0.  1.
        2   -1    0    0  501    0  0.00000000000E+00  0.00000000000E+00 -0.11144574489E+04  0.11144574489E+04  0.25500000920E-02 0. -1.
    10030    2    1    2    0    0  0.00000000000E+00  0.00000000000E+00 -0.84260140715E+03  0.13863134906E+04  0.11008578304E+04 0.  0.
        3    1    3    3  502    0  0.34525355641E+03  0.40480029294E+03 -0.59898600468E+03  0.80115387996E+03  0.10100000352E+00 0. -1.
       -3    1    3    3    0  502 -0.34525355641E+03 -0.40480029294E+03 -0.24361540247E+03  0.58515961062E+03  0.10100000352E+00 0.  1.
</event>
<event>
 5   0  0.3992414E-03  0.1112116E+04  0.7818609E-02  0.9193463E-01
       -2   -1    0    0    0  501  0.00000000000E+00  0.00000000000E+00  0.21003018183E+03  0.21003018185E+03  0.25500000920E-02 0. -1.
        2   -1    0    0  501    0  0.00000000000E+00  0.00000000000E+00 -0.14721718202E+04  0.14721718202E+04  0.25500000920E-02 0.  1.
    10030    2    1    2    0    0  0.00000000000E+00  0.00000000000E+00 -0.12621416384E+04  0.16822020021E+04  0.11121160283E+04 0.  0.
        1    1    3    3  502    0  0.50432043997E+03  0.23422510074E+03 -0.63091157470E+03  0.84098152126E+03  0.50400001928E-02 0. -1.
       -1    1    3    3    0  502 -0.50432043997E+03 -0.23422510074E+03 -0.63123006367E+03  0.84122048079E+03  0.50400001928E-02 0.  1.
</event>
<event>
 5   0  0.2298958E-03  0.1106916E+04  0.7818609E-02  0.9198478E-01
       -1   -1    0    0    0  501  0.00000000000E+00  0.00000000000E+00  0.17108239657E+03  0.17108239665E+03  0.50400001928E-02 0.  1.
        1   -1    0    0  501    0  0.00000000000E+00  0.00000000000E+00 -0.17904560225E+04  0.17904560225E+04  0.50400001928E-02 0. -1.
    10030    2    1    2    0    0  0.00000000000E+00  0.00000000000E+00 -0.16193736259E+04  0.19615384192E+04  0.11069155476E+04 0.  0.
        1    1    3    3  502    0 -0.16565824655E+03 -0.45350611754E+03 -0.33022627976E+03  0.58494431287E+03  0.50400001928E-02 0.  1.
       -1    1    3    3    0  502  0.16565824655E+03  0.45350611754E+03 -0.12891473462E+04  0.13765941063E+04  0.50400001928E-02 0. -1.
</event>
<event>
 5   0  0.1508625E-03  0.1072826E+04  0.7818609E-02  0.9232090E-01
        3   -1    0    0  501    0  0.00000000000E+00  0.00000000000E+00  0.33412903171E+03  0.33412904698E+03  0.10100000352E+00 0.  1.
       -3   -1    0    0    0  501  0.00000000000E+00  0.00000000000E+00 -0.86116053435E+03  0.86116054027E+03  0.10100000352E+00 0. -1.
    10030    2    1    2    0    0  0.00000000000E+00  0.00000000000E+00 -0.52703150264E+03  0.11952895873E+04  0.10728257047E+04 0.  0.
        3    1    3    3  502    0  0.48150118431E+03 -0.22401883446E+03 -0.34771274712E+03  0.63476924421E+03  0.10100000352E+00 0.  1.
       -3    1    3    3    0  502 -0.48150118431E+03  0.22401883446E+03 -0.17931875552E+03  0.56052034304E+03  0.10100000352E+00 0. -1.
</event>
<event>
 5   0  0.2374100E-03  0.1130062E+04  0.7818609E-02  0.9176377E-01
       -1   -1    0    0    0  501  0.00000000000E+00  0.00000000000E+00  0.30429931918E+03  0.30429931923E+03  0.50400001928E-02 0. -1.
        1   -1    0    0  501    0  0.00000000000E+00  0.00000000000E+00 -0.10491650646E+04  0.10491650646E+04  0.50400001928E-02 0.  1.
    10030    2    1    2    0    0  0.00000000000E+00  0.00000000000E+00 -0.74486574544E+03  0.13534643839E+04  0.11300623256E+04 0.  0.
        2    1    3    3  502    0  0.11733216003E+03  0.42685349455E+03  0.48107247053E+02  0.44529209381E+03  0.25500000920E-02 0. -1.
       -2    1    3    3    0  502 -0.11733216003E+03 -0.42685349455E+03 -0.79297299249E+03  0.90817229005E+03  0.25500000920E-02 0.  1.
</event>
<event>
 5   0  0.2257667E-03  0.9217169E+03  0.7818609E-02  0.9398834E-01
       -1   -1    0    0    0  501  0.00000000000E+00  0.00000000000E+00  0.18023517615E+03  0.18023517622E+03  0.50400001928E-02 0. -1.
        1   -1    0    0  501    0  0.00000000000E+00  0.00000000000E+00 -0.11784077026E+04  0.11784077026E+04  0.50400001928E-02 0.  1.
    10030    2    1    2    0    0  0.00000000000E+00  0.00000000000E+00 -0.99817252642E+03  0.13586428788E+04  0.92171691946E+03 0.  0.
        4    1    3    3  502    0  0.40905164418E+01  0.35776168308E+03 -0.70908303854E+02  0.36474615099E+03  0.12699999809E+01 0. -1.
       -4    1    3    3    0  502 -0.40905164418E+01 -0.35776168308E+03 -0.92726422257E+03  0.99389672781E+03  0.12699999809E+01 0.  1.
</event>
<event>
 5   0  0.2257667E-03  0.1084699E+04  0.7818609E-02  0.9220235E-01
       -1   -1    0    0    0  501  0.00000000000E+00  0.00000000000E+00  0.38999767015E+03  0.38999767018E+03  0.50400001928E-02 0. -1.
        1   -1    0    0  501    0  0.00000000000E+00  0.00000000000E+00 -0.75421724189E+03  0.75421724190E+03  0.50400001928E-02 0.  1.
    10030    2    1    2    0    0  0.00000000000E+00  0.00000000000E+00 -0.36421957174E+03  0.11442149121E+04  0.10846989760E+04 0.  0.
        4    1    3    3  502    0 -0.66435204851E+01 -0.21737309803E+03 -0.70620664367E+03  0.73893479860E+03  0.12699999809E+01 0.  1.
       -4    1    3    3    0  502  0.66435204851E+01  0.21737309803E+03  0.34198707194E+03  0.40528011348E+03  0.12699999809E+01 0. -1.
</event>
<event>
 5   0  0.2298958E-03  0.1100322E+04  0.7818609E-02  0.9204878E-01
        1   -1    0    0  501    0  0.00000000000E+00  0.00000000000E+00  0.14517779190E+04  0.14517779190E+04  0.50400001928E-02 0. -1.
       -1   -1    0    0    0  501  0.00000000000E+00  0.00000000000E+00 -0.20848715545E+03  0.20848715551E+03  0.50400001928E-02 0.  1.
    10030    2    1    2    0    0  0.00000000000E+00  0.00000000000E+00  0.12432907635E+04  0.16602650745E+04  0.11003218597E+04 0.  0.
        1    1    3    3  502    0  0.31967740324E+02 -0.14075194542E+03 -0.17940916478E+03  0.23026223093E+03  0.50400001928E-02 0.  1.
       -1    1    3    3    0  502 -0.31967740324E+02  0.14075194542E+03  0.14226999283E+04  0.14300028436E+04  0.50400001928E-02 0. -1.
</event>
<event>
 5   0  0.3748901E-03  0.1096125E+04  0.7818609E-02  0.9208977E-01
        2   -1    0    0  501    0  0.00000000000E+00  0.00000000000E+00  0.12040775714E+04  0.12040775714E+04  0.25500000920E-02 0.  1.
       -2   -1    0    0    0  501  0.00000000000E+00  0.00000000000E+00 -0.24946262206E+03  0.24946262208E+03  0.25500000920E-02 0. -1.
    10030    2    1    2    0    0  0.00000000000E+00  0.00000000000E+00  0.95461494936E+03  0.14535401935E+04  0.10961247158E+04 0.  0.
        5    1    3    3  502    0  0.39224231731E+03 -0.10997243213E+02 -0.30034680308E+02  0.39357228925E+03  0.46999998093E+01 0. -1.
       -5    1    3    3    0  502 -0.39224231731E+03  0.10997243213E+02  0.98464962967E+03  0.10599679043E+04  0.46999998093E+01 0.  1.
</event>
<event>
 5   0  0.3744875E-03  0.1095389E+04  0.7818609E-02  0.9209698E-01
       -2   -1    0    0    0  501  0.00000000000E+00  0.00000000000E+00  0.14610472050E+03  0.14610472052E+03  0.25500000920E-02 0.  1.
        2   -1    0    0  501    0  0.00000000000E+00  0.00000000000E+00 -0.20531104624E+04  0.20531104624E+04  0.25500000920E-02 0. -1.
    10030    2    1    2    0    0  0.00000000000E+00  0.00000000000E+00 -0.19070057419E+04  0.21992151829E+04  0.10953887534E+04 0.  0.
        2    1    3    3  502    0  0.36831080967E+03  0.37261792124E+03 -0.12739322706E+04  0.13774615776E+04  0.25500000920E-02 0. -1.
       -2    1    3    3    0  502 -0.36831080967E+03 -0.37261792124E+03 -0.63307347131E+03  0.82175360530E+03  0.25500000920E-02 0.  1.
</event>
<event>
 5   0  0.2374100E-03  0.1099484E+04  0.7818609E-02  0.9205695E-01
       -1   -1    0    0    0  501  0.00000000000E+00  0.00000000000E+00  0.54690354441E+03  0.54690354444E+03  0.50400001928E-02 0.  1.
        1   -1    0    0  501    0  0.00000000000E+00  0.00000000000E+00 -0.55259494009E+03  0.55259494012E+03  0.50400001928E-02 0. -1.
    10030    2    1    2    0    0  0.00000000000E+00  0.00000000000E+00 -0.56913956786E+01  0.10994984846E+04  0.10994837541E+04 0.  0.
        2    1    3    3  502    0  0.25165084494E+02 -0.15906470803E+03  0.52278599035E+03  0.54702838549E+03  0.25500000920E-02 0.  1.
       -2    1    3    3    0  502 -0.25165084494E+02  0.15906470803E+03 -0.52847738603E+03  0.55247009907E+03  0.25500000920E-02 0. -1.
</event>
<event>
 5   0  0.2257667E-03  0.1103731E+04  0.7818609E-02  0.9201563E-01
        1   -1    0    0  501    0  0.00000000000E+00  0.00000000000E+00  0.92176716631E+03  0.92176716633E+03  0.50400001928E-02 0. -1.
       -1   -1    0    0    0  501  0.00000000000E+00  0.00000000000E+00 -0.33040367971E+03  0.33040367975E+03  0.50400001928E-02 0.  1.
    10030    2    1    2    0    0  0.00000000000E+00  0.00000000000E+00  0.59136348660E+03  0.12521708461E+04  0.11037305171E+04 0.  0.
        4    1    3    3  502    0 -0.15260901164E+03  0.52796370791E+03  0.23874818064E+03  0.59919737479E+03  0.12699999809E+01 0.  1.
       -4    1    3    3    0  502  0.15260901164E+03 -0.52796370791E+03  0.35261530596E+03  0.65297347128E+03  0.12699999809E+01 0. -1.
</event>
<event>
 5   0  0.2255788E-03  0.1097191E+04  0.7818609E-02  0.9207934E-01
       -1   -1    0    0    0  501  0.00000000000E+00  0.00000000000E+00  0.14088065413E+04  0.14088065413E+04  0.50400001928E-02 0.  1.
        1   -1    0    0  501    0  0.00000000000E+00  0.00000000000E+00 -0.21362540299E+03  0.21362540305E+03  0.50400001928E-02 0. -1.
    10030    2    1    2    0    0  0.00000000000E+00  0.00000000000E+00  0.11951811383E+04  0.16224319443E+04  0.10971907130E+04 0.  0.
        3    1    3    3  502    0  0.13804077454E+03 -0.51473062249E+03  0.40505087693E+03  0.66937963240E+03  0.10100000352E+00 0. -1.
       -3    1    3    3    0  502 -0.13804077454E+03  0.51473062249E+03  0.79013026136E+03  0.95305231194E+03  0.10100000352E+00 0.  1.
</event>
<event>
 5   0  0.2298958E-03  0.1100024E+04  0.7818609E-02  0.9205168E-01
        1   -1    0    0  501    0  0.00000000000E+00  0.00000000000E+00  0.22168167807E+04  0.22168167807E+04  0.50400001928E-02 0.  1.
       -1   -1    0    0    0  501  0.00000000000E+00  0.00000000000E+00 -0.13646288279E+03  0.13646288288E+03  0.50400001928E-02 0. -1.
    10030    2    1    2    0    0  0.00000000000E+00  0.00000000000E+00  0.20803538979E+04  0.23532796636E+04  0.11000240154E+04 0.  0.
        1    1    3    3  502    0  0.36698521016E+03  0.28530529499E+03  0.41122337847E+03  0.62063026260E+03  0.50400001928E-02 0. -1.
       -1    1    3    3    0  502 -0.36698521016E+03 -0.28530529499E+03  0.16691305195E+04  0.17326494010E+04  0.50400001928E-02 0.  1.
</event>
<event>
 5   0  0.2374100E-03  0.1092816E+04  0.7818609E-02  0.9212222E-01
       -1   -1    0    0    0  501  0.00000000000E+00  0.00000000000E+00  0.30776966019E+03  0.30776966023E+03  0.50400001928E-02 0. -1.
        1   -1    0    0  501    0  0.00000000000E+00  0.00000000000E+00 -0.97008155095E+03  0.97008155096E+03  0.50400001928E-02 0.  1.
    10030    2    1    2    0    0  0.00000000000E+00  0.00000000000E+00 -0.66231189076E+03  0.12778512112E+04  0.10928159394E+04 0.  0.
        2    1    3    3  502    0  0.51281769788E+03  0.14023040546E+03 -0.18364029101E+03  0.56246805631E+03  0.25500000920E-02 0. -1.
       -2    1    3    3    0  502 -0.51281769788E+03 -0.14023040546E+03 -0.47867159975E+03  0.71538315489E+03  0.25500000920E-02 0.  1.
</event>
<event>
 5   0  0.2257667E-03  0.1109566E+04  0.7818609E-02  0.9195918E-01
        1   -1    0    0  501    0  0.00000000000E+00  0.00000000000E+00  0.99936466336E+03  0.99936466338E+03  0.50400001928E-02 0.  1.
       -1   -1    0    0    0  501  0.00000000000E+00  0.00000000000E+00 -0.30798003202E+03  0.30798003206E+03  0.50400001928E-02 0. -1.
    10030    2    1    2    0    0  0.00000000000E+00  0.00000000000E+00  0.69138463135E+03  0.13073446954E+04  0.11095663316E+04 0.  0.
        4    1    3    3  502    0 -0.55175934360E+03 -0.55936963112E+02  0.36298613857E+03  0.66281812496E+03  0.12699999809E+01 0.  1.
       -4    1    3    3    0  502  0.55175934360E+03  0.55936963112E+02  0.32839849278E+03  0.64452657047E+03  0.12699999809E+01 0. -1.
</event>
<event>
 5   0  0.2255788E-03  0.1177124E+04  0.7818609E-02  0.9133119E-01
        1   -1    0    0  501    0  0.00000000000E+00  0.00000000000E+00  0.51477718354E+03  0.51477718357E+03  0.50400001928E-02 0.  1.
       -1   -1    0    0    0  501  0.00000000000E+00  0.00000000000E+00 -0.67292211316E+03  0.67292211318E+03  0.50400001928E-02 0. -1.
    10030    2    1    2    0    0  0.00000000000E+00  0.00000000000E+00 -0.15814492962E+03  0.11876992967E+04  0.11771235282E+04 0.  0.
        3    1    3    3  502    0 -0.13251560835E+03 -0.31125233874E+03  0.40688373440E+03  0.52914344780E+03  0.10100000352E+00 0.  1.
       -3    1    3    3    0  502  0.13251560835E+03  0.31125233874E+03 -0.56502866401E+03  0.65855584895E+03  0.10100000352E+00 0. -1.
</event>
<event>
 5   0  0.3744875E-03  0.1099203E+04  0.7818609E-02  0.9205969E-01
        2   -1    0    0  501    0  0.00000000000E+00  0.00000000000E+00  0.14742692179E+04  0.14742692179E+04  0.25500000920E-02 0.  1.
       -2   -1    0    0    0  501  0.00000000000E+00  0.00000000000E+00 -0.20488902131E+03  0.20488902133E+03  0.25500000920E-02 0. -1.
    10030    2    1    2    0    0  0.00000000000E+00  0.00000000000E+00  0.12693801966E+04  0.16791582392E+04  0.10992025786E+04 0.  0.
        2    1    3    3  502    0 -0.44925994628E+01  0.53895609436E+03  0.47039000509E+03  0.71537445579E+03  0.25500000920E-02 0. -1.
       -2    1    3    3    0  502  0.44925994628E+01 -0.53895609436E+03  0.79899019150E+03  0.96378378344E+03  0.25500000920E-02 0.  1.
</event>
<event>
 5   0  0.2300702E-03  0.1097956E+04  0.7818609E-02  0.9207187E-01
        1   -1    0    0  501    0  0.00000000000E+00  0.00000000000E+00  0.18927444534E+03  0.18927444541E+03  0.50400001928E-02 0. -1.
       -1   -1    0    0    0  501  0.00000000000E+00  0.00000000000E+00 -0.15922737184E+04  0.15922737184E+04  0.50400001928E-02 0.  1.
    10030    2    1    2    0    0  0.00000000000E+00  0.00000000000E+00 -0.14029992730E+04  0.17815481638E+04  0.10979557822E+04 0.  0.
        5    1    3    3  502    0 -0.37162136177E+03  0.40363404823E+03 -0.67194534871E+03  0.86749958102E+03  0.46999998093E+01 0.  1.
       -5    1    3    3    0  502  0.37162136177E+03 -0.40363404823E+03 -0.73105392431E+03  0.91404858276E+03  0.46999998093E+01 0. -1.
</event>
<event>
 5   0  0.3992414E-03  0.1071477E+04  0.7818609E-02  0.9233447E-01
        2   -1    0    0  501    0  0.00000000000E+00  0.00000000000E+00  0.53843436320E+03  0.53843436320E+03  0.25500000920E-02 0. -1.
       -2   -1    0    0    0  501  0.00000000000E+00  0.00000000000E+00 -0.53305593695E+03  0.53305593695E+03  0.25500000920E-02 0.  1.
    10030    2    1    2    0    0  0.00000000000E+00  0.00000000000E+00  0.53784262514E+01  0.10714903002E+04  0.10714768014E+04 0.  0.
        1    1    3    3  502    0 -0.13346373591E+03  0.31465643193E+03  0.41524064426E+03  0.53781598306E+03  0.50400001928E-02 0. -1.
       -1    1    3    3    0  502  0.13346373591E+03 -0.31465643193E+03 -0.40986221801E+03  0.53367431710E+03  0.50400001928E-02 0.  1.
</event>
<event>
 5   0  0.2255788E-03  0.1110846E+04  0.7818609E-02  0.9194684E-01
        1   -1    0    0  501    0  0.00000000000E+00  0.00000000000E+00  0.34489630194E+03  0.34489630198E+03  0.50400001928E-02 0.  1.
       -1   -1    0    0    0  501  0.00000000000E+00  0.00000000000E+00 -0.89445670031E+03  0.89445670033E+03  0.50400001928E-02 0. -1.
    10030    2    1    2    0    0  0.00000000000E+00  0.00000000000E+00 -0.54956039837E+03  0.12393530023E+04  0.11108461788E+04 0.  0.
        3    1    3    3  502    0 -0.31819035554E+03  0.44160724543E+03 -0.39817671784E+03  0.67439363164E+03  0.10100000352E+00 0. -1.
       -3    1    3    3    0  502  0.31819035554E+03 -0.44160724543E+03 -0.15138368053E+03  0.56495937066E+03  0.10100000352E+00 0.  1.
</event>
<event>
 5   0  0.3992414E-03  0.1096833E+04  0.7818609E-02  0.9208284E-01
       -2   -1    0    0    0  501  0.00000000000E+00  0.00000000000E+00  0.29148975635E+03  0.29148975636E+03  0.25500000920E-02 0. -1.
        2   -1    0    0  501    0  0.00000000000E+00  0.00000000000E+00 -0.10318058723E+04  0.10318058724E+04  0.25500000920E-02 0.  1.
    10030    2    1    2    0    0  0.00000000000E+00  0.00000000000E+00 -0.74031611600E+03  0.13232956287E+04  0.10968333371E+04 0.  0.
        1    1    3    3  502    0 -0.36556661287E+03 -0.10479122323E+03 -0.84689003986E+03  0.92835493673E+03  0.50400001928E-02 0.  1.
       -1    1    3    3    0  502  0.36556661287E+03  0.10479122323E+03  0.10657392386E+03  0.39494069198E+03  0.50400001928E-02 0. -1.
</event>
<event>
 5   0  0.2298958E-03  0.1098417E+04  0.7818609E-02  0.9206736E-01
       -1   -1    0    0    0  501  0.00000000000E+00  0.00000000000E+00  0.16816405409E+03  0.16816405417E+03  0.50400001928E-02 0. -1.
        1   -1    0    0  501    0  0.00000000000E+00  0.00000000000E+00 -0.17936641210E+04  0.17936641210E+04  0.50400001928E-02 0.  1.
    10030    2    1    2    0    0  0.00000000000E+00  0.00000000000E+00 -0.16255000669E+04  0.19618281752E+04  0.10984167339E+04 0.  0.
        1    1    3    3  502    0  0.13869861253E+03  0.93273439128E+01  0.13622222425E+03  0.19462990230E+03  0.50400001928E-02 0. -1.
       -1    1    3    3    0  502 -0.13869861253E+03 -0.93273439128E+01 -0.17617222912E+04  0.17671982729E+04  0.50400001928E-02 0.  1.
</event>
<event>
 5   0  0.3748901E-03  0.1125839E+04  0.7818609E-02  0.9180367E-01
       -2   -1    0    0    0  501  0.00000000000E+00  0.00000000000E+00  0.17567396496E+03  0.17567396497E+03  0.25500000920E-02 0.  1.
        2   -1    0    0  501    0  0.00000000000E+00  0.00000000000E+00 -0.18037862561E+04  0.18037862561E+04  0.25500000920E-02 0. -1.
    10030    2    1    2    0    0  0.00000000000E+00  0.00000000000E+00 -0.16281122911E+04  0.19794602211E+04  0.11258388580E+04 0.  0.
        5    1    3    3  502    0  0.29858852244E+03  0.41342796897E+03 -0.39510620963E+03  0.64514246345E+03  0.46999998093E+01 0.  1.
       -5    1    3    3    0  502 -0.29858852244E+03 -0.41342796897E+03 -0.12330060815E+04  0.13343177576E+04  0.46999998093E+01 0. -1.
</event>
<event>
 5   0  0.2374100E-03  0.1096827E+04  0.7818609E-02  0.9208290E-01
        1   -1    0    0  501    0  0.00000000000E+00  0.00000000000E+00  0.15185368164E+04  0.15185368164E+04  0.50400001928E-02 0. -1.
       -1   -1    0    0    0  501  0.00000000000E+00  0.00000000000E+00 -0.19805742990E+03  0.19805742996E+03  0.50400001928E-02 0.  1.
    10030    2    1    2    0    0  0.00000000000E+00  0.00000000000E+00  0.13204793865E+04  0.17165942464E+04  0.10968272410E+04 0.  0.
        2    1    3    3  502    0  0.20059551250E+03  0.49711803808E+03  0.47912161410E+03  0.71897317372E+03  0.25500000920E-02 0.  1.
       -2    1    3    3    0  502 -0.20059551250E+03 -0.49711803808E+03  0.84135777242E+03  0.99762107267E+03  0.25500000920E-02 0. -1.
</event>
<event>
 5   0  0.3962999E-03  0.1107730E+04  0.7818609E-02  0.9197690E-01
        2   -1    0    0  501    0  0.00000000000E+00  0.00000000000E+00  0.97834962324E+03  0.97834962325E+03  0.25500000920E-02 0. -1.
       -2   -1    0    0    0  501  0.00000000000E+00  0.00000000000E+00 -0.31355515039E+03  0.31355515040E+03  0.25500000920E-02 0.  1.
    10030    2    1    2    0    0  0.00000000000E+00  0.00000000000E+00  0.66479447285E+03  0.12919047737E+04  0.11077302258E+04 0.  0.
        3    1    3    3  502    0 -0.15297040073E+02 -0.31802071944E+03 -0.19615976206E+03  0.37396502495E+03  0.10100000352E+00 0.  1.
       -3    1    3    3    0  502  0.15297040073E+02  0.31802071944E+03  0.86095423492E+03  0.91793974870E+03  0.10100000352E+00 0. -1.
</event>
<event>
 5   0  0.3744875E-03  0.1102530E+04  0.7818609E-02  0.9202729E-01
       -2   -1    0    0    0  501  0.00000000000E+00  0.00000000000E+00  0.46856364101E+03  0.46856364102E+03  0.25500000920E-02 0.  1.
        2   -1    0    0  501    0  0.00000000000E+00  0.00000000000E+00 -0.64856363457E+03  0.64856363457E+03  0.25500000920E-02 0. -1.
    10030    2    1    2    0    0  0.00000000000E+00  0.00000000000E+00 -0.17999999356E+03  0.11171272756E+04  0.11025304314E+04 0.  0.
        2    1    3    3  502    0  0.39866593245E+03 -0.84617839827E+01  0.29567998306E+03  0.49641996321E+03  0.25500000920E-02 0.  1.
       -2    1    3    3    0  502 -0.39866593245E+03  0.84617839827E+01 -0.47567997662E+03  0.62070731238E+03  0.25500000920E-02 0. -1.
</event>
<event>
 5   0  0.1508625E-03  0.1111229E+04  0.7818609E-02  0.9194315E-01
        4   -1    0    0  501    0  0.00000000000E+00  0.00000000000E+00  0.29896514043E+03  0.29896783789E+03  0.12699999809E+01 0. -1.
       -4   -1    0    0    0  501  0.00000000000E+00  0.00000000000E+00 -0.10325799517E+04  0.10325807327E+04  0.12699999809E+01 0.  1.
    10030    2    1    2    0    0  0.00000000000E+00  0.00000000000E+00 -0.73361481124E+03  0.13315485706E+04  0.11112294563E+04 0.  0.
        4    1    3    3  502    0 -0.52603708453E+03 -0.13538748494E+03 -0.22675204870E+03  0.58861098348E+03  0.12699999809E+01 0. -1.
       -4    1    3    3    0  502  0.52603708453E+03  0.13538748494E+03 -0.50686276254E+03  0.74293758710E+03  0.12699999809E+01 0.  1.
</event>
<event>
 5   0  0.3748901E-03  0.1099608E+04  0.7818609E-02  0.9205574E-01
       -2   -1    0    0    0  501  0.00000000000E+00  0.00000000000E+00  0.56444166088E+03  0.56444166089E+03  0.25500000920E-02 0.  1.
        2   -1    0    0  501    0  0.00000000000E+00  0.00000000000E+00 -0.53554570538E+03  0.53554570538E+03  0.25500000920E-02 0. -1.
    10030    2    1    2    0    0  0.00000000000E+00  0.00000000000E+00  0.28895955505E+02  0.10999873663E+04  0.10996077618E+04 0.  0.
        5    1    3    3  502    0 -0.38653236942E+03 -0.30633737073E+02  0.40434722852E+03  0.56023608386E+03  0.46999998093E+01 0.  1.
       -5    1    3    3    0  502  0.38653236942E+03  0.30633737073E+02 -0.37545127301E+03  0.53975128241E+03  0.46999998093E+01 0. -1.
</event>
<event>
 5   0  0.3748901E-03  0.1008394E+04  0.7818609E-02  0.9299386E-01
       -2   -1    0    0    0  501  0.00000000000E+00  0.00000000000E+00  0.44275204578E+03  0.44275204579E+03  0.25500000920E-02 0. -1.
        2   -1    0    0  501    0  0.00000000000E+00  0.00000000000E+00 -0.57416918917E+03  0.57416918918E+03  0.25500000920E-02 0.  1.
    10030    2    1    2    0    0  0.00000000000E+00  0.00000000000E+00 -0.13141714339E+03  0.10169212350E+04  0.10083939372E+04 0.  0.
        5    1    3    3  502    0 -0.24748827814E+03  0.25159863195E+03  0.29739196638E+03  0.46153698777E+03  0.46999998093E+01 0. -1.
       -5    1    3    3    0  502  0.24748827814E+03 -0.25159863195E+03 -0.42880910977E+03  0.55538424720E+03  0.46999998093E+01 0.  1.
</event>
<event>
 5   0  0.3962999E-03  0.1100293E+04  0.7818609E-02  0.9204906E-01
       -2   -1    0    0    0  501  0.00000000000E+00  0.00000000000E+00  0.10710912670E+04  0.10710912670E+04  0.25500000920E-02 0.  1.
        2   -1    0    0  501    0  0.00000000000E+00  0.00000000000E+00 -0.28257266336E+03  0.28257266337E+03  0.25500000920E-02 0. -1.
    10030    2    1    2    0    0  0.00000000000E+00  0.00000000000E+00  0.78851860366E+03  0.13536639304E+04  0.11002928920E+04 0.  0.
        3    1    3    3  502    0  0.29242533410E+03 -0.32009240005E+03  0.81090236390E+03  0.91952943105E+03  0.10100000352E+00 0.  1.
       -3    1    3    3    0  502 -0.29242533410E+03  0.32009240005E+03 -0.22383760236E+02  0.43413449934E+03  0.10100000352E+00 0. -1.
</event>
<event>
 5   0  0.3992414E-03  0.1097609E+04  0.7818609E-02  0.9207525E-01
       -2   -1    0    0    0  501  0.00000000000E+00  0.00000000000E+00  0.87060102961E+03  0.87060102961E+03  0.25500000920E-02 0.  1.
        2   -1    0    0  501    0  0.00000000000E+00  0.00000000000E+00 -0.34595232523E+03  0.34595232524E+03  0.25500000920E-02 0. -1.
    10030    2    1    2    0    0  0.00000000000E+00  0.00000000000E+00  0.52464870438E+03  0.12165533548E+04  0.10976091300E+04 0.  0.
        1    1    3    3  502    0  0.26766814211E+02 -0.54254666847E+03  0.17566524209E+03  0.57090421886E+03  0.50400001928E-02 0. -1.
       -1    1    3    3    0  502 -0.26766814211E+02  0.54254666847E+03  0.34898346229E+03  0.64564913598E+03  0.50400001928E-02 0.  1.
</event>
<event>
 5   0  0.2300702E-03  0.1105799E+04  0.7818609E-02  0.9199558E-01
       -1   -1    0    0    0  501  0.00000000000E+00  0.00000000000E+00  0.50391298726E+03  0.50391298729E+03  0.50400001928E-02 0.  1.
        1   -1    0    0  501    0  0.00000000000E+00  0.00000000000E+00 -0.60664852930E+03  0.60664852932E+03  0.50400001928E-02 0. -1.
    10030    2    1    2    0    0  0.00000000000E+00  0.00000000000E+00 -0.10273554203E+03  0.11105615166E+04  0.11057993898E+04 0.  0.
        5    1    3    3  502    0  0.18725855718E+03 -0.62928526778E+02 -0.56997342113E+03  0.60325579775E+03  0.46999998093E+01 0. -1.
       -5    1    3    3    0  502 -0.18725855718E+03  0.62928526778E+02  0.46723787910E+03  0.50730571886E+03  0.46999998093E+01 0.  1.
</event>
<event>
 5   0  0.2298958E-03  0.1097468E+04  0.7818609E-02  0.9207664E-01
       -1   -1    0    0    0  501  0.00000000000E+00  0.00000000000E+00  0.31597926004E+03  0.31597926008E+03  0.50400001928E-02 0. -1.
        1   -1    0    0  501    0  0.00000000000E+00  0.00000000000E+00 -0.95293843909E+03  0.95293843910E+03  0.50400001928E-02 0.  1.
    10030    2    1    2    0    0  0.00000000000E+00  0.00000000000E+00 -0.63695917905E+03  0.12689176992E+04  0.10974675993E+04 0.  0.
        1    1    3    3  502    0  0.29512715357E+03  0.43208715995E+03 -0.50955204453E+03  0.73037157439E+03  0.50400001928E-02 0.  1.
       -1    1    3    3    0  502 -0.29512715357E+03 -0.43208715995E+03 -0.12740713452E+03  0.53854612478E+03  0.50400001928E-02 0. -1.
</event>
<event>
 5   0  0.1508625E-03  0.1089010E+04  0.7818609E-02  0.9215970E-01
       -3   -1    0    0    0  501  0.00000000000E+00  0.00000000000E+00  0.39900144318E+03  0.39900145596E+03  0.10100000352E+00 0. -1.
        3   -1    0    0  501    0  0.00000000000E+00  0.00000000000E+00 -0.74306962366E+03  0.74306963052E+03  0.10100000352E+00 0.  1.
    10030    2    1    2    0    0  0.00000000000E+00  0.00000000000E+00 -0.34406818048E+03  0.11420710865E+04  0.10890103093E+04 0.  0.
        1    1    3    3  502    0 -0.44155055053E+02  0.35920306431E+03  0.25461656436E+03  0.44249983635E+03  0.50400001928E-02 0. -1.
       -1    1    3    3    0  502  0.44155055053E+02 -0.35920306431E+03 -0.59868474484E+03  0.69957125014E+03  0.50400001928E-02 0.  1.
</event>
<event>
 5   0  0.3744875E-03  0.1091226E+04  0.7818609E-02  0.9213786E-01
        2   -1    0    0  501    0  0.00000000000E+00  0.00000000000E+00  0.17875052737E+04  0.17875052737E+04  0.25500000920E-02 0.  1.
       -2   -1    0    0    0  501  0.00000000000E+00  0.00000000000E+00 -0.16654144948E+03  0.16654144950E+03  0.25500000920E-02 0. -1.
    10030    2    1    2    0    0  0.00000000000E+00  0.00000000000E+00  0.16209638242E+04  0.19540467232E+04  0.10912263180E+04 0.  0.
        2    1    3    3  502    0  0.23345363939E+03  0.37559800784E+03  0.13827162687E+04  0.14517157935E+04  0.25500000920E-02 0.  1.
       -2    1    3    3    0  502 -0.23345363939E+03 -0.37559800784E+03  0.23824755547E+03  0.50233092970E+03  0.25500000920E-02 0. -1.
</event>
<event>
 5   0  0.2374100E-03  0.1001990E+04  0.7818609E-02  0.9306365E-01
       -1   -1    0    0    0  501  0.00000000000E+00  0.00000000000E+00  0.25305556417E+03  0.25305556422E+03  0.50400001928E-02 0.  1.
        1   -1    0    0  501    0  0.00000000000E+00  0.00000000000E+00 -0.99186167921E+03  0.99186167923E+03  0.50400001928E-02 0. -1.
    10030    2    1    2    0    0  0.00000000000E+00  0.00000000000E+00 -0.73880611504E+03  0.12449172434E+04  0.10019902531E+04 0.  0.
        2    1    3    3  502    0  0.23412680357E+03 -0.44240093625E+03 -0.34269286224E+03  0.60660724227E+03  0.25500000920E-02 0.  1.
       -2    1    3    3    0  502 -0.23412680357E+03  0.44240093625E+03 -0.39611325280E+03  0.63831000117E+03  0.25500000920E-02 0. -1.
</event>
<event>
 5   0  0.3992414E-03  0.1108246E+04  0.7818609E-02  0.9197191E-01
        2   -1    0    0  501    0  0.00000000000E+00  0.00000000000E+00  0.64546349099E+03  0.64546349100E+03  0.25500000920E-02 0. -1.
       -2   -1    0    0    0  501  0.00000000000E+00  0.00000000000E+00 -0.47570866072E+03  0.47570866073E+03  0.25500000920E-02 0.  1.
    10030    2    1    2    0    0  0.00000000000E+00  0.00000000000E+00  0.16975483027E+03  0.11211721517E+04  0.11082464940E+04 0.  0.
        1    1    3    3  502    0  0.28885822400E+03  0.26567551055E+03  0.48063045256E+03  0.62050639193E+03  0.50400001928E-02 0. -1.
       -1    1    3    3    0  502 -0.28885822400E+03 -0.26567551055E+03 -0.31087562229E+03  0.50066575980E+03  0.50400001928E-02 0.  1.
</event>
<event>
 5   0  0.3748901E-03  0.1096726E+04  0.7818609E-02  0.9208389E-01
       -2   -1    0    0    0  501  0.00000000000E+00  0.00000000000E+00  0.36567260311E+03  0.36567260312E+03  0.25500000920E-02 0.  1.
        2   -1    0    0  501    0  0.00000000000E+00  0.00000000000E+00 -0.82232566591E+03  0.82232566591E+03  0.25500000920E-02 0. -1.
    10030    2    1    2    0    0  0.00000000000E+00  0.00000000000E+00 -0.45665306279E+03  0.11879982690E+04  0.10967259765E+04 0.  0.
        5    1    3    3  502    0 -0.24491377632E+03 -0.18405013735E+03 -0.72095186704E+03  0.78335872720E+03  0.46999998093E+01 0. -1.
       -5    1    3    3    0  502  0.24491377632E+03  0.18405013735E+03  0.26429880425E+03  0.40463954183E+03  0.46999998093E+01 0.  1.
</event>
<event>
 5   0  0.1508625E-03  0.1077372E+04  0.7818609E-02  0.9227531E-01
        3   -1    0    0  501    0  0.00000000000E+00  0.00000000000E+00  0.24413307170E+03  0.24413309259E+03  0.10100000352E+00 0.  1.
       -3   -1    0    0    0  501  0.00000000000E+00  0.00000000000E+00 -0.11886250661E+04  0.11886250704E+04  0.10100000352E+00 0. -1.
    10030    2    1    2    0    0  0.00000000000E+00  0.00000000000E+00 -0.94449199441E+03  0.14327581630E+04  0.10773721855E+04 0.  0.
        1    1    3    3  502    0 -0.39010025914E+03  0.36538403312E+03 -0.56144608001E+03  0.77518088510E+03  0.50400001928E-02 0. -1.
       -1    1    3    3    0  502  0.39010025914E+03 -0.36538403312E+03 -0.38304591439E+03  0.65757727789E+03  0.50400001928E-02 0.  1.
</event>
<event>
 5   0  0.2255788E-03  0.1097980E+04  0.7818609E-02  0.9207163E-01
        1   -1    0    0  501    0  0.00000000000E+00  0.00000000000E+00  0.37461807031E+03  0.37461807035E+03  0.50400001928E-02 0.  1.
       -1   -1    0    0    0  501  0.00000000000E+00  0.00000000000E+00 -0.80452614130E+03  0.80452614131E+03  0.50400001928E-02 0. -1.
    10030    2    1    2    0    0  0.00000000000E+00  0.00000000000E+00 -0.42990807098E+03  0.11791442117E+04  0.10979800191E+04 0.  0.
        3    1    3    3  502    0 -0.37527627333E+03  0.39231570479E+03 -0.12740390468E+03  0.55765191534E+03  0.10100000352E+00 0. -1.
       -3    1    3    3    0  502  0.37527627333E+03 -0.39231570479E+03 -0.30250416631E+03  0.62149229632E+03  0.10100000352E+00 0.  1.
</event>
<event>
 5   0  0.2300702E-03  0.1091889E+04  0.7818609E-02  0.9213134E-01
        1   -1    0    0  501    0  0.00000000000E+00  0.00000000000E+00  0.64640912978E+03  0.64640912980E+03  0.50400001928E-02 0. -1.
       -1   -1    0    0    0  501  0.00000000000E+00  0.00000000000E+00 -0.46109399728E+03  0.46109399731E+03  0.50400001928E-02 0.  1.
    10030    2    1    2    0    0  0.00000000000E+00  0.00000000000E+00  0.18531513250E+03  0.11075031271E+04  0.10918889496E+04 0.  0.
        5    1    3    3  502    0 -0.52840700737E+03 -0.11682850624E+03  0.16559141974E+03  0.56595536361E+03  0.46999998093E+01 0. -1.
       -5    1    3    3    0  502  0.52840700737E+03  0.11682850624E+03  0.19723712761E+02  0.54154776350E+03  0.46999998093E+01 0.  1.
</event>
<event>
 5   0  0.3992414E-03  0.1109881E+04  0.7818609E-02  0.9195614E-01
        2   -1    0    0  501    0  0.00000000000E+00  0.00000000000E+00  0.68383360158E+03  0.68383360158E+03  0.25500000920E-02 0. -1.
       -2   -1    0    0    0  501  0.00000000000E+00  0.00000000000E+00 -0.45034190946E+03  0.45034190947E+03  0.25500000920E-02 0.  1.
    10030    2    1    2    0    0  0.00000000000E+00  0.00000000000E+00  0.23349169211E+03  0.11341755111E+04  0.11098809484E+04 0.  0.
        1    1    3    3  502    0  0.36630342841E+02  0.41265615819E+03  0.49405977732E+03  0.64476503511E+03  0.50400001928E-02 0. -1.
       -1    1    3    3    0  502 -0.36630342841E+02 -0.41265615819E+03 -0.26056808521E+03  0.48941047594E+03  0.50400001928E-02 0.  1.
</event>
<event>
 5   0  0.3713158E-03  0.1102352E+04  0.7818609E-02  0.9202903E-01
       -2   -1    0    0    0  501  0.00000000000E+00  0.00000000000E+00  0.29861943575E+03  0.29861943576E+03  0.25500000920E-02 0.  1.
        2   -1    0    0  501    0  0.00000000000E+00  0.00000000000E+00 -0.10173312554E+04  0.10173312554E+04  0.25500000920E-02 0. -1.
    10030    2    1    2    0    0  0.00000000000E+00  0.00000000000E+00 -0.71871181966E+03  0.13159506912E+04  0.11023518231E+04 0.  0.
        4    1    3    3  502    0  0.38580567299E+03  0.21155760811E+03 -0.75562640007E+03  0.87440008477E+03  0.12699999809E+01 0. -1.
       -4    1    3    3    0  502 -0.38580567299E+03 -0.21155760811E+03  0.36914580418E+02  0.44155060640E+03  0.12699999809E+01 0.  1.
</event>
<event>
 5   0  0.1508625E-03  0.1105806E+04  0.7818609E-02  0.9199552E-01
       -4   -1    0    0    0  501  0.00000000000E+00  0.00000000000E+00  0.62277057545E+03  0.62277187039E+03  0.12699999809E+01 0. -1.
        4   -1    0    0  501    0  0.00000000000E+00  0.00000000000E+00 -0.49087094241E+03  0.49087258531E+03  0.12699999809E+01 0.  1.
    10030    2    1    2    0    0  0.00000000000E+00  0.00000000000E+00  0.13189963304E+03  0.11136444557E+04  0.11058057969E+04 0.  0.
        2    1    3    3  502    0 -0.33693119372E+03 -0.34735139887E+03  0.33528906277E+03  0.58872266749E+03  0.25500000920E-02 0. -1.
       -2    1    3    3    0  502  0.33693119372E+03  0.34735139887E+03 -0.20338942973E+03  0.52492178820E+03  0.25500000920E-02 0.  1.
</event>
<event>
 5   0  0.2374100E-03  0.1089298E+04  0.7818609E-02  0.9215686E-01
       -1   -1    0    0    0  501  0.00000000000E+00  0.00000000000E+00  0.50672283931E+03  0.50672283933E+03  0.50400001928E-02 0.  1.
        1   -1    0    0  501    0  0.00000000000E+00  0.00000000000E+00 -0.58541404811E+03  0.58541404813E+03  0.50400001928E-02 0. -1.
    10030    2    1    2    0    0  0.00000000000E+00  0.00000000000E+00 -0.78691208802E+02  0.10921368875E+04  0.10892982487E+04 0.  0.
        2    1    3    3  502    0 -0.13206042140E+03  0.41656825146E+03  0.28657628810E+03  0.52258495188E+03  0.25500000920E-02 0.  1.
       -2    1    3    3    0  502  0.13206042140E+03 -0.41656825146E+03 -0.36526749690E+03  0.56955193558E+03  0.25500000920E-02 0. -1.
</event>
<event>
 5   0  0.3962999E-03  0.9833522E+03  0.7818609E-02  0.9326995E-01
       -2   -1    0    0    0  501  0.00000000000E+00  0.00000000000E+00  0.14424386231E+03  0.14424386234E+03  0.25500000920E-02 0.  1.
        2   -1    0    0  501    0  0.00000000000E+00  0.00000000000E+00 -0.16759490664E+04  0.16759490664E+04  0.25500000920E-02 0. -1.
    10030    2    1    2    0    0  0.00000000000E+00  0.00000000000E+00 -0.15317052041E+04  0.18201929287E+04  0.98335215747E+03 0.  0.
        3    1    3    3  502    0  0.61223805363E+02 -0.39084946572E+03 -0.13062509480E+04  0.13648454889E+04  0.10100000352E+00 0. -1.
       -3    1    3    3    0  502 -0.61223805363E+02  0.39084946572E+03 -0.22545425610E+03  0.45534743986E+03  0.10100000352E+00 0.  1.
</event>
<event>
 5   0  0.2298958E-03  0.1104153E+04  0.7818609E-02  0.9201153E-01
        1   -1    0    0  501    0  0.00000000000E+00  0.00000000000E+00  0.50553728380E+03  0.50553728382E+03  0.50400001928E-02 0.  1.
       -1   -1    0    0    0  501  0.00000000000E+00  0.00000000000E+00 -0.60290014026E+03  0.60290014028E+03  0.50400001928E-02 0. -1.
    10030    2    1    2    0    0  0.00000000000E+00  0.00000000000E+00 -0.97362856463E+02  0.11084374241E+04  0.11041530679E+04 0.  0.
        1    1    3    3  502    0  0.30213926571E+03 -0.12226740976E+03 -0.49600108640E+03  0.59351034794E+03  0.50400001928E-02 0. -1.
       -1    1    3    3    0  502 -0.30213926571E+03  0.12226740976E+03  0.39863822994E+03  0.51492707616E+03  0.50400001928E-02 0.  1.
</event>
<event>
 5   0  0.3962999E-03  0.1105599E+04  0.7818609E-02  0.9199752E-01
        2   -1    0    0  501    0  0.00000000000E+00  0.00000000000E+00  0.89076271308E+03  0.89076271308E+03  0.25500000920E-02 0. -1.
       -2   -1    0    0    0  501  0.00000000000E+00  0.00000000000E+00 -0.34306265887E+03  0.34306265888E+03  0.25500000920E-02 0.  1.
    10030    2    1    2    0    0  0.00000000000E+00  0.00000000000E+00  0.54770005421E+03  0.12338253720E+04  0.11055992489E+04 0.  0.
        3    1    3    3  502    0  0.21440689136E+03 -0.48627286278E+03  0.10403118337E+03  0.54152941698E+03  0.10100000352E+00 0.  1.
       -3    1    3    3    0  502 -0.21440689136E+03  0.48627286278E+03  0.44366887083E+03  0.69229595499E+03  0.10100000352E+00 0. -1.
</event>
<event>
 5   0  0.2374100E-03  0.1078297E+04  0.7818609E-02  0.9226607E-01
       -1   -1    0    0    0  501  0.00000000000E+00  0.00000000000E+00  0.14511032966E+04  0.14511032966E+04  0.50400001928E-02 0. -1.
        1   -1    0    0  501    0  0.00000000000E+00  0.00000000000E+00 -0.20031744905E+03  0.20031744911E+03  0.50400001928E-02 0.  1.
    10030    2    1    2    0    0  0.00000000000E+00  0.00000000000E+00  0.12507858475E+04  0.16514207457E+04  0.10782973815E+04 0.  0.
        2    1    3    3  502    0  0.46012200771E+03 -0.16111894238E+03  0.27278099306E+03  0.55864214462E+03  0.25500000920E-02 0.  1.
       -2    1    3    3    0  502 -0.46012200771E+03  0.16111894238E+03  0.97800485446E+03  0.10927786011E+04  0.25500000920E-02 0. -1.
</event>
<event>
 5   0  0.3992414E-03  0.1110043E+04  0.7818609E-02  0.9195458E-01
        2   -1    0    0  501    0  0.00000000000E+00  0.00000000000E+00  0.14297818317E+04  0.14297818317E+04  0.25500000920E-02 0.  1.
       -2   -1    0    0    0  501  0.00000000000E+00  0.00000000000E+00 -0.21545157297E+03  0.21545157299E+03  0.25500000920E-02 0. -1.
    10030    2    1    2    0    0  0.00000000000E+00  0.00000000000E+00  0.12143302587E+04  0.16452334047E+04  0.11100427824E+04 0.  0.
        1    1    3    3  502    0  0.30493551265E+03  0.38187945412E+03  0.21718847726E+03  0.53477885059E+03  0.50400001928E-02 0. -1.
       -1    1    3    3    0  502 -0.30493551265E+03 -0.38187945412E+03  0.99714178148E+03  0.11104545541E+04  0.50400001928E-02 0.  1.
</event>
<event>
 5   0  0.3744875E-03  0.1101129E+04  0.7818609E-02  0.9204092E-01
        2   -1    0    0  501    0  0.00000000000E+00  0.00000000000E+00  0.31595941976E+04  0.31595941976E+04  0.25500000920E-02 0. -1.
       -2   -1    0    0    0  501  0.00000000000E+00  0.00000000000E+00 -0.95936762047E+02  0.95936762081E+02  0.25500000920E-02 0.  1.
    10030    2    1    2    0    0  0.00000000000E+00  0.00000000000E+00  0.30636574356E+04  0.32555309597E+04  0.11011289421E+04 0.  0.
        2    1    3    3  502    0  0.49885580776E+03  0.81499084550E+02  0.88663882678E+03  0.10206016005E+04  0.25500000920E-02 0.  1.
       -2    1    3    3    0  502 -0.49885580776E+03 -0.81499084550E+02  0.21770186088E+04  0.22349293592E+04  0.25500000920E-02 0. -1.
</event>
<event>
 5   0  0.2300702E-03  0.1094398E+04  0.7818609E-02  0.9210670E-01
        1   -1    0    0  501    0  0.00000000000E+00  0.00000000000E+00  0.59277015260E+03  0.59277015262E+03  0.50400001928E-02 0. -1.
       -1   -1    0    0    0  501  0.00000000000E+00  0.00000000000E+00 -0.50513089997E+03  0.50513089999E+03  0.50400001928E-02 0.  1.
    10030    2    1    2    0    0  0.00000000000E+00  0.00000000000E+00  0.87639252633E+02  0.10979010526E+04  0.10943975890E+04 0.  0.
        5    1    3    3  502    0 -0.28348075658E+03 -0.36664037744E+03  0.33564245274E+03  0.57224509766E+03  0.46999998093E+01 0. -1.
       -5    1    3    3    0  502  0.28348075658E+03  0.36664037744E+03 -0.24800320010E+03  0.52565595496E+03  0.46999998093E+01 0.  1.
</event>
<event>
 5   0  0.2257667E-03  0.1114067E+04  0.7818609E-02  0.9191589E-01
       -1   -1    0    0    0  501  0.00000000000E+00  0.00000000000E+00  0.36046862341E+03  0.36046862344E+03  0.50400001928E-02 0.  1.
        1   -1    0    0  501    0  0.00000000000E+00  0.00000000000E+00 -0.86078531704E+03  0.86078531706E+03  0.50400001928E-02 0. -1.
    10030    2    1    2    0    0  0.00000000000E+00  0.00000000000E+00 -0.50031669364E+03  0.12212539405E+04  0.11140666018E+04 0.  0.
        4    1    3    3  502    0  0.17812551540E+03  0.39375517848E+03 -0.63541534401E+03  0.76845696829E+03  0.12699999809E+01 0. -1.
       -4    1    3    3    0  502 -0.17812551540E+03 -0.39375517848E+03  0.13509865037E+03  0.45279697221E+03  0.12699999809E+01 0.  1.
</event>
<event>
 5   0  0.1508625E-03  0.1118318E+04  0.7818609E-02  0.9187519E-01
       -3   -1    0    0    0  501  0.00000000000E+00  0.00000000000E+00  0.43765856976E+03  0.43765858141E+03  0.10100000352E+00 0.  1.
        3   -1    0    0  501    0  0.00000000000E+00  0.00000000000E+00 -0.71439023970E+03  0.71439024684E+03  0.10100000352E+00 0. -1.
    10030    2    1    2    0    0  0.00000000000E+00  0.00000000000E+00 -0.27673166994E+03  0.11520488282E+04  0.11183184187E+04 0.  0.
        4    1    3    3  502    0  0.44563158070E+02 -0.38073544167E+03  0.28098978036E+03  0.47529172217E+03  0.12699999809E+01 0.  1.
       -4    1    3    3    0  502 -0.44563158070E+02  0.38073544167E+03 -0.55772145029E+03  0.67675710607E+03  0.12699999809E+01 0. -1.
</event>
<event>
 5   0  0.3713158E-03  0.1119314E+04  0.7818609E-02  0.9186569E-01
       -2   -1    0    0    0  501  0.00000000000E+00  0.00000000000E+00  0.13710997925E+03  0.13710997927E+03  0.25500000920E-02 0.  1.
        2   -1    0    0  501    0  0.00000000000E+00  0.00000000000E+00 -0.22844125243E+04  0.22844125243E+04  0.25500000920E-02 0. -1.
    10030    2    1    2    0    0  0.00000000000E+00  0.00000000000E+00 -0.21473025451E+04  0.24215225036E+04  0.11193136358E+04 0.  0.
        4    1    3    3  502    0 -0.25052234399E+03 -0.44742339338E+02  0.46917470487E+01  0.25453280173E+03  0.12699999809E+01 0.  1.
       -4    1    3    3    0  502  0.25052234399E+03  0.44742339338E+02 -0.21519942921E+04  0.21669897019E+04  0.12699999809E+01 0. -1.
</event>
<event>
 5   0  0.3748901E-03  0.1100279E+04  0.7818609E-02  0.9204920E-01
        2   -1    0    0  501    0  0.00000000000E+00  0.00000000000E+00  0.48232038015E+03  0.48232038016E+03  0.25500000920E-02 0.  1.
       -2   -1    0    0    0  501  0.00000000000E+00  0.00000000000E+00 -0.62749509097E+03  0.62749509098E+03  0.25500000920E-02 0. -1.
    10030    2    1    2    0    0  0.00000000000E+00  0.00000000000E+00 -0.14517471082E+03  0.11098154711E+04  0.11002793660E+04 0.  0.
        5    1    3    3  502    0  0.41027259291E+03 -0.22301455706E+03 -0.36592132463E+03  0.59327868575E+03  0.46999998093E+01 0. -1.
       -5    1    3    3    0  502 -0.41027259291E+03  0.22301455706E+03  0.22074661381E+03  0.51653678538E+03  0.46999998093E+01 0.  1.
</event>
<event>
 5   0  0.2257667E-03  0.1109736E+04  0.7818609E-02  0.9195754E-01
       -1   -1    0    0    0  501  0.00000000000E+00  0.00000000000E+00  0.47219079549E+03  0.47219079552E+03  0.50400001928E-02 0.  1.
        1   -1    0    0  501    0  0.00000000000E+00  0.00000000000E+00 -0.65202141797E+03  0.65202141799E+03  0.50400001928E-02 0. -1.
    10030    2    1    2    0    0  0.00000000000E+00  0.00000000000E+00 -0.17983062248E+03  0.11242122135E+04  0.11097360264E+04 0.  0.
        4    1    3    3  502    0  0.63100078958E+02  0.23247698062E+03 -0.59628541696E+03  0.64310580612E+03  0.12699999809E+01 0. -1.
       -4    1    3    3    0  502 -0.63100078958E+02 -0.23247698062E+03  0.41645479448E+03  0.48110640739E+03  0.12699999809E+01 0.  1.
</event>
<event>
 5   0  0.3713158E-03  0.1098036E+04  0.7818609E-02  0.9207108E-01
        2   -1    0    0  501    0  0.00000000000E+00  0.00000000000E+00  0.14047490162E+04  0.14047490162E+04  0.25500000920E-02 0. -1.
       -2   -1    0    0    0  501  0.00000000000E+00  0.00000000000E+00 -0.21457277096E+03  0.21457277098E+03  0.25500000920E-02 0.  1.
    10030    2    1    2    0    0  0.00000000000E+00  0.00000000000E+00  0.11901762453E+04  0.16193217872E+04  0.10980362270E+04 0.  0.
        4    1    3    3  502    0 -0.42955273005E+03 -0.30636532800E+03  0.81895794517E+03  0.97420171984E+03  0.12699999809E+01 0.  1.
       -4    1    3    3    0  502  0.42955273005E+03  0.30636532800E+03  0.37121830012E+03  0.64512006738E+03  0.12699999809E+01 0. -1.
</event>
<event>
 5   0  0.1508625E-03  0.1090263E+04  0.7818609E-02  0.9214735E-01
        3   -1    0    0  501    0  0.00000000000E+00  0.00000000000E+00  0.84595216823E+03  0.84595217426E+03  0.10100000352E+00 0.  1.
       -3   -1    0    0    0  501  0.00000000000E+00  0.00000000000E+00 -0.35128252892E+03  0.35128254344E+03  0.10100000352E+00 0. -1.
    10030    2    1    2    0    0  0.00000000000E+00  0.00000000000E+00  0.49466963931E+03  0.11972347177E+04  0.10902627744E+04 0.  0.
        4    1    3    3  502    0 -0.13372744552E+03  0.46086785445E+03  0.53132973216E+03  0.71595747509E+03  0.12699999809E+01 0.  1.
       -4    1    3    3    0  502  0.13372744552E+03 -0.46086785445E+03 -0.36660092850E+02  0.48127724262E+03  0.12699999809E+01 0. -1.
</event>
<event>
 5   0  0.2255788E-03  0.1104169E+04  0.7818609E-02  0.9201138E-01
        1   -1    0    0  501    0  0.00000000000E+00  0.00000000000E+00  0.54814508097E+03  0.54814508099E+03  0.50400001928E-02 0.  1.
       -1   -1    0    0    0  501  0.00000000000E+00  0.00000000000E+00 -0.55605245785E+03  0.55605245787E+03  0.50400001928E-02 0. -1.
    10030    2    1    2    0    0  0.00000000000E+00  0.00000000000E+00 -0.79073768761E+01  0.11041975389E+04  0.11041692254E+04 0.  0.
        3    1    3    3  502    0  0.32817459620E+03  0.16650504875E+03  0.40760869925E+03  0.54915148981E+03  0.10100000352E+00 0.  1.
       -3    1    3    3    0  502 -0.32817459620E+03 -0.16650504875E+03 -0.41551607613E+03  0.55504604905E+03  0.10100000352E+00 0. -1.
</event>
<event>
 5   0  0.2374100E-03  0.1100233E+04  0.7818609E-02  0.9204965E-01
       -1   -1    0    0    0  501  0.00000000000E+00  0.00000000000E+00  0.27565580525E+03  0.27565580530E+03  0.50400001928E-02 0. -1.
        1   -1    0    0  501    0  0.00000000000E+00  0.00000000000E+00 -0.10978480789E+04  0.10978480789E+04  0.50400001928E-02 0.  1.
    10030    2    1    2    0    0  0.00000000000E+00  0.00000000000E+00 -0.82219227361E+03  0.13735038842E+04  0.11002330594E+04 0.  0.
        2    1    3    3  502    0 -0.17074175331E+02  0.26149562184E+03  0.19273145336E+03  0.32529509806E+03  0.25500000920E-02 0. -1.
       -2    1    3    3    0  502  0.17074175331E+02 -0.26149562184E+03 -0.10149237270E+04  0.10482087861E+04  0.25500000920E-02 0.  1.
</event>
<event>
 5   0  0.2374100E-03  0.1131186E+04  0.7818609E-02  0.9175318E-01
        1   -1    0    0  501    0  0.00000000000E+00  0.00000000000E+00  0.20822330914E+04  0.20822330914E+04  0.50400001928E-02 0.  1.
       -1   -1    0    0    0  501  0.00000000000E+00  0.00000000000E+00 -0.15363101336E+03  0.15363101345E+03  0.50400001928E-02 0. -1.
    10030    2    1    2    0    0  0.00000000000E+00  0.00000000000E+00  0.19286020780E+04  0.22358641048E+04  0.11311862446E+04 0.  0.
        2    1    3    3  502    0  0.54898077736E+03  0.12633886497E+03  0.10641944414E+04  0.12040976754E+04  0.25500000920E-02 0. -1.
       -2    1    3    3    0  502 -0.54898077736E+03 -0.12633886497E+03  0.86440763656E+03  0.10317664294E+04  0.25500000920E-02 0.  1.
</event>
<event>
 5   0  0.2298958E-03  0.1107309E+04  0.7818609E-02  0.9198097E-01
        1   -1    0    0  501    0  0.00000000000E+00  0.00000000000E+00  0.36590470139E+03  0.36590470142E+03  0.50400001928E-02 0.  1.
       -1   -1    0    0    0  501  0.00000000000E+00  0.00000000000E+00 -0.83774078082E+03  0.83774078084E+03  0.50400001928E-02 0. -1.
    10030    2    1    2    0    0  0.00000000000E+00  0.00000000000E+00 -0.47183607944E+03  0.12036454823E+04  0.11073089727E+04 0.  0.
        1    1    3    3  502    0 -0.10816637054E+03 -0.15068194798E+03 -0.80296184070E+03  0.82410723259E+03  0.50400001928E-02 0. -1.
       -1    1    3    3    0  502  0.10816637054E+03  0.15068194798E+03  0.33112576126E+03  0.37953824967E+03  0.50400001928E-02 0.  1.
</event>
<event>
 5   0  0.2300702E-03  0.1106893E+04  0.7818609E-02  0.9198500E-01
        1   -1    0    0  501    0  0.00000000000E+00  0.00000000000E+00  0.86424469895E+03  0.86424469897E+03  0.50400001928E-02 0. -1.
       -1   -1    0    0    0  501  0.00000000000E+00  0.00000000000E+00 -0.35441676560E+03  0.35441676564E+03  0.50400001928E-02 0.  1.
    10030    2    1    2    0    0  0.00000000000E+00  0.00000000000E+00  0.50982793335E+03  0.12186614646E+04  0.11068926071E+04 0.  0.
        5    1    3    3  502    0  0.17119138725E+03  0.15295638942E+03  0.80932755786E+03  0.84127007200E+03  0.46999998093E+01 0. -1.
       -5    1    3    3    0  502 -0.17119138725E+03 -0.15295638942E+03 -0.29949962451E+03  0.37739139261E+03  0.46999998093E+01 0.  1.
</event>
<event>
 5   0  0.2374100E-03  0.1124542E+04  0.7818609E-02  0.9181597E-01
       -1   -1    0    0    0  501  0.00000000000E+00  0.00000000000E+00  0.46915410733E+03  0.46915410736E+03  0.50400001928E-02 0.  1.
        1   -1    0    0  501    0  0.00000000000E+00  0.00000000000E+00 -0.67386925836E+03  0.67386925838E+03  0.50400001928E-02 0. -1.
    10030    2    1    2    0    0  0.00000000000E+00  0.00000000000E+00 -0.20471515102E+03  0.11430233657E+04  0.11245417385E+04 0.  0.
        2    1    3    3  502    0 -0.53357934996E+03 -0.10036715823E+03 -0.25093809948E+03  0.59812241132E+03  0.25500000920E-02 0. -1.
       -2    1    3    3    0  502  0.53357934996E+03  0.10036715823E+03  0.46222948454E+02  0.54490095441E+03  0.25500000920E-02 0.  1.
</event>
<event>
 5   0  0.3713158E-03  0.1100521E+04  0.7818609E-02  0.9204684E-01
       -2   -1    0    0    0  501  0.00000000000E+00  0.00000000000E+00  0.20179401798E+03  0.20179401800E+03  0.25500000920E-02 0.  1.
        2   -1    0    0  501    0  0.00000000000E+00  0.00000000000E+00 -0.15004734965E+04  0.15004734965E+04  0.25500000920E-02 0. -1.
    10030    2    1    2    0    0  0.00000000000E+00  0.00000000000E+00 -0.12986794785E+04  0.17022675145E+04  0.11005209235E+04 0.  0.
        4    1    3    3  502    0 -0.18704162785E+03 -0.31694094523E+02 -0.14482887512E+04  0.14606611537E+04  0.12699999809E+01 0. -1.
       -4    1    3    3    0  502  0.18704162785E+03  0.31694094523E+02  0.14960927273E+03  0.24160636076E+03  0.12699999809E+01 0.  1.
</event>
<event>
 5   0  0.3713158E-03  0.1102510E+04  0.7818609E-02  0.9202749E-01
        2   -1    0    0  501    0  0.00000000000E+00  0.00000000000E+00  0.10898482104E+04  0.10898482104E+04  0.25500000920E-02 0.  1.
       -2   -1    0    0    0  501  0.00000000000E+00  0.00000000000E+00 -0.27882975250E+03  0.27882975251E+03  0.25500000920E-02 0. -1.
    10030    2    1    2    0    0  0.00000000000E+00  0.00000000000E+00  0.81101845788E+03  0.13686779629E+04  0.11025100576E+04 0.  0.
        4    1    3    3  502    0  0.33472981755E+03  0.23696425587E+03 -0.51772289575E+02  0.41337403424E+03  0.12699999809E+01 0. -1.
       -4    1    3    3    0  502 -0.33472981755E+03 -0.23696425587E+03  0.86279074746E+03  0.95530392866E+03  0.12699999809E+01 0.  1.
</event>
<event>
 5   0  0.3713158E-03  0.1096882E+04  0.7818609E-02  0.9208236E-01
       -2   -1    0    0    0  501  0.00000000000E+00  0.00000000000E+00  0.30000525972E+03  0.30000525973E+03  0.25500000920E-02 0.  1.
        2   -1    0    0  501    0  0.00000000000E+00  0.00000000000E+00 -0.10026083296E+04  0.10026083296E+04  0.25500000920E-02 0. -1.
    10030    2    1    2    0    0  0.00000000000E+00  0.00000000000E+00 -0.70260306986E+03  0.13026135893E+04  0.10968824410E+04 0.  0.
        4    1    3    3  502    0  0.18228580754E+03  0.47139643784E+03 -0.98422536222E+02  0.51490904612E+03  0.12699999809E+01 0. -1.
       -4    1    3    3    0  502 -0.18228580754E+03 -0.47139643784E+03 -0.60418053364E+03  0.78770454319E+03  0.12699999809E+01 0.  1.
</event>
<event>
 5   0  0.2257667E-03  0.1100089E+04  0.7818609E-02  0.9205105E-01
        1   -1    0    0  501    0  0.00000000000E+00  0.00000000000E+00  0.15045879818E+04  0.15045879818E+04  0.50400001928E-02 0.  1.
       -1   -1    0    0    0  501  0.00000000000E+00  0.00000000000E+00 -0.20108421853E+03  0.20108421860E+03  0.50400001928E-02 0. -1.
    10030    2    1    2    0    0  0.00000000000E+00  0.00000000000E+00  0.13035037632E+04  0.17056722004E+04  0.11000889029E+04 0.  0.
        4    1    3    3  502    0 -0.38913525285E+03  0.49272292180E+02  0.53872659203E+02  0.39592660949E+03  0.12699999809E+01 0. -1.
       -4    1    3    3    0  502  0.38913525285E+03 -0.49272292180E+02  0.12496311040E+04  0.13097455909E+04  0.12699999809E+01 0.  1.
</event>
<event>
 5   0  0.2257667E-03  0.1105043E+04  0.7818609E-02  0.9200291E-01
        1   -1    0    0  501    0  0.00000000000E+00  0.00000000000E+00  0.71981721396E+03  0.71981721397E+03  0.50400001928E-02 0.  1.
       -1   -1    0    0    0  501  0.00000000000E+00  0.00000000000E+00 -0.42410756923E+03  0.42410756926E+03  0.50400001928E-02 0. -1.
    10030    2    1    2    0    0  0.00000000000E+00  0.00000000000E+00  0.29570964473E+03  0.11439247832E+04  0.11050428570E+04 0.  0.
        4    1    3    3  502    0  0.26809482020E+03  0.11535159647E+03 -0.33779797543E+03  0.44641898317E+03  0.12699999809E+01 0. -1.
       -4    1    3    3    0  502 -0.26809482020E+03 -0.11535159647E+03  0.63350762016E+03  0.69750580007E+03  0.12699999809E+01 0.  1.
</event>
<event>
 5   0  0.3748901E-03  0.1042810E+04  0.7818609E-02  0.9262799E-01
       -2   -1    0    0    0  501  0.00000000000E+00  0.00000000000E+00  0.61163869110E+03  0.61163869110E+03  0.25500000920E-02 0. -1.
        2   -1    0    0  501    0  0.00000000000E+00  0.00000000000E+00 -0.44448319398E+03  0.44448319399E+03  0.25500000920E-02 0.  1.
    10030    2    1    2    0    0  0.00000000000E+00  0.00000000000E+00  0.16715549712E+03  0.10561218851E+04  0.10428098944E+04 0.  0.
        5    1    3    3  502    0  0.12244573849E+03 -0.17446473011E+03 -0.39832213814E+03  0.45178923920E+03  0.46999998093E+01 0.  1.
       -5    1    3    3    0  502 -0.12244573849E+03  0.17446473011E+03  0.56547763525E+03  0.60433264590E+03  0.46999998093E+01 0. -1.
</event>
<event>
 5   0  0.2300702E-03  0.1088428E+04  0.7818609E-02  0.9216545E-01
       -1   -1    0    0    0  501  0.00000000000E+00  0.00000000000E+00  0.41284332788E+03  0.41284332792E+03  0.50400001928E-02 0.  1.
        1   -1    0    0  501    0  0.00000000000E+00  0.00000000000E+00 -0.71738757290E+03  0.71738757291E+03  0.50400001928E-02 0. -1.
    10030    2    1    2    0    0  0.00000000000E+00  0.00000000000E+00 -0.30454424501E+03  0.11302309008E+04  0.10884276237E+04 0.  0.
        5    1    3    3  502    0 -0.85461258101E+02  0.42928958493E+03 -0.48803812454E+03  0.65558864798E+03  0.46999998093E+01 0. -1.
       -5    1    3    3    0  502  0.85461258101E+02 -0.42928958493E+03  0.18349387953E+03  0.47464225285E+03  0.46999998093E+01 0.  1.
</event>
<event>
 5   0  0.2300702E-03  0.1101107E+04  0.7818609E-02  0.9204113E-01
        1   -1    0    0  501    0  0.00000000000E+00  0.00000000000E+00  0.10968904142E+04  0.10968904142E+04  0.50400001928E-02 0. -1.
       -1   -1    0    0    0  501  0.00000000000E+00  0.00000000000E+00 -0.27633502126E+03  0.27633502130E+03  0.50400001928E-02 0.  1.
    10030    2    1    2    0    0  0.00000000000E+00  0.00000000000E+00  0.82055539297E+03  0.13732254355E+04  0.11011071446E+04 0.  0.
        5    1    3    3  502    0  0.17532381614E+03 -0.43696278894E+03  0.54435804501E+02  0.47398340291E+03  0.46999998093E+01 0.  1.
       -5    1    3    3    0  502 -0.17532381614E+03  0.43696278894E+03  0.76611958847E+03  0.89924203263E+03  0.46999998093E+01 0. -1.
</event>
<event>
 5   0  0.3744875E-03  0.1107843E+04  0.7818609E-02  0.9197581E-01
        2   -1    0    0  501    0  0.00000000000E+00  0.00000000000E+00  0.90101150423E+03  0.90101150424E+03  0.25500000920E-02 0.  1.
       -2   -1    0    0    0  501  0.00000000000E+00  0.00000000000E+00 -0.34053833689E+03  0.34053833690E+03  0.25500000920E-02 0. -1.
    10030    2    1    2    0    0  0.00000000000E+00  0.00000000000E+00  0.56047316734E+03  0.12415498411E+04  0.11078428755E+04 0.  0.
        2    1    3    3  502    0  0.55347518187E+03 -0.15343623952E+02  0.29826388544E+03  0.62891299009E+03  0.25500000920E-02 0. -1.
       -2    1    3    3    0  502 -0.55347518187E+03  0.15343623952E+02  0.26220928190E+03  0.61263685105E+03  0.25500000920E-02 0.  1.
</event>
<event>
 5   0  0.2255788E-03  0.1106720E+04  0.7818609E-02  0.9198667E-01
       -1   -1    0    0    0  501  0.00000000000E+00  0.00000000000E+00  0.84468169493E+03  0.84468169494E+03  0.50400001928E-02 0. -1.
        1   -1    0    0  501    0  0.00000000000E+00  0.00000000000E+00 -0.36251181592E+03  0.36251181595E+03  0.50400001928E-02 0.  1.
    10030    2    1    2    0    0  0.00000000000E+00  0.00000000000E+00  0.48216987901E+03  0.12071935109E+04  0.11067196486E+04 0.  0.
        3    1    3    3  502    0  0.53070797127E+03 -0.11842980289E+03  0.35301947390E+03  0.64830496537E+03  0.10100000352E+00 0. -1.
       -3    1    3    3    0  502 -0.53070797127E+03  0.11842980289E+03  0.12915040512E+03  0.55888854552E+03  0.10100000352E+00 0.  1.
</event>
<event>
 5   0  0.3962999E-03  0.1090316E+04  0.7818609E-02  0.9214683E-01
        2   -1    0    0  501    0  0.00000000000E+00  0.00000000000E+00  0.11060872881E+04  0.11060872881E+04  0.25500000920E-02 0.  1.
       -2   -1    0    0    0  501  0.00000000000E+00  0.00000000000E+00 -0.26869224057E+03  0.26869224058E+03  0.25500000920E-02 0. -1.
    10030    2    1    2    0    0  0.00000000000E+00  0.00000000000E+00  0.83739504753E+03  0.13747795287E+04  0.10903156822E+04 0.  0.
        3    1    3    3  502    0 -0.28046922517E+03 -0.15935234406E+03 -0.13544047218E+03  0.34985752461E+03  0.10100000352E+00 0. -1.
       -3    1    3    3    0  502  0.28046922517E+03  0.15935234406E+03  0.97283551971E+03  0.10249220041E+04  0.10100000352E+00 0.  1.
</event>
<event>
 5   0  0.1508625E-03  0.1104154E+04  0.7818609E-02  0.9201153E-01
       -3   -1    0    0    0  501  0.00000000000E+00  0.00000000000E+00  0.33966481425E+03  0.33966482926E+03  0.10100000352E+00 0. -1.
        3   -1    0    0  501    0  0.00000000000E+00  0.00000000000E+00 -0.89732290859E+03  0.89732291427E+03  0.10100000352E+00 0.  1.
    10030    2    1    2    0    0  0.00000000000E+00  0.00000000000E+00 -0.55765809434E+03  0.12369877435E+04  0.11041540325E+04 0.  0.
        4    1    3    3  502    0  0.22940389076E+03  0.38023863839E+03  0.88623451036E+02  0.45283915047E+03  0.12699999809E+01 0.  1.
       -4    1    3    3    0  502 -0.22940389076E+03 -0.38023863839E+03 -0.64628154538E+03  0.78414859307E+03  0.12699999809E+01 0. -1.
</event>
<event>
 5   0  0.3713158E-03  0.1102139E+04  0.7818609E-02  0.9203110E-01
       -2   -1    0    0    0  501  0.00000000000E+00  0.00000000000E+00  0.47023859675E+03  0.47023859675E+03  0.25500000920E-02 0. -1.
        2   -1    0    0  501    0  0.00000000000E+00  0.00000000000E+00 -0.64579436876E+03  0.64579436876E+03  0.25500000920E-02 0.  1.
    10030    2    1    2    0    0  0.00000000000E+00  0.00000000000E+00 -0.17555577201E+03  0.11160329655E+04  0.11021387168E+04 0.  0.
        4    1    3    3  502    0 -0.24913623561E+03 -0.14927804308E+03  0.38644540440E+03  0.48341955021E+03  0.12699999809E+01 0. -1.
       -4    1    3    3    0  502  0.24913623561E+03  0.14927804308E+03 -0.56200117641E+03  0.63261341531E+03  0.12699999809E+01 0.  1.
</event>
<event>
 5   0  0.3713158E-03  0.1101777E+04  0.7818609E-02  0.9203461E-01
       -2   -1    0    0    0  501  0.00000000000E+00  0.00000000000E+00  0.32675441951E+03  0.32675441952E+03  0.25500000920E-02 0. -1.
        2   -1    0    0  501    0  0.00000000000E+00  0.00000000000E+00 -0.92876546462E+03  0.92876546462E+03  0.25500000920E-02 0.  1.
    10030    2    1    2    0    0  0.00000000000E+00  0.00000000000E+00 -0.60201104511E+03  0.12555198841E+04  0.11017771467E+04 0.  0.
        4    1    3    3  502    0 -0.47461492069E+03  0.13753381588E+03 -0.57850586997E+03  0.76081898501E+03  0.12699999809E+01 0.  1.
       -4    1    3    3    0  502  0.47461492069E+03 -0.13753381588E+03 -0.23505175133E+02  0.49470089914E+03  0.12699999809E+01 0. -1.
</event>
<event>
 5   0  0.2374100E-03  0.1095276E+04  0.7818609E-02  0.9209808E-01
        1   -1    0    0  501    0  0.00000000000E+00  0.00000000000E+00  0.34633391540E+03  0.34633391544E+03  0.50400001928E-02 0.  1.
       -1   -1    0    0    0  501  0.00000000000E+00  0.00000000000E+00 -0.86594916173E+03  0.86594916174E+03  0.50400001928E-02 0. -1.
    10030    2    1    2    0    0  0.00000000000E+00  0.00000000000E+00 -0.51961524632E+03  0.12122830772E+04  0.10952763373E+04 0.  0.
        2    1    3    3  502    0  0.45298062943E+03 -0.42271589864E+02 -0.59721649448E+03  0.75076353083E+03  0.25500000920E-02 0. -1.
       -2    1    3    3    0  502 -0.45298062943E+03  0.42271589864E+02  0.77601248152E+02  0.46151954635E+03  0.25500000920E-02 0.  1.
</event>
<event>
 5   0  0.3992414E-03  0.1098604E+04  0.7818609E-02  0.9206554E-01
        2   -1    0    0  501    0  0.00000000000E+00  0.00000000000E+00  0.64458897375E+03  0.64458897376E+03  0.25500000920E-02 0. -1.
       -2   -1    0    0    0  501  0.00000000000E+00  0.00000000000E+00 -0.46810065389E+03  0.46810065390E+03  0.25500000920E-02 0.  1.
    10030    2    1    2    0    0  0.00000000000E+00  0.00000000000E+00  0.17648831986E+03  0.11126896277E+04  0.10986036958E+04 0.  0.
        1    1    3    3  502    0  0.28735629730E+03  0.45784677051E+03  0.18714459188E+03  0.57203182181E+03  0.50400001928E-02 0.  1.
       -1    1    3    3    0  502 -0.28735629730E+03 -0.45784677051E+03 -0.10656272025E+02  0.54065780585E+03  0.50400001928E-02 0. -1.
</event>
<event>
 5   0  0.2298958E-03  0.1102567E+04  0.7818609E-02  0.9202693E-01
       -1   -1    0    0    0  501  0.00000000000E+00  0.00000000000E+00  0.75550260700E+03  0.75550260702E+03  0.50400001928E-02 0.  1.
        1   -1    0    0  501    0  0.00000000000E+00  0.00000000000E+00 -0.40226672649E+03  0.40226672653E+03  0.50400001928E-02 0. -1.
    10030    2    1    2    0    0  0.00000000000E+00  0.00000000000E+00  0.35323588051E+03  0.11577693335E+04  0.11025671147E+04 0.  0.
        1    1    3    3  502    0 -0.33372351129E+03 -0.14102769565E+03  0.61293735079E+03  0.71200589109E+03  0.50400001928E-02 0.  1.
       -1    1    3    3    0  502  0.33372351129E+03  0.14102769565E+03 -0.25970147029E+03  0.44576344245E+03  0.50400001928E-02 0. -1.
</event>
<event>
 5   0  0.2300702E-03  0.1089007E+04  0.7818609E-02  0.9215973E-01
        1   -1    0    0  501    0  0.00000000000E+00  0.00000000000E+00  0.87288097593E+03  0.87288097594E+03  0.50400001928E-02 0. -1.
       -1   -1    0    0    0  501  0.00000000000E+00  0.00000000000E+00 -0.33966177602E+03  0.33966177606E+03  0.50400001928E-02 0.  1.
    10030    2    1    2    0    0  0.00000000000E+00  0.00000000000E+00  0.53321919991E+03  0.12125427520E+04  0.10890074427E+04 0.  0.
        5    1    3    3  502    0  0.13707507785E+03  0.46144338504E+03 -0.16700076191E+02  0.48168512237E+03  0.46999998093E+01 0.  1.
       -5    1    3    3    0  502 -0.13707507785E+03 -0.46144338504E+03  0.54991927610E+03  0.73085762963E+03  0.46999998093E+01 0. -1.
</event>
<event>
 5   0  0.3713158E-03  0.1096693E+04  0.7818609E-02  0.9208421E-01
        2   -1    0    0  501    0  0.00000000000E+00  0.00000000000E+00  0.77894943035E+03  0.77894943035E+03  0.25500000920E-02 0.  1.
       -2   -1    0    0    0  501  0.00000000000E+00  0.00000000000E+00 -0.38601189502E+03  0.38601189502E+03  0.25500000920E-02 0. -1.
    10030    2    1    2    0    0  0.00000000000E+00  0.00000000000E+00  0.39293753533E+03  0.11649613254E+04  0.10966927477E+04 0.  0.
        4    1    3    3  502    0 -0.13548346828E+03 -0.36604356395E+03 -0.21265380038E+03  0.44448499705E+03  0.12699999809E+01 0. -1.
       -4    1    3    3    0  502  0.13548346828E+03  0.36604356395E+03  0.60559133572E+03  0.72047632833E+03  0.12699999809E+01 0.  1.
</event>
<event>
 5   0  0.2300702E-03  0.1100717E+04  0.7818609E-02  0.9204493E-01
        1   -1    0    0  501    0  0.00000000000E+00  0.00000000000E+00  0.63292097989E+03  0.63292097991E+03  0.50400001928E-02 0.  1.
       -1   -1    0    0    0  501  0.00000000000E+00  0.00000000000E+00 -0.47856614323E+03  0.47856614326E+03  0.50400001928E-02 0. -1.
    10030    2    1    2    0    0  0.00000000000E+00  0.00000000000E+00  0.15435483666E+03  0.11114871232E+04  0.11007171341E+04 0.  0.
        5    1    3    3  502    0 -0.28225925310E+03 -0.26870143851E+03 -0.31521413151E+03  0.50125122216E+03  0.46999998093E+01 0. -1.
       -5    1    3    3    0  502  0.28225925310E+03  0.26870143851E+03  0.46956896817E+03  0.61023590101E+03  0.46999998093E+01 0.  1.
</event>
<event>
 5   0  0.2255788E-03  0.1149283E+04  0.7818609E-02  0.9158445E-01
        1   -1    0    0  501    0  0.00000000000E+00  0.00000000000E+00  0.84895198718E+03  0.84895198720E+03  0.50400001928E-02 0.  1.
       -1   -1    0    0    0  501  0.00000000000E+00  0.00000000000E+00 -0.38896521019E+03  0.38896521022E+03  0.50400001928E-02 0. -1.
    10030    2    1    2    0    0  0.00000000000E+00  0.00000000000E+00  0.45998677700E+03  0.12379171974E+04  0.11492828863E+04 0.  0.
        3    1    3    3  502    0  0.53546502656E+03  0.19625607136E+03  0.15403121798E+03  0.59073248305E+03  0.10100000352E+00 0.  1.
       -3    1    3    3    0  502 -0.53546502656E+03 -0.19625607136E+03  0.30595555902E+03  0.64718471437E+03  0.10100000352E+00 0. -1.
</event>
<event>
 5   0  0.2257667E-03  0.1111280E+04  0.7818609E-02  0.9194266E-01
       -1   -1    0    0    0  501  0.00000000000E+00  0.00000000000E+00  0.24559287043E+03  0.24559287048E+03  0.50400001928E-02 0. -1.
        1   -1    0    0  501    0  0.00000000000E+00  0.00000000000E+00 -0.12571052435E+04  0.12571052435E+04  0.50400001928E-02 0.  1.
    10030    2    1    2    0    0  0.00000000000E+00  0.00000000000E+00 -0.10115123731E+04  0.15026981140E+04  0.11112804960E+04 0.  0.
        4    1    3    3  502    0 -0.53453530519E+03 -0.61402830684E+01 -0.71069158594E+03  0.88929738490E+03  0.12699999809E+01 0.  1.
       -4    1    3    3    0  502  0.53453530519E+03  0.61402830684E+01 -0.30082078713E+03  0.61340072908E+03  0.12699999809E+01 0. -1.
</event>
<event>
 5   0  0.3748901E-03  0.1102385E+04  0.7818609E-02  0.9202871E-01
       -2   -1    0    0    0  501  0.00000000000E+00  0.00000000000E+00  0.26171216548E+03  0.26171216549E+03  0.25500000920E-02 0. -1.
        2   -1    0    0  501    0  0.00000000000E+00  0.00000000000E+00 -0.11608668369E+04  0.11608668369E+04  0.25500000920E-02 0.  1.
    10030    2    1    2    0    0  0.00000000000E+00  0.00000000000E+00 -0.89915467143E+03  0.14225790024E+04  0.11023846402E+04 0.  0.
        5    1    3    3  502    0 -0.50333523420E+03 -0.20876619700E+03 -0.55646886813E+03  0.77885131713E+03  0.46999998093E+01 0.  1.
       -5    1    3    3    0  502  0.50333523420E+03  0.20876619700E+03 -0.34268580330E+03  0.64372768527E+03  0.46999998093E+01 0. -1.
</event>
<event>
 5   0  0.3992414E-03  0.1103483E+04  0.7818609E-02  0.9201804E-01
       -2   -1    0    0    0  501  0.00000000000E+00  0.00000000000E+00  0.17391997118E+03  0.17391997120E+03  0.25500000920E-02 0.  1.
        2   -1    0    0  501    0  0.00000000000E+00  0.00000000000E+00 -0.17503362232E+04  0.17503362232E+04  0.25500000920E-02 0. -1.
    10030    2    1    2    0    0  0.00000000000E+00  0.00000000000E+00 -0.15764162520E+04  0.19242561944E+04  0.11034825336E+04 0.  0.
        1    1    3    3  502    0 -0.24694820898E+03  0.28745033564E+03 -0.88929383429E+02  0.38925512025E+03  0.50400001928E-02 0.  1.
       -1    1    3    3    0  502  0.24694820898E+03 -0.28745033564E+03 -0.14874868686E+04  0.15350010742E+04  0.50400001928E-02 0. -1.
</event>
<event>
 5   0  0.2374100E-03  0.1099172E+04  0.7818609E-02  0.9205999E-01
        1   -1    0    0  501    0  0.00000000000E+00  0.00000000000E+00  0.10481452105E+04  0.10481452106E+04  0.50400001928E-02 0.  1.
       -1   -1    0    0    0  501  0.00000000000E+00  0.00000000000E+00 -0.28817090951E+03  0.28817090955E+03  0.50400001928E-02 0. -1.
    10030    2    1    2    0    0  0.00000000000E+00  0.00000000000E+00  0.75997430104E+03  0.13363161201E+04  0.10991723407E+04 0.  0.
        2    1    3    3  502    0 -0.79974302040E+02 -0.50164260582E+03  0.12495887294E+03  0.52312131756E+03  0.25500000920E-02 0. -1.
       -2    1    3    3    0  502  0.79974302040E+02  0.50164260582E+03  0.63501542809E+03  0.81319480254E+03  0.25500000920E-02 0.  1.
</event>
<event>
 5   0  0.2300702E-03  0.1111109E+04  0.7818609E-02  0.9194432E-01
        1   -1    0    0  501    0  0.00000000000E+00  0.00000000000E+00  0.19963273722E+03  0.19963273728E+03  0.50400001928E-02 0.  1.
       -1   -1    0    0    0  501  0.00000000000E+00  0.00000000000E+00 -0.15460421739E+04  0.15460421739E+04  0.50400001928E-02 0. -1.
    10030    2    1    2    0    0  0.00000000000E+00  0.00000000000E+00 -0.13464094367E+04  0.17456749112E+04  0.11111086915E+04 0.  0.
        5    1    3    3  502    0 -0.37052901338E+03  0.10195776338E+03 -0.13034755778E+04  0.13589546745E+04  0.46999998093E+01 0. -1.
       -5    1    3    3    0  502  0.37052901338E+03 -0.10195776338E+03 -0.42933858878E+02  0.38672023674E+03  0.46999998093E+01 0.  1.
</event>
<event>
 5   0  0.3962999E-03  0.1095508E+04  0.7818609E-02  0.9209581E-01
       -2   -1    0    0    0  501  0.00000000000E+00  0.00000000000E+00  0.60880810504E+03  0.60880810505E+03  0.25500000920E-02 0. -1.
        2   -1    0    0  501    0  0.00000000000E+00  0.00000000000E+00 -0.49282259751E+03  0.49282259752E+03  0.25500000920E-02 0.  1.
    10030    2    1    2    0    0  0.00000000000E+00  0.00000000000E+00  0.11598550753E+03  0.11016307026E+04  0.10955079036E+04 0.  0.
        3    1    3    3  502    0  0.47699717756E+03 -0.15764956799E+03 -0.16152686035E+03  0.52770316514E+03  0.10100000352E+00 0.  1.
       -3    1    3    3    0  502 -0.47699717756E+03  0.15764956799E+03  0.27751236788E+03  0.57392753742E+03  0.10100000352E+00 0. -1.
</event>
<event>
 5   0  0.3992414E-03  0.1103430E+04  0.7818609E-02  0.9201855E-01
       -2   -1    0    0    0  501  0.00000000000E+00  0.00000000000E+00  0.11048590044E+04  0.11048590044E+04  0.25500000920E-02 0.  1.
        2   -1    0    0  501    0  0.00000000000E+00  0.00000000000E+00 -0.27550090937E+03  0.27550090938E+03  0.25500000920E-02 0. -1.
    10030    2    1    2    0    0  0.00000000000E+00  0.00000000000E+00  0.82935809498E+03  0.13803599137E+04  0.11034303973E+04 0.  0.
        1    1    3    3  502    0 -0.40143351924E+03  0.34898308650E+03  0.59790086771E+03  0.80026465164E+03  0.50400001928E-02 0. -1.
       -1    1    3    3    0  502  0.40143351924E+03 -0.34898308650E+03  0.23145722727E+03  0.58009526210E+03  0.50400001928E-02 0.  1.
</event>
<event>
 5   0  0.1508625E-03  0.1107368E+04  0.7818609E-02  0.9198040E-01
       -3   -1    0    0    0  501  0.00000000000E+00  0.00000000000E+00  0.13276300994E+04  0.13276301032E+04  0.10100000352E+00 0. -1.
        3   -1    0    0  501    0  0.00000000000E+00  0.00000000000E+00 -0.23091219763E+03  0.23091221971E+03  0.10100000352E+00 0.  1.
    10030    2    1    2    0    0  0.00000000000E+00  0.00000000000E+00  0.10967179017E+04  0.15585423229E+04  0.11073680582E+04 0.  0.
        3    1    3    3  502    0 -0.32100964538E+03  0.17401970136E+03 -0.37435984746E+02  0.36705791374E+03  0.10100000352E+00 0.  1.
       -3    1    3    3    0  502  0.32100964538E+03 -0.17401970136E+03  0.11341538865E+04  0.11914844092E+04  0.10100000352E+00 0. -1.
</event>
<event>
 5   0  0.2300702E-03  0.1098855E+04  0.7818609E-02  0.9206309E-01
       -1   -1    0    0    0  501  0.00000000000E+00  0.00000000000E+00  0.31130414142E+03  0.31130414146E+03  0.50400001928E-02 0. -1.
        1   -1    0    0  501    0  0.00000000000E+00  0.00000000000E+00 -0.96969653895E+03  0.96969653897E+03  0.50400001928E-02 0.  1.
    10030    2    1    2    0    0  0.00000000000E+00  0.00000000000E+00 -0.65839239754E+03  0.12810006804E+04  0.10988549468E+04 0.  0.
        5    1    3    3  502    0 -0.60301710267E+02 -0.21010467031E+03 -0.91679938148E+03  0.94250913238E+03  0.46999998093E+01 0.  1.
       -5    1    3    3    0  502  0.60301710267E+02  0.21010467031E+03  0.25840698394E+03  0.33849154804E+03  0.46999998093E+01 0. -1.
</event>
<event>
 5   0  0.2374100E-03  0.1098652E+04  0.7818609E-02  0.9206507E-01
        1   -1    0    0  501    0  0.00000000000E+00  0.00000000000E+00  0.69257517548E+03  0.69257517550E+03  0.50400001928E-02 0. -1.
       -1   -1    0    0    0  501  0.00000000000E+00  0.00000000000E+00 -0.43570586198E+03  0.43570586201E+03  0.50400001928E-02 0.  1.
    10030    2    1    2    0    0  0.00000000000E+00  0.00000000000E+00  0.25686931351E+03  0.11282810375E+04  0.10986520174E+04 0.  0.
        2    1    3    3  502    0 -0.39395991488E+03 -0.35724570408E+03  0.26973207633E+03  0.59630889699E+03  0.25500000920E-02 0. -1.
       -2    1    3    3    0  502  0.39395991488E+03  0.35724570408E+03 -0.12862762825E+02  0.53197214052E+03  0.25500000920E-02 0.  1.
</event>
<event>
 5   0  0.2300702E-03  0.1091811E+04  0.7818609E-02  0.9213211E-01
       -1   -1    0    0    0  501  0.00000000000E+00  0.00000000000E+00  0.42730833177E+03  0.42730833180E+03  0.50400001928E-02 0.  1.
        1   -1    0    0  501    0  0.00000000000E+00  0.00000000000E+00 -0.69741846184E+03  0.69741846185E+03  0.50400001928E-02 0. -1.
    10030    2    1    2    0    0  0.00000000000E+00  0.00000000000E+00 -0.27011013006E+03  0.11247267937E+04  0.10918108252E+04 0.  0.
        5    1    3    3  502    0 -0.44539367132E+03  0.21434459253E+03 -0.37371060636E+03  0.61967800841E+03  0.46999998093E+01 0. -1.
       -5    1    3    3    0  502  0.44539367132E+03 -0.21434459253E+03  0.10360047630E+03  0.50504878525E+03  0.46999998093E+01 0.  1.
</event>
<event>
 5   0  0.2374100E-03  0.1103706E+04  0.7818609E-02  0.9201587E-01
        1   -1    0    0  501    0  0.00000000000E+00  0.00000000000E+00  0.17104430760E+03  0.17104430768E+03  0.50400001928E-02 0.  1.
       -1   -1    0    0    0  501  0.00000000000E+00  0.00000000000E+00 -0.17804856479E+04  0.17804856479E+04  0.50400001928E-02 0. -1.
    10030    2    1    2    0    0  0.00000000000E+00  0.00000000000E+00 -0.16094413403E+04  0.19515299556E+04  0.11037063648E+04 0.  0.
        2    1    3    3  502    0  0.49582281888E+03 -0.83646094521E+02 -0.12067779574E+04  0.13073446276E+04  0.25500000920E-02 0. -1.
       -2    1    3    3    0  502 -0.49582281888E+03  0.83646094521E+02 -0.40266338289E+03  0.64418532797E+03  0.25500000920E-02 0.  1.
</event>
<event>
 5   0  0.2300702E-03  0.1098362E+04  0.7818609E-02  0.9206790E-01
       -1   -1    0    0    0  501  0.00000000000E+00  0.00000000000E+00  0.63319720401E+03  0.63319720403E+03  0.50400001928E-02 0. -1.
        1   -1    0    0  501    0  0.00000000000E+00  0.00000000000E+00 -0.47631236276E+03  0.47631236278E+03  0.50400001928E-02 0.  1.
    10030    2    1    2    0    0  0.00000000000E+00  0.00000000000E+00  0.15688484125E+03  0.11095095668E+04  0.10983617917E+04 0.  0.
        5    1    3    3  502    0 -0.24719562967E+03 -0.39940930911E+03 -0.20895191829E+03  0.51411717506E+03  0.46999998093E+01 0.  1.
       -5    1    3    3    0  502  0.24719562967E+03  0.39940930911E+03  0.36583675954E+03  0.59539239176E+03  0.46999998093E+01 0. -1.
</event>
<event>
 5   0  0.1508625E-03  0.1124548E+04  0.7818609E-02  0.9181591E-01
        4   -1    0    0  501    0  0.00000000000E+00  0.00000000000E+00  0.34342095430E+03  0.34342330258E+03  0.12699999809E+01 0. -1.
       -4   -1    0    0    0  501  0.00000000000E+00  0.00000000000E+00 -0.92059042393E+03  0.92059129994E+03  0.12699999809E+01 0.  1.
    10030    2    1    2    0    0  0.00000000000E+00  0.00000000000E+00 -0.57716946963E+03  0.12640146025E+04  0.11245480509E+04 0.  0.
        4    1    3    3  502    0  0.93044354668E+01 -0.27234341823E+03 -0.84140720299E+03  0.88443496319E+03  0.12699999809E+01 0.  1.
       -4    1    3    3    0  502 -0.93044354668E+01  0.27234341823E+03  0.26423773336E+03  0.37957963934E+03  0.12699999809E+01 0. -1.
</event>
<event>
 5   0  0.3962999E-03  0.1085339E+04  0.7818609E-02  0.9219601E-01
        2   -1    0    0  501    0  0.00000000000E+00  0.00000000000E+00  0.70402694007E+03  0.70402694008E+03  0.25500000920E-02 0. -1.
       -2   -1    0    0    0  501  0.00000000000E+00  0.00000000000E+00 -0.41829376078E+03  0.41829376078E+03  0.25500000920E-02 0.  1.
    10030    2    1    2    0    0  0.00000000000E+00  0.00000000000E+00  0.28573317930E+03  0.11223207009E+04  0.10853387977E+04 0.  0.
        3    1    3    3  502    0  0.34522304872E+03  0.40748704958E+03  0.43329683519E+02  0.53581911185E+03  0.10100000352E+00 0. -1.
       -3    1    3    3    0  502 -0.34522304872E+03 -0.40748704958E+03  0.24240349578E+03  0.58650158901E+03  0.10100000352E+00 0.  1.
</event>
<event>
 5   0  0.3744875E-03  0.1104372E+04  0.7818609E-02  0.9200941E-01
       -2   -1    0    0    0  501  0.00000000000E+00  0.00000000000E+00  0.19989326211E+03  0.19989326212E+03  0.25500000920E-02 0. -1.
        2   -1    0    0  501    0  0.00000000000E+00  0.00000000000E+00 -0.15253612476E+04  0.15253612476E+04  0.25500000920E-02 0.  1.
    10030    2    1    2    0    0  0.00000000000E+00  0.00000000000E+00 -0.13254679855E+04  0.17252545097E+04  0.11043721034E+04 0.  0.
        2    1    3    3  502    0  0.23766665267E+02  0.38898169103E+03 -0.51599021260E+02  0.39310821581E+03  0.25500000920E-02 0. -1.
       -2    1    3    3    0  502 -0.23766665267E+02 -0.38898169103E+03 -0.12738689642E+04  0.13321462939E+04  0.25500000920E-02 0.  1.
</event>
<event>
 5   0  0.3992414E-03  0.1091339E+04  0.7818609E-02  0.9213675E-01
       -2   -1    0    0    0  501  0.00000000000E+00  0.00000000000E+00  0.76100726986E+03  0.76100726986E+03  0.25500000920E-02 0. -1.
        2   -1    0    0  501    0  0.00000000000E+00  0.00000000000E+00 -0.39126456326E+03  0.39126456327E+03  0.25500000920E-02 0.  1.
    10030    2    1    2    0    0  0.00000000000E+00  0.00000000000E+00  0.36974270660E+03  0.11522718331E+04  0.10913389521E+04 0.  0.
        1    1    3    3  502    0  0.13673228153E+02 -0.52221634386E+03  0.18403227410E+02  0.52271937573E+03  0.50400001928E-02 0.  1.
       -1    1    3    3    0  502 -0.13673228153E+02  0.52221634386E+03  0.35133947919E+03  0.62955245740E+03  0.50400001928E-02 0. -1.
</event>
<event>
 5   0  0.2374100E-03  0.9703226E+03  0.7818609E-02  0.9341707E-01
        1   -1    0    0  501    0  0.00000000000E+00  0.00000000000E+00  0.12844362911E+04  0.12844362911E+04  0.50400001928E-02 0.  1.
       -1   -1    0    0    0  501  0.00000000000E+00  0.00000000000E+00 -0.18325662903E+03  0.18325662910E+03  0.50400001928E-02 0. -1.
    10030    2    1    2    0    0  0.00000000000E+00  0.00000000000E+00  0.11011796620E+04  0.14676929202E+04  0.97032255453E+03 0.  0.
        2    1    3    3  502    0  0.39926474300E+03  0.19730018847E+03  0.25947461055E+03  0.51542872727E+03  0.25500000920E-02 0. -1.
       -2    1    3    3    0  502 -0.39926474300E+03 -0.19730018847E+03  0.84170505147E+03  0.95226419289E+03  0.25500000920E-02 0.  1.
</event>
<event>
 5   0  0.3713158E-03  0.1094282E+04  0.7818609E-02  0.9210783E-01
       -2   -1    0    0    0  501  0.00000000000E+00  0.00000000000E+00  0.23210957827E+03  0.23210957828E+03  0.25500000920E-02 0.  1.
        2   -1    0    0  501    0  0.00000000000E+00  0.00000000000E+00 -0.12897500375E+04  0.12897500375E+04  0.25500000920E-02 0. -1.
    10030    2    1    2    0    0  0.00000000000E+00  0.00000000000E+00 -0.10576404592E+04  0.15218596158E+04  0.10942821159E+04 0.  0.
        4    1    3    3  502    0  0.52527040300E+03  0.15154243079E+03 -0.55953066350E+03  0.78227251063E+03  0.12699999809E+01 0.  1.
       -4    1    3    3    0  502 -0.52527040300E+03 -0.15154243079E+03 -0.49810979573E+03  0.73958710515E+03  0.12699999809E+01 0. -1.
</event>
<event>
 5   0  0.2257667E-03  0.1115357E+04  0.7818609E-02  0.9190352E-01
       -1   -1    0    0    0  501  0.00000000000E+00  0.00000000000E+00  0.61324264845E+03  0.61324264847E+03  0.50400001928E-02 0. -1.
        1   -1    0    0  501    0  0.00000000000E+00  0.00000000000E+00 -0.50714874752E+03  0.50714874755E+03  0.50400001928E-02 0.  1.
    10030    2    1    2    0    0  0.00000000000E+00  0.00000000000E+00  0.10609390093E+03  0.11203913960E+04  0.11153568776E+04 0.  0.
        4    1    3    3  502    0  0.20782509474E+03  0.47893930948E+03  0.24996623992E+03  0.57884269553E+03  0.12699999809E+01 0. -1.
       -4    1    3    3    0  502 -0.20782509474E+03 -0.47893930948E+03 -0.14387233899E+03  0.54154870048E+03  0.12699999809E+01 0.  1.
</event>
<event>
 5   0  0.2374100E-03  0.1103956E+04  0.7818609E-02  0.9201345E-01
        1   -1    0    0  501    0  0.00000000000E+00  0.00000000000E+00  0.95263646502E+03  0.95263646504E+03  0.50400001928E-02 0. -1.
       -1   -1    0    0    0  501  0.00000000000E+00  0.00000000000E+00 -0.31982765695E+03  0.31982765699E+03  0.50400001928E-02 0.  1.
    10030    2    1    2    0    0  0.00000000000E+00  0.00000000000E+00  0.63280880807E+03  0.12724641220E+04  0.11039555943E+04 0.  0.
        2    1    3    3  502    0  0.22702359034E+03 -0.19621025330E+02 -0.26308252122E+03  0.34804756597E+03  0.25500000920E-02 0.  1.
       -2    1    3    3    0  502 -0.22702359034E+03  0.19621025330E+02  0.89589132929E+03  0.92441655605E+03  0.25500000920E-02 0. -1.
</event>
<event>
 5   0  0.3962999E-03  0.1097866E+04  0.7818609E-02  0.9207274E-01
       -2   -1    0    0    0  501  0.00000000000E+00  0.00000000000E+00  0.17423409136E+03  0.17423409137E+03  0.25500000920E-02 0. -1.
        2   -1    0    0  501    0  0.00000000000E+00  0.00000000000E+00 -0.17294399291E+04  0.17294399291E+04  0.25500000920E-02 0.  1.
    10030    2    1    2    0    0  0.00000000000E+00  0.00000000000E+00 -0.15552058378E+04  0.19036740205E+04  0.10978659201E+04 0.  0.
        3    1    3    3  502    0  0.13315925062E+03 -0.52286907878E+03 -0.60244615814E+03  0.80874275467E+03  0.10100000352E+00 0.  1.
       -3    1    3    3    0  502 -0.13315925062E+03  0.52286907878E+03 -0.95275967962E+03  0.10949312658E+04  0.10100000352E+00 0. -1.
</event>
<event>
 5   0  0.2300702E-03  0.9894797E+03  0.7818609E-02  0.9320159E-01
       -1   -1    0    0    0  501  0.00000000000E+00  0.00000000000E+00  0.12883688705E+03  0.12883688714E+03  0.50400001928E-02 0.  1.
        1   -1    0    0  501    0  0.00000000000E+00  0.00000000000E+00 -0.18998248595E+04  0.18998248595E+04  0.50400001928E-02 0. -1.
    10030    2    1    2    0    0  0.00000000000E+00  0.00000000000E+00 -0.17709879725E+04  0.20286617467E+04  0.98947970356E+03 0.  0.
        5    1    3    3  502    0  0.21729927037E+03 -0.34117218095E+03 -0.30152721289E+03  0.50453759034E+03  0.46999998093E+01 0.  1.
       -5    1    3    3    0  502 -0.21729927037E+03  0.34117218095E+03 -0.14694607596E+04  0.15241241563E+04  0.46999998093E+01 0. -1.
</event>
<event>
 5   0  0.3962999E-03  0.1102663E+04  0.7818609E-02  0.9202600E-01
       -2   -1    0    0    0  501  0.00000000000E+00  0.00000000000E+00  0.42967914381E+03  0.42967914382E+03  0.25500000920E-02 0.  1.
        2   -1    0    0  501    0  0.00000000000E+00  0.00000000000E+00 -0.70742632569E+03  0.70742632569E+03  0.25500000920E-02 0. -1.
    10030    2    1    2    0    0  0.00000000000E+00  0.00000000000E+00 -0.27774718188E+03  0.11371054695E+04  0.11026628459E+04 0.  0.
        3    1    3    3  502    0  0.14533277087E+02 -0.13051069808E+03 -0.69106363024E+03  0.70342960536E+03  0.10100000352E+00 0. -1.
       -3    1    3    3    0  502 -0.14533277087E+02  0.13051069808E+03  0.41331644836E+03  0.43367586415E+03  0.10100000352E+00 0.  1.
</event>
<event>
 5   0  0.1508625E-03  0.1091192E+04  0.7818609E-02  0.9213819E-01
        3   -1    0    0  501    0  0.00000000000E+00  0.00000000000E+00  0.36925179339E+03  0.36925180720E+03  0.10100000352E+00 0.  1.
       -3   -1    0    0    0  501  0.00000000000E+00  0.00000000000E+00 -0.80615767339E+03  0.80615767972E+03  0.10100000352E+00 0. -1.
    10030    2    1    2    0    0  0.00000000000E+00  0.00000000000E+00 -0.43690588001E+03  0.11754094869E+04  0.10911923359E+04 0.  0.
        5    1    3    3  502    0  0.99026717257E+02 -0.18202814675E+03  0.32518913046E+03  0.38563013044E+03  0.46999998093E+01 0.  1.
       -5    1    3    3    0  502 -0.99026717257E+02  0.18202814675E+03 -0.76209501046E+03  0.78977935647E+03  0.46999998093E+01 0. -1.
</event>
<event>
 5   0  0.2257667E-03  0.1208825E+04  0.7818609E-02  0.9105167E-01
        1   -1    0    0  501    0  0.00000000000E+00  0.00000000000E+00  0.54137221410E+03  0.54137221412E+03  0.50400001928E-02 0.  1.
       -1   -1    0    0    0  501  0.00000000000E+00  0.00000000000E+00 -0.67479366441E+03  0.67479366442E+03  0.50400001928E-02 0. -1.
    10030    2    1    2    0    0  0.00000000000E+00  0.00000000000E+00 -0.13342145031E+03  0.12161658785E+04  0.12088251159E+04 0.  0.
        4    1    3    3  502    0  0.53574001227E+03  0.18173123074E+03 -0.28076867190E+03  0.63156651352E+03  0.12699999809E+01 0.  1.
       -4    1    3    3    0  502 -0.53574001227E+03 -0.18173123074E+03  0.14734722159E+03  0.58459936503E+03  0.12699999809E+01 0. -1.
</event>
<event>
 5   0  0.2300702E-03  0.1088877E+04  0.7818609E-02  0.9216101E-01
        1   -1    0    0  501    0  0.00000000000E+00  0.00000000000E+00  0.93035981779E+03  0.93035981780E+03  0.50400001928E-02 0.  1.
       -1   -1    0    0    0  501  0.00000000000E+00  0.00000000000E+00 -0.31860077432E+03  0.31860077436E+03  0.50400001928E-02 0. -1.
    10030    2    1    2    0    0  0.00000000000E+00  0.00000000000E+00  0.61175904347E+03  0.12489605922E+04  0.10888771434E+04 0.  0.
        5    1    3    3  502    0  0.45606018846E+03  0.36751870568E+02  0.64429749920E+03  0.79024233812E+03  0.46999998093E+01 0.  1.
       -5    1    3    3    0  502 -0.45606018846E+03 -0.36751870568E+02 -0.32538455726E+02  0.45871825404E+03  0.46999998093E+01 0. -1.
</event>
<event>
 5   0  0.3748901E-03  0.1175357E+04  0.7818609E-02  0.9134704E-01
       -2   -1    0    0    0  501  0.00000000000E+00  0.00000000000E+00  0.47099099100E+03  0.47099099101E+03  0.25500000920E-02 0. -1.
        2   -1    0    0  501    0  0.00000000000E+00  0.00000000000E+00 -0.73327546689E+03  0.73327546690E+03  0.25500000920E-02 0.  1.
    10030    2    1    2    0    0  0.00000000000E+00  0.00000000000E+00 -0.26228447589E+03  0.12042664579E+04  0.11753572033E+04 0.  0.
        5    1    3    3  502    0 -0.47927476101E+02 -0.46884134525E+03  0.22854033582E+03  0.52379578566E+03  0.46999998093E+01 0. -1.
       -5    1    3    3    0  502  0.47927476101E+02  0.46884134525E+03 -0.49082481171E+03  0.68047067224E+03  0.46999998093E+01 0.  1.
</event>
<event>
 5   0  0.2298958E-03  0.1091491E+04  0.7818609E-02  0.9213525E-01
        1   -1    0    0  501    0  0.00000000000E+00  0.00000000000E+00  0.16006438594E+04  0.16006438594E+04  0.50400001928E-02 0.  1.
       -1   -1    0    0    0  501  0.00000000000E+00  0.00000000000E+00 -0.18607397843E+03  0.18607397850E+03  0.50400001928E-02 0. -1.
    10030    2    1    2    0    0  0.00000000000E+00  0.00000000000E+00  0.14145698809E+04  0.17867178379E+04  0.10914910371E+04 0.  0.
        1    1    3    3  502    0 -0.14681326897E+03 -0.41902144566E+03  0.18781376720E+03  0.48208621536E+03  0.50400001928E-02 0. -1.
       -1    1    3    3    0  502  0.14681326897E+03  0.41902144566E+03  0.12267561137E+04  0.13046316225E+04  0.50400001928E-02 0.  1.
</event>
<event>
 5   0  0.3748901E-03  0.1098772E+04  0.7818609E-02  0.9206389E-01
       -2   -1    0    0    0  501  0.00000000000E+00  0.00000000000E+00  0.61455739693E+03  0.61455739694E+03  0.25500000920E-02 0.  1.
        2   -1    0    0  501    0  0.00000000000E+00  0.00000000000E+00 -0.49112596164E+03  0.49112596165E+03  0.25500000920E-02 0. -1.
    10030    2    1    2    0    0  0.00000000000E+00  0.00000000000E+00  0.12343143529E+03  0.11056833586E+04  0.10987722104E+04 0.  0.
        5    1    3    3  502    0 -0.30101389103E+03 -0.21533973672E+03 -0.34682116704E+03  0.50723522818E+03  0.46999998093E+01 0. -1.
       -5    1    3    3    0  502  0.30101389103E+03  0.21533973672E+03  0.47025260233E+03  0.59844813041E+03  0.46999998093E+01 0.  1.
</event>
<event>
 5   0  0.2374100E-03  0.1140299E+04  0.7818609E-02  0.9166780E-01
        1   -1    0    0  501    0  0.00000000000E+00  0.00000000000E+00  0.76266893217E+03  0.76266893219E+03  0.50400001928E-02 0.  1.
       -1   -1    0    0    0  501  0.00000000000E+00  0.00000000000E+00 -0.42622759287E+03  0.42622759290E+03  0.50400001928E-02 0. -1.
    10030    2    1    2    0    0  0.00000000000E+00  0.00000000000E+00  0.33644133930E+03  0.11888965251E+04  0.11402991592E+04 0.  0.
        2    1    3    3  502    0  0.34659448511E+03  0.16869480728E+03  0.60622559166E+03  0.71839762186E+03  0.25500000920E-02 0.  1.
       -2    1    3    3    0  502 -0.34659448511E+03 -0.16869480728E+03 -0.26978425236E+03  0.47049890323E+03  0.25500000920E-02 0. -1.
</event>
<event>
 5   0  0.2255788E-03  0.1102748E+04  0.7818609E-02  0.9202518E-01
       -1   -1    0    0    0  501  0.00000000000E+00  0.00000000000E+00  0.54973013755E+03  0.54973013757E+03  0.50400001928E-02 0. -1.
        1   -1    0    0  501    0  0.00000000000E+00  0.00000000000E+00 -0.55302240630E+03  0.55302240633E+03  0.50400001928E-02 0.  1.
    10030    2    1    2    0    0  0.00000000000E+00  0.00000000000E+00 -0.32922687563E+01  0.11027525439E+04  0.11027476294E+04 0.  0.
        3    1    3    3  502    0 -0.11342475151E+03  0.48745254300E+03  0.22973751798E+03  0.55068547584E+03  0.10100000352E+00 0. -1.
       -3    1    3    3    0  502  0.11342475151E+03 -0.48745254300E+03 -0.23302978673E+03  0.55206706806E+03  0.10100000352E+00 0.  1.
</event>
<event>
 5   0  0.1508625E-03  0.1090634E+04  0.7818609E-02  0.9214369E-01
        3   -1    0    0  501    0  0.00000000000E+00  0.00000000000E+00  0.98165506217E+03  0.98165506737E+03  0.10100000352E+00 0. -1.
       -3   -1    0    0    0  501  0.00000000000E+00  0.00000000000E+00 -0.30292787915E+03  0.30292789599E+03  0.10100000352E+00 0.  1.
    10030    2    1    2    0    0  0.00000000000E+00  0.00000000000E+00  0.67872718302E+03  0.12845829634E+04  0.10906341278E+04 0.  0.
        5    1    3    3  502    0 -0.45016978122E+03 -0.29722317720E+03  0.43325204569E+03  0.69189874555E+03  0.46999998093E+01 0. -1.
       -5    1    3    3    0  502  0.45016978122E+03  0.29722317720E+03  0.24547513732E+03  0.59268421781E+03  0.46999998093E+01 0.  1.
</event>
<event>
 5   0  0.2300702E-03  0.1100556E+04  0.7818609E-02  0.9204650E-01
       -1   -1    0    0    0  501  0.00000000000E+00  0.00000000000E+00  0.47854111792E+03  0.47854111794E+03  0.50400001928E-02 0. -1.
        1   -1    0    0  501    0  0.00000000000E+00  0.00000000000E+00 -0.63276900753E+03  0.63276900755E+03  0.50400001928E-02 0.  1.
    10030    2    1    2    0    0  0.00000000000E+00  0.00000000000E+00 -0.15422788962E+03  0.11113101255E+04  0.11005562017E+04 0.  0.
        5    1    3    3  502    0  0.16508502115E+03  0.49609513397E+03 -0.25031387680E+03  0.57969179145E+03  0.46999998093E+01 0. -1.
       -5    1    3    3    0  502 -0.16508502115E+03 -0.49609513397E+03  0.96085987183E+02  0.53161833404E+03  0.46999998093E+01 0.  1.
</event>
<event>
 5   0  0.3744875E-03  0.1055380E+04  0.7818609E-02  0.9249807E-01
        2   -1    0    0  501    0  0.00000000000E+00  0.00000000000E+00  0.67851005197E+03  0.67851005198E+03  0.25500000920E-02 0.  1.
       -2   -1    0    0    0  501  0.00000000000E+00  0.00000000000E+00 -0.41039467486E+03  0.41039467487E+03  0.25500000920E-02 0. -1.
    10030    2    1    2    0    0  0.00000000000E+00  0.00000000000E+00  0.26811537711E+03  0.10889047268E+04  0.10553803337E+04 0.  0.
        2    1    3    3  502    0  0.35176168559E+03  0.39298955174E+03  0.15131751855E+03  0.54870216206E+03  0.25500000920E-02 0.  1.
       -2    1    3    3    0  502 -0.35176168559E+03 -0.39298955174E+03  0.11679785857E+03  0.54020256478E+03  0.25500000920E-02 0. -1.
</event>
<event>
 5   0  0.3992414E-03  0.1019154E+04  0.7818609E-02  0.9287783E-01
        2   -1    0    0  501    0  0.00000000000E+00  0.00000000000E+00  0.51464175685E+03  0.51464175686E+03  0.25500000920E-02 0. -1.
       -2   -1    0    0    0  501  0.00000000000E+00  0.00000000000E+00 -0.50456200231E+03  0.50456200232E+03  0.25500000920E-02 0.  1.
    10030    2    1    2    0    0  0.00000000000E+00  0.00000000000E+00  0.10079754542E+02  0.10192037592E+04  0.10191539144E+04 0.  0.
        1    1    3    3  502    0 -0.14172157328E+03  0.25828400282E+03 -0.41076050152E+03  0.50548968346E+03  0.50400001928E-02 0.  1.
       -1    1    3    3    0  502  0.14172157328E+03 -0.25828400282E+03  0.42084025606E+03  0.51371407572E+03  0.50400001928E-02 0. -1.
</event>
<event>
 5   0  0.2257667E-03  0.1083163E+04  0.7818609E-02  0.9221760E-01
       -1   -1    0    0    0  501  0.00000000000E+00  0.00000000000E+00  0.25403574759E+03  0.25403574764E+03  0.50400001928E-02 0. -1.
        1   -1    0    0  501    0  0.00000000000E+00  0.00000000000E+00 -0.11546028157E+04  0.11546028157E+04  0.50400001928E-02 0.  1.
    10030    2    1    2    0    0  0.00000000000E+00  0.00000000000E+00 -0.90056706806E+03  0.14086385633E+04  0.10831627569E+04 0.  0.
        4    1    3    3  502    0  0.30199971508E+03 -0.35221134605E+03 -0.86956096090E+02  0.47203774822E+03  0.12699999809E+01 0. -1.
       -4    1    3    3    0  502 -0.30199971508E+03  0.35221134605E+03 -0.81361097197E+03  0.93660081508E+03  0.12699999809E+01 0.  1.
</event>
<event>
 5   0  0.2255788E-03  0.1004733E+04  0.7818609E-02  0.9303369E-01
       -1   -1    0    0    0  501  0.00000000000E+00  0.00000000000E+00  0.49378966101E+03  0.49378966104E+03  0.50400001928E-02 0.  1.
        1   -1    0    0  501    0  0.00000000000E+00  0.00000000000E+00 -0.51109193208E+03  0.51109193211E+03  0.50400001928E-02 0. -1.
    10030    2    1    2    0    0  0.00000000000E+00  0.00000000000E+00 -0.17302271072E+02  0.10048815931E+04  0.10047326250E+04 0.  0.
        3    1    3    3  502    0  0.44449844070E+03  0.11567125762E+03  0.19488136649E+03  0.49893632943E+03  0.10100000352E+00 0.  1.
       -3    1    3    3    0  502 -0.44449844070E+03 -0.11567125762E+03 -0.21218363756E+03  0.50594526371E+03  0.10100000352E+00 0. -1.
</event>
<event>
 5   0  0.2255788E-03  0.1089003E+04  0.7818609E-02  0.9215977E-01
        1   -1    0    0  501    0  0.00000000000E+00  0.00000000000E+00  0.40592138578E+03  0.40592138581E+03  0.50400001928E-02 0. -1.
       -1   -1    0    0    0  501  0.00000000000E+00  0.00000000000E+00 -0.73039218393E+03  0.73039218395E+03  0.50400001928E-02 0.  1.
    10030    2    1    2    0    0  0.00000000000E+00  0.00000000000E+00 -0.32447079815E+03  0.11363135698E+04  0.10890028604E+04 0.  0.
        3    1    3    3  502    0 -0.19345680929E+03  0.48440402482E+03 -0.32525663254E+03  0.61470698998E+03  0.10100000352E+00 0.  1.
       -3    1    3    3    0  502  0.19345680929E+03 -0.48440402482E+03  0.78583438902E+00  0.52160657977E+03  0.10100000352E+00 0. -1.
</event>
<event>
 5   0  0.2374100E-03  0.1072888E+04  0.7818609E-02  0.9232027E-01
       -1   -1    0    0    0  501  0.00000000000E+00  0.00000000000E+00  0.38794435387E+03  0.38794435390E+03  0.50400001928E-02 0.  1.
        1   -1    0    0  501    0  0.00000000000E+00  0.00000000000E+00 -0.74178728022E+03  0.74178728024E+03  0.50400001928E-02 0. -1.
    10030    2    1    2    0    0  0.00000000000E+00  0.00000000000E+00 -0.35384292636E+03  0.11297316341E+04  0.10728880411E+04 0.  0.
        2    1    3    3  502    0  0.26683233856E+03 -0.24406593775E+03  0.24030990009E+03  0.43418489951E+03  0.25500000920E-02 0.  1.
       -2    1    3    3    0  502 -0.26683233856E+03  0.24406593775E+03 -0.59415282645E+03  0.69554673463E+03  0.25500000920E-02 0. -1.
</event>
<event>
 5   0  0.3992414E-03  0.1094439E+04  0.7818609E-02  0.9210629E-01
        2   -1    0    0  501    0  0.00000000000E+00  0.00000000000E+00  0.55157546167E+03  0.55157546168E+03  0.25500000920E-02 0. -1.
       -2   -1    0    0    0  501  0.00000000000E+00  0.00000000000E+00 -0.54289752623E+03  0.54289752623E+03  0.25500000920E-02 0.  1.
    10030    2    1    2    0    0  0.00000000000E+00  0.00000000000E+00  0.86779354445E+01  0.10944729879E+04  0.10944385843E+04 0.  0.
        1    1    3    3  502    0 -0.35822348893E+03  0.36088705108E+03  0.20654676306E+03  0.54883977354E+03  0.50400001928E-02 0. -1.
       -1    1    3    3    0  502  0.35822348893E+03 -0.36088705108E+03 -0.19786882761E+03  0.54563321437E+03  0.50400001928E-02 0.  1.
</event>
<event>
 5   0  0.3962999E-03  0.1102059E+04  0.7818609E-02  0.9203187E-01
       -2   -1    0    0    0  501  0.00000000000E+00  0.00000000000E+00  0.48492479003E+03  0.48492479003E+03  0.25500000920E-02 0.  1.
        2   -1    0    0  501    0  0.00000000000E+00  0.00000000000E+00 -0.62614585423E+03  0.62614585423E+03  0.25500000920E-02 0. -1.
    10030    2    1    2    0    0  0.00000000000E+00  0.00000000000E+00 -0.14122106420E+03  0.11110706443E+04  0.11020592487E+04 0.  0.
        3    1    3    3  502    0  0.46094473868E+03  0.21381549695E+03 -0.28553558187E+03  0.58285306688E+03  0.10100000352E+00 0.  1.
       -3    1    3    3    0  502 -0.46094473868E+03 -0.21381549695E+03  0.14431451767E+03  0.52821757739E+03  0.10100000352E+00 0. -1.
</event>
<event>
 5   0  0.2255788E-03  0.1096133E+04  0.7818609E-02  0.9208969E-01
        1   -1    0    0  501    0  0.00000000000E+00  0.00000000000E+00  0.38005716003E+03  0.38005716007E+03  0.50400001928E-02 0. -1.
       -1   -1    0    0    0  501  0.00000000000E+00  0.00000000000E+00 -0.79034656564E+03  0.79034656566E+03  0.50400001928E-02 0.  1.
    10030    2    1    2    0    0  0.00000000000E+00  0.00000000000E+00 -0.41028940561E+03  0.11704037257E+04  0.10961329686E+04 0.  0.
        3    1    3    3  502    0  0.61428982381E+02  0.16575764183E+03  0.34878122244E+03  0.39102105702E+03  0.10100000352E+00 0. -1.
       -3    1    3    3    0  502 -0.61428982381E+02 -0.16575764183E+03 -0.75907062806E+03  0.77938266871E+03  0.10100000352E+00 0.  1.
</event>
<event>
 5   0  0.3713158E-03  0.1082374E+04  0.7818609E-02  0.9222544E-01
        2   -1    0    0  501    0  0.00000000000E+00  0.00000000000E+00  0.10762422664E+04  0.10762422664E+04  0.25500000920E-02 0. -1.
       -2   -1    0    0    0  501  0.00000000000E+00  0.00000000000E+00 -0.27213496176E+03  0.27213496177E+03  0.25500000920E-02 0.  1.
    10030    2    1    2    0    0  0.00000000000E+00  0.00000000000E+00  0.80410730468E+03  0.13483772282E+04  0.10823735917E+04 0.  0.
        4    1    3    3  502    0 -0.20486625131E+03 -0.16671517477E+02 -0.22161470110E+03  0.30226281456E+03  0.12699999809E+01 0.  1.
       -4    1    3    3    0  502  0.20486625131E+03  0.16671517477E+02  0.10257220058E+04  0.10461144137E+04  0.12699999809E+01 0. -1.
</event>
<event>
 5   0  0.2255788E-03  0.1098206E+04  0.7818609E-02  0.9206942E-01
        1   -1    0    0  501    0  0.00000000000E+00  0.00000000000E+00  0.48589813794E+03  0.48589813796E+03  0.50400001928E-02 0.  1.
       -1   -1    0    0    0  501  0.00000000000E+00  0.00000000000E+00 -0.62052976768E+03  0.62052976770E+03  0.50400001928E-02 0. -1.
    10030    2    1    2    0    0  0.00000000000E+00  0.00000000000E+00 -0.13463162974E+03  0.11064279057E+04  0.10982062806E+04 0.  0.
        3    1    3    3  502    0  0.36692160842E+03  0.40829382496E+03 -0.80792588581E+02  0.55485382471E+03  0.10100000352E+00 0. -1.
       -3    1    3    3    0  502 -0.36692160842E+03 -0.40829382496E+03 -0.53839041157E+02  0.55157408095E+03  0.10100000352E+00 0.  1.
</event>
<event>
 5   0  0.2255788E-03  0.1093373E+04  0.7818609E-02  0.9211675E-01
        1   -1    0    0  501    0  0.00000000000E+00  0.00000000000E+00  0.21532349220E+04  0.21532349220E+04  0.50400001928E-02 0.  1.
       -1   -1    0    0    0  501  0.00000000000E+00  0.00000000000E+00 -0.13879877298E+03  0.13879877307E+03  0.50400001928E-02 0. -1.
    10030    2    1    2    0    0  0.00000000000E+00  0.00000000000E+00  0.20144361490E+04  0.22920336950E+04  0.10933734316E+04 0.  0.
        3    1    3    3  502    0  0.13324194842E+03 -0.41050912431E+03  0.30380179693E+03  0.52779418335E+03  0.10100000352E+00 0. -1.
       -3    1    3    3    0  502 -0.13324194842E+03  0.41050912431E+03  0.17106343521E+04  0.17642395117E+04  0.10100000352E+00 0.  1.
</event>
<event>
 5   0  0.3962999E-03  0.1086500E+04  0.7818609E-02  0.9218450E-01
       -2   -1    0    0    0  501  0.00000000000E+00  0.00000000000E+00  0.45566789752E+03  0.45566789753E+03  0.25500000920E-02 0.  1.
        2   -1    0    0  501    0  0.00000000000E+00  0.00000000000E+00 -0.64766616548E+03  0.64766616549E+03  0.25500000920E-02 0. -1.
    10030    2    1    2    0    0  0.00000000000E+00  0.00000000000E+00 -0.19199826796E+03  0.11033340630E+04  0.10865002162E+04 0.  0.
        3    1    3    3  502    0  0.64303353377E+02  0.50111798396E+03 -0.29875869556E+03  0.58695052899E+03  0.10100000352E+00 0. -1.
       -3    1    3    3    0  502 -0.64303353377E+02 -0.50111798396E+03  0.10676042761E+03  0.51638353402E+03  0.10100000352E+00 0.  1.
</event>
<event>
 5   0  0.2257667E-03  0.1096232E+04  0.7818609E-02  0.9208872E-01
       -1   -1    0    0    0  501  0.00000000000E+00  0.00000000000E+00  0.38673040308E+03  0.38673040311E+03  0.50400001928E-02 0. -1.
        1   -1    0    0  501    0  0.00000000000E+00  0.00000000000E+00 -0.77684974655E+03  0.77684974657E+03  0.50400001928E-02 0.  1.
    10030    2    1    2    0    0  0.00000000000E+00  0.00000000000E+00 -0.39011934347E+03  0.11635801497E+04  0.10962324856E+04 0.  0.
        4    1    3    3  502    0 -0.36769817080E+03  0.11860205466E+03  0.21762097633E+03  0.44342856744E+03  0.12699999809E+01 0. -1.
       -4    1    3    3    0  502  0.36769817080E+03 -0.11860205466E+03 -0.60774031980E+03  0.72015158224E+03  0.12699999809E+01 0.  1.
</event>
<event>
 5   0  0.2255788E-03  0.1106092E+04  0.7818609E-02  0.9199275E-01
        1   -1    0    0  501    0  0.00000000000E+00  0.00000000000E+00  0.12840506175E+04  0.12840506175E+04  0.50400001928E-02 0.  1.
       -1   -1    0    0    0  501  0.00000000000E+00  0.00000000000E+00 -0.23819902274E+03  0.23819902280E+03  0.50400001928E-02 0. -1.
    10030    2    1    2    0    0  0.00000000000E+00  0.00000000000E+00  0.10458515947E+04  0.15222496403E+04  0.11060915012E+04 0.  0.
        3    1    3    3  502    0 -0.10360501977E+02  0.23822598761E+03  0.12096700737E+04  0.12329479545E+04  0.10100000352E+00 0.  1.
       -3    1    3    3    0  502  0.10360501977E+02 -0.23822598761E+03 -0.16381847892E+03  0.28930168580E+03  0.10100000352E+00 0. -1.
</event>
<event>
 5   0  0.3744875E-03  0.1097567E+04  0.7818609E-02  0.9207567E-01
        2   -1    0    0  501    0  0.00000000000E+00  0.00000000000E+00  0.85416366701E+03  0.85416366702E+03  0.25500000920E-02 0. -1.
       -2   -1    0    0    0  501  0.00000000000E+00  0.00000000000E+00 -0.35258240787E+03  0.35258240787E+03  0.25500000920E-02 0.  1.
    10030    2    1    2    0    0  0.00000000000E+00  0.00000000000E+00  0.50158125915E+03  0.12067460749E+04  0.10975665491E+04 0.  0.
        2    1    3    3  502    0  0.47919275320E+03 -0.24819962150E+03  0.36037647083E+03  0.64892214292E+03  0.25500000920E-02 0. -1.
       -2    1    3    3    0  502 -0.47919275320E+03  0.24819962150E+03  0.14120478831E+03  0.55782393197E+03  0.25500000920E-02 0.  1.
</event>
<event>
 5   0  0.2257667E-03  0.1105631E+04  0.7818609E-02  0.9199721E-01
        1   -1    0    0  501    0  0.00000000000E+00  0.00000000000E+00  0.86160433559E+03  0.86160433560E+03  0.50400001928E-02 0.  1.
       -1   -1    0    0    0  501  0.00000000000E+00  0.00000000000E+00 -0.35469302805E+03  0.35469302808E+03  0.50400001928E-02 0. -1.
    10030    2    1    2    0    0  0.00000000000E+00  0.00000000000E+00  0.50691130754E+03  0.12162973637E+04  0.11056311334E+04 0.  0.
        4    1    3    3  502    0 -0.15887911352E+03 -0.48717397537E+03  0.25276094706E+02  0.51305121465E+03  0.12699999809E+01 0. -1.
       -4    1    3    3    0  502  0.15887911352E+03  0.48717397537E+03  0.48163521283E+03  0.70324614904E+03  0.12699999809E+01 0.  1.
</event>
<event>
 5   0  0.3992414E-03  0.1097792E+04  0.7818609E-02  0.9207347E-01
        2   -1    0    0  501    0  0.00000000000E+00  0.00000000000E+00  0.14113698337E+04  0.14113698337E+04  0.25500000920E-02 0.  1.
       -2   -1    0    0    0  501  0.00000000000E+00  0.00000000000E+00 -0.21347101253E+03  0.21347101255E+03  0.25500000920E-02 0. -1.
    10030    2    1    2    0    0  0.00000000000E+00  0.00000000000E+00  0.11978988212E+04  0.16248408463E+04  0.10977915057E+04 0.  0.
        1    1    3    3  502    0  0.19603807185E+02 -0.47626931639E+03  0.19612898957E+03  0.51544480943E+03  0.50400001928E-02 0. -1.
       -1    1    3    3    0  502 -0.19603807185E+02  0.47626931639E+03  0.10017698316E+04  0.11093960368E+04  0.50400001928E-02 0.  1.
</event>
<event>
 5   0  0.1508625E-03  0.1113629E+04  0.7818609E-02  0.9192009E-01
       -4   -1    0    0    0  501  0.00000000000E+00  0.00000000000E+00  0.24090930574E+03  0.24091265324E+03  0.12699999809E+01 0. -1.
        4   -1    0    0  501    0  0.00000000000E+00  0.00000000000E+00 -0.12869543705E+04  0.12869549971E+04  0.12699999809E+01 0.  1.
    10030    2    1    2    0    0  0.00000000000E+00  0.00000000000E+00 -0.10460450647E+04  0.15278676504E+04  0.11136288787E+04 0.  0.
        4    1    3    3  502    0 -0.31289836156E+03 -0.41108089223E+03 -0.23803576698E+03  0.56881941236E+03  0.12699999809E+01 0. -1.
       -4    1    3    3    0  502  0.31289836156E+03  0.41108089223E+03 -0.80800929776E+03  0.95904823799E+03  0.12699999809E+01 0.  1.
</event>
<event>
 5   0  0.2257667E-03  0.1105703E+04  0.7818609E-02  0.9199651E-01
       -1   -1    0    0    0  501  0.00000000000E+00  0.00000000000E+00  0.86435748394E+03  0.86435748396E+03  0.50400001928E-02 0. -1.
        1   -1    0    0  501    0  0.00000000000E+00  0.00000000000E+00 -0.35360946472E+03  0.35360946476E+03  0.50400001928E-02 0.  1.
    10030    2    1    2    0    0  0.00000000000E+00  0.00000000000E+00  0.51074801922E+03  0.12179669487E+04  0.11057033730E+04 0.  0.
        4    1    3    3  502    0  0.48999106977E+03 -0.25197621756E+03  0.30537081455E+03  0.62994937094E+03  0.12699999809E+01 0.  1.
       -4    1    3    3    0  502 -0.48999106977E+03  0.25197621756E+03  0.20537720467E+03  0.58801757777E+03  0.12699999809E+01 0. -1.
</event>
<event>
 5   0  0.3962999E-03  0.1085574E+04  0.7818609E-02  0.9219368E-01
        2   -1    0    0  501    0  0.00000000000E+00  0.00000000000E+00  0.45253702669E+03  0.45253702670E+03  0.25500000920E-02 0.  1.
       -2   -1    0    0    0  501  0.00000000000E+00  0.00000000000E+00 -0.65103546600E+03  0.65103546600E+03  0.25500000920E-02 0. -1.
    10030    2    1    2    0    0  0.00000000000E+00  0.00000000000E+00 -0.19849843931E+03  0.11035724927E+04  0.10855738649E+04 0.  0.
        3    1    3    3  502    0  0.30087024394E+03  0.40057070154E+03 -0.31160944442E+03  0.58998325966E+03  0.10100000352E+00 0.  1.
       -3    1    3    3    0  502 -0.30087024394E+03 -0.40057070154E+03  0.11311100511E+03  0.51358923304E+03  0.10100000352E+00 0. -1.
</event>
<event>
 5   0  0.2255788E-03  0.1081995E+04  0.7818609E-02  0.9222921E-01
       -1   -1    0    0    0  501  0.00000000000E+00  0.00000000000E+00  0.37050645859E+03  0.37050645863E+03  0.50400001928E-02 0. -1.
        1   -1    0    0  501    0  0.00000000000E+00  0.00000000000E+00 -0.78994115775E+03  0.78994115776E+03  0.50400001928E-02 0.  1.
    10030    2    1    2    0    0  0.00000000000E+00  0.00000000000E+00 -0.41943469916E+03  0.11604476164E+04  0.10819950109E+04 0.  0.
        3    1    3    3  502    0  0.52997408862E+03 -0.44605348634E+02 -0.31597744184E+03  0.61863068602E+03  0.10100000352E+00 0.  1.
       -3    1    3    3    0  502 -0.52997408862E+03  0.44605348634E+02 -0.10345725732E+03  0.54181693037E+03  0.10100000352E+00 0. -1.
</event>
<event>
 5   0  0.3744875E-03  0.1117333E+04  0.7818609E-02  0.9188461E-01
       -2   -1    0    0    0  501  0.00000000000E+00  0.00000000000E+00  0.36894799431E+03  0.36894799432E+03  0.25500000920E-02 0. -1.
        2   -1    0    0  501    0  0.00000000000E+00  0.00000000000E+00 -0.84594049522E+03  0.84594049522E+03  0.25500000920E-02 0.  1.
    10030    2    1    2    0    0  0.00000000000E+00  0.00000000000E+00 -0.47699250091E+03  0.12148884895E+04  0.11173326255E+04 0.  0.
        2    1    3    3  502    0  0.22085765804E+02 -0.38121689943E+03 -0.68189264103E+03  0.78153162403E+03  0.25500000920E-02 0.  1.
       -2    1    3    3    0  502 -0.22085765804E+02  0.38121689943E+03  0.20490014012E+03  0.43335686552E+03  0.25500000920E-02 0. -1.
</event>
<event>
 5   0  0.3962999E-03  0.1091779E+04  0.7818609E-02  0.9213242E-01
       -2   -1    0    0    0  501  0.00000000000E+00  0.00000000000E+00  0.29957376585E+03  0.29957376586E+03  0.25500000920E-02 0.  1.
        2   -1    0    0  501    0  0.00000000000E+00  0.00000000000E+00 -0.99473066613E+03  0.99473066613E+03  0.25500000920E-02 0. -1.
    10030    2    1    2    0    0  0.00000000000E+00  0.00000000000E+00 -0.69515690028E+03  0.12943044320E+04  0.10917787535E+04 0.  0.
        3    1    3    3  502    0 -0.32135996261E+03  0.44117953214E+03 -0.33673929608E+03  0.64133062368E+03  0.10100000352E+00 0.  1.
       -3    1    3    3    0  502  0.32135996261E+03 -0.44117953214E+03 -0.35841760420E+03  0.65297380831E+03  0.10100000352E+00 0. -1.
</event>
<event>
 5   0  0.3744875E-03  0.1071524E+04  0.7818609E-02  0.9233400E-01
        2   -1    0    0  501    0  0.00000000000E+00  0.00000000000E+00  0.13433789272E+04  0.13433789272E+04  0.25500000920E-02 0.  1.
       -2   -1    0    0    0  501  0.00000000000E+00  0.00000000000E+00 -0.21367081862E+03  0.21367081864E+03  0.25500000920E-02 0. -1.
    10030    2    1    2    0    0  0.00000000000E+00  0.00000000000E+00  0.11297081086E+04  0.15570497458E+04  0.10715239150E+04 0.  0.
        2    1    3    3  502    0  0.33401444992E+03  0.12048293439E+03 -0.18132269349E+02  0.35554264080E+03  0.25500000920E-02 0. -1.
       -2    1    3    3    0  502 -0.33401444992E+03 -0.12048293439E+03  0.11478403779E+04  0.12015071050E+04  0.25500000920E-02 0.  1.
</event>
<event>
 5   0  0.3744875E-03  0.1132250E+04  0.7818609E-02  0.9174317E-01
        2   -1    0    0  501    0  0.00000000000E+00  0.00000000000E+00  0.17720748470E+04  0.17720748470E+04  0.25500000920E-02 0. -1.
       -2   -1    0    0    0  501  0.00000000000E+00  0.00000000000E+00 -0.18086005624E+03  0.18086005626E+03  0.25500000920E-02 0.  1.
    10030    2    1    2    0    0  0.00000000000E+00  0.00000000000E+00  0.15912147907E+04  0.19529349032E+04  0.11322500722E+04 0.  0.
        2    1    3    3  502    0 -0.22717563106E+03  0.16555487406E+02  0.16895513714E+04  0.17048362643E+04  0.25500000920E-02 0. -1.
       -2    1    3    3    0  502  0.22717563106E+03 -0.16555487406E+02 -0.98336580690E+02  0.24809863889E+03  0.25500000920E-02 0.  1.
</event>
<event>
 5   0  0.2300702E-03  0.1098397E+04  0.7818609E-02  0.9206756E-01
       -1   -1    0    0    0  501  0.00000000000E+00  0.00000000000E+00  0.33272212523E+03  0.33272212527E+03  0.50400001928E-02 0. -1.
        1   -1    0    0  501    0  0.00000000000E+00  0.00000000000E+00 -0.90651924771E+03  0.90651924772E+03  0.50400001928E-02 0.  1.
    10030    2    1    2    0    0  0.00000000000E+00  0.00000000000E+00 -0.57379712247E+03  0.12392413730E+04  0.10983970333E+04 0.  0.
        5    1    3    3  502    0 -0.44591719981E+03  0.22313864630E+03 -0.54654752735E+03  0.73984410129E+03  0.46999998093E+01 0.  1.
       -5    1    3    3    0  502  0.44591719981E+03 -0.22313864630E+03 -0.27249595124E+02  0.49939727171E+03  0.46999998093E+01 0. -1.
</event>
<event>
 5   0  0.2257667E-03  0.1098493E+04  0.7818609E-02  0.9206662E-01
        1   -1    0    0  501    0  0.00000000000E+00  0.00000000000E+00  0.95987786233E+03  0.95987786234E+03  0.50400001928E-02 0. -1.
       -1   -1    0    0    0  501  0.00000000000E+00  0.00000000000E+00 -0.31428116167E+03  0.31428116172E+03  0.50400001928E-02 0.  1.
    10030    2    1    2    0    0  0.00000000000E+00  0.00000000000E+00  0.64559670065E+03  0.12741590241E+04  0.10984926576E+04 0.  0.
        4    1    3    3  502    0 -0.78434026895E+02 -0.25390865206E+03 -0.23474414481E+03  0.35458133987E+03  0.12699999809E+01 0.  1.
       -4    1    3    3    0  502  0.78434026895E+02  0.25390865206E+03  0.88034084546E+03  0.91957768419E+03  0.12699999809E+01 0. -1.
</event>
<event>
 5   0  0.3744875E-03  0.1103291E+04  0.7818609E-02  0.9201990E-01
       -2   -1    0    0    0  501  0.00000000000E+00  0.00000000000E+00  0.28858160911E+03  0.28858160912E+03  0.25500000920E-02 0.  1.
        2   -1    0    0  501    0  0.00000000000E+00  0.00000000000E+00 -0.10545113323E+04  0.10545113323E+04  0.25500000920E-02 0. -1.
    10030    2    1    2    0    0  0.00000000000E+00  0.00000000000E+00 -0.76592972316E+03  0.13430929414E+04  0.11032906727E+04 0.  0.
        2    1    3    3  502    0 -0.32755646259E+03  0.14824392325E+03 -0.89228235544E+03  0.96199651704E+03  0.25500000920E-02 0. -1.
       -2    1    3    3    0  502  0.32755646259E+03 -0.14824392325E+03  0.12635263228E+03  0.38109642435E+03  0.25500000920E-02 0.  1.
</event>
<event>
 5   0  0.3744875E-03  0.1103307E+04  0.7818609E-02  0.9201974E-01
       -2   -1    0    0    0  501  0.00000000000E+00  0.00000000000E+00  0.18835549123E+03  0.18835549124E+03  0.25500000920E-02 0.  1.
        2   -1    0    0  501    0  0.00000000000E+00  0.00000000000E+00 -0.16156777575E+04  0.16156777575E+04  0.25500000920E-02 0. -1.
    10030    2    1    2    0    0  0.00000000000E+00  0.00000000000E+00 -0.14273222662E+04  0.18040332487E+04  0.11033073510E+04 0.  0.
        2    1    3    3  502    0  0.21103509020E+03  0.40538468662E+03 -0.12188272661E+04  0.13016959929E+04  0.25500000920E-02 0. -1.
       -2    1    3    3    0  502 -0.21103509020E+03 -0.40538468662E+03 -0.20849500012E+03  0.50233725576E+03  0.25500000920E-02 0.  1.
</event>
<event>
 5   0  0.1508625E-03  0.1112536E+04  0.7818609E-02  0.9193059E-01
       -3   -1    0    0    0  501  0.00000000000E+00  0.00000000000E+00  0.95597551135E+03  0.95597551668E+03  0.10100000352E+00 0.  1.
        3   -1    0    0  501    0  0.00000000000E+00  0.00000000000E+00 -0.32368384571E+03  0.32368386146E+03  0.10100000352E+00 0. -1.
    10030    2    1    2    0    0  0.00000000000E+00  0.00000000000E+00  0.63229166564E+03  0.12796593781E+04  0.11125355606E+04 0.  0.
        2    1    3    3  502    0  0.44104738781E+03 -0.12070090489E+03 -0.48207366569E+02  0.45979936596E+03  0.25500000920E-02 0.  1.
       -2    1    3    3    0  502 -0.44104738781E+03  0.12070090489E+03  0.68049903221E+03  0.81986001219E+03  0.25500000920E-02 0. -1.
</event>
<event>
 5   0  0.3962999E-03  0.1097260E+04  0.7818609E-02  0.9207866E-01
        2   -1    0    0  501    0  0.00000000000E+00  0.00000000000E+00  0.75119993957E+03  0.75119993957E+03  0.25500000920E-02 0. -1.
       -2   -1    0    0    0  501  0.00000000000E+00  0.00000000000E+00 -0.40068559260E+03  0.40068559261E+03  0.25500000920E-02 0.  1.
    10030    2    1    2    0    0  0.00000000000E+00  0.00000000000E+00  0.35051434697E+03  0.11518855322E+04  0.10972602115E+04 0.  0.
        3    1    3    3  502    0 -0.83378978633E+02  0.30948334672E+02  0.74358194239E+03  0.74888181227E+03  0.10100000352E+00 0. -1.
       -3    1    3    3    0  502  0.83378978633E+02 -0.30948334672E+02 -0.39306759542E+03  0.40300371992E+03  0.10100000352E+00 0.  1.
</event>
<event>
 5   0  0.1508625E-03  0.1109804E+04  0.7818609E-02  0.9195688E-01
        4   -1    0    0  501    0  0.00000000000E+00  0.00000000000E+00  0.82062914205E+03  0.82063012477E+03  0.12699999809E+01 0. -1.
       -4   -1    0    0    0  501  0.00000000000E+00  0.00000000000E+00 -0.37521773343E+03  0.37521988270E+03  0.12699999809E+01 0.  1.
    10030    2    1    2    0    0  0.00000000000E+00  0.00000000000E+00  0.44541140862E+03  0.11958500075E+04  0.11098044501E+04 0.  0.
        2    1    3    3  502    0 -0.43788386047E+03  0.33488007803E+03  0.29110597899E+03  0.62340166260E+03  0.25500000920E-02 0. -1.
       -2    1    3    3    0  502  0.43788386047E+03 -0.33488007803E+03  0.15430542963E+03  0.57244834487E+03  0.25500000920E-02 0.  1.
</event>
<event>
 5   0  0.2298958E-03  0.1071348E+04  0.7818609E-02  0.9233577E-01
       -1   -1    0    0    0  501  0.00000000000E+00  0.00000000000E+00  0.54356888358E+03  0.54356888361E+03  0.50400001928E-02 0.  1.
        1   -1    0    0  501    0  0.00000000000E+00  0.00000000000E+00 -0.52789416482E+03  0.52789416484E+03  0.50400001928E-02 0. -1.
    10030    2    1    2    0    0  0.00000000000E+00  0.00000000000E+00  0.15674718764E+02  0.10714630485E+04  0.10713483875E+04 0.  0.
        1    1    3    3  502    0 -0.30372389142E+03 -0.35751307884E+03 -0.25080787086E+03  0.53194773416E+03  0.50400001928E-02 0. -1.
       -1    1    3    3    0  502  0.30372389142E+03  0.35751307884E+03  0.26648258963E+03  0.53951531430E+03  0.50400001928E-02 0.  1.
</event>
<event>
 5   0  0.3744875E-03  0.1100518E+04  0.7818609E-02  0.9204687E-01
       -2   -1    0    0    0  501  0.00000000000E+00  0.00000000000E+00  0.20817918945E+03  0.20817918946E+03  0.25500000920E-02 0. -1.
        2   -1    0    0  501    0  0.00000000000E+00  0.00000000000E+00 -0.14544433235E+04  0.14544433235E+04  0.25500000920E-02 0.  1.
    10030    2    1    2    0    0  0.00000000000E+00  0.00000000000E+00 -0.12462641341E+04  0.16626225130E+04  0.11005177549E+04 0.  0.
        2    1    3    3  502    0  0.61601188163E+02 -0.75727319496E+01  0.20287425913E+03  0.21215564493E+03  0.25500000920E-02 0. -1.
       -2    1    3    3    0  502 -0.61601188163E+02  0.75727319496E+01 -0.14491383932E+04  0.14504668681E+04  0.25500000920E-02 0.  1.
</event>
<event>
 5   0  0.3748901E-03  0.1087217E+04  0.7818609E-02  0.9217741E-01
       -2   -1    0    0    0  501  0.00000000000E+00  0.00000000000E+00  0.20017158329E+03  0.20017158330E+03  0.25500000920E-02 0. -1.
        2   -1    0    0  501    0  0.00000000000E+00  0.00000000000E+00 -0.14762856922E+04  0.14762856922E+04  0.25500000920E-02 0.  1.
    10030    2    1    2    0    0  0.00000000000E+00  0.00000000000E+00 -0.12761141089E+04  0.16764572755E+04  0.10872174472E+04 0.  0.
        5    1    3    3  502    0 -0.90389915726E+00  0.20703457610E+03  0.13696412516E+03  0.24828490553E+03  0.46999998093E+01 0. -1.
       -5    1    3    3    0  502  0.90389915726E+00 -0.20703457610E+03 -0.14130782340E+04  0.14281723699E+04  0.46999998093E+01 0.  1.
</event>
<event>
 5   0  0.1508625E-03  0.1115794E+04  0.7818609E-02  0.9189933E-01
       -4   -1    0    0    0  501  0.00000000000E+00  0.00000000000E+00  0.26906601110E+03  0.26906900831E+03  0.12699999809E+01 0. -1.
        4   -1    0    0  501    0  0.00000000000E+00  0.00000000000E+00 -0.11567665925E+04  0.11567672896E+04  0.12699999809E+01 0.  1.
    10030    2    1    2    0    0  0.00000000000E+00  0.00000000000E+00 -0.88770058136E+03  0.14258362979E+04  0.11157942581E+04 0.  0.
        2    1    3    3  502    0  0.81493167049E+01  0.44326172600E+03 -0.11066753722E+02  0.44347473676E+03  0.25500000920E-02 0. -1.
       -2    1    3    3    0  502 -0.81493167049E+01 -0.44326172600E+03 -0.87663382764E+03  0.98236156117E+03  0.25500000920E-02 0.  1.
</event>
<event>
 5   0  0.2300702E-03  0.1103007E+04  0.7818609E-02  0.9202266E-01
        1   -1    0    0  501    0  0.00000000000E+00  0.00000000000E+00  0.10943997221E+04  0.10943997221E+04  0.50400001928E-02 0. -1.
       -1   -1    0    0    0  501  0.00000000000E+00  0.00000000000E+00 -0.27792047825E+03  0.27792047830E+03  0.50400001928E-02 0.  1.
    10030    2    1    2    0    0  0.00000000000E+00  0.00000000000E+00  0.81647924383E+03  0.13723202004E+04  0.11030069704E+04 0.  0.
        5    1    3    3  502    0  0.10535021320E+03 -0.47635477776E+03  0.88314440720E+02  0.49581657108E+03  0.46999998093E+01 0. -1.
       -5    1    3    3    0  502 -0.10535021320E+03  0.47635477776E+03  0.72816480311E+03  0.87650362932E+03  0.46999998093E+01 0.  1.
</event>
<event>
 5   0  0.3713158E-03  0.1096460E+04  0.7818609E-02  0.9208649E-01
        2   -1    0    0  501    0  0.00000000000E+00  0.00000000000E+00  0.15354740647E+04  0.15354740647E+04  0.25500000920E-02 0.  1.
       -2   -1    0    0    0  501  0.00000000000E+00  0.00000000000E+00 -0.19574171156E+03  0.19574171158E+03  0.25500000920E-02 0. -1.
    10030    2    1    2    0    0  0.00000000000E+00  0.00000000000E+00  0.13397323531E+04  0.17312157763E+04  0.10964603440E+04 0.  0.
        4    1    3    3  502    0  0.20448399050E+03 -0.45729541137E+03  0.10215845236E+04  0.11377914340E+04  0.12699999809E+01 0.  1.
       -4    1    3    3    0  502 -0.20448399050E+03  0.45729541137E+03  0.31814782958E+03  0.59342434227E+03  0.12699999809E+01 0. -1.
</event>
<event>
 5   0  0.2255788E-03  0.1115339E+04  0.7818609E-02  0.9190369E-01
       -1   -1    0    0    0  501  0.00000000000E+00  0.00000000000E+00  0.31988863816E+03  0.31988863820E+03  0.50400001928E-02 0. -1.
        1   -1    0    0  501    0  0.00000000000E+00  0.00000000000E+00 -0.97219883929E+03  0.97219883930E+03  0.50400001928E-02 0.  1.
    10030    2    1    2    0    0  0.00000000000E+00  0.00000000000E+00 -0.65231020112E+03  0.12920874775E+04  0.11153391641E+04 0.  0.
        3    1    3    3  502    0 -0.22823783462E+03  0.19650907763E+03 -0.86988025441E+03  0.92054331454E+03  0.10100000352E+00 0.  1.
       -3    1    3    3    0  502  0.22823783462E+03 -0.19650907763E+03  0.21757005328E+03  0.37154416296E+03  0.10100000352E+00 0. -1.
</event>
<event>
 5   0  0.2374100E-03  0.1099888E+04  0.7818609E-02  0.9205301E-01
       -1   -1    0    0    0  501  0.00000000000E+00  0.00000000000E+00  0.16705178241E+03  0.16705178249E+03  0.50400001928E-02 0.  1.
        1   -1    0    0  501    0  0.00000000000E+00  0.00000000000E+00 -0.18104467634E+04  0.18104467634E+04  0.50400001928E-02 0. -1.
    10030    2    1    2    0    0  0.00000000000E+00  0.00000000000E+00 -0.16433949810E+04  0.19774985459E+04  0.10998879195E+04 0.  0.
        2    1    3    3  502    0 -0.23506782995E+03  0.35364955504E+03 -0.14499721169E+04  0.15108752537E+04  0.25500000920E-02 0. -1.
       -2    1    3    3    0  502  0.23506782995E+03 -0.35364955504E+03 -0.19342286410E+03  0.46662329220E+03  0.25500000920E-02 0.  1.
</event>
<event>
 5   0  0.3744875E-03  0.1081039E+04  0.7818609E-02  0.9223872E-01
        2   -1    0    0  501    0  0.00000000000E+00  0.00000000000E+00  0.35052794839E+03  0.35052794840E+03  0.25500000920E-02 0. -1.
       -2   -1    0    0    0  501  0.00000000000E+00  0.00000000000E+00 -0.83348937713E+03  0.83348937714E+03  0.25500000920E-02 0.  1.
    10030    2    1    2    0    0  0.00000000000E+00  0.00000000000E+00 -0.48296142874E+03  0.11840173255E+04  0.10810389843E+04 0.  0.
        2    1    3    3  502    0 -0.18442830818E+03  0.45388082810E+03  0.86119916270E+01  0.48999568711E+03  0.25500000920E-02 0. -1.
       -2    1    3    3    0  502  0.18442830818E+03 -0.45388082810E+03 -0.49157342037E+03  0.69402163842E+03  0.25500000920E-02 0.  1.
</event>
<event>
 5   0  0.3962999E-03  0.1104597E+04  0.7818609E-02  0.9200723E-01
       -2   -1    0    0    0  501  0.00000000000E+00  0.00000000000E+00  0.12364112035E+03  0.12364112038E+03  0.25500000920E-02 0. -1.
        2   -1    0    0  501    0  0.00000000000E+00  0.00000000000E+00 -0.24670893249E+04  0.24670893249E+04  0.25500000920E-02 0.  1.
    10030    2    1    2    0    0  0.00000000000E+00  0.00000000000E+00 -0.23434482046E+04  0.25907304453E+04  0.11045970997E+04 0.  0.
        3    1    3    3  502    0  0.35798290387E+03  0.37798350957E+03 -0.16042619396E+04  0.16866178209E+04  0.10100000352E+00 0. -1.
       -3    1    3    3    0  502 -0.35798290387E+03 -0.37798350957E+03 -0.73918626501E+03  0.90411262437E+03  0.10100000352E+00 0.  1.
</event>
<event>
 5   0  0.2257667E-03  0.1101077E+04  0.7818609E-02  0.9204143E-01
        1   -1    0    0  501    0  0.00000000000E+00  0.00000000000E+00  0.19543042946E+03  0.19543042952E+03  0.50400001928E-02 0. -1.
       -1   -1    0    0    0  501  0.00000000000E+00  0.00000000000E+00 -0.15508986890E+04  0.15508986890E+04  0.50400001928E-02 0.  1.
    10030    2    1    2    0    0  0.00000000000E+00  0.00000000000E+00 -0.13554682596E+04  0.17463291185E+04  0.11010772850E+04 0.  0.
        4    1    3    3  502    0  0.51458904900E+03 -0.15954694504E+03 -0.85741028385E+03  0.10126258563E+04  0.12699999809E+01 0. -1.
       -4    1    3    3    0  502 -0.51458904900E+03  0.15954694504E+03 -0.49805797571E+03  0.73370326228E+03  0.12699999809E+01 0.  1.
</event>
<event>
 5   0  0.3962999E-03  0.1106307E+04  0.7818609E-02  0.9199066E-01
        2   -1    0    0  501    0  0.00000000000E+00  0.00000000000E+00  0.23747051703E+04  0.23747051703E+04  0.25500000920E-02 0. -1.
       -2   -1    0    0    0  501  0.00000000000E+00  0.00000000000E+00 -0.12884927074E+03  0.12884927076E+03  0.25500000920E-02 0.  1.
    10030    2    1    2    0    0  0.00000000000E+00  0.00000000000E+00  0.22458558995E+04  0.25035544410E+04  0.11063074246E+04 0.  0.
        3    1    3    3  502    0  0.52171509104E+03  0.16479485694E+03  0.13072608792E+04  0.14171361959E+04  0.10100000352E+00 0. -1.
       -3    1    3    3    0  502 -0.52171509104E+03 -0.16479485694E+03  0.93859502032E+03  0.10864182452E+04  0.10100000352E+00 0.  1.
</event>
<event>
 5   0  0.2255788E-03  0.1145052E+04  0.7818609E-02  0.9162360E-01
        1   -1    0    0  501    0  0.00000000000E+00  0.00000000000E+00  0.40430380420E+03  0.40430380423E+03  0.50400001928E-02 0. -1.
       -1   -1    0    0    0  501  0.00000000000E+00  0.00000000000E+00 -0.81074250223E+03  0.81074250224E+03  0.50400001928E-02 0.  1.
    10030    2    1    2    0    0  0.00000000000E+00  0.00000000000E+00 -0.40643869803E+03  0.12150463065E+04  0.11450524493E+04 0.  0.
        3    1    3    3  502    0 -0.12715203933E+03  0.32826106196E+03  0.27589257152E+03  0.44725796486E+03  0.10100000352E+00 0. -1.
       -3    1    3    3    0  502  0.12715203933E+03 -0.32826106196E+03 -0.68233126955E+03  0.76778834161E+03  0.10100000352E+00 0.  1.
</event>
<event>
 5   0  0.3744875E-03  0.1095009E+04  0.7818609E-02  0.9210070E-01
       -2   -1    0    0    0  501  0.00000000000E+00  0.00000000000E+00  0.71031730929E+03  0.71031730929E+03  0.25500000920E-02 0. -1.
        2   -1    0    0  501    0  0.00000000000E+00  0.00000000000E+00 -0.42201033283E+03  0.42201033283E+03  0.25500000920E-02 0.  1.
    10030    2    1    2    0    0  0.00000000000E+00  0.00000000000E+00  0.28830697646E+03  0.11323276421E+04  0.10950091216E+04 0.  0.
        2    1    3    3  502    0 -0.49774182618E+03 -0.97704798651E+02 -0.68947636316E+02  0.51190519607E+03  0.25500000920E-02 0.  1.
       -2    1    3    3    0  502  0.49774182618E+03  0.97704798651E+02  0.35725461278E+03  0.62042244605E+03  0.25500000920E-02 0. -1.
</event>
<event>
 5   0  0.3962999E-03  0.1098158E+04  0.7818609E-02  0.9206989E-01
       -2   -1    0    0    0  501  0.00000000000E+00  0.00000000000E+00  0.50045941548E+03  0.50045941549E+03  0.25500000920E-02 0. -1.
        2   -1    0    0  501    0  0.00000000000E+00  0.00000000000E+00 -0.60242218339E+03  0.60242218339E+03  0.25500000920E-02 0.  1.
    10030    2    1    2    0    0  0.00000000000E+00  0.00000000000E+00 -0.10196276791E+03  0.11028815989E+04  0.10981581922E+04 0.  0.
        3    1    3    3  502    0 -0.19566403518E+03 -0.14428519248E+03 -0.54542530872E+03  0.59715275183E+03  0.10100000352E+00 0.  1.
       -3    1    3    3    0  502  0.19566403518E+03  0.14428519248E+03  0.44346254081E+03  0.50572884705E+03  0.10100000352E+00 0. -1.
</event>
<event>
 5   0  0.3992414E-03  0.1095503E+04  0.7818609E-02  0.9209586E-01
        2   -1    0    0  501    0  0.00000000000E+00  0.00000000000E+00  0.23186732929E+04  0.23186732929E+04  0.25500000920E-02 0. -1.
       -2   -1    0    0    0  501  0.00000000000E+00  0.00000000000E+00 -0.12939793181E+03  0.12939793183E+03  0.25500000920E-02 0.  1.
    10030    2    1    2    0    0  0.00000000000E+00  0.00000000000E+00  0.21892753611E+04  0.24480712247E+04  0.10955026767E+04 0.  0.
        1    1    3    3  502    0  0.17732965336E+03  0.18012544108E+03  0.87225369659E+01  0.25291710729E+03  0.50400001928E-02 0.  1.
       -1    1    3    3    0  502 -0.17732965336E+03 -0.18012544108E+03  0.21805528241E+04  0.21951541174E+04  0.50400001928E-02 0. -1.
</event>
<event>
 5   0  0.2257667E-03  0.1100818E+04  0.7818609E-02  0.9204395E-01
        1   -1    0    0  501    0  0.00000000000E+00  0.00000000000E+00  0.14420085360E+04  0.14420085360E+04  0.50400001928E-02 0. -1.
       -1   -1    0    0    0  501  0.00000000000E+00  0.00000000000E+00 -0.21008906452E+03  0.21008906458E+03  0.50400001928E-02 0.  1.
    10030    2    1    2    0    0  0.00000000000E+00  0.00000000000E+00  0.12319194715E+04  0.16520976006E+04  0.11008182855E+04 0.  0.
        4    1    3    3  502    0 -0.80993262851E+02 -0.70055250399E+02  0.14262211630E+04  0.14302363670E+04  0.12699999809E+01 0. -1.
       -4    1    3    3    0  502  0.80993262851E+02  0.70055250399E+02 -0.19430169154E+03  0.22186123360E+03  0.12699999809E+01 0.  1.
</event>
<event>
 5   0  0.3962999E-03  0.1138129E+04  0.7818609E-02  0.9168806E-01
        2   -1    0    0  501    0  0.00000000000E+00  0.00000000000E+00  0.10707101379E+04  0.10707101379E+04  0.25500000920E-02 0.  1.
       -2   -1    0    0    0  501  0.00000000000E+00  0.00000000000E+00 -0.30244798599E+03  0.30244798600E+03  0.25500000920E-02 0. -1.
    10030    2    1    2    0    0  0.00000000000E+00  0.00000000000E+00  0.76826215195E+03  0.13731581239E+04  0.11381285073E+04 0.  0.
        3    1    3    3  502    0 -0.44651268147E+03 -0.34174097538E+03  0.48982015636E+03  0.74571057706E+03  0.10100000352E+00 0.  1.
       -3    1    3    3    0  502  0.44651268147E+03  0.34174097538E+03  0.27844199559E+03  0.62744754688E+03  0.10100000352E+00 0. -1.
</event>
<event>
 5   0  0.2257667E-03  0.1100287E+04  0.7818609E-02  0.9204912E-01
       -1   -1    0    0    0  501  0.00000000000E+00  0.00000000000E+00  0.82077211825E+03  0.82077211826E+03  0.50400001928E-02 0.  1.
        1   -1    0    0  501    0  0.00000000000E+00  0.00000000000E+00 -0.36874800206E+03  0.36874800209E+03  0.50400001928E-02 0. -1.
    10030    2    1    2    0    0  0.00000000000E+00  0.00000000000E+00  0.45202411619E+03  0.11895201204E+04  0.11002873784E+04 0.  0.
        4    1    3    3  502    0 -0.24855753506E+03 -0.33406268260E+03  0.61472369274E+03  0.74247259576E+03  0.12699999809E+01 0.  1.
       -4    1    3    3    0  502  0.24855753506E+03  0.33406268260E+03 -0.16269957655E+03  0.44704752460E+03  0.12699999809E+01 0. -1.
</event>
<event>
 5   0  0.3748901E-03  0.1100816E+04  0.7818609E-02  0.9204397E-01
        2   -1    0    0  501    0  0.00000000000E+00  0.00000000000E+00  0.16005060999E+04  0.16005060999E+04  0.25500000920E-02 0.  1.
       -2   -1    0    0    0  501  0.00000000000E+00  0.00000000000E+00 -0.18928317124E+03  0.18928317126E+03  0.25500000920E-02 0. -1.
    10030    2    1    2    0    0  0.00000000000E+00  0.00000000000E+00  0.14112229287E+04  0.17897892712E+04  0.11008158251E+04 0.  0.
        5    1    3    3  502    0 -0.37859217505E+03  0.39339169556E+03  0.59252579888E+03  0.80572822557E+03  0.46999998093E+01 0. -1.
       -5    1    3    3    0  502  0.37859217505E+03 -0.39339169556E+03  0.81869712979E+03  0.98406104560E+03  0.46999998093E+01 0.  1.
</event>
<event>
 5   0  0.2257667E-03  0.1107935E+04  0.7818609E-02  0.9197492E-01
        1   -1    0    0  501    0  0.00000000000E+00  0.00000000000E+00  0.54898333992E+03  0.54898333994E+03  0.50400001928E-02 0. -1.
       -1   -1    0    0    0  501  0.00000000000E+00  0.00000000000E+00 -0.55899674931E+03  0.55899674933E+03  0.50400001928E-02 0.  1.
    10030    2    1    2    0    0  0.00000000000E+00  0.00000000000E+00 -0.10013409392E+02  0.11079800893E+04  0.11079348401E+04 0.  0.
        4    1    3    3  502    0  0.16692287266E+03  0.13248835317E+02 -0.53308083695E+03  0.55876253335E+03  0.12699999809E+01 0.  1.
       -4    1    3    3    0  502 -0.16692287266E+03 -0.13248835317E+02  0.52306742756E+03  0.54921755592E+03  0.12699999809E+01 0. -1.
</event>
<event>
 5   0  0.2255788E-03  0.1074936E+04  0.7818609E-02  0.9229972E-01
        1   -1    0    0  501    0  0.00000000000E+00  0.00000000000E+00  0.67818355344E+03  0.67818355346E+03  0.50400001928E-02 0. -1.
       -1   -1    0    0    0  501  0.00000000000E+00  0.00000000000E+00 -0.42594907803E+03  0.42594907806E+03  0.50400001928E-02 0.  1.
    10030    2    1    2    0    0  0.00000000000E+00  0.00000000000E+00  0.25223447541E+03  0.11041326315E+04  0.10749356434E+04 0.  0.
        3    1    3    3  502    0 -0.23908018902E+03  0.50588926160E+02 -0.36558436536E+03  0.43973914385E+03  0.10100000352E+00 0.  1.
       -3    1    3    3    0  502  0.23908018902E+03 -0.50588926160E+02  0.61781884078E+03  0.66439348767E+03  0.10100000352E+00 0. -1.
</event>
<event>
 5   0  0.3992414E-03  0.1086191E+04  0.7818609E-02  0.9218757E-01
        2   -1    0    0  501    0  0.00000000000E+00  0.00000000000E+00  0.19327503299E+04  0.19327503299E+04  0.25500000920E-02 0. -1.
       -2   -1    0    0    0  501  0.00000000000E+00  0.00000000000E+00 -0.15260767039E+03  0.15260767041E+03  0.25500000920E-02 0.  1.
    10030    2    1    2    0    0  0.00000000000E+00  0.00000000000E+00  0.17801426595E+04  0.20853580003E+04  0.10861906376E+04 0.  0.
        1    1    3    3  502    0  0.93965857011E+02  0.42886013880E+03  0.15038391349E+04  0.15666150594E+04  0.50400001928E-02 0. -1.
       -1    1    3    3    0  502 -0.93965857011E+02 -0.42886013880E+03  0.27630352463E+03  0.51874294085E+03  0.50400001928E-02 0.  1.
</event>
<event>
 5   0  0.3713158E-03  0.1099004E+04  0.7818609E-02  0.9206163E-01
        2   -1    0    0  501    0  0.00000000000E+00  0.00000000000E+00  0.92706221878E+03  0.92706221879E+03  0.25500000920E-02 0.  1.
       -2   -1    0    0    0  501  0.00000000000E+00  0.00000000000E+00 -0.32570920856E+03  0.32570920857E+03  0.25500000920E-02 0. -1.
    10030    2    1    2    0    0  0.00000000000E+00  0.00000000000E+00  0.60135301022E+03  0.12527714274E+04  0.10990044615E+04 0.  0.
        4    1    3    3  502    0 -0.31378028997E+03 -0.39862487325E+03  0.59964858330E+02  0.51083975675E+03  0.12699999809E+01 0. -1.
       -4    1    3    3    0  502  0.31378028997E+03  0.39862487325E+03  0.54138815189E+03  0.74193167061E+03  0.12699999809E+01 0.  1.
</event>
<event>
 5   0  0.3962999E-03  0.1096475E+04  0.7818609E-02  0.9208634E-01
       -2   -1    0    0    0  501  0.00000000000E+00  0.00000000000E+00  0.28851695231E+03  0.28851695232E+03  0.25500000920E-02 0. -1.
        2   -1    0    0  501    0  0.00000000000E+00  0.00000000000E+00 -0.10417569542E+04  0.10417569542E+04  0.25500000920E-02 0.  1.
    10030    2    1    2    0    0  0.00000000000E+00  0.00000000000E+00 -0.75324000190E+03  0.13302739065E+04  0.10964753376E+04 0.  0.
        3    1    3    3  502    0 -0.17718487182E+03 -0.44426601966E+03 -0.51534469484E+02  0.48106401525E+03  0.10100000352E+00 0.  1.
       -3    1    3    3    0  502  0.17718487182E+03  0.44426601966E+03 -0.70170553242E+03  0.84920989128E+03  0.10100000352E+00 0. -1.
</event>
<event>
 5   0  0.2374100E-03  0.1123786E+04  0.7818609E-02  0.9182314E-01
        1   -1    0    0  501    0  0.00000000000E+00  0.00000000000E+00  0.86158228943E+03  0.86158228945E+03  0.50400001928E-02 0. -1.
       -1   -1    0    0    0  501  0.00000000000E+00  0.00000000000E+00 -0.36644647018E+03  0.36644647021E+03  0.50400001928E-02 0.  1.
    10030    2    1    2    0    0  0.00000000000E+00  0.00000000000E+00  0.49513581925E+03  0.12280287597E+04  0.11237860806E+04 0.  0.
        2    1    3    3  502    0  0.20018818066E+03 -0.28794986691E+03  0.72730503695E+03  0.80744228915E+03  0.25500000920E-02 0. -1.
       -2    1    3    3    0  502 -0.20018818066E+03  0.28794986691E+03 -0.23216921769E+03  0.42058647051E+03  0.25500000920E-02 0.  1.
</event>
<event>
 5   0  0.2374100E-03  0.1107007E+04  0.7818609E-02  0.9198389E-01
       -1   -1    0    0    0  501  0.00000000000E+00  0.00000000000E+00  0.71407705124E+03  0.71407705126E+03  0.50400001928E-02 0. -1.
        1   -1    0    0  501    0  0.00000000000E+00  0.00000000000E+00 -0.42903821242E+03  0.42903821245E+03  0.50400001928E-02 0.  1.
    10030    2    1    2    0    0  0.00000000000E+00  0.00000000000E+00  0.28503883883E+03  0.11431152637E+04  0.11070073922E+04 0.  0.
        2    1    3    3  502    0 -0.24960026203E+03 -0.47117267601E+03 -0.10859434438E+02  0.53331220570E+03  0.25500000920E-02 0. -1.
       -2    1    3    3    0  502  0.24960026203E+03  0.47117267601E+03  0.29589827326E+03  0.60980305800E+03  0.25500000920E-02 0.  1.
</event>
<event>
 5   0  0.3748901E-03  0.1095762E+04  0.7818609E-02  0.9209332E-01
        2   -1    0    0  501    0  0.00000000000E+00  0.00000000000E+00  0.71803350200E+03  0.71803350200E+03  0.25500000920E-02 0. -1.
       -2   -1    0    0    0  501  0.00000000000E+00  0.00000000000E+00 -0.41804981309E+03  0.41804981309E+03  0.25500000920E-02 0.  1.
    10030    2    1    2    0    0  0.00000000000E+00  0.00000000000E+00  0.29998368891E+03  0.11360833151E+04  0.10957623306E+04 0.  0.
        5    1    3    3  502    0  0.54405691285E+03  0.59771720152E+02  0.12499883001E+03  0.56144223251E+03  0.46999998093E+01 0.  1.
       -5    1    3    3    0  502 -0.54405691285E+03 -0.59771720152E+02  0.17498485890E+03  0.57464108258E+03  0.46999998093E+01 0. -1.
</event>
<event>
 5   0  0.2298958E-03  0.1069389E+04  0.7818609E-02  0.9235552E-01
       -1   -1    0    0    0  501  0.00000000000E+00  0.00000000000E+00  0.20700779846E+03  0.20700779852E+03  0.50400001928E-02 0.  1.
        1   -1    0    0  501    0  0.00000000000E+00  0.00000000000E+00 -0.13810994052E+04  0.13810994052E+04  0.50400001928E-02 0. -1.
    10030    2    1    2    0    0  0.00000000000E+00  0.00000000000E+00 -0.11740916067E+04  0.15881072037E+04  0.10693892601E+04 0.  0.
        1    1    3    3  502    0 -0.26531011453E+03 -0.30725177983E+03 -0.70242293306E+02  0.41197948113E+03  0.50400001928E-02 0.  1.
       -1    1    3    3    0  502  0.26531011453E+03  0.30725177983E+03 -0.11038493134E+04  0.11761277226E+04  0.50400001928E-02 0. -1.
</event>
<event>
 5   0  0.3992414E-03  0.1100081E+04  0.7818609E-02  0.9205113E-01
        2   -1    0    0  501    0  0.00000000000E+00  0.00000000000E+00  0.30680886448E+03  0.30680886449E+03  0.25500000920E-02 0.  1.
       -2   -1    0    0    0  501  0.00000000000E+00  0.00000000000E+00 -0.98610157904E+03  0.98610157904E+03  0.25500000920E-02 0. -1.
    10030    2    1    2    0    0  0.00000000000E+00  0.00000000000E+00 -0.67929271457E+03  0.12929104435E+04  0.11000812801E+04 0.  0.
        1    1    3    3  502    0 -0.24302525754E+02  0.17265064663E+03  0.27347228992E+03  0.32432383804E+03  0.50400001928E-02 0.  1.
       -1    1    3    3    0  502  0.24302525754E+02 -0.17265064663E+03 -0.95276500449E+03  0.96858660549E+03  0.50400001928E-02 0. -1.
</event>
<event>
 5   0  0.1508625E-03  0.1075191E+04  0.7818609E-02  0.9229715E-01
       -4   -1    0    0    0  501  0.00000000000E+00  0.00000000000E+00  0.37107580490E+03  0.37107797817E+03  0.12699999809E+01 0.  1.
        4   -1    0    0  501    0  0.00000000000E+00  0.00000000000E+00 -0.77883568946E+03  0.77883672492E+03  0.12699999809E+01 0. -1.
    10030    2    1    2    0    0  0.00000000000E+00  0.00000000000E+00 -0.40775988456E+03  0.11499147031E+04  0.10751910067E+04 0.  0.
        1    1    3    3  502    0 -0.14210182291E+03  0.59623603247E+02  0.34694896530E+03  0.37963335824E+03  0.50400001928E-02 0.  1.
       -1    1    3    3    0  502  0.14210182291E+03 -0.59623603247E+02 -0.75470884986E+03  0.77028134485E+03  0.50400001928E-02 0. -1.
</event>
<event>
 5   0  0.2257667E-03  0.1086150E+04  0.7818609E-02  0.9218798E-01
        1   -1    0    0  501    0  0.00000000000E+00  0.00000000000E+00  0.14022103929E+04  0.14022103929E+04  0.50400001928E-02 0.  1.
       -1   -1    0    0    0  501  0.00000000000E+00  0.00000000000E+00 -0.21033234541E+03  0.21033234547E+03  0.50400001928E-02 0. -1.
    10030    2    1    2    0    0  0.00000000000E+00  0.00000000000E+00  0.11918780475E+04  0.16125427384E+04  0.10861495307E+04 0.  0.
        4    1    3    3  502    0  0.27183090878E+03  0.41346776405E+03  0.26369444203E+03  0.56069956887E+03  0.12699999809E+01 0. -1.
       -4    1    3    3    0  502 -0.27183090878E+03 -0.41346776405E+03  0.92818360545E+03  0.10518431695E+04  0.12699999809E+01 0.  1.
</event>
<event>
 5   0  0.2300702E-03  0.1094672E+04  0.7818609E-02  0.9210401E-01
       -1   -1    0    0    0  501  0.00000000000E+00  0.00000000000E+00  0.36753026290E+03  0.36753026293E+03  0.50400001928E-02 0. -1.
        1   -1    0    0  501    0  0.00000000000E+00  0.00000000000E+00 -0.81510720764E+03  0.81510720766E+03  0.50400001928E-02 0.  1.
    10030    2    1    2    0    0  0.00000000000E+00  0.00000000000E+00 -0.44757694474E+03  0.11826374706E+04  0.10946717615E+04 0.  0.
        5    1    3    3  502    0 -0.30011004247E+03 -0.41122229207E+03 -0.44089654091E+03  0.67348471465E+03  0.46999998093E+01 0.  1.
       -5    1    3    3    0  502  0.30011004247E+03  0.41122229207E+03 -0.66804038324E+01  0.50915275594E+03  0.46999998093E+01 0. -1.
</event>
<event>
 5   0  0.3713158E-03  0.1104573E+04  0.7818609E-02  0.9200746E-01
       -2   -1    0    0    0  501  0.00000000000E+00  0.00000000000E+00  0.51316596181E+03  0.51316596182E+03  0.25500000920E-02 0. -1.
        2   -1    0    0  501    0  0.00000000000E+00  0.00000000000E+00 -0.59438909910E+03  0.59438909911E+03  0.25500000920E-02 0.  1.
    10030    2    1    2    0    0  0.00000000000E+00  0.00000000000E+00 -0.81223137291E+02  0.11075550609E+04  0.11045727749E+04 0.  0.
        4    1    3    3  502    0 -0.52897160400E+03  0.15847817677E+03 -0.50247431070E+02  0.55448418154E+03  0.12699999809E+01 0.  1.
       -4    1    3    3    0  502  0.52897160400E+03 -0.15847817677E+03 -0.30975706220E+02  0.55307087939E+03  0.12699999809E+01 0. -1.
</event>
<event>
 5   0  0.2300702E-03  0.1091700E+04  0.7818609E-02  0.9213319E-01
       -1   -1    0    0    0  501  0.00000000000E+00  0.00000000000E+00  0.55068945082E+03  0.55068945085E+03  0.50400001928E-02 0.  1.
        1   -1    0    0  501    0  0.00000000000E+00  0.00000000000E+00 -0.54105328276E+03  0.54105328278E+03  0.50400001928E-02 0. -1.
    10030    2    1    2    0    0  0.00000000000E+00  0.00000000000E+00  0.96361680639E+01  0.10917427336E+04  0.10917002064E+04 0.  0.
        5    1    3    3  502    0  0.53385450012E+03  0.10538801097E+03 -0.37880007939E+02  0.54549449598E+03  0.46999998093E+01 0.  1.
       -5    1    3    3    0  502 -0.53385450012E+03 -0.10538801097E+03  0.47516176003E+02  0.54624823764E+03  0.46999998093E+01 0. -1.
</event>
<event>
 5   0  0.3744875E-03  0.1102031E+04  0.7818609E-02  0.9203214E-01
        2   -1    0    0  501    0  0.00000000000E+00  0.00000000000E+00  0.40474226105E+03  0.40474226106E+03  0.25500000920E-02 0. -1.
       -2   -1    0    0    0  501  0.00000000000E+00  0.00000000000E+00 -0.75015198368E+03  0.75015198368E+03  0.25500000920E-02 0.  1.
    10030    2    1    2    0    0  0.00000000000E+00  0.00000000000E+00 -0.34540972263E+03  0.11548942447E+04  0.11020312337E+04 0.  0.
        2    1    3    3  502    0  0.23822071400E+03 -0.46524163824E+03 -0.35548249929E+03  0.63211288378E+03  0.25500000920E-02 0.  1.
       -2    1    3    3    0  502 -0.23822071400E+03  0.46524163824E+03  0.10072776662E+02  0.52278136096E+03  0.25500000920E-02 0. -1.
</event>
<event>
 5   0  0.2374100E-03  0.1122345E+04  0.7818609E-02  0.9183682E-01
       -1   -1    0    0    0  501  0.00000000000E+00  0.00000000000E+00  0.38649705374E+03  0.38649705378E+03  0.50400001928E-02 0.  1.
        1   -1    0    0  501    0  0.00000000000E+00  0.00000000000E+00 -0.81479216129E+03  0.81479216131E+03  0.50400001928E-02 0. -1.
    10030    2    1    2    0    0  0.00000000000E+00  0.00000000000E+00 -0.42829510755E+03  0.12012892151E+04  0.11223453475E+04 0.  0.
        2    1    3    3  502    0 -0.18173202612E+03 -0.39945851393E+03 -0.58849236737E+03  0.73410959681E+03  0.25500000920E-02 0. -1.
       -2    1    3    3    0  502  0.18173202612E+03  0.39945851393E+03  0.16019725982E+03  0.46717961827E+03  0.25500000920E-02 0.  1.
</event>
<event>
 5   0  0.2257667E-03  0.1096779E+04  0.7818609E-02  0.9208337E-01
        1   -1    0    0  501    0  0.00000000000E+00  0.00000000000E+00  0.53811498845E+03  0.53811498847E+03  0.50400001928E-02 0.  1.
       -1   -1    0    0    0  501  0.00000000000E+00  0.00000000000E+00 -0.55885992174E+03  0.55885992177E+03  0.50400001928E-02 0. -1.
    10030    2    1    2    0    0  0.00000000000E+00  0.00000000000E+00 -0.20744933295E+02  0.10969749102E+04  0.10967787386E+04 0.  0.
        4    1    3    3  502    0 -0.11187017048E+03  0.40091753908E+03 -0.36747901339E+03  0.55524071029E+03  0.12699999809E+01 0. -1.
       -4    1    3    3    0  502  0.11187017048E+03 -0.40091753908E+03  0.34673408009E+03  0.54173419994E+03  0.12699999809E+01 0.  1.
</event>
<event>
 5   0  0.3744875E-03  0.1099722E+04  0.7818609E-02  0.9205462E-01
       -2   -1    0    0    0  501  0.00000000000E+00  0.00000000000E+00  0.15283085345E+03  0.15283085348E+03  0.25500000920E-02 0.  1.
        2   -1    0    0  501    0  0.00000000000E+00  0.00000000000E+00 -0.19783134128E+04  0.19783134128E+04  0.25500000920E-02 0. -1.
    10030    2    1    2    0    0  0.00000000000E+00  0.00000000000E+00 -0.18254825593E+04  0.21311442662E+04  0.10997223782E+04 0.  0.
        2    1    3    3  502    0  0.15248171566E+03 -0.43699015880E+03 -0.14880581156E+04  0.15583735201E+04  0.25500000920E-02 0. -1.
       -2    1    3    3    0  502 -0.15248171566E+03  0.43699015880E+03 -0.33742444368E+03  0.57277074619E+03  0.25500000920E-02 0.  1.
</event>
<event>
 5   0  0.3713158E-03  0.1082405E+04  0.7818609E-02  0.9222513E-01
        2   -1    0    0  501    0  0.00000000000E+00  0.00000000000E+00  0.32387145958E+03  0.32387145959E+03  0.25500000920E-02 0. -1.
       -2   -1    0    0    0  501  0.00000000000E+00  0.00000000000E+00 -0.90437159878E+03  0.90437159878E+03  0.25500000920E-02 0.  1.
    10030    2    1    2    0    0  0.00000000000E+00  0.00000000000E+00 -0.58050013919E+03  0.12282430584E+04  0.10824050068E+04 0.  0.
        4    1    3    3  502    0 -0.47821694705E+03  0.72368378734E+02 -0.56580598849E+03  0.74435654105E+03  0.12699999809E+01 0.  1.
       -4    1    3    3    0  502  0.47821694705E+03 -0.72368378734E+02 -0.14694150701E+02  0.48388651733E+03  0.12699999809E+01 0. -1.
</event>
<event>
 5   0  0.2374100E-03  0.1077677E+04  0.7818609E-02  0.9227226E-01
        1   -1    0    0  501    0  0.00000000000E+00  0.00000000000E+00  0.76558916014E+03  0.76558916016E+03  0.50400001928E-02 0. -1.
       -1   -1    0    0    0  501  0.00000000000E+00  0.00000000000E+00 -0.37924673812E+03  0.37924673815E+03  0.50400001928E-02 0.  1.
    10030    2    1    2    0    0  0.00000000000E+00  0.00000000000E+00  0.38634242202E+03  0.11448358983E+04  0.10776774875E+04 0.  0.
        2    1    3    3  502    0  0.14093394485E+03 -0.22491514972E+03  0.69132685898E+03  0.74052820833E+03  0.25500000920E-02 0. -1.
       -2    1    3    3    0  502 -0.14093394485E+03  0.22491514972E+03 -0.30498443696E+03  0.40430768998E+03  0.25500000920E-02 0.  1.
</event>
<event>
 5   0  0.2298958E-03  0.1102157E+04  0.7818609E-02  0.9203092E-01
        1   -1    0    0  501    0  0.00000000000E+00  0.00000000000E+00  0.85580401492E+03  0.85580401494E+03  0.50400001928E-02 0. -1.
       -1   -1    0    0    0  501  0.00000000000E+00  0.00000000000E+00 -0.35485642725E+03  0.35485642729E+03  0.50400001928E-02 0.  1.
    10030    2    1    2    0    0  0.00000000000E+00  0.00000000000E+00  0.50094758767E+03  0.12106604422E+04  0.11021570763E+04 0.  0.
        1    1    3    3  502    0  0.40855919975E+03 -0.33777914410E+03  0.85077585242E+02  0.53689250826E+03  0.50400001928E-02 0.  1.
       -1    1    3    3    0  502 -0.40855919975E+03  0.33777914410E+03  0.41587000243E+03  0.67376793397E+03  0.50400001928E-02 0. -1.
</event>
<event>
 5   0  0.2257667E-03  0.1099722E+04  0.7818609E-02  0.9205463E-01
       -1   -1    0    0    0  501  0.00000000000E+00  0.00000000000E+00  0.34699593690E+03  0.34699593694E+03  0.50400001928E-02 0. -1.
        1   -1    0    0  501    0  0.00000000000E+00  0.00000000000E+00 -0.87132740100E+03  0.87132740101E+03  0.50400001928E-02 0.  1.
    10030    2    1    2    0    0  0.00000000000E+00  0.00000000000E+00 -0.52433146410E+03  0.12183233380E+04  0.10997219065E+04 0.  0.
        4    1    3    3  502    0 -0.85618017049E+02  0.49225699206E+02 -0.86141952670E+03  0.86706333574E+03  0.12699999809E+01 0.  1.
       -4    1    3    3    0  502  0.85618017049E+02 -0.49225699206E+02  0.33708806260E+03  0.35126000221E+03  0.12699999809E+01 0. -1.
</event>
<event>
 5   0  0.3713158E-03  0.1101213E+04  0.7818609E-02  0.9204011E-01
        2   -1    0    0  501    0  0.00000000000E+00  0.00000000000E+00  0.15768377331E+04  0.15768377331E+04  0.25500000920E-02 0. -1.
       -2   -1    0    0    0  501  0.00000000000E+00  0.00000000000E+00 -0.19226281023E+03  0.19226281025E+03  0.25500000920E-02 0.  1.
    10030    2    1    2    0    0  0.00000000000E+00  0.00000000000E+00  0.13845749229E+04  0.17691005434E+04  0.11012125206E+04 0.  0.
        4    1    3    3  502    0  0.18875123701E+03 -0.24616948759E+03 -0.38519629865E+02  0.31258890076E+03  0.12699999809E+01 0.  1.
       -4    1    3    3    0  502 -0.18875123701E+03  0.24616948759E+03  0.14230945528E+04  0.14565116426E+04  0.12699999809E+01 0. -1.
</event>
<event>
 5   0  0.2255788E-03  0.1103527E+04  0.7818609E-02  0.9201761E-01
       -1   -1    0    0    0  501  0.00000000000E+00  0.00000000000E+00  0.66890109330E+03  0.66890109332E+03  0.50400001928E-02 0.  1.
        1   -1    0    0  501    0  0.00000000000E+00  0.00000000000E+00 -0.45513874969E+03  0.45513874971E+03  0.50400001928E-02 0. -1.
    10030    2    1    2    0    0  0.00000000000E+00  0.00000000000E+00  0.21376234362E+03  0.11240398430E+04  0.11035267234E+04 0.  0.
        3    1    3    3  502    0 -0.42002566035E+03  0.34784447070E+03  0.19225729249E+03  0.57825617841E+03  0.10100000352E+00 0.  1.
       -3    1    3    3    0  502  0.42002566035E+03 -0.34784447070E+03  0.21505051128E+02  0.54578366463E+03  0.10100000352E+00 0. -1.
</event>
<event>
 5   0  0.2298958E-03  0.1115843E+04  0.7818609E-02  0.9189886E-01
        1   -1    0    0  501    0  0.00000000000E+00  0.00000000000E+00  0.16772657023E+04  0.16772657023E+04  0.50400001928E-02 0.  1.
       -1   -1    0    0    0  501  0.00000000000E+00  0.00000000000E+00 -0.18558573679E+03  0.18558573686E+03  0.50400001928E-02 0. -1.
    10030    2    1    2    0    0  0.00000000000E+00  0.00000000000E+00  0.14916799655E+04  0.18628514392E+04  0.11158433425E+04 0.  0.
        1    1    3    3  502    0 -0.44290641529E+02  0.43412768745E+03  0.16548345355E+03  0.46670470681E+03  0.50400001928E-02 0. -1.
       -1    1    3    3    0  502  0.44290641529E+02 -0.43412768745E+03  0.13261965120E+04  0.13961467324E+04  0.50400001928E-02 0.  1.
</event>
<event>
 5   0  0.2298958E-03  0.1138099E+04  0.7818609E-02  0.9168834E-01
        1   -1    0    0  501    0  0.00000000000E+00  0.00000000000E+00  0.99794585270E+03  0.99794585272E+03  0.50400001928E-02 0. -1.
       -1   -1    0    0    0  501  0.00000000000E+00  0.00000000000E+00 -0.32448379277E+03  0.32448379281E+03  0.50400001928E-02 0.  1.
    10030    2    1    2    0    0  0.00000000000E+00  0.00000000000E+00  0.67346205993E+03  0.13224296455E+04  0.11380988627E+04 0.  0.
        1    1    3    3  502    0 -0.10787575372E+01  0.22385634330E+03  0.94463292854E+03  0.97079565093E+03  0.50400001928E-02 0. -1.
       -1    1    3    3    0  502  0.10787575372E+01 -0.22385634330E+03 -0.27117086861E+03  0.35163399460E+03  0.50400001928E-02 0.  1.
</event>
<event>
 5   0  0.3713158E-03  0.1084559E+04  0.7818609E-02  0.9220374E-01
        2   -1    0    0  501    0  0.00000000000E+00  0.00000000000E+00  0.79274662078E+03  0.79274662079E+03  0.25500000920E-02 0.  1.
       -2   -1    0    0    0  501  0.00000000000E+00  0.00000000000E+00 -0.37094701520E+03  0.37094701521E+03  0.25500000920E-02 0. -1.
    10030    2    1    2    0    0  0.00000000000E+00  0.00000000000E+00  0.42179960558E+03  0.11636936360E+04  0.10845588832E+04 0.  0.
        4    1    3    3  502    0  0.60400887509E+02  0.42812818448E+03  0.56207807474E+03  0.70913707036E+03  0.12699999809E+01 0.  1.
       -4    1    3    3    0  502 -0.60400887509E+02 -0.42812818448E+03 -0.14027846916E+03  0.45455656564E+03  0.12699999809E+01 0. -1.
</event>
<event>
 5   0  0.3962999E-03  0.1109429E+04  0.7818609E-02  0.9196050E-01
       -2   -1    0    0    0  501  0.00000000000E+00  0.00000000000E+00  0.16016314685E+04  0.16016314685E+04  0.25500000920E-02 0. -1.
        2   -1    0    0  501    0  0.00000000000E+00  0.00000000000E+00 -0.19212166505E+03  0.19212166507E+03  0.25500000920E-02 0.  1.
    10030    2    1    2    0    0  0.00000000000E+00  0.00000000000E+00  0.14095098034E+04  0.17937531335E+04  0.11094288703E+04 0.  0.
        3    1    3    3  502    0 -0.46538888315E+03 -0.24609121586E+03  0.98740080366E+03  0.11189763431E+04  0.10100000352E+00 0. -1.
       -3    1    3    3    0  502  0.46538888315E+03  0.24609121586E+03  0.42210899976E+03  0.67477679047E+03  0.10100000352E+00 0.  1.
</event>
<event>
 5   0  0.3748901E-03  0.1102818E+04  0.7818609E-02  0.9202450E-01
       -2   -1    0    0    0  501  0.00000000000E+00  0.00000000000E+00  0.33100808700E+03  0.33100808701E+03  0.25500000920E-02 0.  1.
        2   -1    0    0  501    0  0.00000000000E+00  0.00000000000E+00 -0.91856265362E+03  0.91856265363E+03  0.25500000920E-02 0. -1.
    10030    2    1    2    0    0  0.00000000000E+00  0.00000000000E+00 -0.58755456662E+03  0.12495707406E+04  0.11028176037E+04 0.  0.
        5    1    3    3  502    0 -0.48294734688E+03 -0.27203938556E+02  0.61151536184E+01  0.48377440945E+03  0.46999998093E+01 0.  1.
       -5    1    3    3    0  502  0.48294734688E+03  0.27203938556E+02 -0.59366972024E+03  0.76579633119E+03  0.46999998093E+01 0. -1.
</event>
<event>
 5   0  0.3962999E-03  0.1083830E+04  0.7818609E-02  0.9221097E-01
        2   -1    0    0  501    0  0.00000000000E+00  0.00000000000E+00  0.10771504059E+04  0.10771504059E+04  0.25500000920E-02 0.  1.
       -2   -1    0    0    0  501  0.00000000000E+00  0.00000000000E+00 -0.27263780919E+03  0.27263780920E+03  0.25500000920E-02 0. -1.
    10030    2    1    2    0    0  0.00000000000E+00  0.00000000000E+00  0.80451259674E+03  0.13497882151E+04  0.10838301100E+04 0.  0.
        3    1    3    3  502    0  0.40108180237E+03  0.29379098000E+03  0.13372537638E+03  0.51484195498E+03  0.10100000352E+00 0. -1.
       -3    1    3    3    0  502 -0.40108180237E+03 -0.29379098000E+03  0.67078722037E+03  0.83494626015E+03  0.10100000352E+00 0.  1.
</event>
<event>
 5   0  0.2300702E-03  0.9958451E+03  0.7818609E-02  0.9313114E-01
        1   -1    0    0  501    0  0.00000000000E+00  0.00000000000E+00  0.82853598459E+03  0.82853598461E+03  0.50400001928E-02 0.  1.
       -1   -1    0    0    0  501  0.00000000000E+00  0.00000000000E+00 -0.29923485455E+03  0.29923485459E+03  0.50400001928E-02 0. -1.
    10030    2    1    2    0    0  0.00000000000E+00  0.00000000000E+00  0.52930113005E+03  0.11277708392E+04  0.99584505796E+03 0.  0.
        5    1    3    3  502    0 -0.20920337460E+03  0.35414808897E+02  0.77474844283E+03  0.80329166577E+03  0.46999998093E+01 0.  1.
       -5    1    3    3    0  502  0.20920337460E+03 -0.35414808897E+02 -0.24544731278E+03  0.32447917342E+03  0.46999998093E+01 0. -1.
</event>
<event>
 5   0  0.3748901E-03  0.1079389E+04  0.7818609E-02  0.9225517E-01
       -2   -1    0    0    0  501  0.00000000000E+00  0.00000000000E+00  0.41934386347E+03  0.41934386348E+03  0.25500000920E-02 0. -1.
        2   -1    0    0  501    0  0.00000000000E+00  0.00000000000E+00 -0.69458546609E+03  0.69458546610E+03  0.25500000920E-02 0.  1.
    10030    2    1    2    0    0  0.00000000000E+00  0.00000000000E+00 -0.27524160262E+03  0.11139293296E+04  0.10793889991E+04 0.  0.
        5    1    3    3  502    0  0.27220108137E+02 -0.13879877148E+03 -0.67509564759E+03  0.68976971277E+03  0.46999998093E+01 0.  1.
       -5    1    3    3    0  502 -0.27220108137E+02  0.13879877148E+03  0.39985404498E+03  0.42415961681E+03  0.46999998093E+01 0. -1.
</event>
<event>
 5   0  0.3744875E-03  0.1112030E+04  0.7818609E-02  0.9193545E-01
       -2   -1    0    0    0  501  0.00000000000E+00  0.00000000000E+00  0.27532184983E+03  0.27532184984E+03  0.25500000920E-02 0. -1.
        2   -1    0    0  501    0  0.00000000000E+00  0.00000000000E+00 -0.11228776230E+04  0.11228776230E+04  0.25500000920E-02 0.  1.
    10030    2    1    2    0    0  0.00000000000E+00  0.00000000000E+00 -0.84755577314E+03  0.13981994728E+04  0.11120301152E+04 0.  0.
        2    1    3    3  502    0  0.72947343453E+02  0.44045166723E+03 -0.84047501487E+03  0.95169177610E+03  0.25500000920E-02 0.  1.
       -2    1    3    3    0  502 -0.72947343453E+02 -0.44045166723E+03 -0.70807582726E+01  0.44650769671E+03  0.25500000920E-02 0. -1.
</event>
<event>
 5   0  0.3748901E-03  0.1106376E+04  0.7818609E-02  0.9199000E-01
        2   -1    0    0  501    0  0.00000000000E+00  0.00000000000E+00  0.17105340479E+04  0.17105340479E+04  0.25500000920E-02 0. -1.
       -2   -1    0    0    0  501  0.00000000000E+00  0.00000000000E+00 -0.17890128700E+03  0.17890128701E+03  0.25500000920E-02 0.  1.
    10030    2    1    2    0    0  0.00000000000E+00  0.00000000000E+00  0.15316327609E+04  0.18894353349E+04  0.11063756010E+04 0.  0.
        5    1    3    3  502    0  0.45789706630E+03 -0.15762287095E+03  0.12224013317E+04  0.13148390770E+04  0.46999998093E+01 0. -1.
       -5    1    3    3    0  502 -0.45789706630E+03  0.15762287095E+03  0.30923142924E+03  0.57459625791E+03  0.46999998093E+01 0.  1.
</event>
<event>
 5   0  0.2298958E-03  0.1102100E+04  0.7818609E-02  0.9203147E-01
        1   -1    0    0  501    0  0.00000000000E+00  0.00000000000E+00  0.14052131176E+04  0.14052131176E+04  0.50400001928E-02 0. -1.
       -1   -1    0    0    0  501  0.00000000000E+00  0.00000000000E+00 -0.21609272158E+03  0.21609272164E+03  0.50400001928E-02 0.  1.
    10030    2    1    2    0    0  0.00000000000E+00  0.00000000000E+00  0.11891203960E+04  0.16213058392E+04  0.11021004075E+04 0.  0.
        1    1    3    3  502    0  0.78545559462E+02  0.18380307439E+03  0.13500030373E+04  0.13647201823E+04  0.50400001928E-02 0. -1.
       -1    1    3    3    0  502 -0.78545559462E+02 -0.18380307439E+03 -0.16088264131E+03  0.25658565697E+03  0.50400001928E-02 0.  1.
</event>
<event>
 5   0  0.3744875E-03  0.1129864E+04  0.7818609E-02  0.9176563E-01
        2   -1    0    0  501    0  0.00000000000E+00  0.00000000000E+00  0.10433094653E+04  0.10433094653E+04  0.25500000920E-02 0. -1.
       -2   -1    0    0    0  501  0.00000000000E+00  0.00000000000E+00 -0.30589991743E+03  0.30589991744E+03  0.25500000920E-02 0.  1.
    10030    2    1    2    0    0  0.00000000000E+00  0.00000000000E+00  0.73740954791E+03  0.13492093828E+04  0.11298642030E+04 0.  0.
        2    1    3    3  502    0  0.13617294821E+03 -0.36026846349E+03  0.86223310799E+03  0.94434229501E+03  0.25500000920E-02 0. -1.
       -2    1    3    3    0  502 -0.13617294821E+03  0.36026846349E+03 -0.12482356009E+03  0.40486708778E+03  0.25500000920E-02 0.  1.
</event>
<event>
 5   0  0.2300702E-03  0.1107431E+04  0.7818609E-02  0.9197979E-01
        1   -1    0    0  501    0  0.00000000000E+00  0.00000000000E+00  0.85077787866E+03  0.85077787868E+03  0.50400001928E-02 0. -1.
       -1   -1    0    0    0  501  0.00000000000E+00  0.00000000000E+00 -0.36037698655E+03  0.36037698659E+03  0.50400001928E-02 0.  1.
    10030    2    1    2    0    0  0.00000000000E+00  0.00000000000E+00  0.49040089211E+03  0.12111548653E+04  0.11074308433E+04 0.  0.
        5    1    3    3  502    0 -0.15272661535E+03 -0.51929511436E+03  0.11772505167E+03  0.55396219422E+03  0.46999998093E+01 0.  1.
       -5    1    3    3    0  502  0.15272661535E+03  0.51929511436E+03  0.37267584044E+03  0.65719267105E+03  0.46999998093E+01 0. -1.
</event>
<event>
 5   0  0.2255788E-03  0.1108653E+04  0.7818609E-02  0.9196799E-01
       -1   -1    0    0    0  501  0.00000000000E+00  0.00000000000E+00  0.67597948856E+03  0.67597948858E+03  0.50400001928E-02 0. -1.
        1   -1    0    0  501    0  0.00000000000E+00  0.00000000000E+00 -0.45456695285E+03  0.45456695288E+03  0.50400001928E-02 0.  1.
    10030    2    1    2    0    0  0.00000000000E+00  0.00000000000E+00  0.22141253571E+03  0.11305464415E+04  0.11086531222E+04 0.  0.
        3    1    3    3  502    0  0.41841095697E+03 -0.34951846353E+03  0.84919328701E+01  0.54525499391E+03  0.10100000352E+00 0.  1.
       -3    1    3    3    0  502 -0.41841095697E+03  0.34951846353E+03  0.21292060284E+03  0.58529144755E+03  0.10100000352E+00 0. -1.
</event>
<event>
 5   0  0.3713158E-03  0.1104626E+04  0.7818609E-02  0.9200695E-01
        2   -1    0    0  501    0  0.00000000000E+00  0.00000000000E+00  0.27574497325E+03  0.27574497326E+03  0.25500000920E-02 0.  1.
       -2   -1    0    0    0  501  0.00000000000E+00  0.00000000000E+00 -0.11062742213E+04  0.11062742213E+04  0.25500000920E-02 0. -1.
    10030    2    1    2    0    0  0.00000000000E+00  0.00000000000E+00 -0.83052924809E+03  0.13820191946E+04  0.11046258291E+04 0.  0.
        4    1    3    3  502    0  0.15082691970E+03  0.37145547169E+03 -0.89055844074E+03  0.97663907173E+03  0.12699999809E+01 0. -1.
       -4    1    3    3    0  502 -0.15082691970E+03 -0.37145547169E+03  0.60029192647E+02  0.40538012288E+03  0.12699999809E+01 0.  1.
</event>
<event>
 5   0  0.2255788E-03  0.1097754E+04  0.7818609E-02  0.9207384E-01
       -1   -1    0    0    0  501  0.00000000000E+00  0.00000000000E+00  0.39921065729E+03  0.39921065732E+03  0.50400001928E-02 0.  1.
        1   -1    0    0  501    0  0.00000000000E+00  0.00000000000E+00 -0.75465375552E+03  0.75465375554E+03  0.50400001928E-02 0. -1.
    10030    2    1    2    0    0  0.00000000000E+00  0.00000000000E+00 -0.35544309823E+03  0.11538644129E+04  0.10977537461E+04 0.  0.
        3    1    3    3  502    0  0.50123403902E+03 -0.21733989359E+03 -0.23327787877E+03  0.59404610102E+03  0.10100000352E+00 0. -1.
       -3    1    3    3    0  502 -0.50123403902E+03  0.21733989359E+03 -0.12216521947E+03  0.55981831184E+03  0.10100000352E+00 0.  1.
</event>
<event>
 5   0  0.2257667E-03  0.1098780E+04  0.7818609E-02  0.9206382E-01
       -1   -1    0    0    0  501  0.00000000000E+00  0.00000000000E+00  0.40120278896E+03  0.40120278899E+03  0.50400001928E-02 0.  1.
        1   -1    0    0  501    0  0.00000000000E+00  0.00000000000E+00 -0.75231064334E+03  0.75231064336E+03  0.50400001928E-02 0. -1.
    10030    2    1    2    0    0  0.00000000000E+00  0.00000000000E+00 -0.35110785438E+03  0.11535134323E+04  0.10987795562E+04 0.  0.
        4    1    3    3  502    0 -0.41087273982E+02 -0.53834298510E+03 -0.68874182597E+02  0.54428540272E+03  0.12699999809E+01 0. -1.
       -4    1    3    3    0  502  0.41087273982E+02  0.53834298510E+03 -0.28223367178E+03  0.60922802962E+03  0.12699999809E+01 0.  1.
</event>
<event>
 5   0  0.2255788E-03  0.1126924E+04  0.7818609E-02  0.9179340E-01
       -1   -1    0    0    0  501  0.00000000000E+00  0.00000000000E+00  0.34636212865E+03  0.34636212869E+03  0.50400001928E-02 0. -1.
        1   -1    0    0  501    0  0.00000000000E+00  0.00000000000E+00 -0.91664079689E+03  0.91664079691E+03  0.50400001928E-02 0.  1.
    10030    2    1    2    0    0  0.00000000000E+00  0.00000000000E+00 -0.57027866825E+03  0.12630029256E+04  0.11269244121E+04 0.  0.
        3    1    3    3  502    0 -0.20879425092E+03 -0.12682015652E+03 -0.85420254114E+03  0.88844830058E+03  0.10100000352E+00 0.  1.
       -3    1    3    3    0  502  0.20879425092E+03  0.12682015652E+03  0.28392387290E+03  0.37455462501E+03  0.10100000352E+00 0. -1.
</event>
<event>
 5   0  0.3962999E-03  0.1098678E+04  0.7818609E-02  0.9206481E-01
        2   -1    0    0  501    0  0.00000000000E+00  0.00000000000E+00  0.16771887476E+04  0.16771887476E+04  0.25500000920E-02 0. -1.
       -2   -1    0    0    0  501  0.00000000000E+00  0.00000000000E+00 -0.17992818087E+03  0.17992818089E+03  0.25500000920E-02 0.  1.
    10030    2    1    2    0    0  0.00000000000E+00  0.00000000000E+00  0.14972605667E+04  0.18571169285E+04  0.10986783339E+04 0.  0.
        3    1    3    3  502    0 -0.82570634657E+02 -0.12757267605E+03 -0.14369299514E+03  0.20914201977E+03  0.10100000352E+00 0.  1.
       -3    1    3    3    0  502  0.82570634657E+02  0.12757267605E+03  0.16409535619E+04  0.16479749087E+04  0.10100000352E+00 0. -1.
</event>
<event>
 5   0  0.2257667E-03  0.1097859E+04  0.7818609E-02  0.9207281E-01
        1   -1    0    0  501    0  0.00000000000E+00  0.00000000000E+00  0.51342887662E+03  0.51342887664E+03  0.50400001928E-02 0. -1.
       -1   -1    0    0    0  501  0.00000000000E+00  0.00000000000E+00 -0.58688521582E+03  0.58688521584E+03  0.50400001928E-02 0.  1.
    10030    2    1    2    0    0  0.00000000000E+00  0.00000000000E+00 -0.73456339203E+02  0.11003140925E+04  0.10978594028E+04 0.  0.
        4    1    3    3  502    0 -0.28070394755E+03  0.30336007220E+03 -0.39878394469E+03  0.57432768261E+03  0.12699999809E+01 0.  1.
       -4    1    3    3    0  502  0.28070394755E+03 -0.30336007220E+03  0.32532760549E+03  0.52598640987E+03  0.12699999809E+01 0. -1.
</event>
<event>
 5   0  0.2300702E-03  0.1086153E+04  0.7818609E-02  0.9218794E-01
        1   -1    0    0  501    0  0.00000000000E+00  0.00000000000E+00  0.13553910187E+04  0.13553910187E+04  0.50400001928E-02 0.  1.
       -1   -1    0    0    0  501  0.00000000000E+00  0.00000000000E+00 -0.21759912842E+03  0.21759912848E+03  0.50400001928E-02 0. -1.
    10030    2    1    2    0    0  0.00000000000E+00  0.00000000000E+00  0.11377918903E+04  0.15729901472E+04  0.10861526677E+04 0.  0.
        5    1    3    3  502    0  0.45251628976E+03 -0.12813485722E+03  0.96210962452E+03  0.10709185561E+04  0.46999998093E+01 0.  1.
       -5    1    3    3    0  502 -0.45251628976E+03  0.12813485722E+03  0.17568226580E+03  0.50207159116E+03  0.46999998093E+01 0. -1.
</event>
<event>
 5   0  0.3748901E-03  0.1110938E+04  0.7818609E-02  0.9194596E-01
       -2   -1    0    0    0  501  0.00000000000E+00  0.00000000000E+00  0.31605319517E+03  0.31605319518E+03  0.25500000920E-02 0. -1.
        2   -1    0    0  501    0  0.00000000000E+00  0.00000000000E+00 -0.97624565272E+03  0.97624565273E+03  0.25500000920E-02 0.  1.
    10030    2    1    2    0    0  0.00000000000E+00  0.00000000000E+00 -0.66019245755E+03  0.12922988479E+04  0.11109375461E+04 0.  0.
        5    1    3    3  502    0  0.67638830825E+02 -0.67575490316E+02 -0.96657828128E+03  0.97130691451E+03  0.46999998093E+01 0.  1.
       -5    1    3    3    0  502 -0.67638830825E+02  0.67575490316E+02  0.30638582373E+03  0.32099193340E+03  0.46999998093E+01 0. -1.
</event>
<event>
 5   0  0.2300702E-03  0.1105844E+04  0.7818609E-02  0.9199515E-01
       -1   -1    0    0    0  501  0.00000000000E+00  0.00000000000E+00  0.48326478062E+03  0.48326478065E+03  0.50400001928E-02 0. -1.
        1   -1    0    0  501    0  0.00000000000E+00  0.00000000000E+00 -0.63261897311E+03  0.63261897313E+03  0.50400001928E-02 0.  1.
    10030    2    1    2    0    0  0.00000000000E+00  0.00000000000E+00 -0.14935419249E+03  0.11158837538E+04  0.11058435139E+04 0.  0.
        5    1    3    3  502    0  0.67243212884E+02 -0.19669690871E+03  0.44231140055E+03  0.48874613925E+03  0.46999998093E+01 0. -1.
       -5    1    3    3    0  502 -0.67243212884E+02  0.19669690871E+03 -0.59166559304E+03  0.62713761453E+03  0.46999998093E+01 0.  1.
</event>
<event>
 5   0  0.3713158E-03  0.1094731E+04  0.7818609E-02  0.9210343E-01
       -2   -1    0    0    0  501  0.00000000000E+00  0.00000000000E+00  0.20431104041E+03  0.20431104042E+03  0.25500000920E-02 0.  1.
        2   -1    0    0  501    0  0.00000000000E+00  0.00000000000E+00 -0.14664353871E+04  0.14664353871E+04  0.25500000920E-02 0. -1.
    10030    2    1    2    0    0  0.00000000000E+00  0.00000000000E+00 -0.12621243467E+04  0.16707464275E+04  0.10947309069E+04 0.  0.
        4    1    3    3  502    0  0.23398926694E+03  0.43507031184E+03 -0.27129292578E+03  0.56359437343E+03  0.12699999809E+01 0.  1.
       -4    1    3    3    0  502 -0.23398926694E+03 -0.43507031184E+03 -0.99083142088E+03  0.11071520540E+04  0.12699999809E+01 0. -1.
</event>
<event>
 5   0  0.2374100E-03  0.1097709E+04  0.7818609E-02  0.9207428E-01
       -1   -1    0    0    0  501  0.00000000000E+00  0.00000000000E+00  0.15417038438E+03  0.15417038447E+03  0.50400001928E-02 0.  1.
        1   -1    0    0  501    0  0.00000000000E+00  0.00000000000E+00 -0.19539499689E+04  0.19539499689E+04  0.50400001928E-02 0. -1.
    10030    2    1    2    0    0  0.00000000000E+00  0.00000000000E+00 -0.17997795845E+04  0.21081203533E+04  0.10977089193E+04 0.  0.
        2    1    3    3  502    0  0.53513604560E+01  0.39618443562E+03 -0.16292915950E+04  0.16767772200E+04  0.25500000920E-02 0. -1.
       -2    1    3    3    0  502 -0.53513604560E+01 -0.39618443562E+03 -0.17048798948E+03  0.43134313330E+03  0.25500000920E-02 0.  1.
</event>
<event>
 5   0  0.2374100E-03  0.1117157E+04  0.7818609E-02  0.9188629E-01
       -1   -1    0    0    0  501  0.00000000000E+00  0.00000000000E+00  0.35045646344E+03  0.35045646348E+03  0.50400001928E-02 0.  1.
        1   -1    0    0  501    0  0.00000000000E+00  0.00000000000E+00 -0.89029595760E+03  0.89029595762E+03  0.50400001928E-02 0. -1.
    10030    2    1    2    0    0  0.00000000000E+00  0.00000000000E+00 -0.53983949416E+03  0.12407524211E+04  0.11171570574E+04 0.  0.
        2    1    3    3  502    0 -0.81372823477E+02  0.19880906750E+03  0.30274462914E+03  0.37121542559E+03  0.25500000920E-02 0.  1.
       -2    1    3    3    0  502  0.81372823477E+02 -0.19880906750E+03 -0.84258412329E+03  0.86953699550E+03  0.25500000920E-02 0. -1.
</event>
<event>
 5   0  0.2298958E-03  0.1108931E+04  0.7818609E-02  0.9196530E-01
       -1   -1    0    0    0  501  0.00000000000E+00  0.00000000000E+00  0.19661098361E+03  0.19661098367E+03  0.50400001928E-02 0.  1.
        1   -1    0    0  501    0  0.00000000000E+00  0.00000000000E+00 -0.15636572671E+04  0.15636572671E+04  0.50400001928E-02 0. -1.
    10030    2    1    2    0    0  0.00000000000E+00  0.00000000000E+00 -0.13670462835E+04  0.17602682507E+04  0.11089313655E+04 0.  0.
        1    1    3    3  502    0  0.44962035894E+02  0.52441650695E+03 -0.40676765735E+03  0.66520236359E+03  0.50400001928E-02 0.  1.
       -1    1    3    3    0  502 -0.44962035894E+02 -0.52441650695E+03 -0.96027862610E+03  0.10950658872E+04  0.50400001928E-02 0. -1.
</event>
<event>
 5   0  0.3962999E-03  0.1099414E+04  0.7818609E-02  0.9205764E-01
        2   -1    0    0  501    0  0.00000000000E+00  0.00000000000E+00  0.13361817898E+04  0.13361817898E+04  0.25500000920E-02 0. -1.
       -2   -1    0    0    0  501  0.00000000000E+00  0.00000000000E+00 -0.22615005822E+03  0.22615005823E+03  0.25500000920E-02 0.  1.
    10030    2    1    2    0    0  0.00000000000E+00  0.00000000000E+00  0.11100317316E+04  0.15623318480E+04  0.10994136429E+04 0.  0.
        3    1    3    3  502    0 -0.37610959153E+03 -0.39846041917E+03  0.49228855457E+03  0.73659837201E+03  0.10100000352E+00 0.  1.
       -3    1    3    3    0  502  0.37610959153E+03  0.39846041917E+03  0.61774317702E+03  0.82573347604E+03  0.10100000352E+00 0. -1.
</event>
<event>
 5   0  0.2374100E-03  0.1100701E+04  0.7818609E-02  0.9204509E-01
        1   -1    0    0  501    0  0.00000000000E+00  0.00000000000E+00  0.20634780539E+03  0.20634780545E+03  0.50400001928E-02 0. -1.
       -1   -1    0    0    0  501  0.00000000000E+00  0.00000000000E+00 -0.14678404760E+04  0.14678404760E+04  0.50400001928E-02 0.  1.
    10030    2    1    2    0    0  0.00000000000E+00  0.00000000000E+00 -0.12614926706E+04  0.16741882814E+04  0.11007009783E+04 0.  0.
        2    1    3    3  502    0  0.36267458944E+02  0.17413838526E+03 -0.14229133244E+04  0.14339880873E+04  0.25500000920E-02 0.  1.
       -2    1    3    3    0  502 -0.36267458944E+02 -0.17413838526E+03  0.16142065378E+03  0.24020019415E+03  0.25500000920E-02 0. -1.
</event>
<event>
 5   0  0.1508625E-03  0.1111704E+04  0.7818609E-02  0.9193858E-01
        3   -1    0    0  501    0  0.00000000000E+00  0.00000000000E+00  0.11068227602E+04  0.11068227648E+04  0.10100000352E+00 0. -1.
       -3   -1    0    0    0  501  0.00000000000E+00  0.00000000000E+00 -0.27915188519E+03  0.27915190346E+03  0.10100000352E+00 0.  1.
    10030    2    1    2    0    0  0.00000000000E+00  0.00000000000E+00  0.82767087503E+03  0.13859746683E+04  0.11117044139E+04 0.  0.
        3    1    3    3  502    0  0.97715044090E+02 -0.49734492431E+03  0.12934619488E+03  0.52309717253E+03  0.10100000352E+00 0.  1.
       -3    1    3    3    0  502 -0.97715044090E+02  0.49734492431E+03  0.69832468016E+03  0.86287749576E+03  0.10100000352E+00 0. -1.
</event>
<event>
 5   0  0.2374100E-03  0.1093226E+04  0.7818609E-02  0.9211819E-01
        1   -1    0    0  501    0  0.00000000000E+00  0.00000000000E+00  0.58695729459E+03  0.58695729461E+03  0.50400001928E-02 0.  1.
       -1   -1    0    0    0  501  0.00000000000E+00  0.00000000000E+00 -0.50904204187E+03  0.50904204189E+03  0.50400001928E-02 0. -1.
    10030    2    1    2    0    0  0.00000000000E+00  0.00000000000E+00  0.77915252716E+02  0.10959993365E+04  0.10932263073E+04 0.  0.
        2    1    3    3  502    0  0.36546120280E+03 -0.87598354048E+02  0.43689086526E+03  0.57628898179E+03  0.25500000920E-02 0.  1.
       -2    1    3    3    0  502 -0.36546120280E+03  0.87598354048E+02 -0.35897561255E+03  0.51971035471E+03  0.25500000920E-02 0. -1.
</event>
<event>
 5   0  0.3748901E-03  0.1096700E+04  0.7818609E-02  0.9208414E-01
       -2   -1    0    0    0  501  0.00000000000E+00  0.00000000000E+00  0.44929783544E+03  0.44929783545E+03  0.25500000920E-02 0. -1.
        2   -1    0    0  501    0  0.00000000000E+00  0.00000000000E+00 -0.66923918995E+03  0.66923918995E+03  0.25500000920E-02 0.  1.
    10030    2    1    2    0    0  0.00000000000E+00  0.00000000000E+00 -0.21994135451E+03  0.11185370254E+04  0.10966999944E+04 0.  0.
        5    1    3    3  502    0 -0.18519385891E+03 -0.20977380208E+03 -0.59091475633E+03  0.65383801714E+03  0.46999998093E+01 0.  1.
       -5    1    3    3    0  502  0.18519385891E+03  0.20977380208E+03  0.37097340182E+03  0.46469900825E+03  0.46999998093E+01 0. -1.
</event>
<event>
 5   0  0.3713158E-03  0.1116321E+04  0.7818609E-02  0.9189428E-01
        2   -1    0    0  501    0  0.00000000000E+00  0.00000000000E+00  0.24557405705E+04  0.24557405705E+04  0.25500000920E-02 0. -1.
       -2   -1    0    0    0  501  0.00000000000E+00  0.00000000000E+00 -0.12686331254E+03  0.12686331257E+03  0.25500000920E-02 0.  1.
    10030    2    1    2    0    0  0.00000000000E+00  0.00000000000E+00  0.23288772580E+04  0.25826038831E+04  0.11163214296E+04 0.  0.
        4    1    3    3  502    0  0.49402695281E+03  0.53918588511E+02  0.57655629558E+03  0.76117581357E+03  0.12699999809E+01 0.  1.
       -4    1    3    3    0  502 -0.49402695281E+03 -0.53918588511E+02  0.17523209624E+04  0.18214280695E+04  0.12699999809E+01 0. -1.
</event>
<event>
 5   0  0.2374100E-03  0.1104733E+04  0.7818609E-02  0.9200591E-01
       -1   -1    0    0    0  501  0.00000000000E+00  0.00000000000E+00  0.39338607714E+03  0.39338607717E+03  0.50400001928E-02 0.  1.
        1   -1    0    0  501    0  0.00000000000E+00  0.00000000000E+00 -0.77559554167E+03  0.77559554168E+03  0.50400001928E-02 0. -1.
    10030    2    1    2    0    0  0.00000000000E+00  0.00000000000E+00 -0.38220946453E+03  0.11689816189E+04  0.11047325244E+04 0.  0.
        2    1    3    3  502    0 -0.13592250947E+03 -0.49077265222E+03  0.35291052957E+02  0.51046859176E+03  0.25500000920E-02 0.  1.
       -2    1    3    3    0  502  0.13592250947E+03  0.49077265222E+03 -0.41750051749E+03  0.65851302710E+03  0.25500000920E-02 0. -1.
</event>
<event>
 5   0  0.2298958E-03  0.1103102E+04  0.7818609E-02  0.9202174E-01
       -1   -1    0    0    0  501  0.00000000000E+00  0.00000000000E+00  0.29939251417E+03  0.29939251421E+03  0.50400001928E-02 0.  1.
        1   -1    0    0  501    0  0.00000000000E+00  0.00000000000E+00 -0.10160855963E+04  0.10160855963E+04  0.50400001928E-02 0. -1.
    10030    2    1    2    0    0  0.00000000000E+00  0.00000000000E+00 -0.71669308212E+03  0.13154781105E+04  0.11031018472E+04 0.  0.
        1    1    3    3  502    0  0.39807661220E+03 -0.12595544903E+03  0.71424262662E+02  0.42359318885E+03  0.50400001928E-02 0.  1.
       -1    1    3    3    0  502 -0.39807661220E+03  0.12595544903E+03 -0.78811734478E+03  0.89188492166E+03  0.50400001928E-02 0. -1.
</event>
<event>
 5   0  0.2255788E-03  0.1103831E+04  0.7818609E-02  0.9201466E-01
        1   -1    0    0  501    0  0.00000000000E+00  0.00000000000E+00  0.48413739248E+03  0.48413739250E+03  0.50400001928E-02 0.  1.
       -1   -1    0    0    0  501  0.00000000000E+00  0.00000000000E+00 -0.62918290606E+03  0.62918290608E+03  0.50400001928E-02 0. -1.
    10030    2    1    2    0    0  0.00000000000E+00  0.00000000000E+00 -0.14504551359E+03  0.11133202986E+04  0.11038314574E+04 0.  0.
        3    1    3    3  502    0 -0.74942083390E+02  0.10502665311E+03  0.46871301863E+03  0.48614690965E+03  0.10100000352E+00 0.  1.
       -3    1    3    3    0  502  0.74942083390E+02 -0.10502665311E+03 -0.61375853222E+03  0.62717338894E+03  0.10100000352E+00 0. -1.
</event>
<event>
 5   0  0.3744875E-03  0.1101389E+04  0.7818609E-02  0.9203839E-01
        2   -1    0    0  501    0  0.00000000000E+00  0.00000000000E+00  0.10657942775E+04  0.10657942775E+04  0.25500000920E-02 0. -1.
       -2   -1    0    0    0  501  0.00000000000E+00  0.00000000000E+00 -0.28454326735E+03  0.28454326736E+03  0.25500000920E-02 0.  1.
    10030    2    1    2    0    0  0.00000000000E+00  0.00000000000E+00  0.78125101018E+03  0.13503375449E+04  0.11013892792E+04 0.  0.
        2    1    3    3  502    0 -0.38308474749E+02 -0.23517490958E+03  0.99932225392E+03  0.10273362373E+04  0.25500000920E-02 0. -1.
       -2    1    3    3    0  502  0.38308474749E+02  0.23517490958E+03 -0.21807124374E+03  0.32300130756E+03  0.25500000920E-02 0.  1.
</event>
<event>
 5   0  0.2298958E-03  0.1118914E+04  0.7818609E-02  0.9186950E-01
        1   -1    0    0  501    0  0.00000000000E+00  0.00000000000E+00  0.11385006900E+04  0.11385006901E+04  0.50400001928E-02 0. -1.
       -1   -1    0    0    0  501  0.00000000000E+00  0.00000000000E+00 -0.27491614305E+03  0.27491614309E+03  0.50400001928E-02 0.  1.
    10030    2    1    2    0    0  0.00000000000E+00  0.00000000000E+00  0.86358454700E+03  0.14134168331E+04  0.11189141497E+04 0.  0.
        1    1    3    3  502    0 -0.24403548359E+03  0.48819354152E+03  0.58704804873E+03  0.80156825210E+03  0.50400001928E-02 0. -1.
       -1    1    3    3    0  502  0.24403548359E+03 -0.48819354152E+03  0.27653649827E+03  0.61184858105E+03  0.50400001928E-02 0.  1.
</event>
<event>
 5   0  0.3748901E-03  0.1097905E+04  0.7818609E-02  0.9207237E-01
        2   -1    0    0  501    0  0.00000000000E+00  0.00000000000E+00  0.95849034882E+03  0.95849034882E+03  0.25500000920E-02 0.  1.
       -2   -1    0    0    0  501  0.00000000000E+00  0.00000000000E+00 -0.31439921383E+03  0.31439921385E+03  0.25500000920E-02 0. -1.
    10030    2    1    2    0    0  0.00000000000E+00  0.00000000000E+00  0.64409113499E+03  0.12728895627E+04  0.10979045717E+04 0.  0.
        5    1    3    3  502    0 -0.25762082652E+03 -0.36466040860E+03 -0.48196172350E+02  0.44909983844E+03  0.46999998093E+01 0. -1.
       -5    1    3    3    0  502  0.25762082652E+03  0.36466040860E+03  0.69228730734E+03  0.82378972423E+03  0.46999998093E+01 0.  1.
</event>
<event>
 5   0  0.2298958E-03  0.1106663E+04  0.7818609E-02  0.9198721E-01
       -1   -1    0    0    0  501  0.00000000000E+00  0.00000000000E+00  0.10071140102E+04  0.10071140102E+04  0.50400001928E-02 0.  1.
        1   -1    0    0  501    0  0.00000000000E+00  0.00000000000E+00 -0.30401324127E+03  0.30401324132E+03  0.50400001928E-02 0. -1.
    10030    2    1    2    0    0  0.00000000000E+00  0.00000000000E+00  0.70310076889E+03  0.13111272515E+04  0.11066634440E+04 0.  0.
        1    1    3    3  502    0 -0.34598982967E+03  0.21644934667E+03  0.79423862326E+03  0.89295815838E+03  0.50400001928E-02 0.  1.
       -1    1    3    3    0  502  0.34598982967E+03 -0.21644934667E+03 -0.91137854367E+02  0.41816909311E+03  0.50400001928E-02 0. -1.
</event>
<event>
 5   0  0.3744875E-03  0.1098104E+04  0.7818609E-02  0.9207042E-01
       -2   -1    0    0    0  501  0.00000000000E+00  0.00000000000E+00  0.54279214495E+03  0.54279214496E+03  0.25500000920E-02 0. -1.
        2   -1    0    0  501    0  0.00000000000E+00  0.00000000000E+00 -0.55538379073E+03  0.55538379073E+03  0.25500000920E-02 0.  1.
    10030    2    1    2    0    0  0.00000000000E+00  0.00000000000E+00 -0.12591645775E+02  0.10981759357E+04  0.10981037456E+04 0.  0.
        2    1    3    3  502    0 -0.29025826154E+03 -0.10685974753E+03  0.44737382929E+03  0.54388620793E+03  0.25500000920E-02 0. -1.
       -2    1    3    3    0  502  0.29025826154E+03  0.10685974753E+03 -0.45996547507E+03  0.55428972776E+03  0.25500000920E-02 0.  1.
</event>
<event>
 5   0  0.1508625E-03  0.1096010E+04  0.7818609E-02  0.9209090E-01
       -3   -1    0    0    0  501  0.00000000000E+00  0.00000000000E+00  0.10836009957E+04  0.10836010004E+04  0.10100000352E+00 0. -1.
        3   -1    0    0  501    0  0.00000000000E+00  0.00000000000E+00 -0.27714014236E+03  0.27714016077E+03  0.10100000352E+00 0.  1.
    10030    2    1    2    0    0  0.00000000000E+00  0.00000000000E+00  0.80646085336E+03  0.13607411612E+04  0.10960097626E+04 0.  0.
        2    1    3    3  502    0  0.10277016419E+03 -0.22301292199E+03  0.10114751828E+04  0.10408547043E+04  0.25500000920E-02 0. -1.
       -2    1    3    3    0  502 -0.10277016419E+03  0.22301292199E+03 -0.20501432945E+03  0.31988645690E+03  0.25500000920E-02 0.  1.
</event>
<event>
 5   0  0.3748901E-03  0.1099628E+04  0.7818609E-02  0.9205554E-01
       -2   -1    0    0    0  501  0.00000000000E+00  0.00000000000E+00  0.44291724519E+03  0.44291724520E+03  0.25500000920E-02 0. -1.
        2   -1    0    0  501    0  0.00000000000E+00  0.00000000000E+00 -0.68251001013E+03  0.68251001014E+03  0.25500000920E-02 0.  1.
    10030    2    1    2    0    0  0.00000000000E+00  0.00000000000E+00 -0.23959276494E+03  0.11254272553E+04  0.10996280344E+04 0.  0.
        5    1    3    3  502    0  0.44254939173E+03  0.11077874731E+03  0.19424376625E+03  0.49585746511E+03  0.46999998093E+01 0. -1.
       -5    1    3    3    0  502 -0.44254939173E+03 -0.11077874731E+03 -0.43383653119E+03  0.62956979023E+03  0.46999998093E+01 0.  1.
</event>
<event>
 5   0  0.2298958E-03  0.1108525E+04  0.7818609E-02  0.9196922E-01
        1   -1    0    0  501    0  0.00000000000E+00  0.00000000000E+00  0.48255087977E+03  0.48255087979E+03  0.50400001928E-02 0. -1.
       -1   -1    0    0    0  501  0.00000000000E+00  0.00000000000E+00 -0.63663133471E+03  0.63663133473E+03  0.50400001928E-02 0.  1.
    10030    2    1    2    0    0  0.00000000000E+00  0.00000000000E+00 -0.15408045494E+03  0.11191822145E+04  0.11085251656E+04 0.  0.
        1    1    3    3  502    0 -0.55099867744E+03  0.12368826224E+02 -0.17700356129E+02  0.55142164723E+03  0.50400001928E-02 0. -1.
       -1    1    3    3    0  502  0.55099867744E+03 -0.12368826224E+02 -0.13638009881E+03  0.56776056730E+03  0.50400001928E-02 0.  1.
</event>
<event>
 5   0  0.2374100E-03  0.1099890E+04  0.7818609E-02  0.9205299E-01
        1   -1    0    0  501    0  0.00000000000E+00  0.00000000000E+00  0.71523958294E+03  0.71523958296E+03  0.50400001928E-02 0. -1.
       -1   -1    0    0    0  501  0.00000000000E+00  0.00000000000E+00 -0.42285045264E+03  0.42285045267E+03  0.50400001928E-02 0.  1.
    10030    2    1    2    0    0  0.00000000000E+00  0.00000000000E+00  0.29238913030E+03  0.11380900356E+04  0.10998897789E+04 0.  0.
        2    1    3    3  502    0 -0.15757960833E+03  0.52678941001E+03  0.13579740010E+03  0.56637386004E+03  0.25500000920E-02 0. -1.
       -2    1    3    3    0  502  0.15757960833E+03 -0.52678941001E+03  0.15659173020E+03  0.57171617559E+03  0.25500000920E-02 0.  1.
</event>
<event>
 5   0  0.3962999E-03  0.1091028E+04  0.7818609E-02  0.9213980E-01
        2   -1    0    0  501    0  0.00000000000E+00  0.00000000000E+00  0.12658279185E+04  0.12658279185E+04  0.25500000920E-02 0.  1.
       -2   -1    0    0    0  501  0.00000000000E+00  0.00000000000E+00 -0.23509181936E+03  0.23509181937E+03  0.25500000920E-02 0. -1.
    10030    2    1    2    0    0  0.00000000000E+00  0.00000000000E+00  0.10307360991E+04  0.15009197379E+04  0.10910284843E+04 0.  0.
        3    1    3    3  502    0 -0.63748761322E+01 -0.13082222640E+03 -0.21313964880E+03  0.25016717222E+03  0.10100000352E+00 0. -1.
       -3    1    3    3    0  502  0.63748761322E+01  0.13082222640E+03  0.12438757479E+04  0.12507525656E+04  0.10100000352E+00 0.  1.
</event>
<event>
 5   0  0.2255788E-03  0.1087444E+04  0.7818609E-02  0.9217516E-01
       -1   -1    0    0    0  501  0.00000000000E+00  0.00000000000E+00  0.72927089243E+03  0.72927089245E+03  0.50400001928E-02 0.  1.
        1   -1    0    0  501    0  0.00000000000E+00  0.00000000000E+00 -0.40538276701E+03  0.40538276704E+03  0.50400001928E-02 0. -1.
    10030    2    1    2    0    0  0.00000000000E+00  0.00000000000E+00  0.32388812542E+03  0.11346536595E+04  0.10874444396E+04 0.  0.
        3    1    3    3  502    0  0.44016420099E+03  0.27718508014E+03 -0.32244559845E+01  0.52017929582E+03  0.10100000352E+00 0. -1.
       -3    1    3    3    0  502 -0.44016420099E+03 -0.27718508014E+03  0.32711258141E+03  0.61447436366E+03  0.10100000352E+00 0.  1.
</event>
<event>
 5   0  0.3992414E-03  0.1071798E+04  0.7818609E-02  0.9233124E-01
        2   -1    0    0  501    0  0.00000000000E+00  0.00000000000E+00  0.15073480145E+04  0.15073480145E+04  0.25500000920E-02 0. -1.
       -2   -1    0    0    0  501  0.00000000000E+00  0.00000000000E+00 -0.19052529568E+03  0.19052529569E+03  0.25500000920E-02 0.  1.
    10030    2    1    2    0    0  0.00000000000E+00  0.00000000000E+00  0.13168227188E+04  0.16978733102E+04  0.10717983507E+04 0.  0.
        1    1    3    3  502    0 -0.25834997623E+03 -0.46425915751E+03  0.54744667997E+03  0.76287557504E+03  0.50400001928E-02 0.  1.
       -1    1    3    3    0  502  0.25834997623E+03  0.46425915751E+03  0.76937603884E+03  0.93499773514E+03  0.50400001928E-02 0. -1.
</event>
<event>
 5   0  0.2298958E-03  0.1103826E+04  0.7818609E-02  0.9201471E-01
        1   -1    0    0  501    0  0.00000000000E+00  0.00000000000E+00  0.95360096854E+03  0.95360096855E+03  0.50400001928E-02 0. -1.
       -1   -1    0    0    0  501  0.00000000000E+00  0.00000000000E+00 -0.31942912639E+03  0.31942912643E+03  0.50400001928E-02 0.  1.
    10030    2    1    2    0    0  0.00000000000E+00  0.00000000000E+00  0.63417184215E+03  0.12730300950E+04  0.11038259362E+04 0.  0.
        1    1    3    3  502    0  0.51163537012E+03 -0.18788447781E+03  0.41720703561E+03  0.68639131663E+03  0.50400001928E-02 0. -1.
       -1    1    3    3    0  502 -0.51163537012E+03  0.18788447781E+03  0.21696480654E+03  0.58663877835E+03  0.50400001928E-02 0.  1.
</event>
<event>
 5   0  0.3744875E-03  0.1112239E+04  0.7818609E-02  0.9193344E-01
        2   -1    0    0  501    0  0.00000000000E+00  0.00000000000E+00  0.77020442760E+03  0.77020442761E+03  0.25500000920E-02 0. -1.
       -2   -1    0    0    0  501  0.00000000000E+00  0.00000000000E+00 -0.40154157969E+03  0.40154157970E+03  0.25500000920E-02 0.  1.
    10030    2    1    2    0    0  0.00000000000E+00  0.00000000000E+00  0.36866284791E+03  0.11717460073E+04  0.11122393673E+04 0.  0.
        2    1    3    3  502    0 -0.34490116981E+02  0.39280564962E+03 -0.22880144180E+03  0.45589027881E+03  0.25500000920E-02 0.  1.
       -2    1    3    3    0  502  0.34490116981E+02 -0.39280564962E+03  0.59746428971E+03  0.71585572850E+03  0.25500000920E-02 0. -1.
</event>
<event>
 5   0  0.2255788E-03  0.1108791E+04  0.7818609E-02  0.9196666E-01
       -1   -1    0    0    0  501  0.00000000000E+00  0.00000000000E+00  0.27586402372E+03  0.27586402377E+03  0.50400001928E-02 0.  1.
        1   -1    0    0  501    0  0.00000000000E+00  0.00000000000E+00 -0.11141509111E+04  0.11141509112E+04  0.50400001928E-02 0. -1.
    10030    2    1    2    0    0  0.00000000000E+00  0.00000000000E+00 -0.83828688742E+03  0.13900149349E+04  0.11087906086E+04 0.  0.
        3    1    3    3  502    0  0.19701582940E+03 -0.41070599315E+03 -0.22988931504E+02  0.45609555031E+03  0.10100000352E+00 0.  1.
       -3    1    3    3    0  502 -0.19701582940E+03  0.41070599315E+03 -0.81529795591E+03  0.93391938461E+03  0.10100000352E+00 0. -1.
</event>
<event>
 5   0  0.3713158E-03  0.1079888E+04  0.7818609E-02  0.9225020E-01
        2   -1    0    0  501    0  0.00000000000E+00  0.00000000000E+00  0.89942357308E+03  0.89942357309E+03  0.25500000920E-02 0.  1.
       -2   -1    0    0    0  501  0.00000000000E+00  0.00000000000E+00 -0.32414011164E+03  0.32414011165E+03  0.25500000920E-02 0. -1.
    10030    2    1    2    0    0  0.00000000000E+00  0.00000000000E+00  0.57528346145E+03  0.12235636847E+04  0.10798875078E+04 0.  0.
        4    1    3    3  502    0  0.12474548217E+03  0.52479697150E+03  0.26072504965E+03  0.59912641490E+03  0.12699999809E+01 0.  1.
       -4    1    3    3    0  502 -0.12474548217E+03 -0.52479697150E+03  0.31455841179E+03  0.62443726983E+03  0.12699999809E+01 0. -1.
</event>
<event>
 5   0  0.3992414E-03  0.1100801E+04  0.7818609E-02  0.9204411E-01
       -2   -1    0    0    0  501  0.00000000000E+00  0.00000000000E+00  0.30443866118E+03  0.30443866119E+03  0.25500000920E-02 0.  1.
        2   -1    0    0  501    0  0.00000000000E+00  0.00000000000E+00 -0.99508047012E+03  0.99508047012E+03  0.25500000920E-02 0. -1.
    10030    2    1    2    0    0  0.00000000000E+00  0.00000000000E+00 -0.69064180894E+03  0.12995191313E+04  0.11008014646E+04 0.  0.
        1    1    3    3  502    0  0.46956425999E+03 -0.25026622100E+02 -0.76340628724E+01  0.47029268017E+03  0.50400001928E-02 0.  1.
       -1    1    3    3    0  502 -0.46956425999E+03  0.25026622100E+02 -0.68300774606E+03  0.82922645115E+03  0.50400001928E-02 0. -1.
</event>
<event>
 5   0  0.2255788E-03  0.1093732E+04  0.7818609E-02  0.9211323E-01
        1   -1    0    0  501    0  0.00000000000E+00  0.00000000000E+00  0.20053746573E+04  0.20053746573E+04  0.50400001928E-02 0. -1.
       -1   -1    0    0    0  501  0.00000000000E+00  0.00000000000E+00 -0.14913041574E+03  0.14913041582E+03  0.50400001928E-02 0.  1.
    10030    2    1    2    0    0  0.00000000000E+00  0.00000000000E+00  0.18562442416E+04  0.21545050732E+04  0.10937318802E+04 0.  0.
        3    1    3    3  502    0  0.43196267458E+03  0.10067348165E+03  0.15582804619E+04  0.16201743457E+04  0.10100000352E+00 0.  1.
       -3    1    3    3    0  502 -0.43196267458E+03 -0.10067348165E+03  0.29796377966E+03  0.53433072748E+03  0.10100000352E+00 0. -1.
</event>
<event>
 5   0  0.2300702E-03  0.1098832E+04  0.7818609E-02  0.9206331E-01
        1   -1    0    0  501    0  0.00000000000E+00  0.00000000000E+00  0.93604324769E+03  0.93604324771E+03  0.50400001928E-02 0.  1.
       -1   -1    0    0    0  501  0.00000000000E+00  0.00000000000E+00 -0.32248277318E+03  0.32248277322E+03  0.50400001928E-02 0. -1.
    10030    2    1    2    0    0  0.00000000000E+00  0.00000000000E+00  0.61356047451E+03  0.12585260209E+04  0.10988317840E+04 0.  0.
        5    1    3    3  502    0  0.27130017497E+03  0.13548140700E+03 -0.21792226683E+03  0.37345843271E+03  0.46999998093E+01 0. -1.
       -5    1    3    3    0  502 -0.27130017497E+03 -0.13548140700E+03  0.83148274134E+03  0.88506758823E+03  0.46999998093E+01 0.  1.
</event>
<event>
 5   0  0.2255788E-03  0.1076210E+04  0.7818609E-02  0.9228694E-01
       -1   -1    0    0    0  501  0.00000000000E+00  0.00000000000E+00  0.19895965640E+03  0.19895965646E+03  0.50400001928E-02 0. -1.
        1   -1    0    0  501    0  0.00000000000E+00  0.00000000000E+00 -0.14553560110E+04  0.14553560110E+04  0.50400001928E-02 0.  1.
    10030    2    1    2    0    0  0.00000000000E+00  0.00000000000E+00 -0.12563963546E+04  0.16543156675E+04  0.10762102619E+04 0.  0.
        3    1    3    3  502    0  0.25029901911E+03 -0.34118053338E+03 -0.11391841854E+04  0.12152342876E+04  0.10100000352E+00 0.  1.
       -3    1    3    3    0  502 -0.25029901911E+03  0.34118053338E+03 -0.11721216920E+03  0.43908137985E+03  0.10100000352E+00 0. -1.
</event>
<event>
 5   0  0.2300702E-03  0.1049839E+04  0.7818609E-02  0.9255511E-01
        1   -1    0    0  501    0  0.00000000000E+00  0.00000000000E+00  0.11965260381E+04  0.11965260381E+04  0.50400001928E-02 0. -1.
       -1   -1    0    0    0  501  0.00000000000E+00  0.00000000000E+00 -0.23028351392E+03  0.23028351398E+03  0.50400001928E-02 0.  1.
    10030    2    1    2    0    0  0.00000000000E+00  0.00000000000E+00  0.96624252418E+03  0.14268095521E+04  0.10498385030E+04 0.  0.
        5    1    3    3  502    0 -0.23663848987E+03 -0.40890399270E+03  0.17225858535E+03  0.50288702544E+03  0.46999998093E+01 0.  1.
       -5    1    3    3    0  502  0.23663848987E+03  0.40890399270E+03  0.79398393883E+03  0.92392252665E+03  0.46999998093E+01 0. -1.
</event>
<event>
 5   0  0.3744875E-03  0.1102816E+04  0.7818609E-02  0.9202451E-01
        2   -1    0    0  501    0  0.00000000000E+00  0.00000000000E+00  0.71509840491E+03  0.71509840492E+03  0.25500000920E-02 0.  1.
       -2   -1    0    0    0  501  0.00000000000E+00  0.00000000000E+00 -0.42518764666E+03  0.42518764667E+03  0.25500000920E-02 0. -1.
    10030    2    1    2    0    0  0.00000000000E+00  0.00000000000E+00  0.28991075825E+03  0.11402860516E+04  0.11028164089E+04 0.  0.
        2    1    3    3  502    0  0.22680204052E+03 -0.25523595829E+03  0.59264019823E+03  0.68396415443E+03  0.25500000920E-02 0.  1.
       -2    1    3    3    0  502 -0.22680204052E+03  0.25523595829E+03 -0.30272943997E+03  0.45632189716E+03  0.25500000920E-02 0. -1.
</event>
<event>
 5   0  0.2255788E-03  0.1099388E+04  0.7818609E-02  0.9205789E-01
       -1   -1    0    0    0  501  0.00000000000E+00  0.00000000000E+00  0.43589842693E+03  0.43589842696E+03  0.50400001928E-02 0.  1.
        1   -1    0    0  501    0  0.00000000000E+00  0.00000000000E+00 -0.69319705098E+03  0.69319705099E+03  0.50400001928E-02 0. -1.
    10030    2    1    2    0    0  0.00000000000E+00  0.00000000000E+00 -0.25729862405E+03  0.11290954780E+04  0.10993880190E+04 0.  0.
        3    1    3    3  502    0 -0.18968986524E+03  0.40840848547E+03 -0.45241988619E+03  0.63832867679E+03  0.10100000352E+00 0. -1.
       -3    1    3    3    0  502  0.18968986524E+03 -0.40840848547E+03  0.19512126215E+03  0.49076680116E+03  0.10100000352E+00 0.  1.
</event>
<event>
 5   0  0.3992414E-03  0.1108633E+04  0.7818609E-02  0.9196818E-01
       -2   -1    0    0    0  501  0.00000000000E+00  0.00000000000E+00  0.15951272601E+03  0.15951272603E+03  0.25500000920E-02 0. -1.
        2   -1    0    0  501    0  0.00000000000E+00  0.00000000000E+00 -0.19262842880E+04  0.19262842880E+04  0.25500000920E-02 0.  1.
    10030    2    1    2    0    0  0.00000000000E+00  0.00000000000E+00 -0.17667715620E+04  0.20857970141E+04  0.11086331366E+04 0.  0.
        1    1    3    3  502    0 -0.17592908484E+02  0.36463722329E+03 -0.16681787793E+04  0.17076563632E+04  0.50400001928E-02 0.  1.
       -1    1    3    3    0  502  0.17592908484E+02 -0.36463722329E+03 -0.98592782775E+02  0.37814065092E+03  0.50400001928E-02 0. -1.
</event>
<event>
 5   0  0.3713158E-03  0.1103282E+04  0.7818609E-02  0.9201999E-01
       -2   -1    0    0    0  501  0.00000000000E+00  0.00000000000E+00  0.19831893857E+03  0.19831893858E+03  0.25500000920E-02 0. -1.
        2   -1    0    0  501    0  0.00000000000E+00  0.00000000000E+00 -0.15344357923E+04  0.15344357923E+04  0.25500000920E-02 0.  1.
    10030    2    1    2    0    0  0.00000000000E+00  0.00000000000E+00 -0.13361168538E+04  0.17327547309E+04  0.11032817911E+04 0.  0.
        4    1    3    3  502    0  0.12578575475E+03  0.25733467640E+03  0.72371739992E+02  0.29543607334E+03  0.12699999809E+01 0. -1.
       -4    1    3    3    0  502 -0.12578575475E+03 -0.25733467640E+03 -0.14084885937E+04  0.14373186576E+04  0.12699999809E+01 0.  1.
</event>
<event>
 5   0  0.2255788E-03  0.1096464E+04  0.7818609E-02  0.9208645E-01
       -1   -1    0    0    0  501  0.00000000000E+00  0.00000000000E+00  0.64555767690E+03  0.64555767692E+03  0.50400001928E-02 0. -1.
        1   -1    0    0  501    0  0.00000000000E+00  0.00000000000E+00 -0.46557961619E+03  0.46557961621E+03  0.50400001928E-02 0.  1.
    10030    2    1    2    0    0  0.00000000000E+00  0.00000000000E+00  0.17997806072E+03  0.11111372931E+04  0.10964643094E+04 0.  0.
        3    1    3    3  502    0  0.59102118734E+02 -0.39131443088E+03  0.47445829024E+03  0.61784360775E+03  0.10100000352E+00 0. -1.
       -3    1    3    3    0  502 -0.59102118734E+02  0.39131443088E+03 -0.29448022953E+03  0.49329368538E+03  0.10100000352E+00 0.  1.
</event>
<event>
 5   0  0.3962999E-03  0.1098193E+04  0.7818609E-02  0.9206955E-01
       -2   -1    0    0    0  501  0.00000000000E+00  0.00000000000E+00  0.95978463967E+03  0.95978463967E+03  0.25500000920E-02 0.  1.
        2   -1    0    0  501    0  0.00000000000E+00  0.00000000000E+00 -0.31414018157E+03  0.31414018158E+03  0.25500000920E-02 0. -1.
    10030    2    1    2    0    0  0.00000000000E+00  0.00000000000E+00  0.64564445809E+03  0.12739248213E+04  0.10981929175E+04 0.  0.
        3    1    3    3  502    0 -0.27974814811E+03  0.44412538746E+03  0.50987158475E+03  0.73176186652E+03  0.10100000352E+00 0.  1.
       -3    1    3    3    0  502  0.27974814811E+03 -0.44412538746E+03  0.13577287334E+03  0.54216295474E+03  0.10100000352E+00 0. -1.
</event>
<event>
 5   0  0.3992414E-03  0.1128551E+04  0.7818609E-02  0.9177802E-01
        2   -1    0    0  501    0  0.00000000000E+00  0.00000000000E+00  0.20967650814E+04  0.20967650814E+04  0.25500000920E-02 0. -1.
       -2   -1    0    0    0  501  0.00000000000E+00  0.00000000000E+00 -0.15185627494E+03  0.15185627496E+03  0.25500000920E-02 0.  1.
    10030    2    1    2    0    0  0.00000000000E+00  0.00000000000E+00  0.19449088065E+04  0.22486213564E+04  0.11285511680E+04 0.  0.
        1    1    3    3  502    0  0.28239844211E+03  0.84494341252E+01 -0.78157799039E+00  0.28252589958E+03  0.50400001928E-02 0.  1.
       -1    1    3    3    0  502 -0.28239844211E+03 -0.84494341252E+01  0.19456903845E+04  0.19660954568E+04  0.50400001928E-02 0. -1.
</event>
<event>
 5   0  0.2374100E-03  0.1102076E+04  0.7818609E-02  0.9203171E-01
       -1   -1    0    0    0  501  0.00000000000E+00  0.00000000000E+00  0.32095522226E+03  0.32095522230E+03  0.50400001928E-02 0.  1.
        1   -1    0    0  501    0  0.00000000000E+00  0.00000000000E+00 -0.94605968115E+03  0.94605968116E+03  0.50400001928E-02 0. -1.
    10030    2    1    2    0    0  0.00000000000E+00  0.00000000000E+00 -0.62510445889E+03  0.12670149035E+04  0.11020758509E+04 0.  0.
        2    1    3    3  502    0 -0.32699059691E+03  0.19346225205E+03 -0.77139894918E+03  0.85988768583E+03  0.25500000920E-02 0. -1.
       -2    1    3    3    0  502  0.32699059691E+03 -0.19346225205E+03  0.14629449030E+03  0.40712721763E+03  0.25500000920E-02 0.  1.
</event>
<event>
 5   0  0.2300702E-03  0.1084571E+04  0.7818609E-02  0.9220362E-01
        1   -1    0    0  501    0  0.00000000000E+00  0.00000000000E+00  0.92761160185E+03  0.92761160187E+03  0.50400001928E-02 0.  1.
       -1   -1    0    0    0  501  0.00000000000E+00  0.00000000000E+00 -0.31702239606E+03  0.31702239610E+03  0.50400001928E-02 0. -1.
    10030    2    1    2    0    0  0.00000000000E+00  0.00000000000E+00  0.61058920579E+03  0.12446339980E+04  0.10845711644E+04 0.  0.
        5    1    3    3  502    0 -0.44993107596E+03  0.28741338758E+03  0.41420690120E+03  0.67574690194E+03  0.46999998093E+01 0. -1.
       -5    1    3    3    0  502  0.44993107596E+03 -0.28741338758E+03  0.19638230459E+03  0.56888709603E+03  0.46999998093E+01 0.  1.
</event>
<event>
 5   0  0.2298958E-03  0.1101658E+04  0.7818609E-02  0.9203577E-01
        1   -1    0    0  501    0  0.00000000000E+00  0.00000000000E+00  0.12874987770E+04  0.12874987770E+04  0.50400001928E-02 0. -1.
       -1   -1    0    0    0  501  0.00000000000E+00  0.00000000000E+00 -0.23566064750E+03  0.23566064755E+03  0.50400001928E-02 0.  1.
    10030    2    1    2    0    0  0.00000000000E+00  0.00000000000E+00  0.10518381295E+04  0.15231594245E+04  0.11016583781E+04 0.  0.
        1    1    3    3  502    0  0.10382212089E+02 -0.40039635612E+03  0.31042848190E+01  0.40054296765E+03  0.50400001928E-02 0.  1.
       -1    1    3    3    0  502 -0.10382212089E+02  0.40039635612E+03  0.10487338447E+04  0.11226164569E+04  0.50400001928E-02 0. -1.
</event>
<event>
 5   0  0.3748901E-03  0.1094219E+04  0.7818609E-02  0.9210844E-01
        2   -1    0    0  501    0  0.00000000000E+00  0.00000000000E+00  0.15653018942E+04  0.15653018942E+04  0.25500000920E-02 0. -1.
       -2   -1    0    0    0  501  0.00000000000E+00  0.00000000000E+00 -0.19122765351E+03  0.19122765353E+03  0.25500000920E-02 0.  1.
    10030    2    1    2    0    0  0.00000000000E+00  0.00000000000E+00  0.13740742406E+04  0.17565295477E+04  0.10942193716E+04 0.  0.
        5    1    3    3  502    0  0.40955281780E+01  0.54649676647E+03  0.64669921159E+03  0.84670977872E+03  0.46999998093E+01 0. -1.
       -5    1    3    3    0  502 -0.40955281780E+01 -0.54649676647E+03  0.72737502905E+03  0.90981976896E+03  0.46999998093E+01 0.  1.
</event>
<event>
 5   0  0.3962999E-03  0.1101940E+04  0.7818609E-02  0.9203303E-01
       -2   -1    0    0    0  501  0.00000000000E+00  0.00000000000E+00  0.27422008889E+03  0.27422008890E+03  0.25500000920E-02 0. -1.
        2   -1    0    0  501    0  0.00000000000E+00  0.00000000000E+00 -0.11070229007E+04  0.11070229007E+04  0.25500000920E-02 0.  1.
    10030    2    1    2    0    0  0.00000000000E+00  0.00000000000E+00 -0.83280281182E+03  0.13812429896E+04  0.11019399589E+04 0.  0.
        3    1    3    3  502    0  0.17316048021E+03  0.38911878121E+03 -0.85452265573E+03  0.95478110432E+03  0.10100000352E+00 0.  1.
       -3    1    3    3    0  502 -0.17316048021E+03 -0.38911878121E+03  0.21719843910E+02  0.42646188531E+03  0.10100000352E+00 0. -1.
</event>
<event>
 5   0  0.3713158E-03  0.1080754E+04  0.7818609E-02  0.9224156E-01
        2   -1    0    0  501    0  0.00000000000E+00  0.00000000000E+00  0.34973910183E+03  0.34973910184E+03  0.25500000920E-02 0.  1.
       -2   -1    0    0    0  501  0.00000000000E+00  0.00000000000E+00 -0.83492953567E+03  0.83492953567E+03  0.25500000920E-02 0. -1.
    10030    2    1    2    0    0  0.00000000000E+00  0.00000000000E+00 -0.48519043384E+03  0.11846686375E+04  0.10807543771E+04 0.  0.
        4    1    3    3  502    0 -0.29249334586E+03 -0.30678484616E+03 -0.60998790936E+03  0.74280290903E+03  0.12699999809E+01 0. -1.
       -4    1    3    3    0  502  0.29249334586E+03  0.30678484616E+03  0.12479747551E+03  0.44186572848E+03  0.12699999809E+01 0.  1.
</event>
<event>
 5   0  0.3962999E-03  0.1250578E+04  0.7818609E-02  0.9069702E-01
       -2   -1    0    0    0  501  0.00000000000E+00  0.00000000000E+00  0.16595673967E+03  0.16595673969E+03  0.25500000920E-02 0.  1.
        2   -1    0    0  501    0  0.00000000000E+00  0.00000000000E+00 -0.23559537776E+04  0.23559537776E+04  0.25500000920E-02 0. -1.
    10030    2    1    2    0    0  0.00000000000E+00  0.00000000000E+00 -0.21899970379E+04  0.25219105173E+04  0.12505781188E+04 0.  0.
        3    1    3    3  502    0  0.80982838218E+02  0.41777512441E+03 -0.20188813943E+04  0.20632441370E+04  0.10100000352E+00 0. -1.
       -3    1    3    3    0  502 -0.80982838218E+02 -0.41777512441E+03 -0.17111564363E+03  0.45866638023E+03  0.10100000352E+00 0.  1.
</event>
<event>
 5   0  0.2300702E-03  0.1101542E+04  0.7818609E-02  0.9203690E-01
       -1   -1    0    0    0  501  0.00000000000E+00  0.00000000000E+00  0.21089206916E+03  0.21089206922E+03  0.50400001928E-02 0.  1.
        1   -1    0    0  501    0  0.00000000000E+00  0.00000000000E+00 -0.14384085709E+04  0.14384085709E+04  0.50400001928E-02 0. -1.
    10030    2    1    2    0    0  0.00000000000E+00  0.00000000000E+00 -0.12275165017E+04  0.16493006401E+04  0.11015424819E+04 0.  0.
        5    1    3    3  502    0  0.94849653715E+02  0.50265196133E+03 -0.30811295178E+03  0.59716926587E+03  0.46999998093E+01 0.  1.
       -5    1    3    3    0  502 -0.94849653715E+02 -0.50265196133E+03 -0.91940354993E+03  0.10521313742E+04  0.46999998093E+01 0. -1.
</event>
<event>
 5   0  0.2257667E-03  0.1100791E+04  0.7818609E-02  0.9204421E-01
       -1   -1    0    0    0  501  0.00000000000E+00  0.00000000000E+00  0.26769439813E+03  0.26769439818E+03  0.50400001928E-02 0.  1.
        1   -1    0    0  501    0  0.00000000000E+00  0.00000000000E+00 -0.11316452450E+04  0.11316452450E+04  0.50400001928E-02 0. -1.
    10030    2    1    2    0    0  0.00000000000E+00  0.00000000000E+00 -0.86395084684E+03  0.13993396432E+04  0.11007907935E+04 0.  0.
        4    1    3    3  502    0 -0.45968937995E+03  0.11001757138E+03 -0.79043787182E+03  0.92098416608E+03  0.12699999809E+01 0. -1.
       -4    1    3    3    0  502  0.45968937995E+03 -0.11001757138E+03 -0.73512975020E+02  0.47835547708E+03  0.12699999809E+01 0.  1.
</event>
<event>
 5   0  0.2300702E-03  0.1152248E+04  0.7818609E-02  0.9155712E-01
        1   -1    0    0  501    0  0.00000000000E+00  0.00000000000E+00  0.29701403172E+03  0.29701403176E+03  0.50400001928E-02 0. -1.
       -1   -1    0    0    0  501  0.00000000000E+00  0.00000000000E+00 -0.11175199075E+04  0.11175199076E+04  0.50400001928E-02 0.  1.
    10030    2    1    2    0    0  0.00000000000E+00  0.00000000000E+00 -0.82050587582E+03  0.14145339393E+04  0.11522483991E+04 0.  0.
        5    1    3    3  502    0 -0.96193969902E+02 -0.23695904071E+03 -0.10439928914E+04  0.10748702778E+04  0.46999998093E+01 0.  1.
       -5    1    3    3    0  502  0.96193969902E+02  0.23695904071E+03  0.22348701558E+03  0.33966366151E+03  0.46999998093E+01 0. -1.
</event>
<event>
 5   0  0.2257667E-03  0.1104426E+04  0.7818609E-02  0.9200889E-01
       -1   -1    0    0    0  501  0.00000000000E+00  0.00000000000E+00  0.18393110047E+03  0.18393110054E+03  0.50400001928E-02 0. -1.
        1   -1    0    0  501    0  0.00000000000E+00  0.00000000000E+00 -0.16578978495E+04  0.16578978495E+04  0.50400001928E-02 0.  1.
    10030    2    1    2    0    0  0.00000000000E+00  0.00000000000E+00 -0.14739667491E+04  0.18418289501E+04  0.11044255991E+04 0.  0.
        4    1    3    3  502    0 -0.23424833977E+03 -0.49857888356E+03 -0.80123075555E+03  0.97232994624E+03  0.12699999809E+01 0.  1.
       -4    1    3    3    0  502  0.23424833977E+03  0.49857888356E+03 -0.67273599351E+03  0.86949900384E+03  0.12699999809E+01 0. -1.
</event>
<event>
 5   0  0.3962999E-03  0.1104445E+04  0.7818609E-02  0.9200870E-01
        2   -1    0    0  501    0  0.00000000000E+00  0.00000000000E+00  0.91002719128E+03  0.91002719128E+03  0.25500000920E-02 0. -1.
       -2   -1    0    0    0  501  0.00000000000E+00  0.00000000000E+00 -0.33509978679E+03  0.33509978680E+03  0.25500000920E-02 0.  1.
    10030    2    1    2    0    0  0.00000000000E+00  0.00000000000E+00  0.57492740449E+03  0.12451269781E+04  0.11044454134E+04 0.  0.
        3    1    3    3  502    0 -0.15273463035E+03 -0.50399749633E+03  0.10014061961E+03  0.53606855672E+03  0.10100000352E+00 0.  1.
       -3    1    3    3    0  502  0.15273463035E+03  0.50399749633E+03  0.47478678488E+03  0.70905842136E+03  0.10100000352E+00 0. -1.
</event>
<event>
 5   0  0.2255788E-03  0.1102021E+04  0.7818609E-02  0.9203224E-01
       -1   -1    0    0    0  501  0.00000000000E+00  0.00000000000E+00  0.13642785930E+04  0.13642785930E+04  0.50400001928E-02 0.  1.
        1   -1    0    0  501    0  0.00000000000E+00  0.00000000000E+00 -0.22254455009E+03  0.22254455014E+03  0.50400001928E-02 0. -1.
    10030    2    1    2    0    0  0.00000000000E+00  0.00000000000E+00  0.11417340429E+04  0.15868231432E+04  0.11020213532E+04 0.  0.
        3    1    3    3  502    0  0.30561591464E+03  0.20145697644E+03 -0.22175308052E+02  0.36671208751E+03  0.10100000352E+00 0. -1.
       -3    1    3    3    0  502 -0.30561591464E+03 -0.20145697644E+03  0.11639093510E+04  0.12201110557E+04  0.10100000352E+00 0.  1.
</event>
<event>
 5   0  0.3748901E-03  0.1121920E+04  0.7818609E-02  0.9184087E-01
        2   -1    0    0  501    0  0.00000000000E+00  0.00000000000E+00  0.17386007459E+04  0.17386007459E+04  0.25500000920E-02 0.  1.
       -2   -1    0    0    0  501  0.00000000000E+00  0.00000000000E+00 -0.18099378632E+03  0.18099378634E+03  0.25500000920E-02 0. -1.
    10030    2    1    2    0    0  0.00000000000E+00  0.00000000000E+00  0.15576069596E+04  0.19195945323E+04  0.11219196619E+04 0.  0.
        5    1    3    3  502    0  0.28261250208E+03  0.14898368528E+03  0.15676944637E+04  0.15999231189E+04  0.46999998093E+01 0.  1.
       -5    1    3    3    0  502 -0.28261250208E+03 -0.14898368528E+03 -0.10087504073E+02  0.31967141340E+03  0.46999998093E+01 0. -1.
</event>
<event>
 5   0  0.3962999E-03  0.1091534E+04  0.7818609E-02  0.9213483E-01
        2   -1    0    0  501    0  0.00000000000E+00  0.00000000000E+00  0.13323859385E+04  0.13323859385E+04  0.25500000920E-02 0. -1.
       -2   -1    0    0    0  501  0.00000000000E+00  0.00000000000E+00 -0.22355489767E+03  0.22355489769E+03  0.25500000920E-02 0.  1.
    10030    2    1    2    0    0  0.00000000000E+00  0.00000000000E+00  0.11088310409E+04  0.15559408362E+04  0.10915336040E+04 0.  0.
        3    1    3    3  502    0  0.50689836415E+03 -0.35447992134E+02  0.27054114442E+03  0.57566920427E+03  0.10100000352E+00 0.  1.
       -3    1    3    3    0  502 -0.50689836415E+03  0.35447992134E+02  0.83828989645E+03  0.98027163196E+03  0.10100000352E+00 0. -1.
</event>
<event>
 5   0  0.2255788E-03  0.1105528E+04  0.7818609E-02  0.9199821E-01
        1   -1    0    0  501    0  0.00000000000E+00  0.00000000000E+00  0.83418077654E+03  0.83418077655E+03  0.50400001928E-02 0. -1.
       -1   -1    0    0    0  501  0.00000000000E+00  0.00000000000E+00 -0.36628497126E+03  0.36628497129E+03  0.50400001928E-02 0.  1.
    10030    2    1    2    0    0  0.00000000000E+00  0.00000000000E+00  0.46789580528E+03  0.12004657478E+04  0.11055277143E+04 0.  0.
        3    1    3    3  502    0 -0.24547087198E+03 -0.25207924567E+03  0.69687748156E+03  0.78066518405E+03  0.10100000352E+00 0. -1.
       -3    1    3    3    0  502  0.24547087198E+03  0.25207924567E+03 -0.22898167627E+03  0.41980056379E+03  0.10100000352E+00 0.  1.
</event>
<event>
 5   0  0.3713158E-03  0.1099560E+04  0.7818609E-02  0.9205621E-01
       -2   -1    0    0    0  501  0.00000000000E+00  0.00000000000E+00  0.21029966818E+03  0.21029966819E+03  0.25500000920E-02 0.  1.
        2   -1    0    0  501    0  0.00000000000E+00  0.00000000000E+00 -0.14372729579E+04  0.14372729579E+04  0.25500000920E-02 0. -1.
    10030    2    1    2    0    0  0.00000000000E+00  0.00000000000E+00 -0.12269732897E+04  0.16475726261E+04  0.10995599595E+04 0.  0.
        4    1    3    3  502    0  0.23367788187E+03  0.19398624524E+03 -0.13001697922E+04  0.13351700706E+04  0.12699999809E+01 0. -1.
       -4    1    3    3    0  502 -0.23367788187E+03 -0.19398624524E+03  0.73196502505E+02  0.31240255552E+03  0.12699999809E+01 0.  1.
</event>
<event>
 5   0  0.3748901E-03  0.1097908E+04  0.7818609E-02  0.9207233E-01
       -2   -1    0    0    0  501  0.00000000000E+00  0.00000000000E+00  0.35730827028E+03  0.35730827029E+03  0.25500000920E-02 0.  1.
        2   -1    0    0  501    0  0.00000000000E+00  0.00000000000E+00 -0.84339081427E+03  0.84339081427E+03  0.25500000920E-02 0. -1.
    10030    2    1    2    0    0  0.00000000000E+00  0.00000000000E+00 -0.48608254399E+03  0.12006990846E+04  0.10979080344E+04 0.  0.
        5    1    3    3  502    0  0.39931269683E+03 -0.31633572092E+03 -0.46665874137E+03  0.69087726050E+03  0.46999998093E+01 0. -1.
       -5    1    3    3    0  502 -0.39931269683E+03  0.31633572092E+03 -0.19423802617E+02  0.50982182406E+03  0.46999998093E+01 0.  1.
</event>
<event>
 5   0  0.2374100E-03  0.1100973E+04  0.7818609E-02  0.9204244E-01
        1   -1    0    0  501    0  0.00000000000E+00  0.00000000000E+00  0.97886100456E+03  0.97886100458E+03  0.50400001928E-02 0. -1.
       -1   -1    0    0    0  501  0.00000000000E+00  0.00000000000E+00 -0.30957986534E+03  0.30957986538E+03  0.50400001928E-02 0.  1.
    10030    2    1    2    0    0  0.00000000000E+00  0.00000000000E+00  0.66928113923E+03  0.12884408700E+04  0.11009734929E+04 0.  0.
        2    1    3    3  502    0  0.33156765592E+03 -0.22783382582E+03 -0.10509343691E+03  0.41580042464E+03  0.25500000920E-02 0.  1.
       -2    1    3    3    0  502 -0.33156765592E+03  0.22783382582E+03  0.77437457613E+03  0.87264044532E+03  0.25500000920E-02 0. -1.
</event>
<event>
 5   0  0.2257667E-03  0.1060602E+04  0.7818609E-02  0.9244466E-01
        1   -1    0    0  501    0  0.00000000000E+00  0.00000000000E+00  0.40978064978E+03  0.40978064981E+03  0.50400001928E-02 0.  1.
       -1   -1    0    0    0  501  0.00000000000E+00  0.00000000000E+00 -0.68626798505E+03  0.68626798507E+03  0.50400001928E-02 0. -1.
    10030    2    1    2    0    0  0.00000000000E+00  0.00000000000E+00 -0.27648733527E+03  0.10960486349E+04  0.10606023588E+04 0.  0.
        4    1    3    3  502    0  0.36006172279E+01 -0.51483151304E+03 -0.26958685554E+03  0.58115672314E+03  0.12699999809E+01 0. -1.
       -4    1    3    3    0  502 -0.36006172279E+01  0.51483151304E+03 -0.69004797302E+01  0.51489191175E+03  0.12699999809E+01 0.  1.
</event>
<event>
 5   0  0.2255788E-03  0.1103244E+04  0.7818609E-02  0.9202035E-01
        1   -1    0    0  501    0  0.00000000000E+00  0.00000000000E+00  0.44522323588E+03  0.44522323590E+03  0.50400001928E-02 0.  1.
       -1   -1    0    0    0  501  0.00000000000E+00  0.00000000000E+00 -0.68344834550E+03  0.68344834552E+03  0.50400001928E-02 0. -1.
    10030    2    1    2    0    0  0.00000000000E+00  0.00000000000E+00 -0.23822510963E+03  0.11286715814E+04  0.11032444588E+04 0.  0.
        3    1    3    3  502    0 -0.29671304164E+03 -0.34148519991E+03  0.20381465305E+03  0.49617657526E+03  0.10100000352E+00 0.  1.
       -3    1    3    3    0  502  0.29671304164E+03  0.34148519991E+03 -0.44203976268E+03  0.63249500617E+03  0.10100000352E+00 0. -1.
</event>
<event>
 5   0  0.2300702E-03  0.1093468E+04  0.7818609E-02  0.9211582E-01
        1   -1    0    0  501    0  0.00000000000E+00  0.00000000000E+00  0.10453166285E+04  0.10453166285E+04  0.50400001928E-02 0.  1.
       -1   -1    0    0    0  501  0.00000000000E+00  0.00000000000E+00 -0.28595947336E+03  0.28595947341E+03  0.50400001928E-02 0. -1.
    10030    2    1    2    0    0  0.00000000000E+00  0.00000000000E+00  0.75935715514E+03  0.13312761019E+04  0.10934682302E+04 0.  0.
        5    1    3    3  502    0 -0.42101629827E+03 -0.33132895225E+03  0.24707655037E+03  0.59000212690E+03  0.46999998093E+01 0. -1.
       -5    1    3    3    0  502  0.42101629827E+03  0.33132895225E+03  0.51228060477E+03  0.74127397501E+03  0.46999998093E+01 0.  1.
</event>
<event>
 5   0  0.3992414E-03  0.1092644E+04  0.7818609E-02  0.9212392E-01
       -2   -1    0    0    0  501  0.00000000000E+00  0.00000000000E+00  0.30668732510E+03  0.30668732511E+03  0.25500000920E-02 0. -1.
        2   -1    0    0  501    0  0.00000000000E+00  0.00000000000E+00 -0.97319805775E+03  0.97319805775E+03  0.25500000920E-02 0.  1.
    10030    2    1    2    0    0  0.00000000000E+00  0.00000000000E+00 -0.66651073265E+03  0.12798853829E+04  0.10926436000E+04 0.  0.
        1    1    3    3  502    0  0.12746310703E+03  0.15846998819E+03  0.26069518170E+03  0.33063810821E+03  0.50400001928E-02 0. -1.
       -1    1    3    3    0  502 -0.12746310703E+03 -0.15846998819E+03 -0.92720591435E+03  0.94924727466E+03  0.50400001928E-02 0.  1.
</event>
<event>
 5   0  0.2298958E-03  0.1105135E+04  0.7818609E-02  0.9200201E-01
       -1   -1    0    0    0  501  0.00000000000E+00  0.00000000000E+00  0.36843379156E+03  0.36843379160E+03  0.50400001928E-02 0.  1.
        1   -1    0    0  501    0  0.00000000000E+00  0.00000000000E+00 -0.82872639695E+03  0.82872639696E+03  0.50400001928E-02 0. -1.
    10030    2    1    2    0    0  0.00000000000E+00  0.00000000000E+00 -0.46029260538E+03  0.11971601886E+04  0.11051349395E+04 0.  0.
        1    1    3    3  502    0 -0.13267195233E+03  0.43548271925E+03 -0.56940853534E+03  0.72902203385E+03  0.50400001928E-02 0. -1.
       -1    1    3    3    0  502  0.13267195233E+03 -0.43548271925E+03  0.10911592995E+03  0.46813815471E+03  0.50400001928E-02 0.  1.
</event>
<event>
 5   0  0.3992414E-03  0.1087219E+04  0.7818609E-02  0.9217739E-01
       -2   -1    0    0    0  501  0.00000000000E+00  0.00000000000E+00  0.19010528292E+03  0.19010528294E+03  0.25500000920E-02 0.  1.
        2   -1    0    0  501    0  0.00000000000E+00  0.00000000000E+00 -0.15544616395E+04  0.15544616395E+04  0.25500000920E-02 0. -1.
    10030    2    1    2    0    0  0.00000000000E+00  0.00000000000E+00 -0.13643563566E+04  0.17445669224E+04  0.10872191495E+04 0.  0.
        1    1    3    3  502    0 -0.18635963630E+03  0.41644977188E+03 -0.11564251744E+04  0.12431731619E+04  0.50400001928E-02 0. -1.
       -1    1    3    3    0  502  0.18635963630E+03 -0.41644977188E+03 -0.20793118222E+03  0.50139376054E+03  0.50400001928E-02 0.  1.
</event>
<event>
 5   0  0.2255788E-03  0.1087407E+04  0.7818609E-02  0.9217553E-01
        1   -1    0    0  501    0  0.00000000000E+00  0.00000000000E+00  0.54398897418E+03  0.54398897420E+03  0.50400001928E-02 0. -1.
       -1   -1    0    0    0  501  0.00000000000E+00  0.00000000000E+00 -0.54341866873E+03  0.54341866875E+03  0.50400001928E-02 0.  1.
    10030    2    1    2    0    0  0.00000000000E+00  0.00000000000E+00  0.57030544717E+00  0.10874076429E+04  0.10874074934E+04 0.  0.
        3    1    3    3  502    0 -0.40136099902E+02 -0.52715414503E+03 -0.12664537655E+03  0.54363725107E+03  0.10100000352E+00 0.  1.
       -3    1    3    3    0  502  0.40136099902E+02  0.52715414503E+03  0.12721568200E+03  0.54377039188E+03  0.10100000352E+00 0. -1.
</event>
<event>
 5   0  0.2374100E-03  0.1092183E+04  0.7818609E-02  0.9212844E-01
        1   -1    0    0  501    0  0.00000000000E+00  0.00000000000E+00  0.15827116291E+04  0.15827116291E+04  0.50400001928E-02 0. -1.
       -1   -1    0    0    0  501  0.00000000000E+00  0.00000000000E+00 -0.18842094311E+03  0.18842094318E+03  0.50400001928E-02 0.  1.
    10030    2    1    2    0    0  0.00000000000E+00  0.00000000000E+00  0.13942906860E+04  0.17711325723E+04  0.10921831676E+04 0.  0.
        2    1    3    3  502    0 -0.19966000325E+02  0.35154684108E+03  0.13740379883E+04  0.14184372443E+04  0.25500000920E-02 0. -1.
       -2    1    3    3    0  502  0.19966000325E+02 -0.35154684108E+03  0.20252697709E+02  0.35269532803E+03  0.25500000920E-02 0.  1.
</event>
<event>
 5   0  0.2300702E-03  0.1080021E+04  0.7818609E-02  0.9224886E-01
        1   -1    0    0  501    0  0.00000000000E+00  0.00000000000E+00  0.81741690636E+03  0.81741690638E+03  0.50400001928E-02 0. -1.
       -1   -1    0    0    0  501  0.00000000000E+00  0.00000000000E+00 -0.35674748208E+03  0.35674748212E+03  0.50400001928E-02 0.  1.
    10030    2    1    2    0    0  0.00000000000E+00  0.00000000000E+00  0.46066942428E+03  0.11741643885E+04  0.10800211538E+04 0.  0.
        5    1    3    3  502    0  0.87119013761E+02  0.18645376651E+03 -0.31241651271E+03  0.37414021037E+03  0.46999998093E+01 0.  1.
       -5    1    3    3    0  502 -0.87119013761E+02 -0.18645376651E+03  0.77308593699E+03  0.80002417812E+03  0.46999998093E+01 0. -1.
</event>
<event>
 5   0  0.3748901E-03  0.1117248E+04  0.7818609E-02  0.9188542E-01
       -2   -1    0    0    0  501  0.00000000000E+00  0.00000000000E+00  0.59276391460E+03  0.59276391461E+03  0.25500000920E-02 0. -1.
        2   -1    0    0  501    0  0.00000000000E+00  0.00000000000E+00 -0.52644991469E+03  0.52644991469E+03  0.25500000920E-02 0.  1.
    10030    2    1    2    0    0  0.00000000000E+00  0.00000000000E+00  0.66313999916E+02  0.11192138293E+04  0.11172475326E+04 0.  0.
        5    1    3    3  502    0 -0.21868111144E+03  0.13898744585E+03 -0.46258715035E+03  0.53023381660E+03  0.46999998093E+01 0.  1.
       -5    1    3    3    0  502  0.21868111144E+03 -0.13898744585E+03  0.52890115026E+03  0.58898001270E+03  0.46999998093E+01 0. -1.
</event>
<event>
 5   0  0.3748901E-03  0.1031341E+04  0.7818609E-02  0.9274823E-01
        2   -1    0    0  501    0  0.00000000000E+00  0.00000000000E+00  0.31610109284E+03  0.31610109285E+03  0.25500000920E-02 0.  1.
       -2   -1    0    0    0  501  0.00000000000E+00  0.00000000000E+00 -0.84123757461E+03  0.84123757461E+03  0.25500000920E-02 0. -1.
    10030    2    1    2    0    0  0.00000000000E+00  0.00000000000E+00 -0.52513648177E+03  0.11573386675E+04  0.10313411010E+04 0.  0.
        5    1    3    3  502    0  0.18849336353E+02 -0.15098098680E+03 -0.81544956043E+03  0.82953639550E+03  0.46999998093E+01 0. -1.
       -5    1    3    3    0  502 -0.18849336353E+02  0.15098098680E+03  0.29031307867E+03  0.32780227196E+03  0.46999998093E+01 0.  1.
</event>
<event>
 5   0  0.3748901E-03  0.1163269E+04  0.7818609E-02  0.9145629E-01
       -2   -1    0    0    0  501  0.00000000000E+00  0.00000000000E+00  0.26296616644E+03  0.26296616646E+03  0.25500000920E-02 0.  1.
        2   -1    0    0  501    0  0.00000000000E+00  0.00000000000E+00 -0.12864721375E+04  0.12864721375E+04  0.25500000920E-02 0. -1.
    10030    2    1    2    0    0  0.00000000000E+00  0.00000000000E+00 -0.10235059711E+04  0.15494383040E+04  0.11632689220E+04 0.  0.
        5    1    3    3  502    0  0.27982586022E+03  0.42139313104E+03 -0.89410440332E+03  0.10272874267E+04  0.46999998093E+01 0. -1.
       -5    1    3    3    0  502 -0.27982586022E+03 -0.42139313104E+03 -0.12940156774E+03  0.52215087730E+03  0.46999998093E+01 0.  1.
</event>
<event>
 5   0  0.2257667E-03  0.1101227E+04  0.7818609E-02  0.9203997E-01
        1   -1    0    0  501    0  0.00000000000E+00  0.00000000000E+00  0.55785224527E+03  0.55785224529E+03  0.50400001928E-02 0. -1.
       -1   -1    0    0    0  501  0.00000000000E+00  0.00000000000E+00 -0.54346851098E+03  0.54346851101E+03  0.50400001928E-02 0.  1.
    10030    2    1    2    0    0  0.00000000000E+00  0.00000000000E+00  0.14383734285E+02  0.11013207563E+04  0.11012268233E+04 0.  0.
        4    1    3    3  502    0 -0.19604326468E+03  0.42700148878E+03  0.29428826682E+03  0.55440998361E+03  0.12699999809E+01 0. -1.
       -4    1    3    3    0  502  0.19604326468E+03 -0.42700148878E+03 -0.27990453254E+03  0.54691077268E+03  0.12699999809E+01 0.  1.
</event>
<event>
 5   0  0.3744875E-03  0.1084062E+04  0.7818609E-02  0.9220867E-01
       -2   -1    0    0    0  501  0.00000000000E+00  0.00000000000E+00  0.10698507988E+04  0.10698507988E+04  0.25500000920E-02 0.  1.
        2   -1    0    0  501    0  0.00000000000E+00  0.00000000000E+00 -0.27461532011E+03  0.27461532012E+03  0.25500000920E-02 0. -1.
    10030    2    1    2    0    0  0.00000000000E+00  0.00000000000E+00  0.79523547865E+03  0.13444661189E+04  0.10840616580E+04 0.  0.
        2    1    3    3  502    0  0.61657666421E+02 -0.29867168935E+03  0.95335302294E+03  0.10009437707E+04  0.25500000920E-02 0.  1.
       -2    1    3    3    0  502 -0.61657666421E+02  0.29867168935E+03 -0.15811754428E+03  0.34352234813E+03  0.25500000920E-02 0. -1.
</event>
<event>
 5   0  0.3962999E-03  0.1062429E+04  0.7818609E-02  0.9242605E-01
        2   -1    0    0  501    0  0.00000000000E+00  0.00000000000E+00  0.78463171510E+03  0.78463171511E+03  0.25500000920E-02 0. -1.
       -2   -1    0    0    0  501  0.00000000000E+00  0.00000000000E+00 -0.35964509257E+03  0.35964509258E+03  0.25500000920E-02 0.  1.
    10030    2    1    2    0    0  0.00000000000E+00  0.00000000000E+00  0.42498662253E+03  0.11442768077E+04  0.10624291898E+04 0.  0.
        3    1    3    3  502    0 -0.29899071564E+02  0.31279358687E+03  0.67380669978E+03  0.74347108978E+03  0.10100000352E+00 0. -1.
       -3    1    3    3    0  502  0.29899071564E+02 -0.31279358687E+03 -0.24882007725E+03  0.40080571791E+03  0.10100000352E+00 0.  1.
</event>
<event>
 5   0  0.2298958E-03  0.1125382E+04  0.7818609E-02  0.9180800E-01
       -1   -1    0    0    0  501  0.00000000000E+00  0.00000000000E+00  0.42421905289E+03  0.42421905292E+03  0.50400001928E-02 0.  1.
        1   -1    0    0  501    0  0.00000000000E+00  0.00000000000E+00 -0.74636258125E+03  0.74636258127E+03  0.50400001928E-02 0. -1.
    10030    2    1    2    0    0  0.00000000000E+00  0.00000000000E+00 -0.32214352836E+03  0.11705816342E+04  0.11253821171E+04 0.  0.
        1    1    3    3  502    0  0.38703909842E+03 -0.60400968630E+02  0.25909989839E+03  0.46965976844E+03  0.50400001928E-02 0.  1.
       -1    1    3    3    0  502 -0.38703909842E+03  0.60400968630E+02 -0.58124342675E+03  0.70092186575E+03  0.50400001928E-02 0. -1.
</event>
<event>
 5   0  0.3962999E-03  0.1100122E+04  0.7818609E-02  0.9205073E-01
       -2   -1    0    0    0  501  0.00000000000E+00  0.00000000000E+00  0.15179548173E+03  0.15179548175E+03  0.25500000920E-02 0. -1.
        2   -1    0    0  501    0  0.00000000000E+00  0.00000000000E+00 -0.19932565095E+04  0.19932565095E+04  0.25500000920E-02 0.  1.
    10030    2    1    2    0    0  0.00000000000E+00  0.00000000000E+00 -0.18414610278E+04  0.21450519913E+04  0.11001224152E+04 0.  0.
        3    1    3    3  502    0  0.40619681495E+03 -0.36248438807E+03 -0.10739695325E+04  0.12040769706E+04  0.10100000352E+00 0.  1.
       -3    1    3    3    0  502 -0.40619681495E+03  0.36248438807E+03 -0.76749149523E+03  0.94097502067E+03  0.10100000352E+00 0. -1.
</event>
<event>
 5   0  0.2257667E-03  0.1098496E+04  0.7818609E-02  0.9206659E-01
       -1   -1    0    0    0  501  0.00000000000E+00  0.00000000000E+00  0.57320609076E+03  0.57320609078E+03  0.50400001928E-02 0.  1.
        1   -1    0    0  501    0  0.00000000000E+00  0.00000000000E+00 -0.52629082306E+03  0.52629082308E+03  0.50400001928E-02 0. -1.
    10030    2    1    2    0    0  0.00000000000E+00  0.00000000000E+00  0.46915267696E+02  0.10994969139E+04  0.10984955263E+04 0.  0.
        4    1    3    3  502    0  0.17970849933E+03  0.48383291309E+03 -0.16454878998E+03  0.54172626825E+03  0.12699999809E+01 0. -1.
       -4    1    3    3    0  502 -0.17970849933E+03 -0.48383291309E+03  0.21146405768E+03  0.55777064562E+03  0.12699999809E+01 0.  1.
</event>
<event>
 5   0  0.3748901E-03  0.1100647E+04  0.7818609E-02  0.9204561E-01
       -2   -1    0    0    0  501  0.00000000000E+00  0.00000000000E+00  0.25732253831E+03  0.25732253832E+03  0.25500000920E-02 0.  1.
        2   -1    0    0  501    0  0.00000000000E+00  0.00000000000E+00 -0.11769517025E+04  0.11769517025E+04  0.25500000920E-02 0. -1.
    10030    2    1    2    0    0  0.00000000000E+00  0.00000000000E+00 -0.91962916419E+03  0.14342742408E+04  0.11006474450E+04 0.  0.
        5    1    3    3  502    0  0.27884444424E+03 -0.30997595554E+03 -0.92784066626E+03  0.10172264787E+04  0.46999998093E+01 0. -1.
       -5    1    3    3    0  502 -0.27884444424E+03  0.30997595554E+03  0.82115020621E+01  0.41704776209E+03  0.46999998093E+01 0.  1.
</event>
<event>
 5   0  0.2255788E-03  0.1090309E+04  0.7818609E-02  0.9214689E-01
        1   -1    0    0  501    0  0.00000000000E+00  0.00000000000E+00  0.49607749568E+03  0.49607749571E+03  0.50400001928E-02 0.  1.
       -1   -1    0    0    0  501  0.00000000000E+00  0.00000000000E+00 -0.59908687741E+03  0.59908687743E+03  0.50400001928E-02 0. -1.
    10030    2    1    2    0    0  0.00000000000E+00  0.00000000000E+00 -0.10300938173E+03  0.10951643731E+04  0.10903091633E+04 0.  0.
        3    1    3    3  502    0 -0.50506352942E+03  0.46842439554E+02 -0.25216948693E+03  0.56645639129E+03  0.10100000352E+00 0. -1.
       -3    1    3    3    0  502  0.50506352942E+03 -0.46842439554E+02  0.14916010519E+03  0.52870798185E+03  0.10100000352E+00 0.  1.
</event>
<event>
 5   0  0.3744875E-03  0.1081209E+04  0.7818609E-02  0.9223703E-01
       -2   -1    0    0    0  501  0.00000000000E+00  0.00000000000E+00  0.31112893013E+03  0.31112893014E+03  0.25500000920E-02 0. -1.
        2   -1    0    0  501    0  0.00000000000E+00  0.00000000000E+00 -0.93933090033E+03  0.93933090033E+03  0.25500000920E-02 0.  1.
    10030    2    1    2    0    0  0.00000000000E+00  0.00000000000E+00 -0.62820197020E+03  0.12504598305E+04  0.10812086164E+04 0.  0.
        2    1    3    3  502    0 -0.88166132571E+02  0.47393309116E+03 -0.31121707137E+02  0.48306769970E+03  0.25500000920E-02 0. -1.
       -2    1    3    3    0  502  0.88166132571E+02 -0.47393309116E+03 -0.59708026306E+03  0.76739213078E+03  0.25500000920E-02 0.  1.
</event>
<event>
 5   0  0.2300702E-03  0.1099969E+04  0.7818609E-02  0.9205222E-01
       -1   -1    0    0    0  501  0.00000000000E+00  0.00000000000E+00  0.35228046827E+03  0.35228046830E+03  0.50400001928E-02 0.  1.
        1   -1    0    0  501    0  0.00000000000E+00  0.00000000000E+00 -0.85864281377E+03  0.85864281378E+03  0.50400001928E-02 0. -1.
    10030    2    1    2    0    0  0.00000000000E+00  0.00000000000E+00 -0.50636234550E+03  0.12109232821E+04  0.10999692587E+04 0.  0.
        5    1    3    3  502    0 -0.26329660437E+03  0.12096477416E+03 -0.76777574949E+03  0.82064564214E+03  0.46999998093E+01 0. -1.
       -5    1    3    3    0  502  0.26329660437E+03 -0.12096477416E+03  0.26141340399E+03  0.39027763995E+03  0.46999998093E+01 0.  1.
</event>
<event>
 5   0  0.2374100E-03  0.1085540E+04  0.7818609E-02  0.9219401E-01
       -1   -1    0    0    0  501  0.00000000000E+00  0.00000000000E+00  0.26128467701E+03  0.26128467706E+03  0.50400001928E-02 0. -1.
        1   -1    0    0  501    0  0.00000000000E+00  0.00000000000E+00 -0.11275039502E+04  0.11275039502E+04  0.50400001928E-02 0.  1.
    10030    2    1    2    0    0  0.00000000000E+00  0.00000000000E+00 -0.86621927317E+03  0.13887886273E+04  0.10855404285E+04 0.  0.
        2    1    3    3  502    0 -0.41976499008E+03  0.10177942300E+03 -0.12597988313E+02  0.43211156795E+03  0.25500000920E-02 0. -1.
       -2    1    3    3    0  502  0.41976499008E+03 -0.10177942300E+03 -0.85362128485E+03  0.95667705931E+03  0.25500000920E-02 0.  1.
</event>
<event>
 5   0  0.2300702E-03  0.1093761E+04  0.7818609E-02  0.9211294E-01
        1   -1    0    0  501    0  0.00000000000E+00  0.00000000000E+00  0.12924637131E+04  0.12924637131E+04  0.50400001928E-02 0. -1.
       -1   -1    0    0    0  501  0.00000000000E+00  0.00000000000E+00 -0.23140187583E+03  0.23140187588E+03  0.50400001928E-02 0.  1.
    10030    2    1    2    0    0  0.00000000000E+00  0.00000000000E+00  0.10610618373E+04  0.15238655890E+04  0.10937614506E+04 0.  0.
        5    1    3    3  502    0  0.44010054240E+03  0.32449099477E+03  0.51858280250E+03  0.75361336650E+03  0.46999998093E+01 0. -1.
       -5    1    3    3    0  502 -0.44010054240E+03 -0.32449099477E+03  0.54247903480E+03  0.77025222253E+03  0.46999998093E+01 0.  1.
</event>
<event>
 5   0  0.3748901E-03  0.1082139E+04  0.7818609E-02  0.9222778E-01
        2   -1    0    0  501    0  0.00000000000E+00  0.00000000000E+00  0.68241335086E+03  0.68241335087E+03  0.25500000920E-02 0.  1.
       -2   -1    0    0    0  501  0.00000000000E+00  0.00000000000E+00 -0.42900099628E+03  0.42900099629E+03  0.25500000920E-02 0. -1.
    10030    2    1    2    0    0  0.00000000000E+00  0.00000000000E+00  0.25341235458E+03  0.11114143472E+04  0.10821386370E+04 0.  0.
        5    1    3    3  502    0  0.15074772417E+03 -0.37625165428E+03 -0.24138004009E+03  0.47178024275E+03  0.46999998093E+01 0. -1.
       -5    1    3    3    0  502 -0.15074772417E+03  0.37625165428E+03  0.49479239468E+03  0.63963410441E+03  0.46999998093E+01 0.  1.
</event>
<event>
 5   0  0.2300702E-03  0.1109297E+04  0.7818609E-02  0.9196177E-01
        1   -1    0    0  501    0  0.00000000000E+00  0.00000000000E+00  0.32471817973E+03  0.32471817977E+03  0.50400001928E-02 0.  1.
       -1   -1    0    0    0  501  0.00000000000E+00  0.00000000000E+00 -0.94739090818E+03  0.94739090820E+03  0.50400001928E-02 0. -1.
    10030    2    1    2    0    0  0.00000000000E+00  0.00000000000E+00 -0.62267272845E+03  0.12721090880E+04  0.11092971671E+04 0.  0.
        5    1    3    3  502    0  0.44164103619E+02 -0.47986957227E+03  0.35302833094E+01  0.48193342625E+03  0.46999998093E+01 0.  1.
       -5    1    3    3    0  502 -0.44164103619E+02  0.47986957227E+03 -0.62620301176E+03  0.79017566172E+03  0.46999998093E+01 0. -1.
</event>
<event>
 5   0  0.3992414E-03  0.1085346E+04  0.7818609E-02  0.9219593E-01
       -2   -1    0    0    0  501  0.00000000000E+00  0.00000000000E+00  0.40893807567E+03  0.40893807568E+03  0.25500000920E-02 0. -1.
        2   -1    0    0  501    0  0.00000000000E+00  0.00000000000E+00 -0.72014339449E+03  0.72014339450E+03  0.25500000920E-02 0.  1.
    10030    2    1    2    0    0  0.00000000000E+00  0.00000000000E+00 -0.31120531882E+03  0.11290814702E+04  0.10853461272E+04 0.  0.
        1    1    3    3  502    0  0.46630792966E+03  0.22993920891E+01 -0.44435876079E+03  0.64412970804E+03  0.50400001928E-02 0.  1.
       -1    1    3    3    0  502 -0.46630792966E+03 -0.22993920891E+01  0.13315344197E+03  0.48495176214E+03  0.50400001928E-02 0. -1.
</event>
<event>
 5   0  0.3748901E-03  0.1126127E+04  0.7818609E-02  0.9180094E-01
        2   -1    0    0  501    0  0.00000000000E+00  0.00000000000E+00  0.12345323701E+04  0.12345323701E+04  0.25500000920E-02 0.  1.
       -2   -1    0    0    0  501  0.00000000000E+00  0.00000000000E+00 -0.25681030516E+03  0.25681030517E+03  0.25500000920E-02 0. -1.
    10030    2    1    2    0    0  0.00000000000E+00  0.00000000000E+00  0.97772206492E+03  0.14913426753E+04  0.11261272303E+04 0.  0.
        5    1    3    3  502    0  0.35171344137E+03  0.22296102663E+03 -0.12989202416E+02  0.41665906160E+03  0.46999998093E+01 0. -1.
       -5    1    3    3    0  502 -0.35171344137E+03 -0.22296102663E+03  0.99071126734E+03  0.10746836137E+04  0.46999998093E+01 0.  1.
</event>
<event>
 5   0  0.3748901E-03  0.1098106E+04  0.7818609E-02  0.9207040E-01
       -2   -1    0    0    0  501  0.00000000000E+00  0.00000000000E+00  0.31256830497E+03  0.31256830498E+03  0.25500000920E-02 0.  1.
        2   -1    0    0  501    0  0.00000000000E+00  0.00000000000E+00 -0.96445896123E+03  0.96445896123E+03  0.25500000920E-02 0. -1.
    10030    2    1    2    0    0  0.00000000000E+00  0.00000000000E+00 -0.65189065626E+03  0.12770272662E+04  0.10981061929E+04 0.  0.
        5    1    3    3  502    0  0.46087419381E+03  0.29542706341E+03 -0.27722621317E+03  0.61364373669E+03  0.46999998093E+01 0.  1.
       -5    1    3    3    0  502 -0.46087419381E+03 -0.29542706341E+03 -0.37466444309E+03  0.66338352952E+03  0.46999998093E+01 0. -1.
</event>
<event>
 5   0  0.2255788E-03  0.1106686E+04  0.7818609E-02  0.9198700E-01
        1   -1    0    0  501    0  0.00000000000E+00  0.00000000000E+00  0.20968144450E+03  0.20968144456E+03  0.50400001928E-02 0.  1.
       -1   -1    0    0    0  501  0.00000000000E+00  0.00000000000E+00 -0.14602541625E+04  0.14602541625E+04  0.50400001928E-02 0. -1.
    10030    2    1    2    0    0  0.00000000000E+00  0.00000000000E+00 -0.12505727180E+04  0.16699356070E+04  0.11066855058E+04 0.  0.
        3    1    3    3  502    0  0.29550030324E+03  0.90772551685E+02 -0.13178085029E+04  0.13535801956E+04  0.10100000352E+00 0. -1.
       -3    1    3    3    0  502 -0.29550030324E+03 -0.90772551685E+02  0.67235784968E+02  0.31635541142E+03  0.10100000352E+00 0.  1.
</event>
<event>
 5   0  0.2300702E-03  0.1095168E+04  0.7818609E-02  0.9209914E-01
        1   -1    0    0  501    0  0.00000000000E+00  0.00000000000E+00  0.43153789389E+03  0.43153789392E+03  0.50400001928E-02 0. -1.
       -1   -1    0    0    0  501  0.00000000000E+00  0.00000000000E+00 -0.69483684648E+03  0.69483684650E+03  0.50400001928E-02 0.  1.
    10030    2    1    2    0    0  0.00000000000E+00  0.00000000000E+00 -0.26329895259E+03  0.11263747404E+04  0.10951683512E+04 0.  0.
        5    1    3    3  502    0  0.49062144742E+03 -0.27983930939E+01 -0.38170082695E+03  0.62163883965E+03  0.46999998093E+01 0. -1.
       -5    1    3    3    0  502 -0.49062144742E+03  0.27983930939E+01  0.11840187436E+03  0.50473590077E+03  0.46999998093E+01 0.  1.
</event>
<event>
 5   0  0.3748901E-03  0.1101458E+04  0.7818609E-02  0.9203772E-01
        2   -1    0    0  501    0  0.00000000000E+00  0.00000000000E+00  0.11858839528E+04  0.11858839528E+04  0.25500000920E-02 0. -1.
       -2   -1    0    0    0  501  0.00000000000E+00  0.00000000000E+00 -0.25576049523E+03  0.25576049524E+03  0.25500000920E-02 0.  1.
    10030    2    1    2    0    0  0.00000000000E+00  0.00000000000E+00  0.93012345753E+03  0.14416444480E+04  0.11014577015E+04 0.  0.
        5    1    3    3  502    0 -0.20543230941E+02 -0.33205170054E+03 -0.10934336075E+03  0.35022623647E+03  0.46999998093E+01 0.  1.
       -5    1    3    3    0  502  0.20543230941E+02  0.33205170054E+03  0.10394668183E+04  0.10914182115E+04  0.46999998093E+01 0. -1.
</event>
<event>
 5   0  0.2374100E-03  0.1059766E+04  0.7818609E-02  0.9245319E-01
       -1   -1    0    0    0  501  0.00000000000E+00  0.00000000000E+00  0.44904531770E+03  0.44904531773E+03  0.50400001928E-02 0.  1.
        1   -1    0    0  501    0  0.00000000000E+00  0.00000000000E+00 -0.62527259063E+03  0.62527259065E+03  0.50400001928E-02 0. -1.
    10030    2    1    2    0    0  0.00000000000E+00  0.00000000000E+00 -0.17622727293E+03  0.10743179084E+04  0.10597655007E+04 0.  0.
        2    1    3    3  502    0  0.40470035720E+03  0.34159716431E+03 -0.10580978509E+03  0.54006176721E+03  0.25500000920E-02 0.  1.
       -2    1    3    3    0  502 -0.40470035720E+03 -0.34159716431E+03 -0.70417487844E+02  0.53425614117E+03  0.25500000920E-02 0. -1.
</event>
<event>
 5   0  0.3992414E-03  0.1134894E+04  0.7818609E-02  0.9171834E-01
        2   -1    0    0  501    0  0.00000000000E+00  0.00000000000E+00  0.64054765816E+03  0.64054765816E+03  0.25500000920E-02 0. -1.
       -2   -1    0    0    0  501  0.00000000000E+00  0.00000000000E+00 -0.50268842640E+03  0.50268842640E+03  0.25500000920E-02 0.  1.
    10030    2    1    2    0    0  0.00000000000E+00  0.00000000000E+00  0.13785923176E+03  0.11432360846E+04  0.11348936414E+04 0.  0.
        1    1    3    3  502    0 -0.50024297131E+03  0.26696509954E+03  0.46802274942E+02  0.56894977607E+03  0.50400001928E-02 0.  1.
       -1    1    3    3    0  502  0.50024297131E+03 -0.26696509954E+03  0.91056956820E+02  0.57428630850E+03  0.50400001928E-02 0. -1.
</event>
<event>
 5   0  0.2300702E-03  0.1108287E+04  0.7818609E-02  0.9197152E-01
       -1   -1    0    0    0  501  0.00000000000E+00  0.00000000000E+00  0.80185803664E+03  0.80185803666E+03  0.50400001928E-02 0. -1.
        1   -1    0    0  501    0  0.00000000000E+00  0.00000000000E+00 -0.38295453975E+03  0.38295453978E+03  0.50400001928E-02 0.  1.
    10030    2    1    2    0    0  0.00000000000E+00  0.00000000000E+00  0.41890349689E+03  0.11848125764E+04  0.11082872830E+04 0.  0.
        5    1    3    3  502    0 -0.45063701814E+03  0.24158961545E+03 -0.18869080419E+02  0.51168095197E+03  0.46999998093E+01 0.  1.
       -5    1    3    3    0  502  0.45063701814E+03 -0.24158961545E+03  0.43777257731E+03  0.67313162447E+03  0.46999998093E+01 0. -1.
</event>
<event>
 5   0  0.2298958E-03  0.1089235E+04  0.7818609E-02  0.9215748E-01
       -1   -1    0    0    0  501  0.00000000000E+00  0.00000000000E+00  0.39181041711E+03  0.39181041714E+03  0.50400001928E-02 0. -1.
        1   -1    0    0  501    0  0.00000000000E+00  0.00000000000E+00 -0.75701985056E+03  0.75701985058E+03  0.50400001928E-02 0.  1.
    10030    2    1    2    0    0  0.00000000000E+00  0.00000000000E+00 -0.36520943346E+03  0.11488302677E+04  0.10892350774E+04 0.  0.
        1    1    3    3  502    0  0.17120998851E+03 -0.51019639340E+03 -0.27081707998E+03  0.60245755937E+03  0.50400001928E-02 0.  1.
       -1    1    3    3    0  502 -0.17120998851E+03  0.51019639340E+03 -0.94392353479E+02  0.54637270835E+03  0.50400001928E-02 0. -1.
</event>
<event>
 5   0  0.2298958E-03  0.1133184E+04  0.7818609E-02  0.9173439E-01
        1   -1    0    0  501    0  0.00000000000E+00  0.00000000000E+00  0.57097172880E+03  0.57097172882E+03  0.50400001928E-02 0. -1.
       -1   -1    0    0    0  501  0.00000000000E+00  0.00000000000E+00 -0.56224577958E+03  0.56224577961E+03  0.50400001928E-02 0.  1.
    10030    2    1    2    0    0  0.00000000000E+00  0.00000000000E+00  0.87259492142E+01  0.11332175084E+04  0.11331839124E+04 0.  0.
        1    1    3    3  502    0  0.10439854374E+03 -0.38032909532E+02  0.55997002113E+03  0.57088701398E+03  0.50400001928E-02 0. -1.
       -1    1    3    3    0  502 -0.10439854374E+03  0.38032909532E+02 -0.55124407191E+03  0.56233049445E+03  0.50400001928E-02 0.  1.
</event>
<event>
 5   0  0.2257667E-03  0.1124150E+04  0.7818609E-02  0.9181969E-01
       -1   -1    0    0    0  501  0.00000000000E+00  0.00000000000E+00  0.38557565024E+03  0.38557565027E+03  0.50400001928E-02 0.  1.
        1   -1    0    0  501    0  0.00000000000E+00  0.00000000000E+00 -0.81936726179E+03  0.81936726181E+03  0.50400001928E-02 0. -1.
    10030    2    1    2    0    0  0.00000000000E+00  0.00000000000E+00 -0.43379161155E+03  0.12049429121E+04  0.11241495715E+04 0.  0.
        4    1    3    3  502    0  0.22930849117E+03 -0.51135214654E+03 -0.26316102519E+03  0.61912740205E+03  0.12699999809E+01 0.  1.
       -4    1    3    3    0  502 -0.22930849117E+03  0.51135214654E+03 -0.17063058636E+03  0.58581551003E+03  0.12699999809E+01 0. -1.
</event>
<event>
 5   0  0.3713158E-03  0.1124041E+04  0.7818609E-02  0.9182071E-01
        2   -1    0    0  501    0  0.00000000000E+00  0.00000000000E+00  0.54788295182E+03  0.54788295182E+03  0.25500000920E-02 0. -1.
       -2   -1    0    0    0  501  0.00000000000E+00  0.00000000000E+00 -0.57652328475E+03  0.57652328476E+03  0.25500000920E-02 0.  1.
    10030    2    1    2    0    0  0.00000000000E+00  0.00000000000E+00 -0.28640332934E+02  0.11244062366E+04  0.11240414210E+04 0.  0.
        4    1    3    3  502    0  0.50336924357E+02 -0.48532928611E+03 -0.29331451281E+03  0.56930952761E+03  0.12699999809E+01 0.  1.
       -4    1    3    3    0  502 -0.50336924357E+02  0.48532928611E+03  0.26467417988E+03  0.55509670896E+03  0.12699999809E+01 0. -1.
</event>
<event>
 5   0  0.3992414E-03  0.1104085E+04  0.7818609E-02  0.9201219E-01
        2   -1    0    0  501    0  0.00000000000E+00  0.00000000000E+00  0.16741891712E+04  0.16741891712E+04  0.25500000920E-02 0.  1.
       -2   -1    0    0    0  501  0.00000000000E+00  0.00000000000E+00 -0.18202897428E+03  0.18202897430E+03  0.25500000920E-02 0. -1.
    10030    2    1    2    0    0  0.00000000000E+00  0.00000000000E+00  0.14921601969E+04  0.18562181455E+04  0.11040850286E+04 0.  0.
        1    1    3    3  502    0  0.51230113761E+03  0.19910383682E+03  0.83272685537E+03  0.99776190001E+03  0.50400001928E-02 0.  1.
       -1    1    3    3    0  502 -0.51230113761E+03 -0.19910383682E+03  0.65943334150E+03  0.85845624545E+03  0.50400001928E-02 0. -1.
</event>
<event>
 5   0  0.2257667E-03  0.1078879E+04  0.7818609E-02  0.9226026E-01
        1   -1    0    0  501    0  0.00000000000E+00  0.00000000000E+00  0.34862821791E+03  0.34862821795E+03  0.50400001928E-02 0. -1.
       -1   -1    0    0    0  501  0.00000000000E+00  0.00000000000E+00 -0.83468542589E+03  0.83468542591E+03  0.50400001928E-02 0.  1.
    10030    2    1    2    0    0  0.00000000000E+00  0.00000000000E+00 -0.48605720798E+03  0.11833136439E+04  0.10788788488E+04 0.  0.
        4    1    3    3  502    0 -0.40080566850E+03  0.35624895197E+03 -0.17874848741E+03  0.56525315950E+03  0.12699999809E+01 0. -1.
       -4    1    3    3    0  502  0.40080566850E+03 -0.35624895197E+03 -0.30730872057E+03  0.61806048435E+03  0.12699999809E+01 0.  1.
</event>
<event>
 5   0  0.3748901E-03  0.1135910E+04  0.7818609E-02  0.9170881E-01
       -2   -1    0    0    0  501  0.00000000000E+00  0.00000000000E+00  0.11191330153E+04  0.11191330153E+04  0.25500000920E-02 0.  1.
        2   -1    0    0  501    0  0.00000000000E+00  0.00000000000E+00 -0.28823483561E+03  0.28823483562E+03  0.25500000920E-02 0. -1.
    10030    2    1    2    0    0  0.00000000000E+00  0.00000000000E+00  0.83089817964E+03  0.14073678509E+04  0.11359104202E+04 0.  0.
        5    1    3    3  502    0  0.43471247985E+03  0.29917664132E+03  0.67554423655E+03  0.85724191940E+03  0.46999998093E+01 0.  1.
       -5    1    3    3    0  502 -0.43471247985E+03 -0.29917664132E+03  0.15535394309E+03  0.55012593147E+03  0.46999998093E+01 0. -1.
</event>
<event>
 5   0  0.3962999E-03  0.1121922E+04  0.7818609E-02  0.9184085E-01
       -2   -1    0    0    0  501  0.00000000000E+00  0.00000000000E+00  0.43563088538E+03  0.43563088539E+03  0.25500000920E-02 0. -1.
        2   -1    0    0  501    0  0.00000000000E+00  0.00000000000E+00 -0.72234804153E+03  0.72234804153E+03  0.25500000920E-02 0.  1.
    10030    2    1    2    0    0  0.00000000000E+00  0.00000000000E+00 -0.28671715615E+03  0.11579789269E+04  0.11219217743E+04 0.  0.
        3    1    3    3  502    0  0.32651720949E+03 -0.45231924268E+03 -0.20416654205E+03  0.59404559798E+03  0.10100000352E+00 0.  1.
       -3    1    3    3    0  502 -0.32651720949E+03  0.45231924268E+03 -0.82550614104E+02  0.56393332893E+03  0.10100000352E+00 0. -1.
</event>
<event>
 5   0  0.3713158E-03  0.1104897E+04  0.7818609E-02  0.9200432E-01
        2   -1    0    0  501    0  0.00000000000E+00  0.00000000000E+00  0.52371603722E+03  0.52371603722E+03  0.25500000920E-02 0.  1.
       -2   -1    0    0    0  501  0.00000000000E+00  0.00000000000E+00 -0.58275764194E+03  0.58275764194E+03  0.25500000920E-02 0. -1.
    10030    2    1    2    0    0  0.00000000000E+00  0.00000000000E+00 -0.59041604721E+02  0.11064736792E+04  0.11048973217E+04 0.  0.
        4    1    3    3  502    0  0.74853722291E+02 -0.36214868337E+03 -0.44052462241E+03  0.57516806627E+03  0.12699999809E+01 0. -1.
       -4    1    3    3    0  502 -0.74853722291E+02  0.36214868337E+03  0.38148301769E+03  0.53130561290E+03  0.12699999809E+01 0.  1.
</event>
<event>
 5   0  0.3744875E-03  0.1085330E+04  0.7818609E-02  0.9219609E-01
       -2   -1    0    0    0  501  0.00000000000E+00  0.00000000000E+00  0.52212273917E+03  0.52212273917E+03  0.25500000920E-02 0.  1.
        2   -1    0    0  501    0  0.00000000000E+00  0.00000000000E+00 -0.56401585829E+03  0.56401585829E+03  0.25500000920E-02 0. -1.
    10030    2    1    2    0    0  0.00000000000E+00  0.00000000000E+00 -0.41893119123E+02  0.10861385975E+04  0.10853303734E+04 0.  0.
        2    1    3    3  502    0 -0.19071079131E+03 -0.11910557665E+03 -0.51520579686E+03  0.56213322037E+03  0.25500000920E-02 0. -1.
       -2    1    3    3    0  502  0.19071079131E+03  0.11910557665E+03  0.47331267774E+03  0.52400537710E+03  0.25500000920E-02 0.  1.
</event>
<event>
 5   0  0.3744875E-03  0.1096525E+04  0.7818609E-02  0.9208586E-01
       -2   -1    0    0    0  501  0.00000000000E+00  0.00000000000E+00  0.16744177049E+03  0.16744177051E+03  0.25500000920E-02 0. -1.
        2   -1    0    0  501    0  0.00000000000E+00  0.00000000000E+00 -0.17952015423E+04  0.17952015423E+04  0.25500000920E-02 0.  1.
    10030    2    1    2    0    0  0.00000000000E+00  0.00000000000E+00 -0.16277597718E+04  0.19626433128E+04  0.10965249193E+04 0.  0.
        2    1    3    3  502    0  0.52572289086E+03  0.80318850716E+02 -0.57537568151E+03  0.78351314643E+03  0.25500000920E-02 0.  1.
       -2    1    3    3    0  502 -0.52572289086E+03 -0.80318850716E+02 -0.10523840903E+04  0.11791301664E+04  0.25500000920E-02 0. -1.
</event>
<event>
 5   0  0.3744875E-03  0.1102772E+04  0.7818609E-02  0.9202494E-01
        2   -1    0    0  501    0  0.00000000000E+00  0.00000000000E+00  0.10292272726E+04  0.10292272726E+04  0.25500000920E-02 0. -1.
       -2   -1    0    0    0  501  0.00000000000E+00  0.00000000000E+00 -0.29539289278E+03  0.29539289279E+03  0.25500000920E-02 0.  1.
    10030    2    1    2    0    0  0.00000000000E+00  0.00000000000E+00  0.73383437981E+03  0.13246201654E+04  0.11027718193E+04 0.  0.
        2    1    3    3  502    0  0.20209613062E+03 -0.16159249051E+03 -0.21793392725E+03  0.33830485609E+03  0.25500000920E-02 0.  1.
       -2    1    3    3    0  502 -0.20209613062E+03  0.16159249051E+03  0.95176830707E+03  0.98631530929E+03  0.25500000920E-02 0. -1.
</event>
<event>
 5   0  0.3962999E-03  0.1076432E+04  0.7818609E-02  0.9228473E-01
       -2   -1    0    0    0  501  0.00000000000E+00  0.00000000000E+00  0.28951946033E+03  0.28951946034E+03  0.25500000920E-02 0.  1.
        2   -1    0    0  501    0  0.00000000000E+00  0.00000000000E+00 -0.10005415865E+04  0.10005415865E+04  0.25500000920E-02 0. -1.
    10030    2    1    2    0    0  0.00000000000E+00  0.00000000000E+00 -0.71102212613E+03  0.12900610468E+04  0.10764316238E+04 0.  0.
        3    1    3    3  502    0  0.38057275403E+03 -0.33850621932E+03 -0.14705409188E+03  0.53013865900E+03  0.10100000352E+00 0.  1.
       -3    1    3    3    0  502 -0.38057275403E+03  0.33850621932E+03 -0.56396803425E+03  0.75992238780E+03  0.10100000352E+00 0. -1.
</event>
<event>
 5   0  0.3713158E-03  0.1086718E+04  0.7818609E-02  0.9218235E-01
        2   -1    0    0  501    0  0.00000000000E+00  0.00000000000E+00  0.20907785952E+04  0.20907785952E+04  0.25500000920E-02 0.  1.
       -2   -1    0    0    0  501  0.00000000000E+00  0.00000000000E+00 -0.14121006478E+03  0.14121006481E+03  0.25500000920E-02 0. -1.
    10030    2    1    2    0    0  0.00000000000E+00  0.00000000000E+00  0.19495685304E+04  0.22319886600E+04  0.10867179596E+04 0.  0.
        4    1    3    3  502    0 -0.52928275372E+03  0.10770684867E+03  0.10962304268E+04  0.12220735494E+04  0.12699999809E+01 0. -1.
       -4    1    3    3    0  502  0.52928275372E+03 -0.10770684867E+03  0.85333810368E+03  0.10099151107E+04  0.12699999809E+01 0.  1.
</event>
<event>
 5   0  0.3992414E-03  0.9980350E+03  0.7818609E-02  0.9310703E-01
        2   -1    0    0  501    0  0.00000000000E+00  0.00000000000E+00  0.10742007057E+04  0.10742007057E+04  0.25500000920E-02 0.  1.
       -2   -1    0    0    0  501  0.00000000000E+00  0.00000000000E+00 -0.23181746084E+03  0.23181746086E+03  0.25500000920E-02 0. -1.
    10030    2    1    2    0    0  0.00000000000E+00  0.00000000000E+00  0.84238324481E+03  0.13060181665E+04  0.99803502951E+03 0.  0.
        1    1    3    3  502    0  0.19322900074E+03 -0.38710099619E+03  0.95792344758E+02  0.44312616862E+03  0.50400001928E-02 0. -1.
       -1    1    3    3    0  502 -0.19322900074E+03  0.38710099619E+03  0.74659090006E+03  0.86289199790E+03  0.50400001928E-02 0.  1.
</event>
<event>
 5   0  0.2298958E-03  0.1096923E+04  0.7818609E-02  0.9208196E-01
        1   -1    0    0  501    0  0.00000000000E+00  0.00000000000E+00  0.11452475573E+04  0.11452475573E+04  0.50400001928E-02 0.  1.
       -1   -1    0    0    0  501  0.00000000000E+00  0.00000000000E+00 -0.26265928214E+03  0.26265928219E+03  0.50400001928E-02 0. -1.
    10030    2    1    2    0    0  0.00000000000E+00  0.00000000000E+00  0.88258827518E+03  0.14079068395E+04  0.10969227891E+04 0.  0.
        1    1    3    3  502    0 -0.50351019439E+02 -0.44526719990E+03  0.35390003656E+02  0.44950034133E+03  0.50400001928E-02 0. -1.
       -1    1    3    3    0  502  0.50351019439E+02  0.44526719990E+03  0.84719827152E+03  0.95840649819E+03  0.50400001928E-02 0.  1.
</event>
<event>
 5   0  0.2255788E-03  0.1060842E+04  0.7818609E-02  0.9244221E-01
       -1   -1    0    0    0  501  0.00000000000E+00  0.00000000000E+00  0.43666576745E+03  0.43666576748E+03  0.50400001928E-02 0.  1.
        1   -1    0    0  501    0  0.00000000000E+00  0.00000000000E+00 -0.64430647539E+03  0.64430647541E+03  0.50400001928E-02 0. -1.
    10030    2    1    2    0    0  0.00000000000E+00  0.00000000000E+00 -0.20764070794E+03  0.10809722429E+04  0.10608422721E+04 0.  0.
        3    1    3    3  502    0 -0.43216360039E+03  0.20548572291E+03  0.12933764571E+03  0.49569950233E+03  0.10100000352E+00 0.  1.
       -3    1    3    3    0  502  0.43216360039E+03 -0.20548572291E+03 -0.33697835365E+03  0.58527274056E+03  0.10100000352E+00 0. -1.
</event>
<event>
 5   0  0.2298958E-03  0.1107485E+04  0.7818609E-02  0.9197927E-01
        1   -1    0    0  501    0  0.00000000000E+00  0.00000000000E+00  0.66498704819E+03  0.66498704821E+03  0.50400001928E-02 0. -1.
       -1   -1    0    0    0  501  0.00000000000E+00  0.00000000000E+00 -0.46110807311E+03  0.46110807314E+03  0.50400001928E-02 0.  1.
    10030    2    1    2    0    0  0.00000000000E+00  0.00000000000E+00  0.20387897509E+03  0.11260951213E+04  0.11074852531E+04 0.  0.
        1    1    3    3  502    0 -0.21073176248E+03 -0.46510594726E+03  0.31978117913E+03  0.60248769319E+03  0.50400001928E-02 0. -1.
       -1    1    3    3    0  502  0.21073176248E+03  0.46510594726E+03 -0.11590220404E+03  0.52360742816E+03  0.50400001928E-02 0.  1.
</event>
<event>
 5   0  0.3713158E-03  0.1099761E+04  0.7818609E-02  0.9205425E-01
       -2   -1    0    0    0  501  0.00000000000E+00  0.00000000000E+00  0.11783860357E+03  0.11783860360E+03  0.25500000920E-02 0. -1.
        2   -1    0    0  501    0  0.00000000000E+00  0.00000000000E+00 -0.25659537968E+04  0.25659537968E+04  0.25500000920E-02 0.  1.
    10030    2    1    2    0    0  0.00000000000E+00  0.00000000000E+00 -0.24481151932E+04  0.26837924004E+04  0.10997607236E+04 0.  0.
        4    1    3    3  502    0 -0.32286779456E+03 -0.16095951180E+03 -0.21134437147E+03  0.41811437844E+03  0.12699999809E+01 0. -1.
       -4    1    3    3    0  502  0.32286779456E+03  0.16095951180E+03 -0.22367708217E+04  0.22656780219E+04  0.12699999809E+01 0.  1.
</event>
<event>
 5   0  0.3744875E-03  0.1103705E+04  0.7818609E-02  0.9201588E-01
        2   -1    0    0  501    0  0.00000000000E+00  0.00000000000E+00  0.99173514704E+03  0.99173514705E+03  0.25500000920E-02 0. -1.
       -2   -1    0    0    0  501  0.00000000000E+00  0.00000000000E+00 -0.30707915104E+03  0.30707915105E+03  0.25500000920E-02 0.  1.
    10030    2    1    2    0    0  0.00000000000E+00  0.00000000000E+00  0.68465599601E+03  0.12988142981E+04  0.11037050095E+04 0.  0.
        2    1    3    3  502    0 -0.40331424562E+03 -0.24090957621E+03  0.68306811043E+03  0.82902463662E+03  0.25500000920E-02 0. -1.
       -2    1    3    3    0  502  0.40331424562E+03  0.24090957621E+03  0.15878855769E+01  0.46978966147E+03  0.25500000920E-02 0.  1.
</event>
<event>
 5   0  0.3744875E-03  0.1091412E+04  0.7818609E-02  0.9213603E-01
        2   -1    0    0  501    0  0.00000000000E+00  0.00000000000E+00  0.10112329809E+04  0.10112329809E+04  0.25500000920E-02 0.  1.
       -2   -1    0    0    0  501  0.00000000000E+00  0.00000000000E+00 -0.29448709508E+03  0.29448709509E+03  0.25500000920E-02 0. -1.
    10030    2    1    2    0    0  0.00000000000E+00  0.00000000000E+00  0.71674588585E+03  0.13057200760E+04  0.10914120450E+04 0.  0.
        2    1    3    3  502    0  0.24777142185E+03 -0.46574641881E+03  0.19137629921E+03  0.56119095861E+03  0.25500000920E-02 0. -1.
       -2    1    3    3    0  502 -0.24777142185E+03  0.46574641881E+03  0.52536958664E+03  0.74452911743E+03  0.25500000920E-02 0.  1.
</event>
<event>
 5   0  0.3992414E-03  0.1107534E+04  0.7818609E-02  0.9197880E-01
       -2   -1    0    0    0  501  0.00000000000E+00  0.00000000000E+00  0.29246507406E+03  0.29246507408E+03  0.25500000920E-02 0.  1.
        2   -1    0    0  501    0  0.00000000000E+00  0.00000000000E+00 -0.10485278986E+04  0.10485278986E+04  0.25500000920E-02 0. -1.
    10030    2    1    2    0    0  0.00000000000E+00  0.00000000000E+00 -0.75606282451E+03  0.13409929727E+04  0.11075338180E+04 0.  0.
        1    1    3    3  502    0 -0.15953927351E+03 -0.10093189112E+02  0.26392028611E+03  0.30855885939E+03  0.50400001928E-02 0.  1.
       -1    1    3    3    0  502  0.15953927351E+03  0.10093189112E+02 -0.10199831106E+04  0.10324341133E+04  0.50400001928E-02 0. -1.
</event>
<event>
 5   0  0.3748901E-03  0.1099731E+04  0.7818609E-02  0.9205454E-01
       -2   -1    0    0    0  501  0.00000000000E+00  0.00000000000E+00  0.61624108057E+03  0.61624108057E+03  0.25500000920E-02 0.  1.
        2   -1    0    0  501    0  0.00000000000E+00  0.00000000000E+00 -0.49063919172E+03  0.49063919172E+03  0.25500000920E-02 0. -1.
    10030    2    1    2    0    0  0.00000000000E+00  0.00000000000E+00  0.12560188885E+03  0.11068802723E+04  0.10997309229E+04 0.  0.
        5    1    3    3  502    0 -0.34238515123E+03  0.23355529498E+03  0.42647284598E+03  0.59470736161E+03  0.46999998093E+01 0.  1.
       -5    1    3    3    0  502  0.34238515123E+03 -0.23355529498E+03 -0.30087095713E+03  0.51217291069E+03  0.46999998093E+01 0. -1.
</event>
<event>
 5   0  0.2374100E-03  0.1099044E+04  0.7818609E-02  0.9206124E-01
        1   -1    0    0  501    0  0.00000000000E+00  0.00000000000E+00  0.54941541216E+03  0.54941541218E+03  0.50400001928E-02 0.  1.
       -1   -1    0    0    0  501  0.00000000000E+00  0.00000000000E+00 -0.54962878264E+03  0.54962878267E+03  0.50400001928E-02 0. -1.
    10030    2    1    2    0    0  0.00000000000E+00  0.00000000000E+00 -0.21337048525E+00  0.10990441948E+04  0.10990441741E+04 0.  0.
        2    1    3    3  502    0 -0.27374310475E+03  0.11995408590E+03  0.46103349091E+03  0.54943257081E+03  0.25500000920E-02 0.  1.
       -2    1    3    3    0  502  0.27374310475E+03 -0.11995408590E+03 -0.46124686139E+03  0.54961162404E+03  0.25500000920E-02 0. -1.
</event>
<event>
 5   0  0.2255788E-03  0.1108955E+04  0.7818609E-02  0.9196507E-01
        1   -1    0    0  501    0  0.00000000000E+00  0.00000000000E+00  0.66915362063E+03  0.66915362065E+03  0.50400001928E-02 0. -1.
       -1   -1    0    0    0  501  0.00000000000E+00  0.00000000000E+00 -0.45945419053E+03  0.45945419056E+03  0.50400001928E-02 0.  1.
    10030    2    1    2    0    0  0.00000000000E+00  0.00000000000E+00  0.20969943009E+03  0.11286078112E+04  0.11089552473E+04 0.  0.
        3    1    3    3  502    0 -0.29526966069E+03  0.44960227164E+03 -0.32142768848E+02  0.53885020458E+03  0.10100000352E+00 0. -1.
       -3    1    3    3    0  502  0.29526966069E+03 -0.44960227164E+03  0.24184219894E+03  0.58975760663E+03  0.10100000352E+00 0.  1.
</event>
<event>
 5   0  0.2298958E-03  0.1099263E+04  0.7818609E-02  0.9205910E-01
        1   -1    0    0  501    0  0.00000000000E+00  0.00000000000E+00  0.57634074001E+03  0.57634074003E+03  0.50400001928E-02 0. -1.
       -1   -1    0    0    0  501  0.00000000000E+00  0.00000000000E+00 -0.52416038711E+03  0.52416038713E+03  0.50400001928E-02 0.  1.
    10030    2    1    2    0    0  0.00000000000E+00  0.00000000000E+00  0.52180352906E+02  0.11005011272E+04  0.10992633632E+04 0.  0.
        1    1    3    3  502    0  0.88821888340E+02  0.52483871922E+03  0.16317491247E+03  0.55675044780E+03  0.50400001928E-02 0.  1.
       -1    1    3    3    0  502 -0.88821888340E+02 -0.52483871922E+03 -0.11099455956E+03  0.54375067937E+03  0.50400001928E-02 0. -1.
</event>
<event>
 5   0  0.2374100E-03  0.1010765E+04  0.7818609E-02  0.9296816E-01
       -1   -1    0    0    0  501  0.00000000000E+00  0.00000000000E+00  0.22665645325E+03  0.22665645331E+03  0.50400001928E-02 0.  1.
        1   -1    0    0  501    0  0.00000000000E+00  0.00000000000E+00 -0.11268657340E+04  0.11268657340E+04  0.50400001928E-02 0. -1.
    10030    2    1    2    0    0  0.00000000000E+00  0.00000000000E+00 -0.90020928072E+03  0.13535221873E+04  0.10107648403E+04 0.  0.
        2    1    3    3  502    0  0.42462389078E+03  0.85144905118E+02 -0.10127747478E+03  0.44476086877E+03  0.25500000920E-02 0.  1.
       -2    1    3    3    0  502 -0.42462389078E+03 -0.85144905118E+02 -0.79893180594E+03  0.90876131852E+03  0.25500000920E-02 0. -1.
</event>
<event>
 5   0  0.3962999E-03  0.1093184E+04  0.7818609E-02  0.9211861E-01
        2   -1    0    0  501    0  0.00000000000E+00  0.00000000000E+00  0.98377777459E+03  0.98377777459E+03  0.25500000920E-02 0. -1.
       -2   -1    0    0    0  501  0.00000000000E+00  0.00000000000E+00 -0.30368909845E+03  0.30368909846E+03  0.25500000920E-02 0.  1.
    10030    2    1    2    0    0  0.00000000000E+00  0.00000000000E+00  0.68008867614E+03  0.12874668730E+04  0.10931835810E+04 0.  0.
        3    1    3    3  502    0  0.22729419360E+02  0.43448263734E+03 -0.49621275233E+02  0.43789732793E+03  0.10100000352E+00 0.  1.
       -3    1    3    3    0  502 -0.22729419360E+02 -0.43448263734E+03  0.72970995137E+03  0.84956954511E+03  0.10100000352E+00 0. -1.
</event>
<event>
 5   0  0.2374100E-03  0.1102730E+04  0.7818609E-02  0.9202536E-01
        1   -1    0    0  501    0  0.00000000000E+00  0.00000000000E+00  0.13869350359E+04  0.13869350359E+04  0.50400001928E-02 0. -1.
       -1   -1    0    0    0  501  0.00000000000E+00  0.00000000000E+00 -0.21919059390E+03  0.21919059396E+03  0.50400001928E-02 0.  1.
    10030    2    1    2    0    0  0.00000000000E+00  0.00000000000E+00  0.11677444420E+04  0.16061256299E+04  0.11027295485E+04 0.  0.
        2    1    3    3  502    0 -0.45583219042E+03  0.18722236982E+02  0.10348456687E+04  0.11309460933E+04  0.25500000920E-02 0.  1.
       -2    1    3    3    0  502  0.45583219042E+03 -0.18722236982E+02  0.13289877328E+03  0.47517953652E+03  0.25500000920E-02 0. -1.
</event>
<event>
 5   0  0.3748901E-03  0.1092288E+04  0.7818609E-02  0.9212741E-01
        2   -1    0    0  501    0  0.00000000000E+00  0.00000000000E+00  0.15814889538E+04  0.15814889539E+04  0.25500000920E-02 0.  1.
       -2   -1    0    0    0  501  0.00000000000E+00  0.00000000000E+00 -0.18860278572E+03  0.18860278574E+03  0.25500000920E-02 0. -1.
    10030    2    1    2    0    0  0.00000000000E+00  0.00000000000E+00  0.13928861681E+04  0.17700917396E+04  0.10922879150E+04 0.  0.
        5    1    3    3  502    0  0.50614184609E+02  0.26209150069E+03  0.14685351165E+04  0.14926055168E+04  0.46999998093E+01 0.  1.
       -5    1    3    3    0  502 -0.50614184609E+02 -0.26209150069E+03 -0.75648948408E+02  0.27748622274E+03  0.46999998093E+01 0. -1.
</event>
<event>
 5   0  0.3713158E-03  0.1087777E+04  0.7818609E-02  0.9217187E-01
        2   -1    0    0  501    0  0.00000000000E+00  0.00000000000E+00  0.59543654697E+03  0.59543654698E+03  0.25500000920E-02 0.  1.
       -2   -1    0    0    0  501  0.00000000000E+00  0.00000000000E+00 -0.49680345158E+03  0.49680345159E+03  0.25500000920E-02 0. -1.
    10030    2    1    2    0    0  0.00000000000E+00  0.00000000000E+00  0.98633095390E+02  0.10922399986E+04  0.10877774253E+04 0.  0.
        4    1    3    3  502    0 -0.26379883999E+03 -0.31390783054E+03  0.40811337639E+03  0.57852060892E+03  0.12699999809E+01 0.  1.
       -4    1    3    3    0  502  0.26379883999E+03  0.31390783054E+03 -0.30948028100E+03  0.51371938964E+03  0.12699999809E+01 0. -1.
</event>
<event>
 5   0  0.2300702E-03  0.1102331E+04  0.7818609E-02  0.9202922E-01
       -1   -1    0    0    0  501  0.00000000000E+00  0.00000000000E+00  0.28045886379E+03  0.28045886383E+03  0.50400001928E-02 0. -1.
        1   -1    0    0  501    0  0.00000000000E+00  0.00000000000E+00 -0.10831666324E+04  0.10831666324E+04  0.50400001928E-02 0.  1.
    10030    2    1    2    0    0  0.00000000000E+00  0.00000000000E+00 -0.80270776858E+03  0.13636254962E+04  0.11023314983E+04 0.  0.
        5    1    3    3  502    0 -0.36323206975E+03 -0.40310521313E+03 -0.28186448186E+03  0.61147446838E+03  0.46999998093E+01 0. -1.
       -5    1    3    3    0  502  0.36323206975E+03  0.40310521313E+03 -0.52084328672E+03  0.75215102783E+03  0.46999998093E+01 0.  1.
</event>
<event>
 5   0  0.2255788E-03  0.1108329E+04  0.7818609E-02  0.9197111E-01
       -1   -1    0    0    0  501  0.00000000000E+00  0.00000000000E+00  0.16149049671E+03  0.16149049679E+03  0.50400001928E-02 0. -1.
        1   -1    0    0  501    0  0.00000000000E+00  0.00000000000E+00 -0.19016502868E+04  0.19016502868E+04  0.50400001928E-02 0.  1.
    10030    2    1    2    0    0  0.00000000000E+00  0.00000000000E+00 -0.17401597901E+04  0.20631407836E+04  0.11083292822E+04 0.  0.
        3    1    3    3  502    0 -0.55132991018E+03  0.54985289360E+02 -0.85052210646E+03  0.10150743400E+04  0.10100000352E+00 0.  1.
       -3    1    3    3    0  502  0.55132991018E+03 -0.54985289360E+02 -0.88963768361E+03  0.10480664436E+04  0.10100000352E+00 0. -1.
</event>
<event>
 5   0  0.2257667E-03  0.1095135E+04  0.7818609E-02  0.9209947E-01
       -1   -1    0    0    0  501  0.00000000000E+00  0.00000000000E+00  0.24888223217E+03  0.24888223222E+03  0.50400001928E-02 0. -1.
        1   -1    0    0  501    0  0.00000000000E+00  0.00000000000E+00 -0.12047069863E+04  0.12047069863E+04  0.50400001928E-02 0.  1.
    10030    2    1    2    0    0  0.00000000000E+00  0.00000000000E+00 -0.95582475417E+03  0.14535892186E+04  0.10951349943E+04 0.  0.
        4    1    3    3  502    0 -0.51704275061E+03 -0.11565563608E+03 -0.66144276113E+03  0.84747718038E+03  0.12699999809E+01 0.  1.
       -4    1    3    3    0  502  0.51704275061E+03  0.11565563608E+03 -0.29438199304E+03  0.60611203819E+03  0.12699999809E+01 0. -1.
</event>
<event>
 5   0  0.2300702E-03  0.1099322E+04  0.7818609E-02  0.9205853E-01
       -1   -1    0    0    0  501  0.00000000000E+00  0.00000000000E+00  0.24047424492E+03  0.24047424498E+03  0.50400001928E-02 0. -1.
        1   -1    0    0  501    0  0.00000000000E+00  0.00000000000E+00 -0.12563802162E+04  0.12563802162E+04  0.50400001928E-02 0.  1.
    10030    2    1    2    0    0  0.00000000000E+00  0.00000000000E+00 -0.10159059713E+04  0.14968544612E+04  0.10993217616E+04 0.  0.
        5    1    3    3  502    0  0.33003031466E+03 -0.95855013021E+02 -0.10920162454E+04  0.11448273941E+04  0.46999998093E+01 0.  1.
       -5    1    3    3    0  502 -0.33003031466E+03  0.95855013021E+02  0.76110274126E+02  0.35202706706E+03  0.46999998093E+01 0. -1.
</event>
<event>
 5   0  0.3744875E-03  0.1101613E+04  0.7818609E-02  0.9203621E-01
        2   -1    0    0  501    0  0.00000000000E+00  0.00000000000E+00  0.21535036244E+04  0.21535036244E+04  0.25500000920E-02 0. -1.
       -2   -1    0    0    0  501  0.00000000000E+00  0.00000000000E+00 -0.14088101075E+03  0.14088101077E+03  0.25500000920E-02 0.  1.
    10030    2    1    2    0    0  0.00000000000E+00  0.00000000000E+00  0.20126226137E+04  0.22943846352E+04  0.11016129398E+04 0.  0.
        2    1    3    3  502    0  0.23788238678E+03  0.44954252329E+03  0.56591300334E+03  0.76087715010E+03  0.25500000920E-02 0. -1.
       -2    1    3    3    0  502 -0.23788238678E+03 -0.44954252329E+03  0.14467096103E+04  0.15335074851E+04  0.25500000920E-02 0.  1.
</event>
<event>
 5   0  0.2374100E-03  0.1102849E+04  0.7818609E-02  0.9202420E-01
        1   -1    0    0  501    0  0.00000000000E+00  0.00000000000E+00  0.60774089156E+03  0.60774089158E+03  0.50400001928E-02 0. -1.
       -1   -1    0    0    0  501  0.00000000000E+00  0.00000000000E+00 -0.50032639009E+03  0.50032639012E+03  0.50400001928E-02 0.  1.
    10030    2    1    2    0    0  0.00000000000E+00  0.00000000000E+00  0.10741450147E+03  0.11080672817E+04  0.11028486867E+04 0.  0.
        2    1    3    3  502    0  0.13150486402E+03  0.26297995249E+03 -0.41499434570E+03  0.50859835985E+03  0.25500000920E-02 0.  1.
       -2    1    3    3    0  502 -0.13150486402E+03 -0.26297995249E+03  0.52240884716E+03  0.59946892186E+03  0.25500000920E-02 0. -1.
</event>
<event>
 5   0  0.3748901E-03  0.1105648E+04  0.7818609E-02  0.9199705E-01
        2   -1    0    0  501    0  0.00000000000E+00  0.00000000000E+00  0.19686636262E+04  0.19686636262E+04  0.25500000920E-02 0. -1.
       -2   -1    0    0    0  501  0.00000000000E+00  0.00000000000E+00 -0.15523946876E+03  0.15523946878E+03  0.25500000920E-02 0.  1.
    10030    2    1    2    0    0  0.00000000000E+00  0.00000000000E+00  0.18134241574E+04  0.21239030950E+04  0.11056478563E+04 0.  0.
        5    1    3    3  502    0 -0.28585825326E+03 -0.29060293566E+03  0.16239968658E+04  0.16743813536E+04  0.46999998093E+01 0. -1.
       -5    1    3    3    0  502  0.28585825326E+03  0.29060293566E+03  0.18942729166E+03  0.44952174141E+03  0.46999998093E+01 0.  1.
</event>
<event>
 5   0  0.2298958E-03  0.1084130E+04  0.7818609E-02  0.9220800E-01
       -1   -1    0    0    0  501  0.00000000000E+00  0.00000000000E+00  0.12243701063E+03  0.12243701073E+03  0.50400001928E-02 0. -1.
        1   -1    0    0  501    0  0.00000000000E+00  0.00000000000E+00 -0.23998808374E+04  0.23998808374E+04  0.50400001928E-02 0.  1.
    10030    2    1    2    0    0  0.00000000000E+00  0.00000000000E+00 -0.22774438268E+04  0.25223178482E+04  0.10841295785E+04 0.  0.
        1    1    3    3  502    0  0.17017916040E+03 -0.30942058825E+03 -0.18189858812E+03  0.39722681613E+03  0.50400001928E-02 0. -1.
       -1    1    3    3    0  502 -0.17017916040E+03  0.30942058825E+03 -0.20955452387E+04  0.21250910320E+04  0.50400001928E-02 0.  1.
</event>
<event>
 5   0  0.3962999E-03  0.1099598E+04  0.7818609E-02  0.9205584E-01
        2   -1    0    0  501    0  0.00000000000E+00  0.00000000000E+00  0.91571514881E+03  0.91571514881E+03  0.25500000920E-02 0. -1.
       -2   -1    0    0    0  501  0.00000000000E+00  0.00000000000E+00 -0.33010162047E+03  0.33010162048E+03  0.25500000920E-02 0.  1.
    10030    2    1    2    0    0  0.00000000000E+00  0.00000000000E+00  0.58561352834E+03  0.12458167693E+04  0.10995982076E+04 0.  0.
        3    1    3    3  502    0  0.50069023112E+02 -0.74593679510E+02 -0.32172923563E+03  0.33403717661E+03  0.10100000352E+00 0.  1.
       -3    1    3    3    0  502 -0.50069023112E+02  0.74593679510E+02  0.90734276397E+03  0.91177959268E+03  0.10100000352E+00 0. -1.
</event>
<event>
 5   0  0.3748901E-03  0.1103243E+04  0.7818609E-02  0.9202036E-01
       -2   -1    0    0    0  501  0.00000000000E+00  0.00000000000E+00  0.69045103769E+03  0.69045103770E+03  0.25500000920E-02 0. -1.
        2   -1    0    0  501    0  0.00000000000E+00  0.00000000000E+00 -0.44070676147E+03  0.44070676148E+03  0.25500000920E-02 0.  1.
    10030    2    1    2    0    0  0.00000000000E+00  0.00000000000E+00  0.24974427623E+03  0.11311577992E+04  0.11032432928E+04 0.  0.
        5    1    3    3  502    0 -0.35471688263E+03 -0.42152106603E+03  0.96601395813E+02  0.55933710372E+03  0.46999998093E+01 0. -1.
       -5    1    3    3    0  502  0.35471688263E+03  0.42152106603E+03  0.15314288041E+03  0.57182069545E+03  0.46999998093E+01 0.  1.
</event>
<event>
 5   0  0.3748901E-03  0.1090633E+04  0.7818609E-02  0.9214370E-01
       -2   -1    0    0    0  501  0.00000000000E+00  0.00000000000E+00  0.22323738000E+03  0.22323738002E+03  0.25500000920E-02 0.  1.
        2   -1    0    0  501    0  0.00000000000E+00  0.00000000000E+00 -0.13320806197E+04  0.13320806197E+04  0.25500000920E-02 0. -1.
    10030    2    1    2    0    0  0.00000000000E+00  0.00000000000E+00 -0.11088432397E+04  0.15553179997E+04  0.10906331877E+04 0.  0.
        5    1    3    3  502    0 -0.19119947509E+03 -0.16104620183E+03  0.13667755608E+03  0.28494905287E+03  0.46999998093E+01 0.  1.
       -5    1    3    3    0  502  0.19119947509E+03  0.16104620183E+03 -0.12455207958E+04  0.12703689468E+04  0.46999998093E+01 0. -1.
</event>
<event>
 5   0  0.3962999E-03  0.1097476E+04  0.7818609E-02  0.9207655E-01
       -2   -1    0    0    0  501  0.00000000000E+00  0.00000000000E+00  0.68721212696E+03  0.68721212697E+03  0.25500000920E-02 0. -1.
        2   -1    0    0  501    0  0.00000000000E+00  0.00000000000E+00 -0.43816653966E+03  0.43816653966E+03  0.25500000920E-02 0.  1.
    10030    2    1    2    0    0  0.00000000000E+00  0.00000000000E+00  0.24904558731E+03  0.11253786666E+04  0.10974759399E+04 0.  0.
        3    1    3    3  502    0  0.33898299782E+03  0.37502864790E+03 -0.94345618629E+02  0.51425389208E+03  0.10100000352E+00 0.  1.
       -3    1    3    3    0  502 -0.33898299782E+03 -0.37502864790E+03  0.34339120594E+03  0.61112477456E+03  0.10100000352E+00 0. -1.
</event>
<event>
 5   0  0.2298958E-03  0.1106037E+04  0.7818609E-02  0.9199327E-01
       -1   -1    0    0    0  501  0.00000000000E+00  0.00000000000E+00  0.22352025597E+03  0.22352025603E+03  0.50400001928E-02 0. -1.
        1   -1    0    0  501    0  0.00000000000E+00  0.00000000000E+00 -0.13682416132E+04  0.13682416132E+04  0.50400001928E-02 0.  1.
    10030    2    1    2    0    0  0.00000000000E+00  0.00000000000E+00 -0.11447213572E+04  0.15917618692E+04  0.11060374599E+04 0.  0.
        1    1    3    3  502    0  0.51751198580E+03 -0.14046963117E+03 -0.76693635595E+03  0.93581074306E+03  0.50400001928E-02 0.  1.
       -1    1    3    3    0  502 -0.51751198580E+03  0.14046963117E+03 -0.37778500128E+03  0.65595112618E+03  0.50400001928E-02 0. -1.
</event>
<event>
 5   0  0.2374100E-03  0.1098067E+04  0.7818609E-02  0.9207077E-01
       -1   -1    0    0    0  501  0.00000000000E+00  0.00000000000E+00  0.33935924536E+03  0.33935924539E+03  0.50400001928E-02 0. -1.
        1   -1    0    0  501    0  0.00000000000E+00  0.00000000000E+00 -0.88825645354E+03  0.88825645356E+03  0.50400001928E-02 0.  1.
    10030    2    1    2    0    0  0.00000000000E+00  0.00000000000E+00 -0.54889720819E+03  0.12276156990E+04  0.10980674657E+04 0.  0.
        2    1    3    3  502    0 -0.12258843210E+03 -0.21665012034E+03  0.27264488101E+03  0.36918888049E+03  0.25500000920E-02 0. -1.
       -2    1    3    3    0  502  0.12258843210E+03  0.21665012034E+03 -0.82154208920E+03  0.85842681846E+03  0.25500000920E-02 0.  1.
</event>
<event>
 5   0  0.2300702E-03  0.1100632E+04  0.7818609E-02  0.9204576E-01
       -1   -1    0    0    0  501  0.00000000000E+00  0.00000000000E+00  0.32401050732E+03  0.32401050736E+03  0.50400001928E-02 0.  1.
        1   -1    0    0  501    0  0.00000000000E+00  0.00000000000E+00 -0.93468422969E+03  0.93468422971E+03  0.50400001928E-02 0. -1.
    10030    2    1    2    0    0  0.00000000000E+00  0.00000000000E+00 -0.61067372237E+03  0.12586947371E+04  0.11006316577E+04 0.  0.
        5    1    3    3  502    0  0.97659709767E+02 -0.44984801074E+03 -0.65017835763E+03  0.79665214392E+03  0.46999998093E+01 0. -1.
       -5    1    3    3    0  502 -0.97659709767E+02  0.44984801074E+03  0.39504635260E+02  0.46204259315E+03  0.46999998093E+01 0.  1.
</event>
<event>
 5   0  0.3744875E-03  0.1081035E+04  0.7818609E-02  0.9223876E-01
       -2   -1    0    0    0  501  0.00000000000E+00  0.00000000000E+00  0.20070374065E+03  0.20070374067E+03  0.25500000920E-02 0. -1.
        2   -1    0    0  501    0  0.00000000000E+00  0.00000000000E+00 -0.14556741977E+04  0.14556741977E+04  0.25500000920E-02 0.  1.
    10030    2    1    2    0    0  0.00000000000E+00  0.00000000000E+00 -0.12549704571E+04  0.16563779384E+04  0.10810351644E+04 0.  0.
        2    1    3    3  502    0 -0.48532632138E+03 -0.12009717397E+03 -0.94222124503E+03  0.10666516976E+04  0.25500000920E-02 0.  1.
       -2    1    3    3    0  502  0.48532632138E+03  0.12009717397E+03 -0.31274921203E+03  0.58972624077E+03  0.25500000920E-02 0. -1.
</event>
<event>
 5   0  0.2255788E-03  0.1161059E+04  0.7818609E-02  0.9147642E-01
       -1   -1    0    0    0  501  0.00000000000E+00  0.00000000000E+00  0.40305884789E+03  0.40305884792E+03  0.50400001928E-02 0. -1.
        1   -1    0    0  501    0  0.00000000000E+00  0.00000000000E+00 -0.83614178346E+03  0.83614178347E+03  0.50400001928E-02 0.  1.
    10030    2    1    2    0    0  0.00000000000E+00  0.00000000000E+00 -0.43308293557E+03  0.12392006314E+04  0.11610587305E+04 0.  0.
        3    1    3    3  502    0 -0.16007443867E+03  0.31067489253E+03 -0.71128140042E+03  0.79250486153E+03  0.10100000352E+00 0.  1.
       -3    1    3    3    0  502  0.16007443867E+03 -0.31067489253E+03  0.27819846485E+03  0.44669576986E+03  0.10100000352E+00 0. -1.
</event>
<event>
 5   0  0.2257667E-03  0.1102344E+04  0.7818609E-02  0.9202910E-01
       -1   -1    0    0    0  501  0.00000000000E+00  0.00000000000E+00  0.52009054394E+03  0.52009054396E+03  0.50400001928E-02 0.  1.
        1   -1    0    0  501    0  0.00000000000E+00  0.00000000000E+00 -0.58411129412E+03  0.58411129414E+03  0.50400001928E-02 0. -1.
    10030    2    1    2    0    0  0.00000000000E+00  0.00000000000E+00 -0.64020750176E+02  0.11042018381E+04  0.11023443395E+04 0.  0.
        4    1    3    3  502    0 -0.24963416665E+03 -0.17049427026E+03 -0.49365965370E+03  0.57886697949E+03  0.12699999809E+01 0. -1.
       -4    1    3    3    0  502  0.24963416665E+03  0.17049427026E+03  0.42963890353E+03  0.52533485861E+03  0.12699999809E+01 0.  1.
</event>
<event>
 5   0  0.3713158E-03  0.1097906E+04  0.7818609E-02  0.9207235E-01
       -2   -1    0    0    0  501  0.00000000000E+00  0.00000000000E+00  0.29430476313E+03  0.29430476314E+03  0.25500000920E-02 0.  1.
        2   -1    0    0  501    0  0.00000000000E+00  0.00000000000E+00 -0.10239360091E+04  0.10239360091E+04  0.25500000920E-02 0. -1.
    10030    2    1    2    0    0  0.00000000000E+00  0.00000000000E+00 -0.72963124597E+03  0.13182407722E+04  0.10979057239E+04 0.  0.
        4    1    3    3  502    0 -0.21228688943E+03 -0.47355342809E+03 -0.57969848550E+03  0.77805560192E+03  0.12699999809E+01 0.  1.
       -4    1    3    3    0  502  0.21228688943E+03  0.47355342809E+03 -0.14993276047E+03  0.54018517033E+03  0.12699999809E+01 0. -1.
</event>
<event>
 5   0  0.1508625E-03  0.1097807E+04  0.7818609E-02  0.9207332E-01
       -3   -1    0    0    0  501  0.00000000000E+00  0.00000000000E+00  0.56728718284E+03  0.56728719183E+03  0.10100000352E+00 0. -1.
        3   -1    0    0  501    0  0.00000000000E+00  0.00000000000E+00 -0.53111523656E+03  0.53111524616E+03  0.10100000352E+00 0.  1.
    10030    2    1    2    0    0  0.00000000000E+00  0.00000000000E+00  0.36171946282E+02  0.10984024380E+04  0.10978066798E+04 0.  0.
        3    1    3    3  502    0  0.51169002577E+03  0.90892904392E+02  0.19483591930E+03  0.55502184479E+03  0.10100000352E+00 0.  1.
       -3    1    3    3    0  502 -0.51169002577E+03 -0.90892904392E+02 -0.15866397302E+03  0.54338059321E+03  0.10100000352E+00 0. -1.
</event>
<event>
 5   0  0.2257667E-03  0.1099895E+04  0.7818609E-02  0.9205294E-01
        1   -1    0    0  501    0  0.00000000000E+00  0.00000000000E+00  0.11476805499E+04  0.11476805499E+04  0.50400001928E-02 0. -1.
       -1   -1    0    0    0  501  0.00000000000E+00  0.00000000000E+00 -0.26352481377E+03  0.26352481381E+03  0.50400001928E-02 0.  1.
    10030    2    1    2    0    0  0.00000000000E+00  0.00000000000E+00  0.88415573609E+03  0.14112053637E+04  0.10998950917E+04 0.  0.
        4    1    3    3  502    0  0.12292998917E+03 -0.12184780538E+03  0.11118204003E+04  0.11252132621E+04  0.12699999809E+01 0. -1.
       -4    1    3    3    0  502 -0.12292998917E+03  0.12184780538E+03 -0.22766466420E+03  0.28599210153E+03  0.12699999809E+01 0.  1.
</event>
<event>
 5   0  0.2257667E-03  0.1095041E+04  0.7818609E-02  0.9210039E-01
        1   -1    0    0  501    0  0.00000000000E+00  0.00000000000E+00  0.78295577732E+03  0.78295577733E+03  0.50400001928E-02 0. -1.
       -1   -1    0    0    0  501  0.00000000000E+00  0.00000000000E+00 -0.38288080445E+03  0.38288080449E+03  0.50400001928E-02 0.  1.
    10030    2    1    2    0    0  0.00000000000E+00  0.00000000000E+00  0.40007497286E+03  0.11658365818E+04  0.10950410730E+04 0.  0.
        4    1    3    3  502    0  0.32115469450E+03  0.17692141570E+03 -0.23286537573E+03  0.43436093430E+03  0.12699999809E+01 0.  1.
       -4    1    3    3    0  502 -0.32115469450E+03 -0.17692141570E+03  0.63294034860E+03  0.73147564752E+03  0.12699999809E+01 0. -1.
</event>
<event>
 5   0  0.2298958E-03  0.1095959E+04  0.7818609E-02  0.9209139E-01
       -1   -1    0    0    0  501  0.00000000000E+00  0.00000000000E+00  0.43303312617E+03  0.43303312620E+03  0.50400001928E-02 0. -1.
        1   -1    0    0  501    0  0.00000000000E+00  0.00000000000E+00 -0.69343827741E+03  0.69343827743E+03  0.50400001928E-02 0.  1.
    10030    2    1    2    0    0  0.00000000000E+00  0.00000000000E+00 -0.26040515124E+03  0.11264714036E+04  0.10959593881E+04 0.  0.
        1    1    3    3  502    0 -0.43113230811E+03  0.28686487877E+03 -0.31439898331E+03  0.60581618211E+03  0.50400001928E-02 0.  1.
       -1    1    3    3    0  502  0.43113230811E+03 -0.28686487877E+03  0.53993832070E+02  0.52065522152E+03  0.50400001928E-02 0. -1.
</event>
<event>
 5   0  0.3992414E-03  0.1089970E+04  0.7818609E-02  0.9215024E-01
        2   -1    0    0  501    0  0.00000000000E+00  0.00000000000E+00  0.61501256457E+03  0.61501256458E+03  0.25500000920E-02 0. -1.
       -2   -1    0    0    0  501  0.00000000000E+00  0.00000000000E+00 -0.48293080232E+03  0.48293080233E+03  0.25500000920E-02 0.  1.
    10030    2    1    2    0    0  0.00000000000E+00  0.00000000000E+00  0.13208176225E+03  0.10979433669E+04  0.10899697450E+04 0.  0.
        1    1    3    3  502    0 -0.22533196614E+03 -0.17774986408E+02  0.56556988979E+03  0.60906464794E+03  0.50400001928E-02 0. -1.
       -1    1    3    3    0  502  0.22533196614E+03  0.17774986408E+02 -0.43348812754E+03  0.48887871896E+03  0.50400001928E-02 0.  1.
</event>
<event>
 5   0  0.2255788E-03  0.9994497E+03  0.7818609E-02  0.9309149E-01
        1   -1    0    0  501    0  0.00000000000E+00  0.00000000000E+00  0.51968842277E+03  0.51968842280E+03  0.50400001928E-02 0. -1.
       -1   -1    0    0    0  501  0.00000000000E+00  0.00000000000E+00 -0.48052812235E+03  0.48052812238E+03  0.50400001928E-02 0.  1.
    10030    2    1    2    0    0  0.00000000000E+00  0.00000000000E+00  0.39160300418E+02  0.10002165452E+04  0.99944965262E+03 0.  0.
        3    1    3    3  502    0 -0.43865072362E+03 -0.44296832750E+01 -0.21995850287E+03  0.49072989781E+03  0.10100000352E+00 0.  1.
       -3    1    3    3    0  502  0.43865072362E+03  0.44296832750E+01  0.25911880328E+03  0.50948664736E+03  0.10100000352E+00 0. -1.
</event>
<event>
 5   0  0.3744875E-03  0.1108161E+04  0.7818609E-02  0.9197274E-01
       -2   -1    0    0    0  501  0.00000000000E+00  0.00000000000E+00  0.22566539096E+03  0.22566539097E+03  0.25500000920E-02 0. -1.
        2   -1    0    0  501    0  0.00000000000E+00  0.00000000000E+00 -0.13604439380E+04  0.13604439380E+04  0.25500000920E-02 0.  1.
    10030    2    1    2    0    0  0.00000000000E+00  0.00000000000E+00 -0.11347785470E+04  0.15861093290E+04  0.11081608424E+04 0.  0.
        2    1    3    3  502    0  0.11257461911E+03 -0.48799935407E+03 -0.22811197094E+03  0.55031943972E+03  0.25500000920E-02 0. -1.
       -2    1    3    3    0  502 -0.11257461911E+03  0.48799935407E+03 -0.90666657610E+03  0.10357898893E+04  0.25500000920E-02 0.  1.
</event>
<event>
 5   0  0.3962999E-03  0.1100514E+04  0.7818609E-02  0.9204691E-01
       -2   -1    0    0    0  501  0.00000000000E+00  0.00000000000E+00  0.30407697814E+03  0.30407697815E+03  0.25500000920E-02 0.  1.
        2   -1    0    0  501    0  0.00000000000E+00  0.00000000000E+00 -0.99574329242E+03  0.99574329242E+03  0.25500000920E-02 0. -1.
    10030    2    1    2    0    0  0.00000000000E+00  0.00000000000E+00 -0.69166631428E+03  0.12998202706E+04  0.11005137189E+04 0.  0.
        3    1    3    3  502    0 -0.68348757437E+02  0.23646077499E+02 -0.99010509724E+03  0.99274307019E+03  0.10100000352E+00 0. -1.
       -3    1    3    3    0  502  0.68348757437E+02 -0.23646077499E+02  0.29843878295E+03  0.30707720039E+03  0.10100000352E+00 0.  1.
</event>
<event>
 5   0  0.1508625E-03  0.1088031E+04  0.7818609E-02  0.9216937E-01
       -3   -1    0    0    0  501  0.00000000000E+00  0.00000000000E+00  0.10678908069E+04  0.10678908117E+04  0.10100000352E+00 0.  1.
        3   -1    0    0  501    0  0.00000000000E+00  0.00000000000E+00 -0.27713789481E+03  0.27713791322E+03  0.10100000352E+00 0. -1.
    10030    2    1    2    0    0  0.00000000000E+00  0.00000000000E+00  0.79075291213E+03  0.13450287249E+04  0.10880312968E+04 0.  0.
        4    1    3    3  502    0 -0.38112613632E+03 -0.35622166947E+03  0.20466256409E+03  0.56039217306E+03  0.12699999809E+01 0. -1.
       -4    1    3    3    0  502  0.38112613632E+03  0.35622166947E+03  0.58609034804E+03  0.78463655188E+03  0.12699999809E+01 0.  1.
</event>
<event>
 5   0  0.2300702E-03  0.1137481E+04  0.7818609E-02  0.9169411E-01
       -1   -1    0    0    0  501  0.00000000000E+00  0.00000000000E+00  0.50522948084E+03  0.50522948086E+03  0.50400001928E-02 0.  1.
        1   -1    0    0  501    0  0.00000000000E+00  0.00000000000E+00 -0.64023523267E+03  0.64023523269E+03  0.50400001928E-02 0. -1.
    10030    2    1    2    0    0  0.00000000000E+00  0.00000000000E+00 -0.13500575184E+03  0.11454647136E+04  0.11374809260E+04 0.  0.
        5    1    3    3  502    0  0.11479196260E+03  0.51678278981E+03 -0.27681260067E+03  0.59740183496E+03  0.46999998093E+01 0.  1.
       -5    1    3    3    0  502 -0.11479196260E+03 -0.51678278981E+03  0.14180684883E+03  0.54806287860E+03  0.46999998093E+01 0. -1.
</event>
<event>
 5   0  0.3713158E-03  0.1094590E+04  0.7818609E-02  0.9210481E-01
       -2   -1    0    0    0  501  0.00000000000E+00  0.00000000000E+00  0.37749942983E+03  0.37749942984E+03  0.25500000920E-02 0. -1.
        2   -1    0    0  501    0  0.00000000000E+00  0.00000000000E+00 -0.79346283571E+03  0.79346283572E+03  0.25500000920E-02 0.  1.
    10030    2    1    2    0    0  0.00000000000E+00  0.00000000000E+00 -0.41596340588E+03  0.11709622656E+04  0.10945899106E+04 0.  0.
        4    1    3    3  502    0 -0.14036411735E+03 -0.49020805449E+02 -0.77144324634E+03  0.78564077034E+03  0.12699999809E+01 0.  1.
       -4    1    3    3    0  502  0.14036411735E+03  0.49020805449E+02  0.35547984045E+03  0.38532149521E+03  0.12699999809E+01 0. -1.
</event>
<event>
 5   0  0.3713158E-03  0.1107022E+04  0.7818609E-02  0.9198375E-01
        2   -1    0    0  501    0  0.00000000000E+00  0.00000000000E+00  0.94559685930E+03  0.94559685930E+03  0.25500000920E-02 0. -1.
       -2   -1    0    0    0  501  0.00000000000E+00  0.00000000000E+00 -0.32400112660E+03  0.32400112661E+03  0.25500000920E-02 0.  1.
    10030    2    1    2    0    0  0.00000000000E+00  0.00000000000E+00  0.62159573270E+03  0.12695979859E+04  0.11070220372E+04 0.  0.
        4    1    3    3  502    0 -0.11528078231E+03  0.16598838385E+03  0.90177081320E+03  0.92413960784E+03  0.12699999809E+01 0. -1.
       -4    1    3    3    0  502  0.11528078231E+03 -0.16598838385E+03 -0.28017508050E+03  0.34545837807E+03  0.12699999809E+01 0.  1.
</event>
<event>
 5   0  0.3744875E-03  0.1098265E+04  0.7818609E-02  0.9206884E-01
       -2   -1    0    0    0  501  0.00000000000E+00  0.00000000000E+00  0.69043006463E+03  0.69043006463E+03  0.25500000920E-02 0.  1.
        2   -1    0    0  501    0  0.00000000000E+00  0.00000000000E+00 -0.43675175623E+03  0.43675175623E+03  0.25500000920E-02 0. -1.
    10030    2    1    2    0    0  0.00000000000E+00  0.00000000000E+00  0.25367830840E+03  0.11271818209E+04  0.10982650742E+04 0.  0.
        2    1    3    3  502    0  0.14130857449E+03 -0.18996548005E+03  0.63535568310E+03  0.67803527997E+03  0.25500000920E-02 0.  1.
       -2    1    3    3    0  502 -0.14130857449E+03  0.18996548005E+03 -0.38167737470E+03  0.44914654089E+03  0.25500000920E-02 0. -1.
</event>
<event>
 5   0  0.2255788E-03  0.1096365E+04  0.7818609E-02  0.9208742E-01
        1   -1    0    0  501    0  0.00000000000E+00  0.00000000000E+00  0.11430349333E+04  0.11430349334E+04  0.50400001928E-02 0.  1.
       -1   -1    0    0    0  501  0.00000000000E+00  0.00000000000E+00 -0.26290019407E+03  0.26290019412E+03  0.50400001928E-02 0. -1.
    10030    2    1    2    0    0  0.00000000000E+00  0.00000000000E+00  0.88013473928E+03  0.14059351275E+04  0.10963650958E+04 0.  0.
        3    1    3    3  502    0 -0.40336104058E+02  0.53967255933E+03  0.55208595442E+03  0.77309273949E+03  0.10100000352E+00 0.  1.
       -3    1    3    3    0  502  0.40336104058E+02 -0.53967255933E+03  0.32804878486E+03  0.63284238799E+03  0.10100000352E+00 0. -1.
</event>
<event>
 5   0  0.3962999E-03  0.1101128E+04  0.7818609E-02  0.9204093E-01
        2   -1    0    0  501    0  0.00000000000E+00  0.00000000000E+00  0.56636089863E+03  0.56636089863E+03  0.25500000920E-02 0.  1.
       -2   -1    0    0    0  501  0.00000000000E+00  0.00000000000E+00 -0.53520766714E+03  0.53520766715E+03  0.25500000920E-02 0. -1.
    10030    2    1    2    0    0  0.00000000000E+00  0.00000000000E+00  0.31153231486E+02  0.11015685658E+04  0.11011279586E+04 0.  0.
        3    1    3    3  502    0 -0.54206934561E+03 -0.60627674137E+02 -0.59325199475E+02  0.54866600023E+03  0.10100000352E+00 0.  1.
       -3    1    3    3    0  502  0.54206934561E+03  0.60627674137E+02  0.90478430961E+02  0.55290256555E+03  0.10100000352E+00 0. -1.
</event>
<event>
 5   0  0.2300702E-03  0.1108283E+04  0.7818609E-02  0.9197157E-01
       -1   -1    0    0    0  501  0.00000000000E+00  0.00000000000E+00  0.21262165231E+03  0.21262165237E+03  0.50400001928E-02 0.  1.
        1   -1    0    0  501    0  0.00000000000E+00  0.00000000000E+00 -0.14442203958E+04  0.14442203958E+04  0.50400001928E-02 0. -1.
    10030    2    1    2    0    0  0.00000000000E+00  0.00000000000E+00 -0.12315987435E+04  0.16568420481E+04  0.11082825035E+04 0.  0.
        5    1    3    3  502    0  0.44171184237E+03  0.30207519085E+03 -0.40075487027E+03  0.66856961392E+03  0.46999998093E+01 0. -1.
       -5    1    3    3    0  502 -0.44171184237E+03 -0.30207519085E+03 -0.83084387318E+03  0.98827243421E+03  0.46999998093E+01 0.  1.
</event>
<event>
 5   0  0.2255788E-03  0.1104118E+04  0.7818609E-02  0.9201187E-01
       -1   -1    0    0    0  501  0.00000000000E+00  0.00000000000E+00  0.44035896601E+03  0.44035896604E+03  0.50400001928E-02 0.  1.
        1   -1    0    0  501    0  0.00000000000E+00  0.00000000000E+00 -0.69209287757E+03  0.69209287759E+03  0.50400001928E-02 0. -1.
    10030    2    1    2    0    0  0.00000000000E+00  0.00000000000E+00 -0.25173391156E+03  0.11324518436E+04  0.11041182980E+04 0.  0.
        3    1    3    3  502    0  0.45458597825E+03 -0.28580517928E+03  0.56270401381E+01  0.53699598314E+03  0.10100000352E+00 0.  1.
       -3    1    3    3    0  502 -0.45458597825E+03  0.28580517928E+03 -0.25736095170E+03  0.59545586049E+03  0.10100000352E+00 0. -1.
</event>
<event>
 5   0  0.1508625E-03  0.1105280E+04  0.7818609E-02  0.9200061E-01
       -3   -1    0    0    0  501  0.00000000000E+00  0.00000000000E+00  0.30574886549E+03  0.30574888218E+03  0.10100000352E+00 0. -1.
        3   -1    0    0  501    0  0.00000000000E+00  0.00000000000E+00 -0.99889533392E+03  0.99889533903E+03  0.10100000352E+00 0.  1.
    10030    2    1    2    0    0  0.00000000000E+00  0.00000000000E+00 -0.69314646843E+03  0.13046442212E+04  0.11052802890E+04 0.  0.
        2    1    3    3  502    0 -0.95053715406E+02 -0.41920505746E+03  0.63414445720E+02  0.43449911501E+03  0.25500000920E-02 0. -1.
       -2    1    3    3    0  502  0.95053715406E+02  0.41920505746E+03 -0.75656091415E+03  0.87014510619E+03  0.25500000920E-02 0.  1.
</event>
<event>
 5   0  0.3713158E-03  0.1107414E+04  0.7818609E-02  0.9197995E-01
        2   -1    0    0  501    0  0.00000000000E+00  0.00000000000E+00  0.87527099410E+03  0.87527099410E+03  0.25500000920E-02 0. -1.
       -2   -1    0    0    0  501  0.00000000000E+00  0.00000000000E+00 -0.35028195760E+03  0.35028195760E+03  0.25500000920E-02 0.  1.
    10030    2    1    2    0    0  0.00000000000E+00  0.00000000000E+00  0.52498903650E+03  0.12255529517E+04  0.11074143529E+04 0.  0.
        4    1    3    3  502    0  0.36655990409E+02 -0.54675626604E+03  0.17462702184E+03  0.57513675395E+03  0.12699999809E+01 0. -1.
       -4    1    3    3    0  502 -0.36655990409E+02  0.54675626604E+03  0.35036201466E+03  0.65041619776E+03  0.12699999809E+01 0.  1.
</event>
<event>
 5   0  0.2257667E-03  0.1084573E+04  0.7818609E-02  0.9220359E-01
        1   -1    0    0  501    0  0.00000000000E+00  0.00000000000E+00  0.16654361589E+04  0.16654361589E+04  0.50400001928E-02 0.  1.
       -1   -1    0    0    0  501  0.00000000000E+00  0.00000000000E+00 -0.17657529216E+03  0.17657529223E+03  0.50400001928E-02 0. -1.
    10030    2    1    2    0    0  0.00000000000E+00  0.00000000000E+00  0.14888608667E+04  0.18420114511E+04  0.10845734210E+04 0.  0.
        4    1    3    3  502    0  0.67939938941E+02 -0.48506241661E+03  0.11397245250E+04  0.12405140019E+04  0.12699999809E+01 0.  1.
       -4    1    3    3    0  502 -0.67939938941E+02  0.48506241661E+03  0.34913634174E+03  0.60149744915E+03  0.12699999809E+01 0. -1.
</event>
<event>
 5   0  0.2255788E-03  0.1103840E+04  0.7818609E-02  0.9201457E-01
        1   -1    0    0  501    0  0.00000000000E+00  0.00000000000E+00  0.76562507310E+03  0.76562507311E+03  0.50400001928E-02 0.  1.
       -1   -1    0    0    0  501  0.00000000000E+00  0.00000000000E+00 -0.39786554305E+03  0.39786554308E+03  0.50400001928E-02 0. -1.
    10030    2    1    2    0    0  0.00000000000E+00  0.00000000000E+00  0.36775953005E+03  0.11634906162E+04  0.11038402702E+04 0.  0.
        3    1    3    3  502    0  0.11728468418E+02  0.28786087709E+03  0.68007846647E+03  0.73858525052E+03  0.10100000352E+00 0.  1.
       -3    1    3    3    0  502 -0.11728468418E+02 -0.28786087709E+03 -0.31231893642E+03  0.42490536567E+03  0.10100000352E+00 0. -1.
</event>
<event>
 5   0  0.3744875E-03  0.1098693E+04  0.7818609E-02  0.9206467E-01
        2   -1    0    0  501    0  0.00000000000E+00  0.00000000000E+00  0.21512265836E+04  0.21512265836E+04  0.25500000920E-02 0. -1.
       -2   -1    0    0    0  501  0.00000000000E+00  0.00000000000E+00 -0.14028350299E+03  0.14028350302E+03  0.25500000920E-02 0.  1.
    10030    2    1    2    0    0  0.00000000000E+00  0.00000000000E+00  0.20109430806E+04  0.22915100866E+04  0.10986930434E+04 0.  0.
        2    1    3    3  502    0 -0.21511472061E+03 -0.49851893316E+03  0.83114489775E+03  0.99277253729E+03  0.25500000920E-02 0.  1.
       -2    1    3    3    0  502  0.21511472061E+03  0.49851893316E+03  0.11797981829E+04  0.12987375493E+04  0.25500000920E-02 0. -1.
</event>
<event>
 5   0  0.2255788E-03  0.1100545E+04  0.7818609E-02  0.9204661E-01
        1   -1    0    0  501    0  0.00000000000E+00  0.00000000000E+00  0.15621837974E+04  0.15621837974E+04  0.50400001928E-02 0.  1.
       -1   -1    0    0    0  501  0.00000000000E+00  0.00000000000E+00 -0.19383100682E+03  0.19383100689E+03  0.50400001928E-02 0. -1.
    10030    2    1    2    0    0  0.00000000000E+00  0.00000000000E+00  0.13683527906E+04  0.17560148043E+04  0.11005446985E+04 0.  0.
        3    1    3    3  502    0 -0.41125991754E+03  0.28978072474E+03  0.10398601150E+04  0.11551695361E+04  0.10100000352E+00 0.  1.
       -3    1    3    3    0  502  0.41125991754E+03 -0.28978072474E+03  0.32849267562E+03  0.60084526822E+03  0.10100000352E+00 0. -1.
</event>
<event>
 5   0  0.3713158E-03  0.1026419E+04  0.7818609E-02  0.9280035E-01
        2   -1    0    0  501    0  0.00000000000E+00  0.00000000000E+00  0.72775322307E+03  0.72775322308E+03  0.25500000920E-02 0.  1.
       -2   -1    0    0    0  501  0.00000000000E+00  0.00000000000E+00 -0.36191368148E+03  0.36191368149E+03  0.25500000920E-02 0. -1.
    10030    2    1    2    0    0  0.00000000000E+00  0.00000000000E+00  0.36583954160E+03  0.10896669046E+04  0.10264187219E+04 0.  0.
        4    1    3    3  502    0  0.43159125454E+03  0.18616965068E+03 -0.35815445805E+02  0.47139633949E+03  0.12699999809E+01 0. -1.
       -4    1    3    3    0  502 -0.43159125454E+03 -0.18616965068E+03  0.40165498740E+03  0.61827056507E+03  0.12699999809E+01 0.  1.
</event>
<event>
 5   0  0.3992414E-03  0.1083956E+04  0.7818609E-02  0.9220972E-01
       -2   -1    0    0    0  501  0.00000000000E+00  0.00000000000E+00  0.59850994703E+03  0.59850994704E+03  0.25500000920E-02 0.  1.
        2   -1    0    0  501    0  0.00000000000E+00  0.00000000000E+00 -0.49078583647E+03  0.49078583648E+03  0.25500000920E-02 0. -1.
    10030    2    1    2    0    0  0.00000000000E+00  0.00000000000E+00  0.10772411056E+03  0.10892957835E+04  0.10839560969E+04 0.  0.
        1    1    3    3  502    0  0.46986192688E+03 -0.23986606954E+03 -0.70984568280E+02  0.53230139076E+03  0.50400001928E-02 0. -1.
       -1    1    3    3    0  502 -0.46986192688E+03  0.23986606954E+03  0.17870867884E+03  0.55699439276E+03  0.50400001928E-02 0.  1.
</event>
<event>
 5   0  0.3992414E-03  0.1096481E+04  0.7818609E-02  0.9208629E-01
       -2   -1    0    0    0  501  0.00000000000E+00  0.00000000000E+00  0.31972577550E+03  0.31972577551E+03  0.25500000920E-02 0. -1.
        2   -1    0    0  501    0  0.00000000000E+00  0.00000000000E+00 -0.94007919112E+03  0.94007919113E+03  0.25500000920E-02 0.  1.
    10030    2    1    2    0    0  0.00000000000E+00  0.00000000000E+00 -0.62035341562E+03  0.12598049666E+04  0.10964808223E+04 0.  0.
        1    1    3    3  502    0 -0.41807700778E+03 -0.18403445872E+03 -0.65850182969E+03  0.80142481005E+03  0.50400001928E-02 0.  1.
       -1    1    3    3    0  502  0.41807700778E+03  0.18403445872E+03  0.38148414069E+02  0.45838015659E+03  0.50400001928E-02 0. -1.
</event>
<event>
 5   0  0.3962999E-03  0.1109174E+04  0.7818609E-02  0.9196296E-01
        2   -1    0    0  501    0  0.00000000000E+00  0.00000000000E+00  0.12910060578E+04  0.12910060578E+04  0.25500000920E-02 0.  1.
       -2   -1    0    0    0  501  0.00000000000E+00  0.00000000000E+00 -0.23823810611E+03  0.23823810613E+03  0.25500000920E-02 0. -1.
    10030    2    1    2    0    0  0.00000000000E+00  0.00000000000E+00  0.10527679517E+04  0.15292441639E+04  0.11091741760E+04 0.  0.
        3    1    3    3  502    0 -0.19685613955E+03 -0.22556113214E+03 -0.11725484634E+03  0.32152585153E+03  0.10100000352E+00 0. -1.
       -3    1    3    3    0  502  0.19685613955E+03  0.22556113214E+03  0.11700227980E+04  0.12077183124E+04  0.10100000352E+00 0.  1.
</event>
<event>
 5   0  0.3748901E-03  0.1137078E+04  0.7818609E-02  0.9169788E-01
        2   -1    0    0  501    0  0.00000000000E+00  0.00000000000E+00  0.21916026414E+03  0.21916026415E+03  0.25500000920E-02 0.  1.
       -2   -1    0    0    0  501  0.00000000000E+00  0.00000000000E+00 -0.14748858496E+04  0.14748858496E+04  0.25500000920E-02 0. -1.
    10030    2    1    2    0    0  0.00000000000E+00  0.00000000000E+00 -0.12557255855E+04  0.16940461138E+04  0.11370776093E+04 0.  0.
        5    1    3    3  502    0 -0.15254723270E+03 -0.39970979403E+03 -0.70071803152E+02  0.43355590786E+03  0.46999998093E+01 0.  1.
       -5    1    3    3    0  502  0.15254723270E+03  0.39970979403E+03 -0.11856537823E+04  0.12604902059E+04  0.46999998093E+01 0. -1.
</event>
<event>
 5   0  0.2255788E-03  0.9002124E+03  0.7818609E-02  0.9425316E-01
        1   -1    0    0  501    0  0.00000000000E+00  0.00000000000E+00  0.36305930253E+03  0.36305930257E+03  0.50400001928E-02 0.  1.
       -1   -1    0    0    0  501  0.00000000000E+00  0.00000000000E+00 -0.55802340826E+03  0.55802340828E+03  0.50400001928E-02 0. -1.
    10030    2    1    2    0    0  0.00000000000E+00  0.00000000000E+00 -0.19496410572E+03  0.92108271085E+03  0.90021239588E+03 0.  0.
        3    1    3    3  502    0 -0.16536269330E+03  0.20993915721E+03  0.27309740807E+03  0.38210139303E+03  0.10100000352E+00 0.  1.
       -3    1    3    3    0  502  0.16536269330E+03 -0.20993915721E+03 -0.46806151379E+03  0.53898131782E+03  0.10100000352E+00 0. -1.
</event>
<event>
 5   0  0.2257667E-03  0.1106851E+04  0.7818609E-02  0.9198540E-01
       -1   -1    0    0    0  501  0.00000000000E+00  0.00000000000E+00  0.11495768941E+04  0.11495768941E+04  0.50400001928E-02 0. -1.
        1   -1    0    0  501    0  0.00000000000E+00  0.00000000000E+00 -0.26642804249E+03  0.26642804254E+03  0.50400001928E-02 0.  1.
    10030    2    1    2    0    0  0.00000000000E+00  0.00000000000E+00  0.88314885157E+03  0.14160049366E+04  0.11068505258E+04 0.  0.
        4    1    3    3  502    0 -0.22075553127E+03  0.59637868036E+02  0.10863114145E+04  0.11101188144E+04  0.12699999809E+01 0. -1.
       -4    1    3    3    0  502  0.22075553127E+03 -0.59637868036E+02 -0.20316256293E+03  0.30588612222E+03  0.12699999809E+01 0.  1.
</event>
<event>
 5   0  0.3713158E-03  0.1104256E+04  0.7818609E-02  0.9201054E-01
        2   -1    0    0  501    0  0.00000000000E+00  0.00000000000E+00  0.74128396898E+03  0.74128396899E+03  0.25500000920E-02 0.  1.
       -2   -1    0    0    0  501  0.00000000000E+00  0.00000000000E+00 -0.41123951516E+03  0.41123951517E+03  0.25500000920E-02 0. -1.
    10030    2    1    2    0    0  0.00000000000E+00  0.00000000000E+00  0.33004445382E+03  0.11525234842E+04  0.11042558762E+04 0.  0.
        4    1    3    3  502    0  0.55046644418E+03  0.28378045304E+02  0.19843771575E+03  0.58583082845E+03  0.12699999809E+01 0.  1.
       -4    1    3    3    0  502 -0.55046644418E+03 -0.28378045304E+02  0.13160673807E+03  0.56669265571E+03  0.12699999809E+01 0. -1.
</event>
<event>
 5   0  0.2255788E-03  0.1091295E+04  0.7818609E-02  0.9213718E-01
        1   -1    0    0  501    0  0.00000000000E+00  0.00000000000E+00  0.52726954687E+03  0.52726954690E+03  0.50400001928E-02 0.  1.
       -1   -1    0    0    0  501  0.00000000000E+00  0.00000000000E+00 -0.56466618437E+03  0.56466618439E+03  0.50400001928E-02 0. -1.
    10030    2    1    2    0    0  0.00000000000E+00  0.00000000000E+00 -0.37396637499E+02  0.10919357313E+04  0.10912951630E+04 0.  0.
        3    1    3    3  502    0  0.13836179567E+03 -0.28247403505E+03 -0.46482515348E+03  0.56124682670E+03  0.10100000352E+00 0. -1.
       -3    1    3    3    0  502 -0.13836179567E+03  0.28247403505E+03  0.42742851598E+03  0.53068890459E+03  0.10100000352E+00 0.  1.
</event>
<event>
 5   0  0.2374100E-03  0.1085865E+04  0.7818609E-02  0.9219080E-01
        1   -1    0    0  501    0  0.00000000000E+00  0.00000000000E+00  0.80727343861E+03  0.80727343862E+03  0.50400001928E-02 0.  1.
       -1   -1    0    0    0  501  0.00000000000E+00  0.00000000000E+00 -0.36514948943E+03  0.36514948947E+03  0.50400001928E-02 0. -1.
    10030    2    1    2    0    0  0.00000000000E+00  0.00000000000E+00  0.44212394917E+03  0.11724229281E+04  0.10858646029E+04 0.  0.
        2    1    3    3  502    0 -0.22139078249E+03  0.44457679165E+03 -0.15769933675E+02  0.49690149231E+03  0.25500000920E-02 0.  1.
       -2    1    3    3    0  502  0.22139078249E+03 -0.44457679165E+03  0.45789388285E+03  0.67552143578E+03  0.25500000920E-02 0. -1.
</event>
<event>
 5   0  0.2255788E-03  0.1104469E+04  0.7818609E-02  0.9200847E-01
       -1   -1    0    0    0  501  0.00000000000E+00  0.00000000000E+00  0.22578415245E+03  0.22578415250E+03  0.50400001928E-02 0. -1.
        1   -1    0    0  501    0  0.00000000000E+00  0.00000000000E+00 -0.13506841824E+04  0.13506841824E+04  0.50400001928E-02 0.  1.
    10030    2    1    2    0    0  0.00000000000E+00  0.00000000000E+00 -0.11249000300E+04  0.15764683349E+04  0.11044692543E+04 0.  0.
        3    1    3    3  502    0  0.35555319732E+03  0.42249922272E+03 -0.57140987261E+03  0.79462753668E+03  0.10100000352E+00 0. -1.
       -3    1    3    3    0  502 -0.35555319732E+03 -0.42249922272E+03 -0.55349015737E+03  0.78184079826E+03  0.10100000352E+00 0.  1.
</event>
<event>
 5   0  0.2255788E-03  0.1100224E+04  0.7818609E-02  0.9204973E-01
       -1   -1    0    0    0  501  0.00000000000E+00  0.00000000000E+00  0.49565463339E+03  0.49565463341E+03  0.50400001928E-02 0. -1.
        1   -1    0    0  501    0  0.00000000000E+00  0.00000000000E+00 -0.61055279742E+03  0.61055279744E+03  0.50400001928E-02 0.  1.
    10030    2    1    2    0    0  0.00000000000E+00  0.00000000000E+00 -0.11489816404E+03  0.11062074309E+04  0.11002242008E+04 0.  0.
        3    1    3    3  502    0  0.73672624681E+02  0.26280568814E+03 -0.53767485256E+03  0.60298320260E+03  0.10100000352E+00 0.  1.
       -3    1    3    3    0  502 -0.73672624681E+02 -0.26280568814E+03  0.42277668852E+03  0.50322422826E+03  0.10100000352E+00 0. -1.
</event>
<event>
 5   0  0.2300702E-03  0.1123918E+04  0.7818609E-02  0.9182188E-01
       -1   -1    0    0    0  501  0.00000000000E+00  0.00000000000E+00  0.46838006938E+03  0.46838006941E+03  0.50400001928E-02 0.  1.
        1   -1    0    0  501    0  0.00000000000E+00  0.00000000000E+00 -0.67423465752E+03  0.67423465754E+03  0.50400001928E-02 0. -1.
    10030    2    1    2    0    0  0.00000000000E+00  0.00000000000E+00 -0.20585458814E+03  0.11426147270E+04  0.11239182812E+04 0.  0.
        5    1    3    3  502    0  0.41718323992E+03  0.26513360412E+03 -0.37465294865E+03  0.62026172350E+03  0.46999998093E+01 0. -1.
       -5    1    3    3    0  502 -0.41718323992E+03 -0.26513360412E+03  0.16879836051E+03  0.52235300345E+03  0.46999998093E+01 0.  1.
</event>
<event>
 5   0  0.2374100E-03  0.1026047E+04  0.7818609E-02  0.9280429E-01
        1   -1    0    0  501    0  0.00000000000E+00  0.00000000000E+00  0.17880529495E+04  0.17880529495E+04  0.50400001928E-02 0. -1.
       -1   -1    0    0    0  501  0.00000000000E+00  0.00000000000E+00 -0.14719546127E+03  0.14719546135E+03  0.50400001928E-02 0.  1.
    10030    2    1    2    0    0  0.00000000000E+00  0.00000000000E+00  0.16408574882E+04  0.19352484108E+04  0.10260473259E+04 0.  0.
        2    1    3    3  502    0 -0.27875102192E+02 -0.32881393083E+03  0.15613106551E+04  0.15958028024E+04  0.25500000920E-02 0. -1.
       -2    1    3    3    0  502  0.27875102192E+02  0.32881393083E+03  0.79546833135E+02  0.33944560846E+03  0.25500000920E-02 0.  1.
</event>
<event>
 5   0  0.1508625E-03  0.1109954E+04  0.7818609E-02  0.9195544E-01
       -3   -1    0    0    0  501  0.00000000000E+00  0.00000000000E+00  0.31200555375E+03  0.31200557009E+03  0.10100000352E+00 0.  1.
        3   -1    0    0  501    0  0.00000000000E+00  0.00000000000E+00 -0.98716095360E+03  0.98716095876E+03  0.10100000352E+00 0. -1.
    10030    2    1    2    0    0  0.00000000000E+00  0.00000000000E+00 -0.67515539985E+03  0.12991665289E+04  0.11099544386E+04 0.  0.
        4    1    3    3  502    0  0.20432879279E+03 -0.35540936486E+03  0.10026512412E+03  0.42204357620E+03  0.12699999809E+01 0.  1.
       -4    1    3    3    0  502 -0.20432879279E+03  0.35540936486E+03 -0.77542052397E+03  0.87712295266E+03  0.12699999809E+01 0. -1.
</event>
<event>
 5   0  0.1508625E-03  0.1090451E+04  0.7818609E-02  0.9214549E-01
        4   -1    0    0  501    0  0.00000000000E+00  0.00000000000E+00  0.78905023535E+03  0.78905125740E+03  0.12699999809E+01 0.  1.
       -4   -1    0    0    0  501  0.00000000000E+00  0.00000000000E+00 -0.37674301733E+03  0.37674515790E+03  0.12699999809E+01 0. -1.
    10030    2    1    2    0    0  0.00000000000E+00  0.00000000000E+00  0.41230721802E+03  0.11657964153E+04  0.10904513010E+04 0.  0.
        4    1    3    3  502    0  0.43038547233E+03  0.25666946131E+03 -0.23536569316E+02  0.50166368232E+03  0.12699999809E+01 0. -1.
       -4    1    3    3    0  502 -0.43038547233E+03 -0.25666946131E+03  0.43584378734E+03  0.66413273299E+03  0.12699999809E+01 0.  1.
</event>
<event>
 5   0  0.3748901E-03  0.1090221E+04  0.7818609E-02  0.9214776E-01
       -2   -1    0    0    0  501  0.00000000000E+00  0.00000000000E+00  0.12911736079E+04  0.12911736079E+04  0.25500000920E-02 0.  1.
        2   -1    0    0  501    0  0.00000000000E+00  0.00000000000E+00 -0.23013597913E+03  0.23013597914E+03  0.25500000920E-02 0. -1.
    10030    2    1    2    0    0  0.00000000000E+00  0.00000000000E+00  0.10610376287E+04  0.15213095870E+04  0.10902210831E+04 0.  0.
        5    1    3    3  502    0 -0.29290330912E+03  0.22911970472E+03  0.10866489598E+04  0.11485278575E+04  0.46999998093E+01 0.  1.
       -5    1    3    3    0  502  0.29290330912E+03 -0.22911970472E+03 -0.25611331077E+02  0.37278172952E+03  0.46999998093E+01 0. -1.
</event>
<event>
 5   0  0.2298958E-03  0.1092905E+04  0.7818609E-02  0.9212134E-01
        1   -1    0    0  501    0  0.00000000000E+00  0.00000000000E+00  0.20147244969E+03  0.20147244975E+03  0.50400001928E-02 0.  1.
       -1   -1    0    0    0  501  0.00000000000E+00  0.00000000000E+00 -0.14821410426E+04  0.14821410426E+04  0.50400001928E-02 0. -1.
    10030    2    1    2    0    0  0.00000000000E+00  0.00000000000E+00 -0.12806685929E+04  0.16836134924E+04  0.10929054611E+04 0.  0.
        1    1    3    3  502    0 -0.49090959425E+03  0.11203357104E+03 -0.96736485442E+03  0.10905679770E+04  0.50400001928E-02 0. -1.
       -1    1    3    3    0  502  0.49090959425E+03 -0.11203357104E+03 -0.31330373848E+03  0.59304551540E+03  0.50400001928E-02 0.  1.
</event>
<event>
 5   0  0.3748901E-03  0.1076711E+04  0.7818609E-02  0.9228193E-01
       -2   -1    0    0    0  501  0.00000000000E+00  0.00000000000E+00  0.20901451740E+03  0.20901451741E+03  0.25500000920E-02 0. -1.
        2   -1    0    0  501    0  0.00000000000E+00  0.00000000000E+00 -0.13866346171E+04  0.13866346171E+04  0.25500000920E-02 0.  1.
    10030    2    1    2    0    0  0.00000000000E+00  0.00000000000E+00 -0.11776200997E+04  0.15956491345E+04  0.10767112246E+04 0.  0.
        5    1    3    3  502    0 -0.30236046188E+03  0.42720441530E+03 -0.40206346833E+03  0.66000195752E+03  0.46999998093E+01 0. -1.
       -5    1    3    3    0  502  0.30236046188E+03 -0.42720441530E+03 -0.77555663139E+03  0.93564717701E+03  0.46999998093E+01 0.  1.
</event>
<event>
 5   0  0.2255788E-03  0.1108584E+04  0.7818609E-02  0.9196866E-01
        1   -1    0    0  501    0  0.00000000000E+00  0.00000000000E+00  0.25317734197E+03  0.25317734202E+03  0.50400001928E-02 0. -1.
       -1   -1    0    0    0  501  0.00000000000E+00  0.00000000000E+00 -0.12135346826E+04  0.12135346826E+04  0.50400001928E-02 0.  1.
    10030    2    1    2    0    0  0.00000000000E+00  0.00000000000E+00 -0.96035734060E+03  0.14667120246E+04  0.11085837548E+04 0.  0.
        3    1    3    3  502    0  0.43885945113E+03  0.31543425205E+03 -0.64298961394E+03  0.83995954608E+03  0.10100000352E+00 0.  1.
       -3    1    3    3    0  502 -0.43885945113E+03 -0.31543425205E+03 -0.31736772666E+03  0.62675247853E+03  0.10100000352E+00 0. -1.
</event>
<event>
 5   0  0.3713158E-03  0.1131521E+04  0.7818609E-02  0.9175003E-01
       -2   -1    0    0    0  501  0.00000000000E+00  0.00000000000E+00  0.30803667842E+03  0.30803667843E+03  0.25500000920E-02 0.  1.
        2   -1    0    0  501    0  0.00000000000E+00  0.00000000000E+00 -0.10391124310E+04  0.10391124310E+04  0.25500000920E-02 0. -1.
    10030    2    1    2    0    0  0.00000000000E+00  0.00000000000E+00 -0.73107575261E+03  0.13471491095E+04  0.11315206437E+04 0.  0.
        4    1    3    3  502    0  0.23006503683E+03 -0.65261654038E+02 -0.97597877973E+03  0.10048508327E+04  0.12699999809E+01 0. -1.
       -4    1    3    3    0  502 -0.23006503683E+03  0.65261654038E+02  0.24490302712E+03  0.34229827673E+03  0.12699999809E+01 0.  1.
</event>
<event>
 5   0  0.2257667E-03  0.1096228E+04  0.7818609E-02  0.9208876E-01
       -1   -1    0    0    0  501  0.00000000000E+00  0.00000000000E+00  0.10323345130E+04  0.10323345130E+04  0.50400001928E-02 0.  1.
        1   -1    0    0  501    0  0.00000000000E+00  0.00000000000E+00 -0.29101917020E+03  0.29101917024E+03  0.50400001928E-02 0. -1.
    10030    2    1    2    0    0  0.00000000000E+00  0.00000000000E+00  0.74131534283E+03  0.13233536833E+04  0.10962283218E+04 0.  0.
        4    1    3    3  502    0 -0.43278370860E+03 -0.19830223992E+03  0.69860869353E+03  0.84538821636E+03  0.12699999809E+01 0.  1.
       -4    1    3    3    0  502  0.43278370860E+03  0.19830223992E+03  0.42706649303E+02  0.47796546693E+03  0.12699999809E+01 0. -1.
</event>
<event>
 5   0  0.3713158E-03  0.1042464E+04  0.7818609E-02  0.9263159E-01
       -2   -1    0    0    0  501  0.00000000000E+00  0.00000000000E+00  0.19095779201E+03  0.19095779203E+03  0.25500000920E-02 0.  1.
        2   -1    0    0  501    0  0.00000000000E+00  0.00000000000E+00 -0.14227377659E+04  0.14227377659E+04  0.25500000920E-02 0. -1.
    10030    2    1    2    0    0  0.00000000000E+00  0.00000000000E+00 -0.12317799739E+04  0.16136955579E+04  0.10424641239E+04 0.  0.
        4    1    3    3  502    0  0.33747479720E+03 -0.32486743143E+03 -0.96973801272E+03  0.10769500977E+04  0.12699999809E+01 0. -1.
       -4    1    3    3    0  502 -0.33747479720E+03  0.32486743143E+03 -0.26204196116E+03  0.53674546021E+03  0.12699999809E+01 0.  1.
</event>
<event>
 5   0  0.3744875E-03  0.1106991E+04  0.7818609E-02  0.9198404E-01
        2   -1    0    0  501    0  0.00000000000E+00  0.00000000000E+00  0.24718307746E+04  0.24718307746E+04  0.25500000920E-02 0. -1.
       -2   -1    0    0    0  501  0.00000000000E+00  0.00000000000E+00 -0.12393952712E+03  0.12393952714E+03  0.25500000920E-02 0.  1.
    10030    2    1    2    0    0  0.00000000000E+00  0.00000000000E+00  0.23478912475E+04  0.25957703018E+04  0.11069914857E+04 0.  0.
        2    1    3    3  502    0  0.38408642237E+03 -0.28750838388E+03  0.18211263973E+04  0.18832644014E+04  0.25500000920E-02 0.  1.
       -2    1    3    3    0  502 -0.38408642237E+03  0.28750838388E+03  0.52676485027E+03  0.71250590042E+03  0.25500000920E-02 0. -1.
</event>
<event>
 5   0  0.2298958E-03  0.1113594E+04  0.7818609E-02  0.9192042E-01
       -1   -1    0    0    0  501  0.00000000000E+00  0.00000000000E+00  0.69626856354E+03  0.69626856356E+03  0.50400001928E-02 0.  1.
        1   -1    0    0  501    0  0.00000000000E+00  0.00000000000E+00 -0.44526352533E+03  0.44526352536E+03  0.50400001928E-02 0. -1.
    10030    2    1    2    0    0  0.00000000000E+00  0.00000000000E+00  0.25100503821E+03  0.11415320889E+04  0.11135941724E+04 0.  0.
        1    1    3    3  502    0  0.30812988151E+03 -0.45900874150E+03  0.57583596252E+02  0.55583173644E+03  0.50400001928E-02 0. -1.
       -1    1    3    3    0  502 -0.30812988151E+03  0.45900874150E+03  0.19342144196E+03  0.58570035247E+03  0.50400001928E-02 0.  1.
</event>
<event>
 5   0  0.1508625E-03  0.1098984E+04  0.7818609E-02  0.9206183E-01
       -3   -1    0    0    0  501  0.00000000000E+00  0.00000000000E+00  0.34657813901E+03  0.34657815372E+03  0.10100000352E+00 0. -1.
        3   -1    0    0  501    0  0.00000000000E+00  0.00000000000E+00 -0.87120668233E+03  0.87120668819E+03  0.10100000352E+00 0.  1.
    10030    2    1    2    0    0  0.00000000000E+00  0.00000000000E+00 -0.52462854332E+03  0.12177848419E+04  0.10989835361E+04 0.  0.
        2    1    3    3  502    0  0.18889962432E+03  0.13530768516E+03  0.28945994606E+03  0.37118499176E+03  0.25500000920E-02 0. -1.
       -2    1    3    3    0  502 -0.18889962432E+03 -0.13530768516E+03 -0.81408848938E+03  0.84659985015E+03  0.25500000920E-02 0.  1.
</event>
<event>
 5   0  0.2298958E-03  0.1093544E+04  0.7818609E-02  0.9211508E-01
       -1   -1    0    0    0  501  0.00000000000E+00  0.00000000000E+00  0.46419648032E+03  0.46419648034E+03  0.50400001928E-02 0. -1.
        1   -1    0    0  501    0  0.00000000000E+00  0.00000000000E+00 -0.64403634985E+03  0.64403634987E+03  0.50400001928E-02 0.  1.
    10030    2    1    2    0    0  0.00000000000E+00  0.00000000000E+00 -0.17983986954E+03  0.11082328302E+04  0.10935436101E+04 0.  0.
        1    1    3    3  502    0 -0.49032929637E+03 -0.23095783114E+03 -0.16296494074E+03  0.56596988487E+03  0.50400001928E-02 0.  1.
       -1    1    3    3    0  502  0.49032929637E+03  0.23095783114E+03 -0.16874928797E+02  0.54226294535E+03  0.50400001928E-02 0. -1.
</event>
<event>
 5   0  0.3748901E-03  0.1139471E+04  0.7818609E-02  0.9167552E-01
       -2   -1    0    0    0  501  0.00000000000E+00  0.00000000000E+00  0.51414144727E+03  0.51414144728E+03  0.25500000920E-02 0.  1.
        2   -1    0    0  501    0  0.00000000000E+00  0.00000000000E+00 -0.63134129487E+03  0.63134129487E+03  0.25500000920E-02 0. -1.
    10030    2    1    2    0    0  0.00000000000E+00  0.00000000000E+00 -0.11719984760E+03  0.11454827421E+04  0.11394713284E+04 0.  0.
        5    1    3    3  502    0  0.24789580753E+03 -0.46963140181E+03 -0.26601499032E+03  0.59396300392E+03  0.46999998093E+01 0. -1.
       -5    1    3    3    0  502 -0.24789580753E+03  0.46963140181E+03  0.14881514272E+03  0.55151973823E+03  0.46999998093E+01 0.  1.
</event>
<event>
 5   0  0.3962999E-03  0.1122589E+04  0.7818609E-02  0.9183450E-01
        2   -1    0    0  501    0  0.00000000000E+00  0.00000000000E+00  0.16154407792E+04  0.16154407792E+04  0.25500000920E-02 0. -1.
       -2   -1    0    0    0  501  0.00000000000E+00  0.00000000000E+00 -0.19502525265E+03  0.19502525267E+03  0.25500000920E-02 0.  1.
    10030    2    1    2    0    0  0.00000000000E+00  0.00000000000E+00  0.14204155265E+04  0.18104660319E+04  0.11225894105E+04 0.  0.
        3    1    3    3  502    0  0.44266067729E+03 -0.12117611621E+03  0.12313550395E+04  0.13141032570E+04  0.10100000352E+00 0. -1.
       -3    1    3    3    0  502 -0.44266067729E+03  0.12117611621E+03  0.18906048700E+03  0.49636277489E+03  0.10100000352E+00 0.  1.
</event>
<event>
 5   0  0.3962999E-03  0.1104908E+04  0.7818609E-02  0.9200422E-01
        2   -1    0    0  501    0  0.00000000000E+00  0.00000000000E+00  0.93320659847E+03  0.93320659847E+03  0.25500000920E-02 0. -1.
       -2   -1    0    0    0  501  0.00000000000E+00  0.00000000000E+00 -0.32704995718E+03  0.32704995719E+03  0.25500000920E-02 0.  1.
    10030    2    1    2    0    0  0.00000000000E+00  0.00000000000E+00  0.60615664129E+03  0.12602565557E+04  0.11049075583E+04 0.  0.
        3    1    3    3  502    0 -0.54805344488E+03 -0.36523419946E+02  0.37064020575E+03  0.66262410986E+03  0.10100000352E+00 0.  1.
       -3    1    3    3    0  502  0.54805344488E+03  0.36523419946E+02  0.23551643554E+03  0.59763244579E+03  0.10100000352E+00 0. -1.
</event>
<event>
 5   0  0.2374100E-03  0.9008430E+03  0.7818609E-02  0.9424528E-01
       -1   -1    0    0    0  501  0.00000000000E+00  0.00000000000E+00  0.48425681719E+03  0.48425681722E+03  0.50400001928E-02 0. -1.
        1   -1    0    0  501    0  0.00000000000E+00  0.00000000000E+00 -0.41895030049E+03  0.41895030052E+03  0.50400001928E-02 0.  1.
    10030    2    1    2    0    0  0.00000000000E+00  0.00000000000E+00  0.65306516706E+02  0.90320711774E+03  0.90084302540E+03 0.  0.
        2    1    3    3  502    0 -0.34140968925E+03  0.25631568743E+03  0.17663105744E+03  0.46201389373E+03  0.25500000920E-02 0. -1.
       -2    1    3    3    0  502  0.34140968925E+03 -0.25631568743E+03 -0.11132454073E+03  0.44119322401E+03  0.25500000920E-02 0.  1.
</event>
<event>
 5   0  0.3713158E-03  0.1111606E+04  0.7818609E-02  0.9193953E-01
        2   -1    0    0  501    0  0.00000000000E+00  0.00000000000E+00  0.46183214879E+03  0.46183214879E+03  0.25500000920E-02 0. -1.
       -2   -1    0    0    0  501  0.00000000000E+00  0.00000000000E+00 -0.66889448564E+03  0.66889448564E+03  0.25500000920E-02 0.  1.
    10030    2    1    2    0    0  0.00000000000E+00  0.00000000000E+00 -0.20706233685E+03  0.11307266344E+04  0.11116060051E+04 0.  0.
        4    1    3    3  502    0 -0.52624532938E+03 -0.62966902787E+02  0.66728899857E+02  0.53418474006E+03  0.12699999809E+01 0. -1.
       -4    1    3    3    0  502  0.52624532938E+03  0.62966902787E+02 -0.27379123671E+03  0.59654189437E+03  0.12699999809E+01 0.  1.
</event>
<event>
 5   0  0.2298958E-03  0.1098142E+04  0.7818609E-02  0.9207005E-01
       -1   -1    0    0    0  501  0.00000000000E+00  0.00000000000E+00  0.62699512564E+03  0.62699512566E+03  0.50400001928E-02 0. -1.
        1   -1    0    0  501    0  0.00000000000E+00  0.00000000000E+00 -0.48083146351E+03  0.48083146353E+03  0.50400001928E-02 0.  1.
    10030    2    1    2    0    0  0.00000000000E+00  0.00000000000E+00  0.14616366213E+03  0.11078265892E+04  0.10981420380E+04 0.  0.
        1    1    3    3  502    0  0.40991446934E+03  0.32585801119E+03 -0.93497586961E+02  0.53193525398E+03  0.50400001928E-02 0.  1.
       -1    1    3    3    0  502 -0.40991446934E+03 -0.32585801119E+03  0.23966124909E+03  0.57589133521E+03  0.50400001928E-02 0. -1.
</event>
<event>
 5   0  0.3962999E-03  0.1129695E+04  0.7818609E-02  0.9176723E-01
       -2   -1    0    0    0  501  0.00000000000E+00  0.00000000000E+00  0.43559621735E+03  0.43559621736E+03  0.25500000920E-02 0. -1.
        2   -1    0    0  501    0  0.00000000000E+00  0.00000000000E+00 -0.73244993084E+03  0.73244993085E+03  0.25500000920E-02 0.  1.
    10030    2    1    2    0    0  0.00000000000E+00  0.00000000000E+00 -0.29685371349E+03  0.11680461482E+04  0.11296945061E+04 0.  0.
        3    1    3    3  502    0  0.29161016096E+03  0.18120987608E+03  0.31532985041E+03  0.46616137755E+03  0.10100000352E+00 0. -1.
       -3    1    3    3    0  502 -0.29161016096E+03 -0.18120987608E+03 -0.61218356390E+03  0.70188477065E+03  0.10100000352E+00 0.  1.
</event>
<event>
 5   0  0.2298958E-03  0.1157273E+04  0.7818609E-02  0.9151100E-01
        1   -1    0    0  501    0  0.00000000000E+00  0.00000000000E+00  0.14071974004E+04  0.14071974004E+04  0.50400001928E-02 0. -1.
       -1   -1    0    0    0  501  0.00000000000E+00  0.00000000000E+00 -0.23793394127E+03  0.23793394132E+03  0.50400001928E-02 0.  1.
    10030    2    1    2    0    0  0.00000000000E+00  0.00000000000E+00  0.11692634591E+04  0.16451313417E+04  0.11572726968E+04 0.  0.
        1    1    3    3  502    0  0.32737399697E+03  0.13047997706E+03  0.12370347725E+04  0.12862557236E+04  0.50400001928E-02 0. -1.
       -1    1    3    3    0  502 -0.32737399697E+03 -0.13047997706E+03 -0.67771313345E+02  0.35887561807E+03  0.50400001928E-02 0.  1.
</event>
<event>
 5   0  0.3748901E-03  0.1127693E+04  0.7818609E-02  0.9178613E-01
        2   -1    0    0  501    0  0.00000000000E+00  0.00000000000E+00  0.10145150716E+04  0.10145150716E+04  0.25500000920E-02 0. -1.
       -2   -1    0    0    0  501  0.00000000000E+00  0.00000000000E+00 -0.31337440001E+03  0.31337440002E+03  0.25500000920E-02 0.  1.
    10030    2    1    2    0    0  0.00000000000E+00  0.00000000000E+00  0.70114067158E+03  0.13278894716E+04  0.11276933127E+04 0.  0.
        5    1    3    3  502    0  0.64525593735E+02  0.45319483286E+03 -0.37034417382E+02  0.45928503878E+03  0.46999998093E+01 0.  1.
       -5    1    3    3    0  502 -0.64525593735E+02 -0.45319483286E+03  0.73817508896E+03  0.86860443283E+03  0.46999998093E+01 0. -1.
</event>
<event>
 5   0  0.1508625E-03  0.1111472E+04  0.7818609E-02  0.9194082E-01
       -3   -1    0    0    0  501  0.00000000000E+00  0.00000000000E+00  0.13706875100E+04  0.13706875138E+04  0.10100000352E+00 0.  1.
        3   -1    0    0  501    0  0.00000000000E+00  0.00000000000E+00 -0.22531932702E+03  0.22531934965E+03  0.10100000352E+00 0. -1.
    10030    2    1    2    0    0  0.00000000000E+00  0.00000000000E+00  0.11453681830E+04  0.15960068634E+04  0.11114718320E+04 0.  0.
        4    1    3    3  502    0 -0.18952661725E+03  0.24599924675E+03 -0.89103294773E+02  0.32307426094E+03  0.12699999809E+01 0. -1.
       -4    1    3    3    0  502  0.18952661725E+03 -0.24599924675E+03  0.12344714778E+04  0.12729326025E+04  0.12699999809E+01 0.  1.
</event>
<event>
 5   0  0.2257667E-03  0.1098708E+04  0.7818609E-02  0.9206452E-01
        1   -1    0    0  501    0  0.00000000000E+00  0.00000000000E+00  0.37088739479E+03  0.37088739483E+03  0.50400001928E-02 0. -1.
       -1   -1    0    0    0  501  0.00000000000E+00  0.00000000000E+00 -0.81369671302E+03  0.81369671304E+03  0.50400001928E-02 0.  1.
    10030    2    1    2    0    0  0.00000000000E+00  0.00000000000E+00 -0.44280931823E+03  0.11845841079E+04  0.10987080669E+04 0.  0.
        4    1    3    3  502    0  0.54015560209E+03  0.79317782545E+01 -0.32899006753E+03  0.63250854935E+03  0.12699999809E+01 0. -1.
       -4    1    3    3    0  502 -0.54015560209E+03 -0.79317782545E+01 -0.11381925070E+03  0.55207555851E+03  0.12699999809E+01 0.  1.
</event>
<event>
 5   0  0.3744875E-03  0.1096791E+04  0.7818609E-02  0.9208325E-01
        2   -1    0    0  501    0  0.00000000000E+00  0.00000000000E+00  0.11219511526E+04  0.11219511526E+04  0.25500000920E-02 0. -1.
       -2   -1    0    0    0  501  0.00000000000E+00  0.00000000000E+00 -0.26804868024E+03  0.26804868025E+03  0.25500000920E-02 0.  1.
    10030    2    1    2    0    0  0.00000000000E+00  0.00000000000E+00  0.85390247240E+03  0.13899998329E+04  0.10967908201E+04 0.  0.
        2    1    3    3  502    0 -0.21903847337E+03 -0.46256605864E+03  0.17734019817E+03  0.54165926311E+03  0.25500000920E-02 0.  1.
       -2    1    3    3    0  502  0.21903847337E+03  0.46256605864E+03  0.67656227423E+03  0.84834056978E+03  0.25500000920E-02 0. -1.
</event>
<event>
 5   0  0.3962999E-03  0.1057478E+04  0.7818609E-02  0.9247657E-01
       -2   -1    0    0    0  501  0.00000000000E+00  0.00000000000E+00  0.41523000746E+03  0.41523000747E+03  0.25500000920E-02 0.  1.
        2   -1    0    0  501    0  0.00000000000E+00  0.00000000000E+00 -0.67327746436E+03  0.67327746437E+03  0.25500000920E-02 0. -1.
    10030    2    1    2    0    0  0.00000000000E+00  0.00000000000E+00 -0.25804745690E+03  0.10885074718E+04  0.10574781446E+04 0.  0.
        3    1    3    3  502    0  0.11865367280E+03  0.28839501795E+03  0.31048829225E+03  0.44006064386E+03  0.10100000352E+00 0.  1.
       -3    1    3    3    0  502 -0.11865367280E+03 -0.28839501795E+03 -0.56853574915E+03  0.64844682798E+03  0.10100000352E+00 0. -1.
</event>
<event>
 5   0  0.2255788E-03  0.1075501E+04  0.7818609E-02  0.9229404E-01
       -1   -1    0    0    0  501  0.00000000000E+00  0.00000000000E+00  0.29467367803E+03  0.29467367808E+03  0.50400001928E-02 0.  1.
        1   -1    0    0  501    0  0.00000000000E+00  0.00000000000E+00 -0.98134261694E+03  0.98134261695E+03  0.50400001928E-02 0. -1.
    10030    2    1    2    0    0  0.00000000000E+00  0.00000000000E+00 -0.68666893891E+03  0.12760162950E+04  0.10755014428E+04 0.  0.
        3    1    3    3  502    0 -0.45974137938E+03  0.27869232213E+03 -0.35758565749E+03  0.64567720958E+03  0.10100000352E+00 0.  1.
       -3    1    3    3    0  502  0.45974137938E+03 -0.27869232213E+03 -0.32908328141E+03  0.63033908545E+03  0.10100000352E+00 0. -1.
</event>
<event>
 5   0  0.3748901E-03  0.1094241E+04  0.7818609E-02  0.9210823E-01
        2   -1    0    0  501    0  0.00000000000E+00  0.00000000000E+00  0.20293687023E+04  0.20293687023E+04  0.25500000920E-02 0. -1.
       -2   -1    0    0    0  501  0.00000000000E+00  0.00000000000E+00 -0.14750444071E+03  0.14750444073E+03  0.25500000920E-02 0.  1.
    10030    2    1    2    0    0  0.00000000000E+00  0.00000000000E+00  0.18818642616E+04  0.21768731431E+04  0.10942410986E+04 0.  0.
        5    1    3    3  502    0 -0.31362949848E+03 -0.24001359909E+03  0.16941439966E+04  0.17395734999E+04  0.46999998093E+01 0. -1.
       -5    1    3    3    0  502  0.31362949848E+03  0.24001359909E+03  0.18772026499E+03  0.43729964320E+03  0.46999998093E+01 0.  1.
</event>
<event>
 5   0  0.3713158E-03  0.1122645E+04  0.7818609E-02  0.9183398E-01
        2   -1    0    0  501    0  0.00000000000E+00  0.00000000000E+00  0.40451096343E+03  0.40451096344E+03  0.25500000920E-02 0. -1.
       -2   -1    0    0    0  501  0.00000000000E+00  0.00000000000E+00 -0.77892245266E+03  0.77892245267E+03  0.25500000920E-02 0.  1.
    10030    2    1    2    0    0  0.00000000000E+00  0.00000000000E+00 -0.37441148923E+03  0.11834334161E+04  0.11226445061E+04 0.  0.
        4    1    3    3  502    0  0.37634664457E+03  0.33726597689E+03 -0.44476307080E+03  0.67320200393E+03  0.12699999809E+01 0.  1.
       -4    1    3    3    0  502 -0.37634664457E+03 -0.33726597689E+03  0.70351581570E+02  0.51023141218E+03  0.12699999809E+01 0. -1.
</event>
<event>
 5   0  0.3744875E-03  0.1082875E+04  0.7818609E-02  0.9222046E-01
        2   -1    0    0  501    0  0.00000000000E+00  0.00000000000E+00  0.23537758789E+04  0.23537758789E+04  0.25500000920E-02 0.  1.
       -2   -1    0    0    0  501  0.00000000000E+00  0.00000000000E+00 -0.12454648964E+03  0.12454648966E+03  0.25500000920E-02 0. -1.
    10030    2    1    2    0    0  0.00000000000E+00  0.00000000000E+00  0.22292293893E+04  0.24783223686E+04  0.10828749201E+04 0.  0.
        2    1    3    3  502    0 -0.27649286683E+03  0.42002066264E+03  0.15739946006E+04  0.16523694094E+04  0.25500000920E-02 0.  1.
       -2    1    3    3    0  502  0.27649286683E+03 -0.42002066264E+03  0.65523478866E+03  0.82595295915E+03  0.25500000920E-02 0. -1.
</event>
<event>
 5   0  0.1508625E-03  0.1103749E+04  0.7818609E-02  0.9201545E-01
        4   -1    0    0  501    0  0.00000000000E+00  0.00000000000E+00  0.68751497067E+03  0.68751614366E+03  0.12699999809E+01 0. -1.
       -4   -1    0    0    0  501  0.00000000000E+00  0.00000000000E+00 -0.44299245645E+03  0.44299427690E+03  0.12699999809E+01 0.  1.
    10030    2    1    2    0    0  0.00000000000E+00  0.00000000000E+00  0.24452251422E+03  0.11305104206E+04  0.11037493153E+04 0.  0.
        3    1    3    3  502    0 -0.42772070262E+03 -0.34070034325E+03  0.45998591319E+02  0.54876006044E+03  0.10100000352E+00 0. -1.
       -3    1    3    3    0  502  0.42772070262E+03  0.34070034325E+03  0.19852392290E+03  0.58175036012E+03  0.10100000352E+00 0.  1.
</event>
<event>
 5   0  0.3744875E-03  0.1071114E+04  0.7818609E-02  0.9233813E-01
       -2   -1    0    0    0  501  0.00000000000E+00  0.00000000000E+00  0.18952870252E+03  0.18952870254E+03  0.25500000920E-02 0. -1.
        2   -1    0    0  501    0  0.00000000000E+00  0.00000000000E+00 -0.15133385446E+04  0.15133385446E+04  0.25500000920E-02 0.  1.
    10030    2    1    2    0    0  0.00000000000E+00  0.00000000000E+00 -0.13238098421E+04  0.17028672471E+04  0.10711136090E+04 0.  0.
        2    1    3    3  502    0  0.22407663294E+03  0.40791350858E+03 -0.10831815717E+04  0.11789343007E+04  0.25500000920E-02 0.  1.
       -2    1    3    3    0  502 -0.22407663294E+03 -0.40791350858E+03 -0.24062827033E+03  0.52393294647E+03  0.25500000920E-02 0. -1.
</event>
<event>
 5   0  0.3748901E-03  0.1095079E+04  0.7818609E-02  0.9210002E-01
        2   -1    0    0  501    0  0.00000000000E+00  0.00000000000E+00  0.34287307293E+03  0.34287307294E+03  0.25500000920E-02 0. -1.
       -2   -1    0    0    0  501  0.00000000000E+00  0.00000000000E+00 -0.87437396541E+03  0.87437396541E+03  0.25500000920E-02 0.  1.
    10030    2    1    2    0    0  0.00000000000E+00  0.00000000000E+00 -0.53150089248E+03  0.12172470383E+04  0.10950786062E+04 0.  0.
        5    1    3    3  502    0 -0.11346279006E+03 -0.34608216801E+03 -0.72017451188E+03  0.80704404421E+03  0.46999998093E+01 0.  1.
       -5    1    3    3    0  502  0.11346279006E+03  0.34608216801E+03  0.18867361940E+03  0.41020299414E+03  0.46999998093E+01 0. -1.
</event>
<event>
 5   0  0.3713158E-03  0.1100394E+04  0.7818609E-02  0.9204808E-01
        2   -1    0    0  501    0  0.00000000000E+00  0.00000000000E+00  0.51937244057E+03  0.51937244058E+03  0.25500000920E-02 0. -1.
       -2   -1    0    0    0  501  0.00000000000E+00  0.00000000000E+00 -0.58285138730E+03  0.58285138731E+03  0.25500000920E-02 0.  1.
    10030    2    1    2    0    0  0.00000000000E+00  0.00000000000E+00 -0.63478946730E+02  0.11022238279E+04  0.11003943793E+04 0.  0.
        4    1    3    3  502    0  0.10392091258E+03 -0.50468826354E+03  0.16146857340E+03  0.53998473360E+03  0.12699999809E+01 0.  1.
       -4    1    3    3    0  502 -0.10392091258E+03  0.50468826354E+03 -0.22494752013E+03  0.56223909428E+03  0.12699999809E+01 0. -1.
</event>
<event>
 5   0  0.3744875E-03  0.1083338E+04  0.7818609E-02  0.9221585E-01
       -2   -1    0    0    0  501  0.00000000000E+00  0.00000000000E+00  0.75595917853E+03  0.75595917854E+03  0.25500000920E-02 0.  1.
        2   -1    0    0  501    0  0.00000000000E+00  0.00000000000E+00 -0.38812342115E+03  0.38812342115E+03  0.25500000920E-02 0. -1.
    10030    2    1    2    0    0  0.00000000000E+00  0.00000000000E+00  0.36783575739E+03  0.11440825997E+04  0.10833382900E+04 0.  0.
        2    1    3    3  502    0  0.45797425233E+03 -0.28612896422E+03  0.13917156260E+03  0.55765484289E+03  0.25500000920E-02 0. -1.
       -2    1    3    3    0  502 -0.45797425233E+03  0.28612896422E+03  0.22866419478E+03  0.58642775680E+03  0.25500000920E-02 0.  1.
</event>
<event>
 5   0  0.3748901E-03  0.1099752E+04  0.7818609E-02  0.9205433E-01
        2   -1    0    0  501    0  0.00000000000E+00  0.00000000000E+00  0.14506016207E+04  0.14506016207E+04  0.25500000920E-02 0. -1.
       -2   -1    0    0    0  501  0.00000000000E+00  0.00000000000E+00 -0.20844020786E+03  0.20844020787E+03  0.25500000920E-02 0.  1.
    10030    2    1    2    0    0  0.00000000000E+00  0.00000000000E+00  0.12421614128E+04  0.16590418286E+04  0.10997521600E+04 0.  0.
        5    1    3    3  502    0 -0.13866578643E+03  0.52574564490E+03  0.49755434963E+03  0.73703399127E+03  0.46999998093E+01 0.  1.
       -5    1    3    3    0  502  0.13866578643E+03 -0.52574564490E+03  0.74460706322E+03  0.92200783730E+03  0.46999998093E+01 0. -1.
</event>
<event>
 5   0  0.2298958E-03  0.1110729E+04  0.7818609E-02  0.9194798E-01
        1   -1    0    0  501    0  0.00000000000E+00  0.00000000000E+00  0.20721118954E+03  0.20721118960E+03  0.50400001928E-02 0. -1.
       -1   -1    0    0    0  501  0.00000000000E+00  0.00000000000E+00 -0.14884791163E+04  0.14884791163E+04  0.50400001928E-02 0.  1.
    10030    2    1    2    0    0  0.00000000000E+00  0.00000000000E+00 -0.12812679268E+04  0.16956903059E+04  0.11107286408E+04 0.  0.
        1    1    3    3  502    0  0.53667107154E+03  0.94330432024E+02 -0.47680933496E+03  0.72405884524E+03  0.50400001928E-02 0. -1.
       -1    1    3    3    0  502 -0.53667107154E+03 -0.94330432024E+02 -0.80445859180E+03  0.97163146068E+03  0.50400001928E-02 0.  1.
</event>
<event>
 5   0  0.3962999E-03  0.1094378E+04  0.7818609E-02  0.9210689E-01
       -2   -1    0    0    0  501  0.00000000000E+00  0.00000000000E+00  0.33005182594E+03  0.33005182595E+03  0.25500000920E-02 0. -1.
        2   -1    0    0  501    0  0.00000000000E+00  0.00000000000E+00 -0.90717775273E+03  0.90717775274E+03  0.25500000920E-02 0.  1.
    10030    2    1    2    0    0  0.00000000000E+00  0.00000000000E+00 -0.57712592680E+03  0.12372295787E+04  0.10943777661E+04 0.  0.
        3    1    3    3  502    0  0.13190636896E+03  0.43711654768E+03 -0.62949956957E+03  0.77765023289E+03  0.10100000352E+00 0.  1.
       -3    1    3    3    0  502 -0.13190636896E+03 -0.43711654768E+03  0.52373642770E+02  0.45957934580E+03  0.10100000352E+00 0. -1.
</event>
<event>
 5   0  0.2298958E-03  0.1099575E+04  0.7818609E-02  0.9205606E-01
       -1   -1    0    0    0  501  0.00000000000E+00  0.00000000000E+00  0.42901683729E+03  0.42901683732E+03  0.50400001928E-02 0.  1.
        1   -1    0    0  501    0  0.00000000000E+00  0.00000000000E+00 -0.70455549823E+03  0.70455549825E+03  0.50400001928E-02 0. -1.
    10030    2    1    2    0    0  0.00000000000E+00  0.00000000000E+00 -0.27553866094E+03  0.11335723356E+04  0.10995747752E+04 0.  0.
        1    1    3    3  502    0 -0.54156900375E+03  0.94702677598E+02 -0.13697841854E+03  0.56659391996E+03  0.50400001928E-02 0.  1.
       -1    1    3    3    0  502  0.54156900375E+03 -0.94702677598E+02 -0.13856024240E+03  0.56697841561E+03  0.50400001928E-02 0. -1.
</event>
<event>
 5   0  0.3744875E-03  0.1092867E+04  0.7818609E-02  0.9212172E-01
        2   -1    0    0  501    0  0.00000000000E+00  0.00000000000E+00  0.17474142025E+04  0.17474142025E+04  0.25500000920E-02 0.  1.
       -2   -1    0    0    0  501  0.00000000000E+00  0.00000000000E+00 -0.17087518478E+03  0.17087518480E+03  0.25500000920E-02 0. -1.
    10030    2    1    2    0    0  0.00000000000E+00  0.00000000000E+00  0.15765390177E+04  0.19182893873E+04  0.10928672834E+04 0.  0.
        2    1    3    3  502    0 -0.21694088666E+03  0.49113224399E+03  0.60999397597E+03  0.81262960820E+03  0.25500000920E-02 0.  1.
       -2    1    3    3    0  502  0.21694088666E+03 -0.49113224399E+03  0.96654504176E+03  0.11056597791E+04  0.25500000920E-02 0. -1.
</event>
<event>
 5   0  0.3748901E-03  0.1107482E+04  0.7818609E-02  0.9197930E-01
        2   -1    0    0  501    0  0.00000000000E+00  0.00000000000E+00  0.47014220533E+03  0.47014220534E+03  0.25500000920E-02 0. -1.
       -2   -1    0    0    0  501  0.00000000000E+00  0.00000000000E+00 -0.65220456765E+03  0.65220456766E+03  0.25500000920E-02 0.  1.
    10030    2    1    2    0    0  0.00000000000E+00  0.00000000000E+00 -0.18206236232E+03  0.11223467730E+04  0.11074816365E+04 0.  0.
        5    1    3    3  502    0  0.26184267742E+02  0.35204818102E+03  0.34128974334E+03  0.49104410855E+03  0.46999998093E+01 0. -1.
       -5    1    3    3    0  502 -0.26184267742E+02 -0.35204818102E+03 -0.52335210566E+03  0.63130266444E+03  0.46999998093E+01 0.  1.
</event>
<event>
 5   0  0.2298958E-03  0.1057427E+04  0.7818609E-02  0.9247709E-01
        1   -1    0    0  501    0  0.00000000000E+00  0.00000000000E+00  0.24707452624E+04  0.24707452624E+04  0.50400001928E-02 0. -1.
       -1   -1    0    0    0  501  0.00000000000E+00  0.00000000000E+00 -0.11313920549E+03  0.11313920561E+03  0.50400001928E-02 0.  1.
    10030    2    1    2    0    0  0.00000000000E+00  0.00000000000E+00  0.23576060569E+04  0.25838844680E+04  0.10574273613E+04 0.  0.
        1    1    3    3  502    0  0.46361612768E+03  0.16657423831E+03  0.16478850090E+04  0.17199453170E+04  0.50400001928E-02 0. -1.
       -1    1    3    3    0  502 -0.46361612768E+03 -0.16657423831E+03  0.70972104796E+03  0.86393915102E+03  0.50400001928E-02 0.  1.
</event>
<event>
 5   0  0.2257667E-03  0.1094877E+04  0.7818609E-02  0.9210199E-01
        1   -1    0    0  501    0  0.00000000000E+00  0.00000000000E+00  0.78528806454E+03  0.78528806456E+03  0.50400001928E-02 0.  1.
       -1   -1    0    0    0  501  0.00000000000E+00  0.00000000000E+00 -0.38162958535E+03  0.38162958539E+03  0.50400001928E-02 0. -1.
    10030    2    1    2    0    0  0.00000000000E+00  0.00000000000E+00  0.40365847919E+03  0.11669176499E+04  0.10948774516E+04 0.  0.
        4    1    3    3  502    0  0.46101952984E+03  0.29356593774E+03  0.23498186210E+03  0.59492693258E+03  0.12699999809E+01 0. -1.
       -4    1    3    3    0  502 -0.46101952984E+03 -0.29356593774E+03  0.16867661708E+03  0.57199071736E+03  0.12699999809E+01 0.  1.
</event>
<event>
 5   0  0.2255788E-03  0.1069684E+04  0.7818609E-02  0.9235254E-01
       -1   -1    0    0    0  501  0.00000000000E+00  0.00000000000E+00  0.44663146742E+03  0.44663146745E+03  0.50400001928E-02 0. -1.
        1   -1    0    0  501    0  0.00000000000E+00  0.00000000000E+00 -0.64047449320E+03  0.64047449322E+03  0.50400001928E-02 0.  1.
    10030    2    1    2    0    0  0.00000000000E+00  0.00000000000E+00 -0.19384302577E+03  0.10871059607E+04  0.10696841829E+04 0.  0.
        3    1    3    3  502    0  0.25634710669E+03  0.46731087916E+03 -0.14194606741E+03  0.55158135677E+03  0.10100000352E+00 0.  1.
       -3    1    3    3    0  502 -0.25634710669E+03 -0.46731087916E+03 -0.51896958367E+02  0.53552460389E+03  0.10100000352E+00 0. -1.
</event>
<event>
 5   0  0.1508625E-03  0.1107919E+04  0.7818609E-02  0.9197507E-01
        3   -1    0    0  501    0  0.00000000000E+00  0.00000000000E+00  0.26184105589E+03  0.26184107537E+03  0.10100000352E+00 0. -1.
       -3   -1    0    0    0  501  0.00000000000E+00  0.00000000000E+00 -0.11719756899E+04  0.11719756942E+04  0.10100000352E+00 0.  1.
    10030    2    1    2    0    0  0.00000000000E+00  0.00000000000E+00 -0.91013463400E+03  0.14338167696E+04  0.11079194361E+04 0.  0.
        4    1    3    3  502    0 -0.23643012406E+03 -0.27100752292E+03 -0.10003426056E+04  0.10630292670E+04  0.12699999809E+01 0.  1.
       -4    1    3    3    0  502  0.23643012406E+03  0.27100752292E+03  0.90207971611E+02  0.37078750260E+03  0.12699999809E+01 0. -1.
</event>
<event>
 5   0  0.2300702E-03  0.1035864E+04  0.7818609E-02  0.9270062E-01
        1   -1    0    0  501    0  0.00000000000E+00  0.00000000000E+00  0.69774153925E+03  0.69774153927E+03  0.50400001928E-02 0.  1.
       -1   -1    0    0    0  501  0.00000000000E+00  0.00000000000E+00 -0.38445949727E+03  0.38445949730E+03  0.50400001928E-02 0. -1.
    10030    2    1    2    0    0  0.00000000000E+00  0.00000000000E+00  0.31328204198E+03  0.10822010366E+04  0.10358636231E+04 0.  0.
        5    1    3    3  502    0  0.71338690578E+02 -0.20533663991E+03  0.64775330119E+03  0.68327064452E+03  0.46999998093E+01 0.  1.
       -5    1    3    3    0  502 -0.71338690578E+02  0.20533663991E+03 -0.33447125921E+03  0.39893039205E+03  0.46999998093E+01 0. -1.
</event>
<event>
 5   0  0.2255788E-03  0.1098095E+04  0.7818609E-02  0.9207050E-01
       -1   -1    0    0    0  501  0.00000000000E+00  0.00000000000E+00  0.73870632113E+03  0.73870632115E+03  0.50400001928E-02 0.  1.
        1   -1    0    0  501    0  0.00000000000E+00  0.00000000000E+00 -0.40808283761E+03  0.40808283764E+03  0.50400001928E-02 0. -1.
    10030    2    1    2    0    0  0.00000000000E+00  0.00000000000E+00  0.33062348352E+03  0.11467891588E+04  0.10980953906E+04 0.  0.
        3    1    3    3  502    0 -0.32718643621E+03  0.39164894041E+03  0.37681007668E+03  0.63437031823E+03  0.10100000352E+00 0.  1.
       -3    1    3    3    0  502  0.32718643621E+03 -0.39164894041E+03 -0.46186593162E+02  0.51241884056E+03  0.10100000352E+00 0. -1.
</event>
<event>
 5   0  0.3748901E-03  0.1091814E+04  0.7818609E-02  0.9213207E-01
       -2   -1    0    0    0  501  0.00000000000E+00  0.00000000000E+00  0.22731638331E+03  0.22731638333E+03  0.25500000920E-02 0.  1.
        2   -1    0    0  501    0  0.00000000000E+00  0.00000000000E+00 -0.13110124739E+04  0.13110124739E+04  0.25500000920E-02 0. -1.
    10030    2    1    2    0    0  0.00000000000E+00  0.00000000000E+00 -0.10836960906E+04  0.15383288573E+04  0.10918142957E+04 0.  0.
        5    1    3    3  502    0 -0.39359924246E+03 -0.29327880529E+03 -0.87841010986E+03  0.10062600223E+04  0.46999998093E+01 0. -1.
       -5    1    3    3    0  502  0.39359924246E+03  0.29327880529E+03 -0.20528598077E+03  0.53206883501E+03  0.46999998093E+01 0.  1.
</event>
<event>
 5   0  0.2300702E-03  0.1094933E+04  0.7818609E-02  0.9210145E-01
        1   -1    0    0  501    0  0.00000000000E+00  0.00000000000E+00  0.39920574135E+03  0.39920574138E+03  0.50400001928E-02 0.  1.
       -1   -1    0    0    0  501  0.00000000000E+00  0.00000000000E+00 -0.75078932846E+03  0.75078932848E+03  0.50400001928E-02 0. -1.
    10030    2    1    2    0    0  0.00000000000E+00  0.00000000000E+00 -0.35158358711E+03  0.11499950699E+04  0.10949327112E+04 0.  0.
        5    1    3    3  502    0  0.39973216111E+03 -0.28733959995E+03  0.75724251397E+02  0.49810249806E+03  0.46999998093E+01 0.  1.
       -5    1    3    3    0  502 -0.39973216111E+03  0.28733959995E+03 -0.42730783851E+03  0.65189257180E+03  0.46999998093E+01 0. -1.
</event>
<event>
 5   0  0.3748901E-03  0.1092561E+04  0.7818609E-02  0.9212473E-01
        2   -1    0    0  501    0  0.00000000000E+00  0.00000000000E+00  0.16273902949E+04  0.16273902949E+04  0.25500000920E-02 0. -1.
       -2   -1    0    0    0  501  0.00000000000E+00  0.00000000000E+00 -0.18337488796E+03  0.18337488797E+03  0.25500000920E-02 0.  1.
    10030    2    1    2    0    0  0.00000000000E+00  0.00000000000E+00  0.14440154070E+04  0.18107651829E+04  0.10925612349E+04 0.  0.
        5    1    3    3  502    0 -0.40635452664E+03 -0.78054999189E+02  0.13094669200E+03  0.43403422718E+03  0.46999998093E+01 0.  1.
       -5    1    3    3    0  502  0.40635452664E+03  0.78054999189E+02  0.13130687150E+04  0.13767309557E+04  0.46999998093E+01 0. -1.
</event>
<event>
 5   0  0.2257667E-03  0.1086259E+04  0.7818609E-02  0.9218690E-01
       -1   -1    0    0    0  501  0.00000000000E+00  0.00000000000E+00  0.27780019309E+03  0.27780019314E+03  0.50400001928E-02 0. -1.
        1   -1    0    0  501    0  0.00000000000E+00  0.00000000000E+00 -0.10618763639E+04  0.10618763639E+04  0.50400001928E-02 0.  1.
    10030    2    1    2    0    0  0.00000000000E+00  0.00000000000E+00 -0.78407617084E+03  0.13396765571E+04  0.10862586414E+04 0.  0.
        4    1    3    3  502    0 -0.13739712640E+03  0.34213084895E+03  0.99822735492E+02  0.38196554762E+03  0.12699999809E+01 0. -1.
       -4    1    3    3    0  502  0.13739712640E+03 -0.34213084895E+03 -0.88389890633E+03  0.95771100947E+03  0.12699999809E+01 0.  1.
</event>
<event>
 5   0  0.2300702E-03  0.1116122E+04  0.7818609E-02  0.9189619E-01
        1   -1    0    0  501    0  0.00000000000E+00  0.00000000000E+00  0.55087193819E+03  0.55087193821E+03  0.50400001928E-02 0. -1.
       -1   -1    0    0    0  501  0.00000000000E+00  0.00000000000E+00 -0.56534362154E+03  0.56534362157E+03  0.50400001928E-02 0.  1.
    10030    2    1    2    0    0  0.00000000000E+00  0.00000000000E+00 -0.14471683352E+02  0.11162155598E+04  0.11161217435E+04 0.  0.
        5    1    3    3  502    0 -0.21304141487E+02 -0.39416173244E+03 -0.40172116048E+03  0.56322226389E+03  0.46999998093E+01 0.  1.
       -5    1    3    3    0  502  0.21304141487E+02  0.39416173244E+03  0.38724947713E+03  0.55299329589E+03  0.46999998093E+01 0. -1.
</event>
<event>
 5   0  0.3962999E-03  0.1142687E+04  0.7818609E-02  0.9164557E-01
       -2   -1    0    0    0  501  0.00000000000E+00  0.00000000000E+00  0.39195480928E+03  0.39195480929E+03  0.25500000920E-02 0. -1.
        2   -1    0    0  501    0  0.00000000000E+00  0.00000000000E+00 -0.83283412560E+03  0.83283412561E+03  0.25500000920E-02 0.  1.
    10030    2    1    2    0    0  0.00000000000E+00  0.00000000000E+00 -0.44087931632E+03  0.12247889349E+04  0.11426869053E+04 0.  0.
        3    1    3    3  502    0  0.16878731762E+03 -0.44401031937E+03 -0.56073980260E+03  0.73489009976E+03  0.10100000352E+00 0.  1.
       -3    1    3    3    0  502 -0.16878731762E+03  0.44401031937E+03  0.11986048628E+03  0.48989883514E+03  0.10100000352E+00 0. -1.
</event>
<event>
 5   0  0.3748901E-03  0.1086608E+04  0.7818609E-02  0.9218344E-01
        2   -1    0    0  501    0  0.00000000000E+00  0.00000000000E+00  0.24578554778E+03  0.24578554780E+03  0.25500000920E-02 0. -1.
       -2   -1    0    0    0  501  0.00000000000E+00  0.00000000000E+00 -0.12009625177E+04  0.12009625177E+04  0.25500000920E-02 0.  1.
    10030    2    1    2    0    0  0.00000000000E+00  0.00000000000E+00 -0.95517696992E+03  0.14467480655E+04  0.10866079887E+04 0.  0.
        5    1    3    3  502    0 -0.51911686019E+03  0.79455985899E+02 -0.66285218151E+03  0.84568946591E+03  0.46999998093E+01 0.  1.
       -5    1    3    3    0  502  0.51911686019E+03 -0.79455985899E+02 -0.29232478841E+03  0.60105859959E+03  0.46999998093E+01 0. -1.
</event>
<event>
 5   0  0.1508625E-03  0.1148234E+04  0.7818609E-02  0.9159414E-01
        3   -1    0    0  501    0  0.00000000000E+00  0.00000000000E+00  0.25858017260E+04  0.25858017280E+04  0.10100000352E+00 0.  1.
       -3   -1    0    0    0  501  0.00000000000E+00  0.00000000000E+00 -0.12746931200E+03  0.12746935202E+03  0.10100000352E+00 0. -1.
    10030    2    1    2    0    0  0.00000000000E+00  0.00000000000E+00  0.24583324140E+04  0.27132710800E+04  0.11482341642E+04 0.  0.
        2    1    3    3  502    0  0.18914496505E+03  0.45253784884E+03  0.52404252774E+03  0.71776520766E+03  0.25500000920E-02 0. -1.
       -2    1    3    3    0  502 -0.18914496505E+03 -0.45253784884E+03  0.19342898863E+04  0.19955058724E+04  0.25500000920E-02 0.  1.
</event>
<event>
 5   0  0.3713158E-03  0.1100443E+04  0.7818609E-02  0.9204760E-01
       -2   -1    0    0    0  501  0.00000000000E+00  0.00000000000E+00  0.21372670712E+03  0.21372670714E+03  0.25500000920E-02 0.  1.
        2   -1    0    0  501    0  0.00000000000E+00  0.00000000000E+00 -0.14164995725E+04  0.14164995725E+04  0.25500000920E-02 0. -1.
    10030    2    1    2    0    0  0.00000000000E+00  0.00000000000E+00 -0.12027728654E+04  0.16302262797E+04  0.11004431640E+04 0.  0.
        4    1    3    3  502    0  0.26073483913E+03  0.27465267851E+03 -0.10066093429E+02  0.37883992567E+03  0.12699999809E+01 0.  1.
       -4    1    3    3    0  502 -0.26073483913E+03 -0.27465267851E+03 -0.11927067720E+04  0.12513863540E+04  0.12699999809E+01 0. -1.
</event>
<event>
 5   0  0.2298958E-03  0.1105065E+04  0.7818609E-02  0.9200269E-01
        1   -1    0    0  501    0  0.00000000000E+00  0.00000000000E+00  0.79135262002E+03  0.79135262004E+03  0.50400001928E-02 0. -1.
       -1   -1    0    0    0  501  0.00000000000E+00  0.00000000000E+00 -0.38578510008E+03  0.38578510011E+03  0.50400001928E-02 0.  1.
    10030    2    1    2    0    0  0.00000000000E+00  0.00000000000E+00  0.40556751994E+03  0.11771377202E+04  0.11050647940E+04 0.  0.
        1    1    3    3  502    0  0.41192422233E-01 -0.95441671295E+02  0.78250545037E+03  0.78830444259E+03  0.50400001928E-02 0. -1.
       -1    1    3    3    0  502 -0.41192422233E-01  0.95441671295E+02 -0.37693793043E+03  0.38883327756E+03  0.50400001928E-02 0.  1.
</event>
<event>
 5   0  0.2374100E-03  0.1090979E+04  0.7818609E-02  0.9214029E-01
       -1   -1    0    0    0  501  0.00000000000E+00  0.00000000000E+00  0.19706716545E+03  0.19706716551E+03  0.50400001928E-02 0. -1.
        1   -1    0    0  501    0  0.00000000000E+00  0.00000000000E+00 -0.15099351504E+04  0.15099351504E+04  0.50400001928E-02 0.  1.
    10030    2    1    2    0    0  0.00000000000E+00  0.00000000000E+00 -0.13128679849E+04  0.17070023159E+04  0.10909787169E+04 0.  0.
        2    1    3    3  502    0  0.27233274554E+03 -0.33551442646E+03 -0.11773094926E+04  0.12541103205E+04  0.25500000920E-02 0.  1.
       -2    1    3    3    0  502 -0.27233274554E+03  0.33551442646E+03 -0.13555849237E+03  0.45289199542E+03  0.25500000920E-02 0. -1.
</event>
<event>
 5   0  0.2257667E-03  0.1103318E+04  0.7818609E-02  0.9201964E-01
        1   -1    0    0  501    0  0.00000000000E+00  0.00000000000E+00  0.76326345463E+03  0.76326345465E+03  0.50400001928E-02 0.  1.
       -1   -1    0    0    0  501  0.00000000000E+00  0.00000000000E+00 -0.39871932559E+03  0.39871932562E+03  0.50400001928E-02 0. -1.
    10030    2    1    2    0    0  0.00000000000E+00  0.00000000000E+00  0.36454412904E+03  0.11619827803E+04  0.11033184308E+04 0.  0.
        4    1    3    3  502    0  0.32147472364E+02 -0.21879358000E+03  0.71453733272E+03  0.74797680671E+03  0.12699999809E+01 0.  1.
       -4    1    3    3    0  502 -0.32147472364E+02  0.21879358000E+03 -0.34999320368E+03  0.41400597357E+03  0.12699999809E+01 0. -1.
</event>
<event>
 5   0  0.2257667E-03  0.1108601E+04  0.7818609E-02  0.9196849E-01
       -1   -1    0    0    0  501  0.00000000000E+00  0.00000000000E+00  0.47762989485E+03  0.47762989487E+03  0.50400001928E-02 0. -1.
        1   -1    0    0  501    0  0.00000000000E+00  0.00000000000E+00 -0.64327899925E+03  0.64327899927E+03  0.50400001928E-02 0.  1.
    10030    2    1    2    0    0  0.00000000000E+00  0.00000000000E+00 -0.16564910440E+03  0.11209088941E+04  0.11086014267E+04 0.  0.
        4    1    3    3  502    0 -0.38242359181E+03 -0.33333479230E+03  0.14301082414E+03  0.52708025580E+03  0.12699999809E+01 0.  1.
       -4    1    3    3    0  502  0.38242359181E+03  0.33333479230E+03 -0.30865992854E+03  0.59382863834E+03  0.12699999809E+01 0. -1.
</event>
<event>
 5   0  0.2298958E-03  0.1094424E+04  0.7818609E-02  0.9210644E-01
        1   -1    0    0  501    0  0.00000000000E+00  0.00000000000E+00  0.56723764716E+03  0.56723764719E+03  0.50400001928E-02 0. -1.
       -1   -1    0    0    0  501  0.00000000000E+00  0.00000000000E+00 -0.52789290857E+03  0.52789290860E+03  0.50400001928E-02 0.  1.
    10030    2    1    2    0    0  0.00000000000E+00  0.00000000000E+00  0.39344738593E+02  0.10951305558E+04  0.10944235587E+04 0.  0.
        1    1    3    3  502    0 -0.71102542291E+02 -0.50348641447E+03 -0.18266258280E+03  0.54029599319E+03  0.50400001928E-02 0.  1.
       -1    1    3    3    0  502  0.71102542291E+02  0.50348641447E+03  0.22200732139E+03  0.55483456260E+03  0.50400001928E-02 0. -1.
</event>
<event>
 5   0  0.2300702E-03  0.1108793E+04  0.7818609E-02  0.9196664E-01
        1   -1    0    0  501    0  0.00000000000E+00  0.00000000000E+00  0.62228623130E+03  0.62228623132E+03  0.50400001928E-02 0. -1.
       -1   -1    0    0    0  501  0.00000000000E+00  0.00000000000E+00 -0.49391342262E+03  0.49391342264E+03  0.50400001928E-02 0.  1.
    10030    2    1    2    0    0  0.00000000000E+00  0.00000000000E+00  0.12837280869E+03  0.11161996540E+04  0.11087930779E+04 0.  0.
        5    1    3    3  502    0  0.29106076079E+03 -0.16205693151E+02 -0.41050818534E+03  0.50350576083E+03  0.46999998093E+01 0.  1.
       -5    1    3    3    0  502 -0.29106076079E+03  0.16205693151E+02  0.53888099402E+03  0.61269389313E+03  0.46999998093E+01 0. -1.
</event>
<event>
 5   0  0.3713158E-03  0.1100420E+04  0.7818609E-02  0.9204782E-01
        2   -1    0    0  501    0  0.00000000000E+00  0.00000000000E+00  0.25244200179E+03  0.25244200180E+03  0.25500000920E-02 0.  1.
       -2   -1    0    0    0  501  0.00000000000E+00  0.00000000000E+00 -0.11992111849E+04  0.11992111849E+04  0.25500000920E-02 0. -1.
    10030    2    1    2    0    0  0.00000000000E+00  0.00000000000E+00 -0.94676918308E+03  0.14516531867E+04  0.11004204144E+04 0.  0.
        4    1    3    3  502    0  0.43581394439E+03  0.33585088894E+03 -0.47310331400E+03  0.72564314394E+03  0.12699999809E+01 0.  1.
       -4    1    3    3    0  502 -0.43581394439E+03 -0.33585088894E+03 -0.47366586908E+03  0.72601004274E+03  0.12699999809E+01 0. -1.
</event>
<event>
 5   0  0.2300702E-03  0.1092611E+04  0.7818609E-02  0.9212423E-01
       -1   -1    0    0    0  501  0.00000000000E+00  0.00000000000E+00  0.31985994167E+03  0.31985994171E+03  0.50400001928E-02 0.  1.
        1   -1    0    0  501    0  0.00000000000E+00  0.00000000000E+00 -0.93306418023E+03  0.93306418024E+03  0.50400001928E-02 0. -1.
    10030    2    1    2    0    0  0.00000000000E+00  0.00000000000E+00 -0.61320423856E+03  0.12529241219E+04  0.10926112837E+04 0.  0.
        5    1    3    3  502    0  0.51916977005E+03  0.18882260446E+01 -0.11170297835E+03  0.53107481667E+03  0.46999998093E+01 0.  1.
       -5    1    3    3    0  502 -0.51916977005E+03 -0.18882260446E+01 -0.50150126021E+03  0.72184930527E+03  0.46999998093E+01 0. -1.
</event>
<event>
 5   0  0.3713158E-03  0.1124193E+04  0.7818609E-02  0.9181927E-01
       -2   -1    0    0    0  501  0.00000000000E+00  0.00000000000E+00  0.28822663361E+03  0.28822663362E+03  0.25500000920E-02 0. -1.
        2   -1    0    0  501    0  0.00000000000E+00  0.00000000000E+00 -0.10961952838E+04  0.10961952838E+04  0.25500000920E-02 0.  1.
    10030    2    1    2    0    0  0.00000000000E+00  0.00000000000E+00 -0.80796865018E+03  0.13844219174E+04  0.11241933578E+04 0.  0.
        4    1    3    3  502    0  0.12385634869E+03 -0.53024870508E+03 -0.23225141632E+03  0.59198514984E+03  0.12699999809E+01 0. -1.
       -4    1    3    3    0  502 -0.12385634869E+03  0.53024870508E+03 -0.57571723386E+03  0.79243676757E+03  0.12699999809E+01 0.  1.
</event>
<event>
 5   0  0.2298958E-03  0.1107367E+04  0.7818609E-02  0.9198041E-01
       -1   -1    0    0    0  501  0.00000000000E+00  0.00000000000E+00  0.45069523341E+03  0.45069523344E+03  0.50400001928E-02 0. -1.
        1   -1    0    0  501    0  0.00000000000E+00  0.00000000000E+00 -0.68020588065E+03  0.68020588067E+03  0.50400001928E-02 0.  1.
    10030    2    1    2    0    0  0.00000000000E+00  0.00000000000E+00 -0.22951064725E+03  0.11309011141E+04  0.11073672348E+04 0.  0.
        1    1    3    3  502    0 -0.16883079416E+03  0.48561556502E+03 -0.32464495270E+03  0.60804659310E+03  0.50400001928E-02 0.  1.
       -1    1    3    3    0  502  0.16883079416E+03 -0.48561556502E+03  0.95134305450E+02  0.52285452101E+03  0.50400001928E-02 0. -1.
</event>
<event>
 5   0  0.1508625E-03  0.1123513E+04  0.7818609E-02  0.9182573E-01
        3   -1    0    0  501    0  0.00000000000E+00  0.00000000000E+00  0.77792751311E+03  0.77792751967E+03  0.10100000352E+00 0. -1.
       -3   -1    0    0    0  501  0.00000000000E+00  0.00000000000E+00 -0.40565511519E+03  0.40565512776E+03  0.10100000352E+00 0.  1.
    10030    2    1    2    0    0  0.00000000000E+00  0.00000000000E+00  0.37227239792E+03  0.11835826474E+04  0.11235128593E+04 0.  0.
        5    1    3    3  502    0 -0.54361174075E+03  0.38079979871E+02  0.42522899935E+02  0.54662061484E+03  0.46999998093E+01 0.  1.
       -5    1    3    3    0  502  0.54361174075E+03 -0.38079979871E+02  0.32974949799E+03  0.63696203260E+03  0.46999998093E+01 0. -1.
</event>
<event>
 5   0  0.3992414E-03  0.1090187E+04  0.7818609E-02  0.9214809E-01
        2   -1    0    0  501    0  0.00000000000E+00  0.00000000000E+00  0.11085474805E+04  0.11085474805E+04  0.25500000920E-02 0.  1.
       -2   -1    0    0    0  501  0.00000000000E+00  0.00000000000E+00 -0.26803268548E+03  0.26803268549E+03  0.25500000920E-02 0. -1.
    10030    2    1    2    0    0  0.00000000000E+00  0.00000000000E+00  0.84051479505E+03  0.13765801660E+04  0.10901870632E+04 0.  0.
        1    1    3    3  502    0 -0.47692441828E+03 -0.24268386085E+03  0.28918806609E+03  0.60826153476E+03  0.50400001928E-02 0. -1.
       -1    1    3    3    0  502  0.47692441828E+03  0.24268386085E+03  0.55132672896E+03  0.76831863127E+03  0.50400001928E-02 0.  1.
</event>
<event>
 5   0  0.2255788E-03  0.1116525E+04  0.7818609E-02  0.9189234E-01
       -1   -1    0    0    0  501  0.00000000000E+00  0.00000000000E+00  0.19139376391E+03  0.19139376398E+03  0.50400001928E-02 0. -1.
        1   -1    0    0  501    0  0.00000000000E+00  0.00000000000E+00 -0.16283543781E+04  0.16283543781E+04  0.50400001928E-02 0.  1.
    10030    2    1    2    0    0  0.00000000000E+00  0.00000000000E+00 -0.14369606142E+04  0.18197481421E+04  0.11165247395E+04 0.  0.
        3    1    3    3  502    0  0.42621725238E+03  0.31658656852E+03 -0.43727559785E+03  0.68782131420E+03  0.10100000352E+00 0. -1.
       -3    1    3    3    0  502 -0.42621725238E+03 -0.31658656852E+03 -0.99968501634E+03  0.11319268279E+04  0.10100000352E+00 0.  1.
</event>
<event>
 5   0  0.3744875E-03  0.1087942E+04  0.7818609E-02  0.9217025E-01
       -2   -1    0    0    0  501  0.00000000000E+00  0.00000000000E+00  0.27917513142E+03  0.27917513143E+03  0.25500000920E-02 0. -1.
        2   -1    0    0  501    0  0.00000000000E+00  0.00000000000E+00 -0.10599236945E+04  0.10599236945E+04  0.25500000920E-02 0.  1.
    10030    2    1    2    0    0  0.00000000000E+00  0.00000000000E+00 -0.78074856304E+03  0.13390988259E+04  0.10879417939E+04 0.  0.
        2    1    3    3  502    0  0.27383743032E+03 -0.86367570283E+02  0.17829952979E+03  0.33798967110E+03  0.25500000920E-02 0. -1.
       -2    1    3    3    0  502 -0.27383743032E+03  0.86367570283E+02 -0.95904809283E+03  0.10011091548E+04  0.25500000920E-02 0.  1.
</event>
<event>
 5   0  0.2298958E-03  0.1107406E+04  0.7818609E-02  0.9198004E-01
        1   -1    0    0  501    0  0.00000000000E+00  0.00000000000E+00  0.21415179080E+04  0.21415179081E+04  0.50400001928E-02 0. -1.
       -1   -1    0    0    0  501  0.00000000000E+00  0.00000000000E+00 -0.14316336171E+03  0.14316336180E+03  0.50400001928E-02 0.  1.
    10030    2    1    2    0    0  0.00000000000E+00  0.00000000000E+00  0.19983545463E+04  0.22846812699E+04  0.11074058028E+04 0.  0.
        1    1    3    3  502    0 -0.22927714160E+03 -0.30086480981E+03  0.18333898328E+04  0.18720058548E+04  0.50400001928E-02 0. -1.
       -1    1    3    3    0  502  0.22927714160E+03  0.30086480981E+03  0.16496471355E+03  0.41267541505E+03  0.50400001928E-02 0.  1.
</event>
<event>
 5   0  0.2255788E-03  0.1098140E+04  0.7818609E-02  0.9207007E-01
       -1   -1    0    0    0  501  0.00000000000E+00  0.00000000000E+00  0.40298112438E+03  0.40298112441E+03  0.50400001928E-02 0. -1.
        1   -1    0    0  501    0  0.00000000000E+00  0.00000000000E+00 -0.74811869292E+03  0.74811869294E+03  0.50400001928E-02 0.  1.
    10030    2    1    2    0    0  0.00000000000E+00  0.00000000000E+00 -0.34513756855E+03  0.11510998173E+04  0.10981397217E+04 0.  0.
        3    1    3    3  502    0  0.42583666331E+02  0.35808719868E+03  0.26145026588E+03  0.44541672872E+03  0.10100000352E+00 0. -1.
       -3    1    3    3    0  502 -0.42583666331E+02 -0.35808719868E+03 -0.60658783443E+03  0.70568308863E+03  0.10100000352E+00 0.  1.
</event>
<event>
 5   0  0.2298958E-03  0.1118205E+04  0.7818609E-02  0.9187627E-01
       -1   -1    0    0    0  501  0.00000000000E+00  0.00000000000E+00  0.48959453434E+03  0.48959453437E+03  0.50400001928E-02 0. -1.
        1   -1    0    0  501    0  0.00000000000E+00  0.00000000000E+00 -0.63847872959E+03  0.63847872961E+03  0.50400001928E-02 0.  1.
    10030    2    1    2    0    0  0.00000000000E+00  0.00000000000E+00 -0.14888419525E+03  0.11280732640E+04  0.11182051624E+04 0.  0.
        1    1    3    3  502    0 -0.42735607230E+03  0.35742160325E+03 -0.12189207261E+03  0.57029912536E+03  0.50400001928E-02 0.  1.
       -1    1    3    3    0  502  0.42735607230E+03 -0.35742160325E+03 -0.26992122632E+02  0.55777413861E+03  0.50400001928E-02 0. -1.
</event>
<event>
 5   0  0.3748901E-03  0.1103357E+04  0.7818609E-02  0.9201926E-01
        2   -1    0    0  501    0  0.00000000000E+00  0.00000000000E+00  0.97633607139E+03  0.97633607140E+03  0.25500000920E-02 0. -1.
       -2   -1    0    0    0  501  0.00000000000E+00  0.00000000000E+00 -0.31172574634E+03  0.31172574635E+03  0.25500000920E-02 0.  1.
    10030    2    1    2    0    0  0.00000000000E+00  0.00000000000E+00  0.66461032506E+03  0.12880618177E+04  0.11033568608E+04 0.  0.
        5    1    3    3  502    0  0.25188441803E+03 -0.37445158087E+03 -0.38089583733E+02  0.45291572378E+03  0.46999998093E+01 0.  1.
       -5    1    3    3    0  502 -0.25188441803E+03  0.37445158087E+03  0.70269990879E+03  0.83514609397E+03  0.46999998093E+01 0. -1.
</event>
<event>
 5   0  0.3962999E-03  0.1090528E+04  0.7818609E-02  0.9214473E-01
       -2   -1    0    0    0  501  0.00000000000E+00  0.00000000000E+00  0.37810993583E+03  0.37810993584E+03  0.25500000920E-02 0. -1.
        2   -1    0    0  501    0  0.00000000000E+00  0.00000000000E+00 -0.78631378937E+03  0.78631378938E+03  0.25500000920E-02 0.  1.
    10030    2    1    2    0    0  0.00000000000E+00  0.00000000000E+00 -0.40820385354E+03  0.11644237252E+04  0.10905284159E+04 0.  0.
        3    1    3    3  502    0 -0.15190940956E+03 -0.36955578789E+03 -0.60027593738E+03  0.72109580520E+03  0.10100000352E+00 0.  1.
       -3    1    3    3    0  502  0.15190940956E+03  0.36955578789E+03  0.19207208384E+03  0.44332792002E+03  0.10100000352E+00 0. -1.
</event>
<event>
 5   0  0.3992414E-03  0.1060638E+04  0.7818609E-02  0.9244430E-01
        2   -1    0    0  501    0  0.00000000000E+00  0.00000000000E+00  0.34902723469E+03  0.34902723470E+03  0.25500000920E-02 0.  1.
       -2   -1    0    0    0  501  0.00000000000E+00  0.00000000000E+00 -0.80577709866E+03  0.80577709866E+03  0.25500000920E-02 0. -1.
    10030    2    1    2    0    0  0.00000000000E+00  0.00000000000E+00 -0.45674986397E+03  0.11548043334E+04  0.10606378317E+04 0.  0.
        1    1    3    3  502    0  0.13042969802E+03  0.32114028350E+02 -0.78694808116E+03  0.79832981869E+03  0.50400001928E-02 0. -1.
       -1    1    3    3    0  502 -0.13042969802E+03 -0.32114028350E+02  0.33019821720E+03  0.35647451467E+03  0.50400001928E-02 0.  1.
</event>
<event>
 5   0  0.2374100E-03  0.1151766E+04  0.7818609E-02  0.9156156E-01
        1   -1    0    0  501    0  0.00000000000E+00  0.00000000000E+00  0.11521490851E+04  0.11521490851E+04  0.50400001928E-02 0. -1.
       -1   -1    0    0    0  501  0.00000000000E+00  0.00000000000E+00 -0.28784571174E+03  0.28784571179E+03  0.50400001928E-02 0.  1.
    10030    2    1    2    0    0  0.00000000000E+00  0.00000000000E+00  0.86430337337E+03  0.14399947969E+04  0.11517659024E+04 0.  0.
        2    1    3    3  502    0  0.18168605272E+03  0.29778887217E+03 -0.14072070386E+03  0.37615203129E+03  0.25500000920E-02 0.  1.
       -2    1    3    3    0  502 -0.18168605272E+03 -0.29778887217E+03  0.10050240772E+04  0.10638427656E+04  0.25500000920E-02 0. -1.
</event>
<event>
 5   0  0.2298958E-03  0.1099763E+04  0.7818609E-02  0.9205423E-01
        1   -1    0    0  501    0  0.00000000000E+00  0.00000000000E+00  0.98083502862E+03  0.98083502864E+03  0.50400001928E-02 0.  1.
       -1   -1    0    0    0  501  0.00000000000E+00  0.00000000000E+00 -0.30827799367E+03  0.30827799371E+03  0.50400001928E-02 0. -1.
    10030    2    1    2    0    0  0.00000000000E+00  0.00000000000E+00  0.67255703495E+03  0.12891130223E+04  0.10997633469E+04 0.  0.
        1    1    3    3  502    0  0.26498874338E+03 -0.13420165057E+03  0.87870564541E+03  0.92755200848E+03  0.50400001928E-02 0.  1.
       -1    1    3    3    0  502 -0.26498874338E+03  0.13420165057E+03 -0.20614861046E+03  0.36156101387E+03  0.50400001928E-02 0. -1.
</event>
<event>
 5   0  0.3748901E-03  0.1094623E+04  0.7818609E-02  0.9210448E-01
        2   -1    0    0  501    0  0.00000000000E+00  0.00000000000E+00  0.26424726555E+04  0.26424726555E+04  0.25500000920E-02 0.  1.
       -2   -1    0    0    0  501  0.00000000000E+00  0.00000000000E+00 -0.11335976836E+03  0.11335976839E+03  0.25500000920E-02 0. -1.
    10030    2    1    2    0    0  0.00000000000E+00  0.00000000000E+00  0.25291128872E+04  0.27558324239E+04  0.10946233840E+04 0.  0.
        5    1    3    3  502    0  0.51964832959E+03 -0.89832369883E+02  0.89605779330E+03  0.10397335717E+04  0.46999998093E+01 0. -1.
       -5    1    3    3    0  502 -0.51964832959E+03  0.89832369883E+02  0.16330550939E+04  0.17160988523E+04  0.46999998093E+01 0.  1.
</event>
<event>
 5   0  0.2255788E-03  0.1106441E+04  0.7818609E-02  0.9198936E-01
       -1   -1    0    0    0  501  0.00000000000E+00  0.00000000000E+00  0.22628804594E+03  0.22628804600E+03  0.50400001928E-02 0. -1.
        1   -1    0    0  501    0  0.00000000000E+00  0.00000000000E+00 -0.13524935965E+04  0.13524935965E+04  0.50400001928E-02 0.  1.
    10030    2    1    2    0    0  0.00000000000E+00  0.00000000000E+00 -0.11262055505E+04  0.15787816425E+04  0.11064413823E+04 0.  0.
        3    1    3    3  502    0 -0.31957152315E+03  0.15146504993E+03 -0.11701403193E+04  0.12224140038E+04  0.10100000352E+00 0.  1.
       -3    1    3    3    0  502  0.31957152315E+03 -0.15146504993E+03  0.43934768764E+02  0.35636763863E+03  0.10100000352E+00 0. -1.
</event>
<event>
 5   0  0.2257667E-03  0.1108955E+04  0.7818609E-02  0.9196508E-01
        1   -1    0    0  501    0  0.00000000000E+00  0.00000000000E+00  0.54582133308E+03  0.54582133310E+03  0.50400001928E-02 0. -1.
       -1   -1    0    0    0  501  0.00000000000E+00  0.00000000000E+00 -0.56327045226E+03  0.56327045228E+03  0.50400001928E-02 0.  1.
    10030    2    1    2    0    0  0.00000000000E+00  0.00000000000E+00 -0.17449119184E+02  0.11090917854E+04  0.11089545151E+04 0.  0.
        4    1    3    3  502    0 -0.43241863965E+03 -0.27972804870E+03  0.19675099980E+03  0.55131318682E+03  0.12699999809E+01 0. -1.
       -4    1    3    3    0  502  0.43241863965E+03  0.27972804870E+03 -0.21420011898E+03  0.55777859856E+03  0.12699999809E+01 0.  1.
</event>
<event>
 5   0  0.3962999E-03  0.1099224E+04  0.7818609E-02  0.9205949E-01
        2   -1    0    0  501    0  0.00000000000E+00  0.00000000000E+00  0.22527553399E+04  0.22527553399E+04  0.25500000920E-02 0. -1.
       -2   -1    0    0    0  501  0.00000000000E+00  0.00000000000E+00 -0.13409054015E+03  0.13409054017E+03  0.25500000920E-02 0.  1.
    10030    2    1    2    0    0  0.00000000000E+00  0.00000000000E+00  0.21186647997E+04  0.23868458801E+04  0.10992236904E+04 0.  0.
        3    1    3    3  502    0  0.28159321171E+03  0.11573179906E+03  0.65734535666E+02  0.31146368260E+03  0.10100000352E+00 0.  1.
       -3    1    3    3    0  502 -0.28159321171E+03 -0.11573179906E+03  0.20529302641E+04  0.20753821975E+04  0.10100000352E+00 0. -1.
</event>
<event>
 5   0  0.2300702E-03  0.1120176E+04  0.7818609E-02  0.9185747E-01
        1   -1    0    0  501    0  0.00000000000E+00  0.00000000000E+00  0.71176602464E+03  0.71176602466E+03  0.50400001928E-02 0.  1.
       -1   -1    0    0    0  501  0.00000000000E+00  0.00000000000E+00 -0.44073288620E+03  0.44073288623E+03  0.50400001928E-02 0. -1.
    10030    2    1    2    0    0  0.00000000000E+00  0.00000000000E+00  0.27103313844E+03  0.11524989109E+04  0.11201762261E+04 0.  0.
        5    1    3    3  502    0  0.35295556789E+03 -0.22440044183E+03 -0.24771418998E+03  0.48612508792E+03  0.46999998093E+01 0. -1.
       -5    1    3    3    0  502 -0.35295556789E+03  0.22440044183E+03  0.51874732842E+03  0.66637382297E+03  0.46999998093E+01 0.  1.
</event>
<event>
 5   0  0.3748901E-03  0.1081197E+04  0.7818609E-02  0.9223715E-01
       -2   -1    0    0    0  501  0.00000000000E+00  0.00000000000E+00  0.24156525112E+03  0.24156525113E+03  0.25500000920E-02 0. -1.
        2   -1    0    0  501    0  0.00000000000E+00  0.00000000000E+00 -0.12098039169E+04  0.12098039169E+04  0.25500000920E-02 0.  1.
    10030    2    1    2    0    0  0.00000000000E+00  0.00000000000E+00 -0.96823866577E+03  0.14513691680E+04  0.10811967203E+04 0.  0.
        5    1    3    3  502    0  0.26361059742E+03 -0.23386838372E+03  0.66154550435E+02  0.35858539083E+03  0.46999998093E+01 0. -1.
       -5    1    3    3    0  502 -0.26361059742E+03  0.23386838372E+03 -0.10343932162E+04  0.10927837772E+04  0.46999998093E+01 0.  1.
</event>
<event>
 5   0  0.3713158E-03  0.1095796E+04  0.7818609E-02  0.9209299E-01
        2   -1    0    0  501    0  0.00000000000E+00  0.00000000000E+00  0.21269808500E+04  0.21269808500E+04  0.25500000920E-02 0. -1.
       -2   -1    0    0    0  501  0.00000000000E+00  0.00000000000E+00 -0.14113540213E+03  0.14113540215E+03  0.25500000920E-02 0.  1.
    10030    2    1    2    0    0  0.00000000000E+00  0.00000000000E+00  0.19858454479E+04  0.22681162522E+04  0.10957961446E+04 0.  0.
        4    1    3    3  502    0 -0.14013486024E+03 -0.27788282066E+03  0.19262642550E+04  0.19512437660E+04  0.12699999809E+01 0. -1.
       -4    1    3    3    0  502  0.14013486024E+03  0.27788282066E+03  0.59581192847E+02  0.31687248620E+03  0.12699999809E+01 0.  1.
</event>
<event>
 5   0  0.3992414E-03  0.1091672E+04  0.7818609E-02  0.9213347E-01
        2   -1    0    0  501    0  0.00000000000E+00  0.00000000000E+00  0.63644026854E+03  0.63644026854E+03  0.25500000920E-02 0. -1.
       -2   -1    0    0    0  501  0.00000000000E+00  0.00000000000E+00 -0.46813048779E+03  0.46813048779E+03  0.25500000920E-02 0.  1.
    10030    2    1    2    0    0  0.00000000000E+00  0.00000000000E+00  0.16830978075E+03  0.11045707563E+04  0.10916722830E+04 0.  0.
        1    1    3    3  502    0  0.33390471291E+03 -0.40148598727E+03  0.24494676288E+03  0.57678615791E+03  0.50400001928E-02 0.  1.
       -1    1    3    3    0  502 -0.33390471291E+03  0.40148598727E+03 -0.76636982127E+02  0.52778459843E+03  0.50400001928E-02 0. -1.
</event>
<event>
 5   0  0.3992414E-03  0.1107477E+04  0.7818609E-02  0.9197935E-01
       -2   -1    0    0    0  501  0.00000000000E+00  0.00000000000E+00  0.28646422313E+03  0.28646422314E+03  0.25500000920E-02 0. -1.
        2   -1    0    0  501    0  0.00000000000E+00  0.00000000000E+00 -0.10703816914E+04  0.10703816914E+04  0.25500000920E-02 0.  1.
    10030    2    1    2    0    0  0.00000000000E+00  0.00000000000E+00 -0.78391746825E+03  0.13568459145E+04  0.11074765184E+04 0.  0.
        1    1    3    3  502    0 -0.49379431158E+03  0.92999201842E+02 -0.67704265359E+03  0.84313013734E+03  0.50400001928E-02 0.  1.
       -1    1    3    3    0  502  0.49379431158E+03 -0.92999201842E+02 -0.10687481466E+03  0.51371577718E+03  0.50400001928E-02 0. -1.
</event>
<event>
 5   0  0.2374100E-03  0.1125579E+04  0.7818609E-02  0.9180613E-01
        1   -1    0    0  501    0  0.00000000000E+00  0.00000000000E+00  0.39456441886E+03  0.39456441889E+03  0.50400001928E-02 0. -1.
       -1   -1    0    0    0  501  0.00000000000E+00  0.00000000000E+00 -0.80273839483E+03  0.80273839485E+03  0.50400001928E-02 0.  1.
    10030    2    1    2    0    0  0.00000000000E+00  0.00000000000E+00 -0.40817397597E+03  0.11973028137E+04  0.11255789769E+04 0.  0.
        2    1    3    3  502    0 -0.35987751469E+03 -0.27313230606E+03  0.15288465740E+03  0.47695576385E+03  0.25500000920E-02 0. -1.
       -2    1    3    3    0  502  0.35987751469E+03  0.27313230606E+03 -0.56105863337E+03  0.72034704989E+03  0.25500000920E-02 0.  1.
</event>
<event>
 5   0  0.3713158E-03  0.1098283E+04  0.7818609E-02  0.9206867E-01
        2   -1    0    0  501    0  0.00000000000E+00  0.00000000000E+00  0.12122284762E+04  0.12122284762E+04  0.25500000920E-02 0.  1.
       -2   -1    0    0    0  501  0.00000000000E+00  0.00000000000E+00 -0.24876222384E+03  0.24876222385E+03  0.25500000920E-02 0. -1.
    10030    2    1    2    0    0  0.00000000000E+00  0.00000000000E+00  0.96346625235E+03  0.14609907000E+04  0.10982834817E+04 0.  0.
        4    1    3    3  502    0 -0.96418380305E+02 -0.46815698686E+03  0.84136217282E+03  0.96765664735E+03  0.12699999809E+01 0.  1.
       -4    1    3    3    0  502  0.96418380305E+02  0.46815698686E+03  0.12210407953E+03  0.49333405269E+03  0.12699999809E+01 0. -1.
</event>
<event>
 5   0  0.2300702E-03  0.1101714E+04  0.7818609E-02  0.9203523E-01
       -1   -1    0    0    0  501  0.00000000000E+00  0.00000000000E+00  0.34659147260E+03  0.34659147264E+03  0.50400001928E-02 0.  1.
        1   -1    0    0  501    0  0.00000000000E+00  0.00000000000E+00 -0.87550800038E+03  0.87550800039E+03  0.50400001928E-02 0. -1.
    10030    2    1    2    0    0  0.00000000000E+00  0.00000000000E+00 -0.52891652778E+03  0.12220994730E+04  0.11017143135E+04 0.  0.
        5    1    3    3  502    0 -0.21325578024E+03  0.11779504755E+02  0.29876814204E+03  0.36728909219E+03  0.46999998093E+01 0.  1.
       -5    1    3    3    0  502  0.21325578024E+03 -0.11779504755E+02 -0.82768466983E+03  0.85481038085E+03  0.46999998093E+01 0. -1.
</event>
<event>
 5   0  0.2255788E-03  0.1081122E+04  0.7818609E-02  0.9223790E-01
       -1   -1    0    0    0  501  0.00000000000E+00  0.00000000000E+00  0.45814288102E+03  0.45814288105E+03  0.50400001928E-02 0. -1.
        1   -1    0    0  501    0  0.00000000000E+00  0.00000000000E+00 -0.63780573415E+03  0.63780573417E+03  0.50400001928E-02 0.  1.
    10030    2    1    2    0    0  0.00000000000E+00  0.00000000000E+00 -0.17966285312E+03  0.10959486152E+04  0.10811219295E+04 0.  0.
        3    1    3    3  502    0 -0.49226965782E+03 -0.83303234335E+02  0.12022350836E+03  0.51353923611E+03  0.10100000352E+00 0. -1.
       -3    1    3    3    0  502  0.49226965782E+03  0.83303234335E+02 -0.29988636148E+03  0.58240937910E+03  0.10100000352E+00 0.  1.
</event>
<event>
 5   0  0.3713158E-03  0.1038298E+04  0.7818609E-02  0.9267510E-01
        2   -1    0    0  501    0  0.00000000000E+00  0.00000000000E+00  0.97180921086E+03  0.97180921086E+03  0.25500000920E-02 0. -1.
       -2   -1    0    0    0  501  0.00000000000E+00  0.00000000000E+00 -0.27733387671E+03  0.27733387672E+03  0.25500000920E-02 0.  1.
    10030    2    1    2    0    0  0.00000000000E+00  0.00000000000E+00  0.69447533415E+03  0.12491430876E+04  0.10382978684E+04 0.  0.
        4    1    3    3  502    0 -0.67533643703E+02 -0.75857006664E+02 -0.26526336411E+03  0.28404461574E+03  0.12699999809E+01 0.  1.
       -4    1    3    3    0  502  0.67533643703E+02  0.75857006664E+02  0.95973869826E+03  0.96509847183E+03  0.12699999809E+01 0. -1.
</event>
<event>
 5   0  0.2257667E-03  0.1103780E+04  0.7818609E-02  0.9201515E-01
        1   -1    0    0  501    0  0.00000000000E+00  0.00000000000E+00  0.74309542151E+03  0.74309542153E+03  0.50400001928E-02 0.  1.
       -1   -1    0    0    0  501  0.00000000000E+00  0.00000000000E+00 -0.40988350614E+03  0.40988350617E+03  0.50400001928E-02 0. -1.
    10030    2    1    2    0    0  0.00000000000E+00  0.00000000000E+00  0.33321191537E+03  0.11529789277E+04  0.11037799723E+04 0.  0.
        4    1    3    3  502    0  0.44431978954E+03 -0.15636539610E+03 -0.13380778159E+03  0.48966963127E+03  0.12699999809E+01 0. -1.
       -4    1    3    3    0  502 -0.44431978954E+03  0.15636539610E+03  0.46701969696E+03  0.66330929643E+03  0.12699999809E+01 0.  1.
</event>
<event>
 5   0  0.3992414E-03  0.1149756E+04  0.7818609E-02  0.9158009E-01
       -2   -1    0    0    0  501  0.00000000000E+00  0.00000000000E+00  0.32279342031E+03  0.32279342032E+03  0.25500000920E-02 0. -1.
        2   -1    0    0  501    0  0.00000000000E+00  0.00000000000E+00 -0.10238272160E+04  0.10238272160E+04  0.25500000920E-02 0.  1.
    10030    2    1    2    0    0  0.00000000000E+00  0.00000000000E+00 -0.70103379564E+03  0.13466206363E+04  0.11497559547E+04 0.  0.
        1    1    3    3  502    0  0.49230075721E+03 -0.21018530751E+03 -0.10498768232E+03  0.54549089131E+03  0.50400001928E-02 0. -1.
       -1    1    3    3    0  502 -0.49230075721E+03  0.21018530751E+03 -0.59604611332E+03  0.80112974496E+03  0.50400001928E-02 0.  1.
</event>
<event>
 5   0  0.3962999E-03  0.1090308E+04  0.7818609E-02  0.9214691E-01
       -2   -1    0    0    0  501  0.00000000000E+00  0.00000000000E+00  0.18765378162E+03  0.18765378164E+03  0.25500000920E-02 0.  1.
        2   -1    0    0  501    0  0.00000000000E+00  0.00000000000E+00 -0.15837285215E+04  0.15837285215E+04  0.25500000920E-02 0. -1.
    10030    2    1    2    0    0  0.00000000000E+00  0.00000000000E+00 -0.13960747398E+04  0.17713823031E+04  0.10903075642E+04 0.  0.
        3    1    3    3  502    0 -0.12812187435E+03 -0.40933976870E+03 -0.15137178352E+03  0.45484908263E+03  0.10100000352E+00 0.  1.
       -3    1    3    3    0  502  0.12812187435E+03  0.40933976870E+03 -0.12447029563E+04  0.13165332205E+04  0.10100000352E+00 0. -1.
</event>
<event>
 5   0  0.3962999E-03  0.1104300E+04  0.7818609E-02  0.9201011E-01
        2   -1    0    0  501    0  0.00000000000E+00  0.00000000000E+00  0.56595217240E+03  0.56595217241E+03  0.25500000920E-02 0.  1.
       -2   -1    0    0    0  501  0.00000000000E+00  0.00000000000E+00 -0.53868410340E+03  0.53868410340E+03  0.25500000920E-02 0. -1.
    10030    2    1    2    0    0  0.00000000000E+00  0.00000000000E+00  0.27268069006E+02  0.11046362758E+04  0.11042996669E+04 0.  0.
        3    1    3    3  502    0  0.76723487127E+02 -0.53783885312E+03  0.11221509153E+03  0.55475162223E+03  0.10100000352E+00 0. -1.
       -3    1    3    3    0  502 -0.76723487127E+02  0.53783885312E+03 -0.84947022525E+02  0.54988465358E+03  0.10100000352E+00 0.  1.
</event>
<event>
 5   0  0.2374100E-03  0.1117414E+04  0.7818609E-02  0.9188383E-01
       -1   -1    0    0    0  501  0.00000000000E+00  0.00000000000E+00  0.26869693444E+03  0.26869693449E+03  0.50400001928E-02 0. -1.
        1   -1    0    0  501    0  0.00000000000E+00  0.00000000000E+00 -0.11617315761E+04  0.11617315762E+04  0.50400001928E-02 0.  1.
    10030    2    1    2    0    0  0.00000000000E+00  0.00000000000E+00 -0.89303464169E+03  0.14304285106E+04  0.11174143604E+04 0.  0.
        2    1    3    3  502    0 -0.84153415013E+02  0.42595166640E+02 -0.11514663764E+04  0.11553228819E+04  0.25500000920E-02 0.  1.
       -2    1    3    3    0  502  0.84153415013E+02 -0.42595166640E+02  0.25843173468E+03  0.27510562876E+03  0.25500000920E-02 0. -1.
</event>
<event>
 5   0  0.3748901E-03  0.1105758E+04  0.7818609E-02  0.9199598E-01
        2   -1    0    0  501    0  0.00000000000E+00  0.00000000000E+00  0.15676934154E+04  0.15676934154E+04  0.25500000920E-02 0.  1.
       -2   -1    0    0    0  501  0.00000000000E+00  0.00000000000E+00 -0.19498400546E+03  0.19498400547E+03  0.25500000920E-02 0. -1.
    10030    2    1    2    0    0  0.00000000000E+00  0.00000000000E+00  0.13727094099E+04  0.17626774209E+04  0.11057579147E+04 0.  0.
        5    1    3    3  502    0 -0.54995630319E+03  0.13052648436E+02  0.77411285147E+03  0.94968158025E+03  0.46999998093E+01 0.  1.
       -5    1    3    3    0  502  0.54995630319E+03 -0.13052648436E+02  0.59859655846E+03  0.81299584061E+03  0.46999998093E+01 0. -1.
</event>
<event>
 5   0  0.3748901E-03  0.1109510E+04  0.7818609E-02  0.9195972E-01
        2   -1    0    0  501    0  0.00000000000E+00  0.00000000000E+00  0.12958394622E+04  0.12958394622E+04  0.25500000920E-02 0. -1.
       -2   -1    0    0    0  501  0.00000000000E+00  0.00000000000E+00 -0.23749310582E+03  0.23749310584E+03  0.25500000920E-02 0.  1.
    10030    2    1    2    0    0  0.00000000000E+00  0.00000000000E+00  0.10583463563E+04  0.15333325680E+04  0.11095096909E+04 0.  0.
        5    1    3    3  502    0  0.48077376964E+03 -0.18544344936E+03  0.81306442848E+03  0.96261547117E+03  0.46999998093E+01 0. -1.
       -5    1    3    3    0  502 -0.48077376964E+03  0.18544344936E+03  0.24528192785E+03  0.57071709682E+03  0.46999998093E+01 0.  1.
</event>
<event>
 5   0  0.3713158E-03  0.1066321E+04  0.7818609E-02  0.9238654E-01
        2   -1    0    0  501    0  0.00000000000E+00  0.00000000000E+00  0.86624129220E+03  0.86624129221E+03  0.25500000920E-02 0. -1.
       -2   -1    0    0    0  501  0.00000000000E+00  0.00000000000E+00 -0.32815365840E+03  0.32815365841E+03  0.25500000920E-02 0.  1.
    10030    2    1    2    0    0  0.00000000000E+00  0.00000000000E+00  0.53808763380E+03  0.11943949506E+04  0.10663212445E+04 0.  0.
        4    1    3    3  502    0  0.16637943678E+03  0.16351784600E+03  0.80604003014E+03  0.83911998310E+03  0.12699999809E+01 0. -1.
       -4    1    3    3    0  502 -0.16637943678E+03 -0.16351784600E+03 -0.26795239634E+03  0.35527496752E+03  0.12699999809E+01 0.  1.
</event>
<event>
 5   0  0.3713158E-03  0.1094889E+04  0.7818609E-02  0.9210188E-01
       -2   -1    0    0    0  501  0.00000000000E+00  0.00000000000E+00  0.27820405383E+03  0.27820405384E+03  0.25500000920E-02 0.  1.
        2   -1    0    0  501    0  0.00000000000E+00  0.00000000000E+00 -0.10772505553E+04  0.10772505553E+04  0.25500000920E-02 0. -1.
    10030    2    1    2    0    0  0.00000000000E+00  0.00000000000E+00 -0.79904650147E+03  0.13554546091E+04  0.10948889834E+04 0.  0.
        4    1    3    3  502    0  0.39287283213E+03  0.72562017225E+01  0.72361517090E+02  0.39954914184E+03  0.12699999809E+01 0.  1.
       -4    1    3    3    0  502 -0.39287283213E+03 -0.72562017225E+01 -0.87140801856E+03  0.95590546729E+03  0.12699999809E+01 0. -1.
</event>
<event>
 5   0  0.2374100E-03  0.1189546E+04  0.7818609E-02  0.9122056E-01
        1   -1    0    0  501    0  0.00000000000E+00  0.00000000000E+00  0.92412679062E+03  0.92412679064E+03  0.50400001928E-02 0. -1.
       -1   -1    0    0    0  501  0.00000000000E+00  0.00000000000E+00 -0.38279918394E+03  0.38279918397E+03  0.50400001928E-02 0.  1.
    10030    2    1    2    0    0  0.00000000000E+00  0.00000000000E+00  0.54132760668E+03  0.13069259746E+04  0.11895461006E+04 0.  0.
        2    1    3    3  502    0  0.35722962695E+02 -0.14736811610E+03 -0.36120538919E+03  0.39174331506E+03  0.25500000920E-02 0.  1.
       -2    1    3    3    0  502 -0.35722962695E+02  0.14736811610E+03  0.90253299587E+03  0.91518265955E+03  0.25500000920E-02 0. -1.
</event>
<event>
 5   0  0.3962999E-03  0.1112279E+04  0.7818609E-02  0.9193306E-01
        2   -1    0    0  501    0  0.00000000000E+00  0.00000000000E+00  0.96202901605E+03  0.96202901605E+03  0.25500000920E-02 0.  1.
       -2   -1    0    0    0  501  0.00000000000E+00  0.00000000000E+00 -0.32149867448E+03  0.32149867449E+03  0.25500000920E-02 0. -1.
    10030    2    1    2    0    0  0.00000000000E+00  0.00000000000E+00  0.64053034157E+03  0.12835276905E+04  0.11122788382E+04 0.  0.
        3    1    3    3  502    0 -0.54064924069E+03 -0.63190514173E+02  0.18871145631E+03  0.57611341460E+03  0.10100000352E+00 0.  1.
       -3    1    3    3    0  502  0.54064924069E+03  0.63190514173E+02  0.45181888526E+03  0.70741427595E+03  0.10100000352E+00 0. -1.
</event>
<event>
 5   0  0.2257667E-03  0.1095715E+04  0.7818609E-02  0.9209379E-01
        1   -1    0    0  501    0  0.00000000000E+00  0.00000000000E+00  0.11607200893E+04  0.11607200893E+04  0.50400001928E-02 0.  1.
       -1   -1    0    0    0  501  0.00000000000E+00  0.00000000000E+00 -0.25858744421E+03  0.25858744426E+03  0.50400001928E-02 0. -1.
    10030    2    1    2    0    0  0.00000000000E+00  0.00000000000E+00  0.90213264511E+03  0.14193075336E+04  0.10957146369E+04 0.  0.
        4    1    3    3  502    0 -0.43330926468E+03 -0.78140333432E+02  0.28775783686E+02  0.44123971852E+03  0.12699999809E+01 0. -1.
       -4    1    3    3    0  502  0.43330926468E+03  0.78140333432E+02  0.87335686143E+03  0.97806781507E+03  0.12699999809E+01 0.  1.
</event>
<event>
 5   0  0.3992414E-03  0.1092620E+04  0.7818609E-02  0.9212415E-01
        2   -1    0    0  501    0  0.00000000000E+00  0.00000000000E+00  0.11015009562E+04  0.11015009562E+04  0.25500000920E-02 0.  1.
       -2   -1    0    0    0  501  0.00000000000E+00  0.00000000000E+00 -0.27095264453E+03  0.27095264454E+03  0.25500000920E-02 0. -1.
    10030    2    1    2    0    0  0.00000000000E+00  0.00000000000E+00  0.83054831163E+03  0.13724536007E+04  0.10926199651E+04 0.  0.
        1    1    3    3  502    0 -0.53517073570E+02 -0.35421947054E+03  0.93336397716E+03  0.99975188140E+03  0.50400001928E-02 0.  1.
       -1    1    3    3    0  502  0.53517073570E+02  0.35421947054E+03 -0.10281566553E+03  0.37270171931E+03  0.50400001928E-02 0. -1.
</event>
<event>
 5   0  0.3744875E-03  0.1101242E+04  0.7818609E-02  0.9203982E-01
        2   -1    0    0  501    0  0.00000000000E+00  0.00000000000E+00  0.10212364540E+04  0.10212364540E+04  0.25500000920E-02 0.  1.
       -2   -1    0    0    0  501  0.00000000000E+00  0.00000000000E+00 -0.29687880985E+03  0.29687880986E+03  0.25500000920E-02 0. -1.
    10030    2    1    2    0    0  0.00000000000E+00  0.00000000000E+00  0.72435764417E+03  0.13181152639E+04  0.11012419590E+04 0.  0.
        2    1    3    3  502    0  0.45183010660E+03 -0.30268228309E+03  0.25910016009E+03  0.60241173851E+03  0.25500000920E-02 0. -1.
       -2    1    3    3    0  502 -0.45183010660E+03  0.30268228309E+03  0.46525748408E+03  0.71570352537E+03  0.25500000920E-02 0.  1.
</event>
<event>
 5   0  0.2257667E-03  0.1101104E+04  0.7818609E-02  0.9204116E-01
        1   -1    0    0  501    0  0.00000000000E+00  0.00000000000E+00  0.72572566371E+03  0.72572566373E+03  0.50400001928E-02 0. -1.
       -1   -1    0    0    0  501  0.00000000000E+00  0.00000000000E+00 -0.41766141821E+03  0.41766141824E+03  0.50400001928E-02 0.  1.
    10030    2    1    2    0    0  0.00000000000E+00  0.00000000000E+00  0.30806424551E+03  0.11433870820E+04  0.11011041912E+04 0.  0.
        4    1    3    3  502    0 -0.31758156349E+03  0.14513575860E+03  0.59603414756E+03  0.69078271248E+03  0.12699999809E+01 0. -1.
       -4    1    3    3    0  502  0.31758156349E+03 -0.14513575860E+03 -0.28796990206E+03  0.45260436949E+03  0.12699999809E+01 0.  1.
</event>
<event>
 5   0  0.2374100E-03  0.1090261E+04  0.7818609E-02  0.9214736E-01
        1   -1    0    0  501    0  0.00000000000E+00  0.00000000000E+00  0.62842046989E+03  0.62842046991E+03  0.50400001928E-02 0.  1.
       -1   -1    0    0    0  501  0.00000000000E+00  0.00000000000E+00 -0.47288006490E+03  0.47288006493E+03  0.50400001928E-02 0. -1.
    10030    2    1    2    0    0  0.00000000000E+00  0.00000000000E+00  0.15554040499E+03  0.11013005348E+04  0.10902614597E+04 0.  0.
        2    1    3    3  502    0 -0.86007164795E+02 -0.46217070348E+03 -0.20101065621E+03  0.51127710243E+03  0.25500000920E-02 0. -1.
       -2    1    3    3    0  502  0.86007164795E+02  0.46217070348E+03  0.35655106120E+03  0.59002343241E+03  0.25500000920E-02 0.  1.
</event>
<event>
 5   0  0.3713158E-03  0.1088578E+04  0.7818609E-02  0.9216396E-01
        2   -1    0    0  501    0  0.00000000000E+00  0.00000000000E+00  0.23882522722E+03  0.23882522723E+03  0.25500000920E-02 0. -1.
       -2   -1    0    0    0  501  0.00000000000E+00  0.00000000000E+00 -0.12404498007E+04  0.12404498008E+04  0.25500000920E-02 0.  1.
    10030    2    1    2    0    0  0.00000000000E+00  0.00000000000E+00 -0.10016245735E+04  0.14792750280E+04  0.10885783491E+04 0.  0.
        4    1    3    3  502    0  0.49470223318E+03  0.14125057204E+03 -0.74225069733E+03  0.90311667807E+03  0.12699999809E+01 0.  1.
       -4    1    3    3    0  502 -0.49470223318E+03 -0.14125057204E+03 -0.25937387620E+03  0.57615834991E+03  0.12699999809E+01 0. -1.
</event>
<event>
 5   0  0.3713158E-03  0.1087826E+04  0.7818609E-02  0.9217139E-01
        2   -1    0    0  501    0  0.00000000000E+00  0.00000000000E+00  0.20520243317E+03  0.20520243318E+03  0.25500000920E-02 0.  1.
       -2   -1    0    0    0  501  0.00000000000E+00  0.00000000000E+00 -0.14417057462E+04  0.14417057462E+04  0.25500000920E-02 0. -1.
    10030    2    1    2    0    0  0.00000000000E+00  0.00000000000E+00 -0.12365033131E+04  0.16469081794E+04  0.10878263226E+04 0.  0.
        4    1    3    3  502    0  0.33676145153E+03 -0.24192708032E+03 -0.85345661968E+02  0.42334676371E+03  0.12699999809E+01 0.  1.
       -4    1    3    3    0  502 -0.33676145153E+03  0.24192708032E+03 -0.11511576511E+04  0.12235614157E+04  0.12699999809E+01 0. -1.
</event>
<event>
 5   0  0.2257667E-03  0.1109931E+04  0.7818609E-02  0.9195566E-01
        1   -1    0    0  501    0  0.00000000000E+00  0.00000000000E+00  0.15869199879E+04  0.15869199879E+04  0.50400001928E-02 0.  1.
       -1   -1    0    0    0  501  0.00000000000E+00  0.00000000000E+00 -0.19407843088E+03  0.19407843094E+03  0.50400001928E-02 0. -1.
    10030    2    1    2    0    0  0.00000000000E+00  0.00000000000E+00  0.13928415570E+04  0.17809984189E+04  0.11099314236E+04 0.  0.
        4    1    3    3  502    0  0.38349214058E+03  0.25637572369E+03  0.11914882674E+04  0.12776700035E+04  0.12699999809E+01 0.  1.
       -4    1    3    3    0  502 -0.38349214058E+03 -0.25637572369E+03  0.20135328966E+03  0.50332841539E+03  0.12699999809E+01 0. -1.
</event>
<event>
 5   0  0.2374100E-03  0.1104472E+04  0.7818609E-02  0.9200845E-01
        1   -1    0    0  501    0  0.00000000000E+00  0.00000000000E+00  0.22120295908E+04  0.22120295908E+04  0.50400001928E-02 0.  1.
       -1   -1    0    0    0  501  0.00000000000E+00  0.00000000000E+00 -0.13786630103E+03  0.13786630112E+03  0.50400001928E-02 0. -1.
    10030    2    1    2    0    0  0.00000000000E+00  0.00000000000E+00  0.20741632898E+04  0.23498958919E+04  0.11044715253E+04 0.  0.
        2    1    3    3  502    0  0.12093222662E+03  0.51822102962E+03  0.72303814355E+03  0.89775375021E+03  0.25500000920E-02 0.  1.
       -2    1    3    3    0  502 -0.12093222662E+03 -0.51822102962E+03  0.13511251462E+04  0.14521421417E+04  0.25500000920E-02 0. -1.
</event>
<event>
 5   0  0.3748901E-03  0.1093379E+04  0.7818609E-02  0.9211669E-01
       -2   -1    0    0    0  501  0.00000000000E+00  0.00000000000E+00  0.18016993123E+03  0.18016993125E+03  0.25500000920E-02 0.  1.
        2   -1    0    0  501    0  0.00000000000E+00  0.00000000000E+00 -0.16588191975E+04  0.16588191975E+04  0.25500000920E-02 0. -1.
    10030    2    1    2    0    0  0.00000000000E+00  0.00000000000E+00 -0.14786492662E+04  0.18389891287E+04  0.10933788744E+04 0.  0.
        5    1    3    3  502    0  0.35508977275E+03 -0.56709572892E+02 -0.46779931244E+02  0.36265020934E+03  0.46999998093E+01 0.  1.
       -5    1    3    3    0  502 -0.35508977275E+03  0.56709572892E+02 -0.14318693350E+04  0.14763389194E+04  0.46999998093E+01 0. -1.
</event>
<event>
 5   0  0.3748901E-03  0.1092880E+04  0.7818609E-02  0.9212159E-01
        2   -1    0    0  501    0  0.00000000000E+00  0.00000000000E+00  0.61172566300E+03  0.61172566301E+03  0.25500000920E-02 0.  1.
       -2   -1    0    0    0  501  0.00000000000E+00  0.00000000000E+00 -0.48812222973E+03  0.48812222974E+03  0.25500000920E-02 0. -1.
    10030    2    1    2    0    0  0.00000000000E+00  0.00000000000E+00  0.12360343327E+03  0.10998478928E+04  0.10928804045E+04 0.  0.
        5    1    3    3  502    0  0.11663080386E+03 -0.10085334446E+03 -0.46575465930E+03  0.49063594870E+03  0.46999998093E+01 0. -1.
       -5    1    3    3    0  502 -0.11663080386E+03  0.10085334446E+03  0.58935809257E+03  0.60921194405E+03  0.46999998093E+01 0.  1.
</event>
<event>
 5   0  0.2300702E-03  0.1106819E+04  0.7818609E-02  0.9198571E-01
       -1   -1    0    0    0  501  0.00000000000E+00  0.00000000000E+00  0.62935266415E+03  0.62935266417E+03  0.50400001928E-02 0. -1.
        1   -1    0    0  501    0  0.00000000000E+00  0.00000000000E+00 -0.48663045302E+03  0.48663045304E+03  0.50400001928E-02 0.  1.
    10030    2    1    2    0    0  0.00000000000E+00  0.00000000000E+00  0.14272221114E+03  0.11159831172E+04  0.11068191760E+04 0.  0.
        5    1    3    3  502    0 -0.23926633068E+03 -0.49404670428E+03  0.71272758207E+00  0.54895639260E+03  0.46999998093E+01 0.  1.
       -5    1    3    3    0  502  0.23926633068E+03  0.49404670428E+03  0.14200948355E+03  0.56702672461E+03  0.46999998093E+01 0. -1.
</event>
<event>
 5   0  0.3744875E-03  0.1098610E+04  0.7818609E-02  0.9206547E-01
       -2   -1    0    0    0  501  0.00000000000E+00  0.00000000000E+00  0.50827247913E+03  0.50827247914E+03  0.25500000920E-02 0.  1.
        2   -1    0    0  501    0  0.00000000000E+00  0.00000000000E+00 -0.59365058749E+03  0.59365058750E+03  0.25500000920E-02 0. -1.
    10030    2    1    2    0    0  0.00000000000E+00  0.00000000000E+00 -0.85378108362E+02  0.11019230666E+04  0.10986104967E+04 0.  0.
        2    1    3    3  502    0  0.12990307690E+03 -0.22128501131E+02  0.49218406849E+03  0.50951902539E+03  0.25500000920E-02 0.  1.
       -2    1    3    3    0  502 -0.12990307690E+03  0.22128501131E+02 -0.57756217685E+03  0.59240404125E+03  0.25500000920E-02 0. -1.
</event>
<event>
 5   0  0.2257667E-03  0.1095165E+04  0.7818609E-02  0.9209917E-01
        1   -1    0    0  501    0  0.00000000000E+00  0.00000000000E+00  0.61311024254E+03  0.61311024256E+03  0.50400001928E-02 0.  1.
       -1   -1    0    0    0  501  0.00000000000E+00  0.00000000000E+00 -0.48905824235E+03  0.48905824237E+03  0.50400001928E-02 0. -1.
    10030    2    1    2    0    0  0.00000000000E+00  0.00000000000E+00  0.12405200019E+03  0.11021684849E+04  0.10951650425E+04 0.  0.
        4    1    3    3  502    0 -0.20773968395E+03 -0.49279952778E+03 -0.56360664646E+02  0.53775950786E+03  0.12699999809E+01 0.  1.
       -4    1    3    3    0  502  0.20773968395E+03  0.49279952778E+03  0.18041266484E+03  0.56440897708E+03  0.12699999809E+01 0. -1.
</event>
<event>
 5   0  0.3962999E-03  0.1109701E+04  0.7818609E-02  0.9195788E-01
       -2   -1    0    0    0  501  0.00000000000E+00  0.00000000000E+00  0.36984446460E+03  0.36984446461E+03  0.25500000920E-02 0.  1.
        2   -1    0    0  501    0  0.00000000000E+00  0.00000000000E+00 -0.83240096383E+03  0.83240096383E+03  0.25500000920E-02 0. -1.
    10030    2    1    2    0    0  0.00000000000E+00  0.00000000000E+00 -0.46255649923E+03  0.12022454284E+04  0.11097006602E+04 0.  0.
        3    1    3    3  502    0 -0.63766662210E+02 -0.25520591451E+03  0.29799446231E+03  0.39748830899E+03  0.10100000352E+00 0.  1.
       -3    1    3    3    0  502  0.63766662210E+02  0.25520591451E+03 -0.76055096154E+03  0.80475711946E+03  0.10100000352E+00 0. -1.
</event>
<event>
 5   0  0.3748901E-03  0.1121897E+04  0.7818609E-02  0.9184108E-01
        2   -1    0    0  501    0  0.00000000000E+00  0.00000000000E+00  0.16096636962E+04  0.16096636962E+04  0.25500000920E-02 0.  1.
       -2   -1    0    0    0  501  0.00000000000E+00  0.00000000000E+00 -0.19548387727E+03  0.19548387728E+03  0.25500000920E-02 0. -1.
    10030    2    1    2    0    0  0.00000000000E+00  0.00000000000E+00  0.14141798189E+04  0.18051475735E+04  0.11218971440E+04 0.  0.
        5    1    3    3  502    0  0.32200739645E+02 -0.10883916216E+03  0.15909618043E+04  0.15950123522E+04  0.46999998093E+01 0.  1.
       -5    1    3    3    0  502 -0.32200739645E+02  0.10883916216E+03 -0.17678198541E+03  0.21013522127E+03  0.46999998093E+01 0. -1.
</event>
<event>
 5   0  0.3744875E-03  0.1100969E+04  0.7818609E-02  0.9204248E-01
       -2   -1    0    0    0  501  0.00000000000E+00  0.00000000000E+00  0.37014403045E+03  0.37014403046E+03  0.25500000920E-02 0.  1.
        2   -1    0    0  501    0  0.00000000000E+00  0.00000000000E+00 -0.81868940665E+03  0.81868940665E+03  0.25500000920E-02 0. -1.
    10030    2    1    2    0    0  0.00000000000E+00  0.00000000000E+00 -0.44854537620E+03  0.11888334371E+04  0.11009686584E+04 0.  0.
        2    1    3    3  502    0 -0.11556246477E+03 -0.12304457217E+03  0.34150727444E+03  0.38094864287E+03  0.25500000920E-02 0.  1.
       -2    1    3    3    0  502  0.11556246477E+03  0.12304457217E+03 -0.79005265063E+03  0.80788479425E+03  0.25500000920E-02 0. -1.
</event>
<event>
 5   0  0.2255788E-03  0.1096808E+04  0.7818609E-02  0.9208309E-01
        1   -1    0    0  501    0  0.00000000000E+00  0.00000000000E+00  0.64648956198E+03  0.64648956200E+03  0.50400001928E-02 0.  1.
       -1   -1    0    0    0  501  0.00000000000E+00  0.00000000000E+00 -0.46520000658E+03  0.46520000660E+03  0.50400001928E-02 0. -1.
    10030    2    1    2    0    0  0.00000000000E+00  0.00000000000E+00  0.18128955540E+03  0.11116895686E+04  0.10968080024E+04 0.  0.
        3    1    3    3  502    0 -0.66259268031E+02  0.27051254013E+03  0.56947348575E+03  0.63393011140E+03  0.10100000352E+00 0.  1.
       -3    1    3    3    0  502  0.66259268031E+02 -0.27051254013E+03 -0.38818393035E+03  0.47775945720E+03  0.10100000352E+00 0. -1.
</event>
<event>
 5   0  0.3744875E-03  0.1085583E+04  0.7818609E-02  0.9219358E-01
        2   -1    0    0  501    0  0.00000000000E+00  0.00000000000E+00  0.19141528872E+04  0.19141528872E+04  0.25500000920E-02 0.  1.
       -2   -1    0    0    0  501  0.00000000000E+00  0.00000000000E+00 -0.15391812708E+03  0.15391812710E+03  0.25500000920E-02 0. -1.
    10030    2    1    2    0    0  0.00000000000E+00  0.00000000000E+00  0.17602347601E+04  0.20680710143E+04  0.10855833959E+04 0.  0.
        2    1    3    3  502    0 -0.21486566575E+03 -0.44467800641E+03  0.13091390417E+04  0.13991964888E+04  0.25500000920E-02 0.  1.
       -2    1    3    3    0  502  0.21486566575E+03  0.44467800641E+03  0.45109571840E+03  0.66887452550E+03  0.25500000920E-02 0. -1.
</event>
<event>
 5   0  0.2300702E-03  0.1119635E+04  0.7818609E-02  0.9186263E-01
        1   -1    0    0  501    0  0.00000000000E+00  0.00000000000E+00  0.12007890340E+04  0.12007890340E+04  0.50400001928E-02 0.  1.
       -1   -1    0    0    0  501  0.00000000000E+00  0.00000000000E+00 -0.26099154061E+03  0.26099154066E+03  0.50400001928E-02 0. -1.
    10030    2    1    2    0    0  0.00000000000E+00  0.00000000000E+00  0.93979749337E+03  0.14617805747E+04  0.11196352620E+04 0.  0.
        5    1    3    3  502    0  0.98501864598E+02  0.34955138487E+03  0.10260921955E+04  0.10884741943E+04  0.46999998093E+01 0.  1.
       -5    1    3    3    0  502 -0.98501864598E+02 -0.34955138487E+03 -0.86294702137E+02  0.37330638034E+03  0.46999998093E+01 0. -1.
</event>
<event>
 5   0  0.2257667E-03  0.1096120E+04  0.7818609E-02  0.9208981E-01
       -1   -1    0    0    0  501  0.00000000000E+00  0.00000000000E+00  0.32818830661E+03  0.32818830665E+03  0.50400001928E-02 0. -1.
        1   -1    0    0  501    0  0.00000000000E+00  0.00000000000E+00 -0.91523672392E+03  0.91523672393E+03  0.50400001928E-02 0.  1.
    10030    2    1    2    0    0  0.00000000000E+00  0.00000000000E+00 -0.58704841731E+03  0.12434250306E+04  0.10961204142E+04 0.  0.
        4    1    3    3  502    0 -0.38414142940E+03 -0.33730525349E+03 -0.69417670039E+02  0.51590686914E+03  0.12699999809E+01 0. -1.
       -4    1    3    3    0  502  0.38414142940E+03  0.33730525349E+03 -0.51763074727E+03  0.72751816144E+03  0.12699999809E+01 0.  1.
</event>
<event>
 5   0  0.3962999E-03  0.1113745E+04  0.7818609E-02  0.9191897E-01
       -2   -1    0    0    0  501  0.00000000000E+00  0.00000000000E+00  0.19192763870E+03  0.19192763872E+03  0.25500000920E-02 0.  1.
        2   -1    0    0  501    0  0.00000000000E+00  0.00000000000E+00 -0.16157506516E+04  0.16157506516E+04  0.25500000920E-02 0. -1.
    10030    2    1    2    0    0  0.00000000000E+00  0.00000000000E+00 -0.14238230128E+04  0.18076782903E+04  0.11137454059E+04 0.  0.
        3    1    3    3  502    0  0.10479028706E+03  0.29869022195E+03  0.31710334573E+02  0.31812325987E+03  0.10100000352E+00 0.  1.
       -3    1    3    3    0  502 -0.10479028706E+03 -0.29869022195E+03 -0.14555333474E+04  0.14895550304E+04  0.10100000352E+00 0. -1.
</event>
<event>
 5   0  0.2255788E-03  0.1195545E+04  0.7818609E-02  0.9116765E-01
       -1   -1    0    0    0  501  0.00000000000E+00  0.00000000000E+00  0.31415291424E+03  0.31415291428E+03  0.50400001928E-02 0. -1.
        1   -1    0    0  501    0  0.00000000000E+00  0.00000000000E+00 -0.11374459842E+04  0.11374459842E+04  0.50400001928E-02 0.  1.
    10030    2    1    2    0    0  0.00000000000E+00  0.00000000000E+00 -0.82329306999E+03  0.14515988985E+04  0.11955450151E+04 0.  0.
        3    1    3    3  502    0  0.13335783777E+03  0.58270449073E+03 -0.40950044596E+03  0.72458226714E+03  0.10100000352E+00 0.  1.
       -3    1    3    3    0  502 -0.13335783777E+03 -0.58270449073E+03 -0.41379262403E+03  0.72701663138E+03  0.10100000352E+00 0. -1.
</event>
<event>
 5   0  0.2374100E-03  0.1117046E+04  0.7818609E-02  0.9188735E-01
       -1   -1    0    0    0  501  0.00000000000E+00  0.00000000000E+00  0.10310773485E+04  0.10310773485E+04  0.50400001928E-02 0. -1.
        1   -1    0    0  501    0  0.00000000000E+00  0.00000000000E+00 -0.30254584827E+03  0.30254584831E+03  0.50400001928E-02 0.  1.
    10030    2    1    2    0    0  0.00000000000E+00  0.00000000000E+00  0.72853150022E+03  0.13336231968E+04  0.11170464110E+04 0.  0.
        2    1    3    3  502    0  0.32728442810E+03  0.15104642441E+03 -0.14508758518E+03  0.38856212706E+03  0.25500000920E-02 0.  1.
       -2    1    3    3    0  502 -0.32728442810E+03 -0.15104642441E+03  0.87361908540E+03  0.94506106976E+03  0.25500000920E-02 0. -1.
</event>
<event>
 5   0  0.2374100E-03  0.1095815E+04  0.7818609E-02  0.9209281E-01
       -1   -1    0    0    0  501  0.00000000000E+00  0.00000000000E+00  0.32993164752E+03  0.32993164756E+03  0.50400001928E-02 0. -1.
        1   -1    0    0  501    0  0.00000000000E+00  0.00000000000E+00 -0.90989282684E+03  0.90989282685E+03  0.50400001928E-02 0.  1.
    10030    2    1    2    0    0  0.00000000000E+00  0.00000000000E+00 -0.57996117932E+03  0.12398244744E+04  0.10958146549E+04 0.  0.
        2    1    3    3  502    0 -0.19523079036E+03  0.43879270970E+03  0.83971862124E+01  0.48033802300E+03  0.25500000920E-02 0. -1.
       -2    1    3    3    0  502  0.19523079036E+03 -0.43879270970E+03 -0.58835836553E+03  0.75948645142E+03  0.25500000920E-02 0.  1.
</event>
<event>
 5   0  0.3713158E-03  0.1112163E+04  0.7818609E-02  0.9193418E-01
        2   -1    0    0  501    0  0.00000000000E+00  0.00000000000E+00  0.15246818014E+04  0.15246818014E+04  0.25500000920E-02 0. -1.
       -2   -1    0    0    0  501  0.00000000000E+00  0.00000000000E+00 -0.20281378618E+03  0.20281378619E+03  0.25500000920E-02 0.  1.
    10030    2    1    2    0    0  0.00000000000E+00  0.00000000000E+00  0.13218680152E+04  0.17274955876E+04  0.11121627379E+04 0.  0.
        4    1    3    3  502    0  0.83440953981E+02  0.34672340345E+03  0.13236667371E+04  0.13708664250E+04  0.12699999809E+01 0. -1.
       -4    1    3    3    0  502 -0.83440953981E+02 -0.34672340345E+03 -0.17987219230E+01  0.35662916258E+03  0.12699999809E+01 0.  1.
</event>
<event>
 5   0  0.2257667E-03  0.1102201E+04  0.7818609E-02  0.9203049E-01
       -1   -1    0    0    0  501  0.00000000000E+00  0.00000000000E+00  0.25449592216E+03  0.25449592221E+03  0.50400001928E-02 0. -1.
        1   -1    0    0  501    0  0.00000000000E+00  0.00000000000E+00 -0.11933852861E+04  0.11933852861E+04  0.50400001928E-02 0.  1.
    10030    2    1    2    0    0  0.00000000000E+00  0.00000000000E+00 -0.93888936398E+03  0.14478812084E+04  0.11022008690E+04 0.  0.
        4    1    3    3  502    0 -0.28200159134E+03 -0.38602782480E+03 -0.10929104515E+03  0.49039629331E+03  0.12699999809E+01 0. -1.
       -4    1    3    3    0  502  0.28200159134E+03  0.38602782480E+03 -0.82959831883E+03  0.95748491505E+03  0.12699999809E+01 0.  1.
</event>
<event>
 5   0  0.2298958E-03  0.1096660E+04  0.7818609E-02  0.9208453E-01
        1   -1    0    0  501    0  0.00000000000E+00  0.00000000000E+00  0.43275016293E+03  0.43275016296E+03  0.50400001928E-02 0. -1.
       -1   -1    0    0    0  501  0.00000000000E+00  0.00000000000E+00 -0.69477907166E+03  0.69477907168E+03  0.50400001928E-02 0.  1.
    10030    2    1    2    0    0  0.00000000000E+00  0.00000000000E+00 -0.26202890873E+03  0.11275292346E+04  0.10966599409E+04 0.  0.
        1    1    3    3  502    0 -0.51051873458E+03 -0.54032658964E+01  0.74633700283E+02  0.51597360677E+03  0.50400001928E-02 0. -1.
       -1    1    3    3    0  502  0.51051873458E+03  0.54032658964E+01 -0.33666260901E+03  0.61155562786E+03  0.50400001928E-02 0.  1.
</event>
<event>
 5   0  0.3748901E-03  0.1097761E+04  0.7818609E-02  0.9207377E-01
        2   -1    0    0  501    0  0.00000000000E+00  0.00000000000E+00  0.90644481645E+03  0.90644481646E+03  0.25500000920E-02 0.  1.
       -2   -1    0    0    0  501  0.00000000000E+00  0.00000000000E+00 -0.33236438156E+03  0.33236438157E+03  0.25500000920E-02 0. -1.
    10030    2    1    2    0    0  0.00000000000E+00  0.00000000000E+00  0.57408043489E+03  0.12388091980E+04  0.10977613053E+04 0.  0.
        5    1    3    3  502    0  0.31385798310E+02  0.35156220258E+03  0.76136302874E+03  0.83921201263E+03  0.46999998093E+01 0.  1.
       -5    1    3    3    0  502 -0.31385798310E+02 -0.35156220258E+03 -0.18728259385E+03  0.39959718540E+03  0.46999998093E+01 0. -1.
</event>
<event>
 5   0  0.3992414E-03  0.1096184E+04  0.7818609E-02  0.9208920E-01
        2   -1    0    0  501    0  0.00000000000E+00  0.00000000000E+00  0.70387107220E+03  0.70387107220E+03  0.25500000920E-02 0. -1.
       -2   -1    0    0    0  501  0.00000000000E+00  0.00000000000E+00 -0.42678931247E+03  0.42678931247E+03  0.25500000920E-02 0.  1.
    10030    2    1    2    0    0  0.00000000000E+00  0.00000000000E+00  0.27708175973E+03  0.11306603847E+04  0.10961836543E+04 0.  0.
        1    1    3    3  502    0 -0.47264415583E+03 -0.24033958860E+02  0.42370417886E+03  0.63521284655E+03  0.50400001928E-02 0. -1.
       -1    1    3    3    0  502  0.47264415583E+03  0.24033958860E+02 -0.14662241913E+03  0.49544753812E+03  0.50400001928E-02 0.  1.
</event>
<event>
 5   0  0.3992414E-03  0.1095258E+04  0.7818609E-02  0.9209826E-01
       -2   -1    0    0    0  501  0.00000000000E+00  0.00000000000E+00  0.11512079348E+04  0.11512079348E+04  0.25500000920E-02 0. -1.
        2   -1    0    0  501    0  0.00000000000E+00  0.00000000000E+00 -0.26050688329E+03  0.26050688330E+03  0.25500000920E-02 0.  1.
    10030    2    1    2    0    0  0.00000000000E+00  0.00000000000E+00  0.89070105151E+03  0.14117148181E+04  0.10952581269E+04 0.  0.
        1    1    3    3  502    0  0.42939885021E+03 -0.33744143247E+03  0.49766754131E+03  0.73886607352E+03  0.50400001928E-02 0. -1.
       -1    1    3    3    0  502 -0.42939885021E+03  0.33744143247E+03  0.39303351020E+03  0.67284874458E+03  0.50400001928E-02 0.  1.
</event>
<event>
 5   0  0.2255788E-03  0.1086969E+04  0.7818609E-02  0.9217986E-01
        1   -1    0    0  501    0  0.00000000000E+00  0.00000000000E+00  0.82523813208E+03  0.82523813209E+03  0.50400001928E-02 0.  1.
       -1   -1    0    0    0  501  0.00000000000E+00  0.00000000000E+00 -0.35792759957E+03  0.35792759961E+03  0.50400001928E-02 0. -1.
    10030    2    1    2    0    0  0.00000000000E+00  0.00000000000E+00  0.46731053250E+03  0.11831657317E+04  0.10869691876E+04 0.  0.
        3    1    3    3  502    0 -0.97331217999E+02 -0.43762207123E+03  0.56807289069E+03  0.72366654100E+03  0.10100000352E+00 0.  1.
       -3    1    3    3    0  502  0.97331217999E+02  0.43762207123E+03 -0.10076235818E+03  0.45949919070E+03  0.10100000352E+00 0. -1.
</event>
<event>
 5   0  0.3748901E-03  0.1096879E+04  0.7818609E-02  0.9208239E-01
       -2   -1    0    0    0  501  0.00000000000E+00  0.00000000000E+00  0.58469374004E+03  0.58469374005E+03  0.25500000920E-02 0. -1.
        2   -1    0    0  501    0  0.00000000000E+00  0.00000000000E+00 -0.51443352081E+03  0.51443352082E+03  0.25500000920E-02 0.  1.
    10030    2    1    2    0    0  0.00000000000E+00  0.00000000000E+00  0.70260219228E+02  0.10991272609E+04  0.10968793175E+04 0.  0.
        5    1    3    3  502    0 -0.37199583466E+03 -0.29541964473E+03  0.30975436059E+03  0.56711861316E+03  0.46999998093E+01 0. -1.
       -5    1    3    3    0  502  0.37199583466E+03  0.29541964473E+03 -0.23949414136E+03  0.53200864771E+03  0.46999998093E+01 0.  1.
</event>
<event>
 5   0  0.3744875E-03  0.1103219E+04  0.7818609E-02  0.9202061E-01
       -2   -1    0    0    0  501  0.00000000000E+00  0.00000000000E+00  0.51839882410E+03  0.51839882410E+03  0.25500000920E-02 0. -1.
        2   -1    0    0  501    0  0.00000000000E+00  0.00000000000E+00 -0.58694731239E+03  0.58694731239E+03  0.25500000920E-02 0.  1.
    10030    2    1    2    0    0  0.00000000000E+00  0.00000000000E+00 -0.68548488292E+02  0.11053461365E+04  0.11032185578E+04 0.  0.
        2    1    3    3  502    0 -0.42648822080E+03 -0.38838781797E+02 -0.38261143892E+03  0.57427534045E+03  0.25500000920E-02 0.  1.
       -2    1    3    3    0  502  0.42648822080E+03  0.38838781797E+02  0.31406295062E+03  0.53107079605E+03  0.25500000920E-02 0. -1.
</event>
<event>
 5   0  0.2300702E-03  0.9685310E+03  0.7818609E-02  0.9343749E-01
       -1   -1    0    0    0  501  0.00000000000E+00  0.00000000000E+00  0.38465675411E+03  0.38465675414E+03  0.50400001928E-02 0. -1.
        1   -1    0    0  501    0  0.00000000000E+00  0.00000000000E+00 -0.60966846528E+03  0.60966846530E+03  0.50400001928E-02 0.  1.
    10030    2    1    2    0    0  0.00000000000E+00  0.00000000000E+00 -0.22501171118E+03  0.99432521944E+03  0.96853103815E+03 0.  0.
        5    1    3    3  502    0  0.17268864780E+03  0.22802943872E+03 -0.51364487306E+03  0.58793872097E+03  0.46999998093E+01 0.  1.
       -5    1    3    3    0  502 -0.17268864780E+03 -0.22802943872E+03  0.28863316188E+03  0.40638649847E+03  0.46999998093E+01 0. -1.
</event>
<event>
 5   0  0.3992414E-03  0.1088641E+04  0.7818609E-02  0.9216334E-01
       -2   -1    0    0    0  501  0.00000000000E+00  0.00000000000E+00  0.10294738645E+03  0.10294738648E+03  0.25500000920E-02 0. -1.
        2   -1    0    0  501    0  0.00000000000E+00  0.00000000000E+00 -0.28780214942E+04  0.28780214942E+04  0.25500000920E-02 0.  1.
    10030    2    1    2    0    0  0.00000000000E+00  0.00000000000E+00 -0.27750741077E+04  0.29809688807E+04  0.10886409711E+04 0.  0.
        1    1    3    3  502    0 -0.45184941103E+03  0.80917672443E+02 -0.58653877685E+03  0.74481091341E+03  0.50400001928E-02 0. -1.
       -1    1    3    3    0  502  0.45184941103E+03 -0.80917672443E+02 -0.21885353309E+04  0.22361579673E+04  0.50400001928E-02 0.  1.
</event>
<event>
 5   0  0.3713158E-03  0.1099269E+04  0.7818609E-02  0.9205904E-01
        2   -1    0    0  501    0  0.00000000000E+00  0.00000000000E+00  0.27256233577E+03  0.27256233578E+03  0.25500000920E-02 0.  1.
       -2   -1    0    0    0  501  0.00000000000E+00  0.00000000000E+00 -0.11083637632E+04  0.11083637632E+04  0.25500000920E-02 0. -1.
    10030    2    1    2    0    0  0.00000000000E+00  0.00000000000E+00 -0.83580142740E+03  0.13809260989E+04  0.10992692412E+04 0.  0.
        4    1    3    3  502    0  0.22823866170E+03 -0.36854434871E+03  0.65810723592E+01  0.43354670691E+03  0.12699999809E+01 0.  1.
       -4    1    3    3    0  502 -0.22823866170E+03  0.36854434871E+03 -0.84238249976E+03  0.94737939204E+03  0.12699999809E+01 0. -1.
</event>
<event>
 5   0  0.3992414E-03  0.1090981E+04  0.7818609E-02  0.9214027E-01
        2   -1    0    0  501    0  0.00000000000E+00  0.00000000000E+00  0.16372973204E+03  0.16372973206E+03  0.25500000920E-02 0. -1.
       -2   -1    0    0    0  501  0.00000000000E+00  0.00000000000E+00 -0.18173849638E+04  0.18173849638E+04  0.25500000920E-02 0.  1.
    10030    2    1    2    0    0  0.00000000000E+00  0.00000000000E+00 -0.16536552318E+04  0.19811146959E+04  0.10909811239E+04 0.  0.
        1    1    3    3  502    0 -0.70319921810E+02 -0.22109780082E+03  0.69666847218E+02  0.24224491441E+03  0.50400001928E-02 0. -1.
       -1    1    3    3    0  502  0.70319921810E+02  0.22109780082E+03 -0.17233220790E+04  0.17388697814E+04  0.50400001928E-02 0.  1.
</event>
<event>
 5   0  0.3744875E-03  0.1096497E+04  0.7818609E-02  0.9208613E-01
       -2   -1    0    0    0  501  0.00000000000E+00  0.00000000000E+00  0.34897999116E+03  0.34897999117E+03  0.25500000920E-02 0. -1.
        2   -1    0    0  501    0  0.00000000000E+00  0.00000000000E+00 -0.86129996787E+03  0.86129996788E+03  0.25500000920E-02 0.  1.
    10030    2    1    2    0    0  0.00000000000E+00  0.00000000000E+00 -0.51231997671E+03  0.12102799590E+04  0.10964970683E+04 0.  0.
        2    1    3    3  502    0 -0.22303536753E+03  0.38058181524E+03  0.10318293460E+03  0.45302760541E+03  0.25500000920E-02 0. -1.
       -2    1    3    3    0  502  0.22303536753E+03 -0.38058181524E+03 -0.61550291131E+03  0.75725235364E+03  0.25500000920E-02 0.  1.
</event>
<event>
 5   0  0.2374100E-03  0.1111337E+04  0.7818609E-02  0.9194212E-01
        1   -1    0    0  501    0  0.00000000000E+00  0.00000000000E+00  0.19027014921E+04  0.19027014921E+04  0.50400001928E-02 0. -1.
       -1   -1    0    0    0  501  0.00000000000E+00  0.00000000000E+00 -0.16227854148E+03  0.16227854156E+03  0.50400001928E-02 0.  1.
    10030    2    1    2    0    0  0.00000000000E+00  0.00000000000E+00  0.17404229506E+04  0.20649800337E+04  0.11113372541E+04 0.  0.
        2    1    3    3  502    0  0.26033983075E+02  0.28996974282E+02  0.19001593465E+04  0.19005589007E+04  0.25500000920E-02 0. -1.
       -2    1    3    3    0  502 -0.26033983075E+02 -0.28996974282E+02 -0.15973639590E+03  0.16442113299E+03  0.25500000920E-02 0.  1.
</event>
<event>
 5   0  0.2374100E-03  0.1096802E+04  0.7818609E-02  0.9208315E-01
        1   -1    0    0  501    0  0.00000000000E+00  0.00000000000E+00  0.49858706449E+03  0.49858706451E+03  0.50400001928E-02 0.  1.
       -1   -1    0    0    0  501  0.00000000000E+00  0.00000000000E+00 -0.60319174184E+03  0.60319174186E+03  0.50400001928E-02 0. -1.
    10030    2    1    2    0    0  0.00000000000E+00  0.00000000000E+00 -0.10460467735E+03  0.11017788064E+04  0.10968018963E+04 0.  0.
        2    1    3    3  502    0  0.15016745366E+03 -0.32418355768E+03  0.36563646375E+03  0.51120961145E+03  0.25500000920E-02 0.  1.
       -2    1    3    3    0  502 -0.15016745366E+03  0.32418355768E+03 -0.47024114110E+03  0.59056919493E+03  0.25500000920E-02 0. -1.
</event>
<event>
 5   0  0.3992414E-03  0.1059929E+04  0.7818609E-02  0.9245153E-01
        2   -1    0    0  501    0  0.00000000000E+00  0.00000000000E+00  0.87438331560E+03  0.87438331560E+03  0.25500000920E-02 0. -1.
       -2   -1    0    0    0  501  0.00000000000E+00  0.00000000000E+00 -0.32121175890E+03  0.32121175891E+03  0.25500000920E-02 0.  1.
    10030    2    1    2    0    0  0.00000000000E+00  0.00000000000E+00  0.55317155670E+03  0.11955950745E+04  0.10599286821E+04 0.  0.
        1    1    3    3  502    0  0.32059293781E+03 -0.27808823978E+03 -0.81451704694E+02  0.43214266290E+03  0.50400001928E-02 0.  1.
       -1    1    3    3    0  502 -0.32059293781E+03  0.27808823978E+03  0.63462326140E+03  0.76345241162E+03  0.50400001928E-02 0. -1.
</event>
<event>
 5   0  0.2298958E-03  0.1111999E+04  0.7818609E-02  0.9193575E-01
       -1   -1    0    0    0  501  0.00000000000E+00  0.00000000000E+00  0.20198993237E+03  0.20198993243E+03  0.50400001928E-02 0. -1.
        1   -1    0    0  501    0  0.00000000000E+00  0.00000000000E+00 -0.15304488271E+04  0.15304488271E+04  0.50400001928E-02 0.  1.
    10030    2    1    2    0    0  0.00000000000E+00  0.00000000000E+00 -0.13284588947E+04  0.17324387595E+04  0.11119986603E+04 0.  0.
        1    1    3    3  502    0  0.10347074686E+03 -0.46330510281E+03 -0.21329109490E+03  0.52043338184E+03  0.50400001928E-02 0. -1.
       -1    1    3    3    0  502 -0.10347074686E+03  0.46330510281E+03 -0.11151677998E+04  0.12120053777E+04  0.50400001928E-02 0.  1.
</event>
<event>
 5   0  0.2300702E-03  0.1097039E+04  0.7818609E-02  0.9208083E-01
       -1   -1    0    0    0  501  0.00000000000E+00  0.00000000000E+00  0.33929370796E+03  0.33929370800E+03  0.50400001928E-02 0.  1.
        1   -1    0    0  501    0  0.00000000000E+00  0.00000000000E+00 -0.88676387567E+03  0.88676387569E+03  0.50400001928E-02 0. -1.
    10030    2    1    2    0    0  0.00000000000E+00  0.00000000000E+00 -0.54747016772E+03  0.12260575837E+04  0.10970385654E+04 0.  0.
        5    1    3    3  502    0 -0.27206864699E+03 -0.74806320799E+00  0.25854307979E+03  0.37535119872E+03  0.46999998093E+01 0.  1.
       -5    1    3    3    0  502  0.27206864699E+03  0.74806320799E+00 -0.80601324750E+03  0.85070638497E+03  0.46999998093E+01 0. -1.
</event>
<event>
 5   0  0.3992414E-03  0.1099447E+04  0.7818609E-02  0.9205731E-01
       -2   -1    0    0    0  501  0.00000000000E+00  0.00000000000E+00  0.36923103241E+03  0.36923103241E+03  0.25500000920E-02 0. -1.
        2   -1    0    0  501    0  0.00000000000E+00  0.00000000000E+00 -0.81844643473E+03  0.81844643473E+03  0.25500000920E-02 0.  1.
    10030    2    1    2    0    0  0.00000000000E+00  0.00000000000E+00 -0.44921540232E+03  0.11876774671E+04  0.10994468101E+04 0.  0.
        1    1    3    3  502    0  0.37860062665E+03 -0.39813866461E+03 -0.24461395790E+03  0.60140570265E+03  0.50400001928E-02 0. -1.
       -1    1    3    3    0  502 -0.37860062665E+03  0.39813866461E+03 -0.20460144442E+03  0.58627176449E+03  0.50400001928E-02 0.  1.
</event>
<event>
 5   0  0.2257667E-03  0.9613422E+03  0.7818609E-02  0.9351991E-01
        1   -1    0    0  501    0  0.00000000000E+00  0.00000000000E+00  0.73297673875E+03  0.73297673877E+03  0.50400001928E-02 0.  1.
       -1   -1    0    0    0  501  0.00000000000E+00  0.00000000000E+00 -0.31521423528E+03  0.31521423532E+03  0.50400001928E-02 0. -1.
    10030    2    1    2    0    0  0.00000000000E+00  0.00000000000E+00  0.41776250347E+03  0.10481909741E+04  0.96134219134E+03 0.  0.
        4    1    3    3  502    0 -0.16947861454E+03 -0.43417728469E+03  0.33701454479E+03  0.57516374331E+03  0.12699999809E+01 0.  1.
       -4    1    3    3    0  502  0.16947861454E+03  0.43417728469E+03  0.80747958687E+02  0.47302723078E+03  0.12699999809E+01 0. -1.
</event>
<event>
 5   0  0.3744875E-03  0.1134517E+04  0.7818609E-02  0.9172187E-01
        2   -1    0    0  501    0  0.00000000000E+00  0.00000000000E+00  0.14928722843E+04  0.14928722844E+04  0.25500000920E-02 0. -1.
       -2   -1    0    0    0  501  0.00000000000E+00  0.00000000000E+00 -0.21554575997E+03  0.21554575998E+03  0.25500000920E-02 0.  1.
    10030    2    1    2    0    0  0.00000000000E+00  0.00000000000E+00  0.12773265244E+04  0.17084180443E+04  0.11345171503E+04 0.  0.
        2    1    3    3  502    0  0.31478928681E+03 -0.24594280307E+03  0.12451361152E+04  0.13076483100E+04  0.25500000920E-02 0. -1.
       -2    1    3    3    0  502 -0.31478928681E+03  0.24594280307E+03  0.32190409222E+02  0.40076973429E+03  0.25500000920E-02 0.  1.
</event>
<event>
 5   0  0.2257667E-03  0.1102993E+04  0.7818609E-02  0.9202280E-01
        1   -1    0    0  501    0  0.00000000000E+00  0.00000000000E+00  0.92180837868E+03  0.92180837869E+03  0.50400001928E-02 0. -1.
       -1   -1    0    0    0  501  0.00000000000E+00  0.00000000000E+00 -0.32994748830E+03  0.32994748834E+03  0.50400001928E-02 0.  1.
    10030    2    1    2    0    0  0.00000000000E+00  0.00000000000E+00  0.59186089038E+03  0.12517558670E+04  0.11029929452E+04 0.  0.
        4    1    3    3  502    0 -0.10349377403E+03 -0.26392130767E+03 -0.24092680776E+03  0.37203865055E+03  0.12699999809E+01 0.  1.
       -4    1    3    3    0  502  0.10349377403E+03  0.26392130767E+03  0.83278769814E+03  0.87971721648E+03  0.12699999809E+01 0. -1.
</event>
<event>
 5   0  0.2298958E-03  0.1109193E+04  0.7818609E-02  0.9196278E-01
       -1   -1    0    0    0  501  0.00000000000E+00  0.00000000000E+00  0.14225341778E+03  0.14225341787E+03  0.50400001928E-02 0.  1.
        1   -1    0    0  501    0  0.00000000000E+00  0.00000000000E+00 -0.21621789508E+04  0.21621789508E+04  0.50400001928E-02 0. -1.
    10030    2    1    2    0    0  0.00000000000E+00  0.00000000000E+00 -0.20199255330E+04  0.23044323687E+04  0.11091931224E+04 0.  0.
        1    1    3    3  502    0 -0.46073598838E+02 -0.23393705727E+03 -0.20502618991E+04  0.20640792568E+04  0.50400001928E-02 0. -1.
       -1    1    3    3    0  502  0.46073598838E+02  0.23393705727E+03  0.30336366073E+02  0.24035311191E+03  0.50400001928E-02 0.  1.
</event>
<event>
 5   0  0.3748901E-03  0.1028506E+04  0.7818609E-02  0.9277821E-01
       -2   -1    0    0    0  501  0.00000000000E+00  0.00000000000E+00  0.13884920526E+03  0.13884920529E+03  0.25500000920E-02 0.  1.
        2   -1    0    0  501    0  0.00000000000E+00  0.00000000000E+00 -0.19046291317E+04  0.19046291317E+04  0.25500000920E-02 0. -1.
    10030    2    1    2    0    0  0.00000000000E+00  0.00000000000E+00 -0.17657799265E+04  0.20434783370E+04  0.10285061814E+04 0.  0.
        5    1    3    3  502    0  0.18338709883E+03  0.10989803497E+03 -0.18120982716E+04  0.18246727493E+04  0.46999998093E+01 0. -1.
       -5    1    3    3    0  502 -0.18338709883E+03 -0.10989803497E+03  0.46318345160E+02  0.21880558769E+03  0.46999998093E+01 0.  1.
</event>
<event>
 5   0  0.2255788E-03  0.1091192E+04  0.7818609E-02  0.9213819E-01
        1   -1    0    0  501    0  0.00000000000E+00  0.00000000000E+00  0.53463670744E+03  0.53463670746E+03  0.50400001928E-02 0.  1.
       -1   -1    0    0    0  501  0.00000000000E+00  0.00000000000E+00 -0.55678034426E+03  0.55678034428E+03  0.50400001928E-02 0. -1.
    10030    2    1    2    0    0  0.00000000000E+00  0.00000000000E+00 -0.22143636823E+02  0.10914170517E+04  0.10911923938E+04 0.  0.
        3    1    3    3  502    0 -0.21162945430E+03 -0.34812095551E+03  0.35190780831E+03  0.53834407338E+03  0.10100000352E+00 0.  1.
       -3    1    3    3    0  502  0.21162945430E+03  0.34812095551E+03 -0.37405144514E+03  0.55307297837E+03  0.10100000352E+00 0. -1.
</event>
<event>
 5   0  0.2255788E-03  0.1103185E+04  0.7818609E-02  0.9202093E-01
        1   -1    0    0  501    0  0.00000000000E+00  0.00000000000E+00  0.62754219575E+03  0.62754219577E+03  0.50400001928E-02 0.  1.
       -1   -1    0    0    0  501  0.00000000000E+00  0.00000000000E+00 -0.48483520171E+03  0.48483520173E+03  0.50400001928E-02 0. -1.
    10030    2    1    2    0    0  0.00000000000E+00  0.00000000000E+00  0.14270699404E+03  0.11123773975E+04  0.11031854732E+04 0.  0.
        3    1    3    3  502    0  0.12310536115E+03  0.22123580706E+03 -0.42278515622E+03  0.49279560752E+03  0.10100000352E+00 0. -1.
       -3    1    3    3    0  502 -0.12310536115E+03 -0.22123580706E+03  0.56549215026E+03  0.61958178998E+03  0.10100000352E+00 0.  1.
</event>
<event>
 5   0  0.3744875E-03  0.1115444E+04  0.7818609E-02  0.9190268E-01
       -2   -1    0    0    0  501  0.00000000000E+00  0.00000000000E+00  0.15566457114E+03  0.15566457116E+03  0.25500000920E-02 0.  1.
        2   -1    0    0  501    0  0.00000000000E+00  0.00000000000E+00 -0.19982318930E+04  0.19982318930E+04  0.25500000920E-02 0. -1.
    10030    2    1    2    0    0  0.00000000000E+00  0.00000000000E+00 -0.18425673218E+04  0.21538964641E+04  0.11154441459E+04 0.  0.
        2    1    3    3  502    0 -0.40336883181E+03  0.11587496811E+03 -0.21200654771E+03  0.47019166197E+03  0.25500000920E-02 0.  1.
       -2    1    3    3    0  502  0.40336883181E+03 -0.11587496811E+03 -0.16305607741E+04  0.16837048022E+04  0.25500000920E-02 0. -1.
</event>
<event>
 5   0  0.3713158E-03  0.1108643E+04  0.7818609E-02  0.9196809E-01
       -2   -1    0    0    0  501  0.00000000000E+00  0.00000000000E+00  0.98659256524E+02  0.98659256557E+02  0.25500000920E-02 0. -1.
        2   -1    0    0  501    0  0.00000000000E+00  0.00000000000E+00 -0.31144776737E+04  0.31144776737E+04  0.25500000920E-02 0.  1.
    10030    2    1    2    0    0  0.00000000000E+00  0.00000000000E+00 -0.30158184172E+04  0.32131369303E+04  0.11086425065E+04 0.  0.
        4    1    3    3  502    0  0.54542117466E+03 -0.49064064074E+02 -0.12589469682E+04  0.13728949785E+04  0.12699999809E+01 0.  1.
       -4    1    3    3    0  502 -0.54542117466E+03  0.49064064074E+02 -0.17568714490E+04  0.18402419518E+04  0.12699999809E+01 0. -1.
</event>
<event>
 5   0  0.2255788E-03  0.1098151E+04  0.7818609E-02  0.9206996E-01
        1   -1    0    0  501    0  0.00000000000E+00  0.00000000000E+00  0.10247858875E+04  0.10247858875E+04  0.50400001928E-02 0.  1.
       -1   -1    0    0    0  501  0.00000000000E+00  0.00000000000E+00 -0.29419220181E+03  0.29419220186E+03  0.50400001928E-02 0. -1.
    10030    2    1    2    0    0  0.00000000000E+00  0.00000000000E+00  0.73059368566E+03  0.13189780893E+04  0.10981512039E+04 0.  0.
        3    1    3    3  502    0  0.51145537726E+03  0.16341835510E+03  0.22734477811E+03  0.58307617002E+03  0.10100000352E+00 0. -1.
       -3    1    3    3    0  502 -0.51145537726E+03 -0.16341835510E+03  0.50324890755E+03  0.73590191932E+03  0.10100000352E+00 0.  1.
</event>
<event>
 5   0  0.3744875E-03  0.1163364E+04  0.7818609E-02  0.9145543E-01
       -2   -1    0    0    0  501  0.00000000000E+00  0.00000000000E+00  0.16300463757E+03  0.16300463759E+03  0.25500000920E-02 0. -1.
        2   -1    0    0  501    0  0.00000000000E+00  0.00000000000E+00 -0.20757317078E+04  0.20757317078E+04  0.25500000920E-02 0.  1.
    10030    2    1    2    0    0  0.00000000000E+00  0.00000000000E+00 -0.19127270703E+04  0.22387363454E+04  0.11633639065E+04 0.  0.
        2    1    3    3  502    0 -0.15381962625E+03  0.56518166823E+02  0.11766488211E+03  0.20174192695E+03  0.25500000920E-02 0. -1.
       -2    1    3    3    0  502  0.15381962625E+03 -0.56518166823E+02 -0.20303919524E+04  0.20369944185E+04  0.25500000920E-02 0.  1.
</event>
<event>
 5   0  0.3713158E-03  0.1097536E+04  0.7818609E-02  0.9207597E-01
       -2   -1    0    0    0  501  0.00000000000E+00  0.00000000000E+00  0.19039571866E+03  0.19039571867E+03  0.25500000920E-02 0. -1.
        2   -1    0    0  501    0  0.00000000000E+00  0.00000000000E+00 -0.15816862720E+04  0.15816862720E+04  0.25500000920E-02 0.  1.
    10030    2    1    2    0    0  0.00000000000E+00  0.00000000000E+00 -0.13912905533E+04  0.17720819906E+04  0.10975359574E+04 0.  0.
        4    1    3    3  502    0 -0.37058863152E+03  0.76537616270E+02 -0.53954365032E+02  0.38223896573E+03  0.12699999809E+01 0. -1.
       -4    1    3    3    0  502  0.37058863152E+03 -0.76537616270E+02 -0.13373361883E+04  0.13898430249E+04  0.12699999809E+01 0.  1.
</event>
<event>
 5   0  0.3962999E-03  0.1114456E+04  0.7818609E-02  0.9191216E-01
        2   -1    0    0  501    0  0.00000000000E+00  0.00000000000E+00  0.14720190342E+04  0.14720190342E+04  0.25500000920E-02 0. -1.
       -2   -1    0    0    0  501  0.00000000000E+00  0.00000000000E+00 -0.21093684382E+03  0.21093684384E+03  0.25500000920E-02 0.  1.
    10030    2    1    2    0    0  0.00000000000E+00  0.00000000000E+00  0.12610821904E+04  0.16829558780E+04  0.11144560092E+04 0.  0.
        3    1    3    3  502    0  0.33209396707E+03  0.24431923370E+03  0.11966320394E+04  0.12656644654E+04  0.10100000352E+00 0. -1.
       -3    1    3    3    0  502 -0.33209396707E+03 -0.24431923370E+03  0.64450150940E+02  0.41729141266E+03  0.10100000352E+00 0.  1.
</event>
<event>
 5   0  0.2255788E-03  0.1118589E+04  0.7818609E-02  0.9187260E-01
       -1   -1    0    0    0  501  0.00000000000E+00  0.00000000000E+00  0.31098500202E+03  0.31098500206E+03  0.50400001928E-02 0.  1.
        1   -1    0    0  501    0  0.00000000000E+00  0.00000000000E+00 -0.10058702368E+04  0.10058702368E+04  0.50400001928E-02 0. -1.
    10030    2    1    2    0    0  0.00000000000E+00  0.00000000000E+00 -0.69488523476E+03  0.13168552389E+04  0.11185893932E+04 0.  0.
        3    1    3    3  502    0 -0.47725062314E+03 -0.25290165632E+03 -0.51837919708E+03  0.74862835054E+03  0.10100000352E+00 0. -1.
       -3    1    3    3    0  502  0.47725062314E+03  0.25290165632E+03 -0.17650603767E+03  0.56822688831E+03  0.10100000352E+00 0.  1.
</event>
<event>
 5   0  0.3744875E-03  0.1097255E+04  0.7818609E-02  0.9207872E-01
        2   -1    0    0  501    0  0.00000000000E+00  0.00000000000E+00  0.50801763806E+03  0.50801763807E+03  0.25500000920E-02 0. -1.
       -2   -1    0    0    0  501  0.00000000000E+00  0.00000000000E+00 -0.59248341156E+03  0.59248341156E+03  0.25500000920E-02 0.  1.
    10030    2    1    2    0    0  0.00000000000E+00  0.00000000000E+00 -0.84465773496E+02  0.11005010496E+04  0.10972547987E+04 0.  0.
        2    1    3    3  502    0  0.31662758815E+03  0.17283833368E+03 -0.45681511057E+03  0.58207058371E+03  0.25500000920E-02 0.  1.
       -2    1    3    3    0  502 -0.31662758815E+03 -0.17283833368E+03  0.37234933707E+03  0.51843046592E+03  0.25500000920E-02 0. -1.
</event>
<event>
 5   0  0.2300702E-03  0.1091748E+04  0.7818609E-02  0.9213272E-01
       -1   -1    0    0    0  501  0.00000000000E+00  0.00000000000E+00  0.98016812753E+03  0.98016812754E+03  0.50400001928E-02 0.  1.
        1   -1    0    0  501    0  0.00000000000E+00  0.00000000000E+00 -0.30400771344E+03  0.30400771348E+03  0.50400001928E-02 0. -1.
    10030    2    1    2    0    0  0.00000000000E+00  0.00000000000E+00  0.67616041409E+03  0.12841758410E+04  0.10917484532E+04 0.  0.
        5    1    3    3  502    0  0.48785687714E+03  0.17162208746E+03  0.54349814135E+03  0.75024715469E+03  0.46999998093E+01 0.  1.
       -5    1    3    3    0  502 -0.48785687714E+03 -0.17162208746E+03  0.13266227274E+03  0.53392868633E+03  0.46999998093E+01 0. -1.
</event>
<event>
 5   0  0.2257667E-03  0.1098998E+04  0.7818609E-02  0.9206169E-01
       -1   -1    0    0    0  501  0.00000000000E+00  0.00000000000E+00  0.33139596028E+03  0.33139596031E+03  0.50400001928E-02 0. -1.
        1   -1    0    0  501    0  0.00000000000E+00  0.00000000000E+00 -0.91114252658E+03  0.91114252659E+03  0.50400001928E-02 0.  1.
    10030    2    1    2    0    0  0.00000000000E+00  0.00000000000E+00 -0.57974656630E+03  0.12425384869E+04  0.10989976389E+04 0.  0.
        4    1    3    3  502    0 -0.49271139612E+03 -0.18125423733E+03 -0.47333109994E+03  0.70686742851E+03  0.12699999809E+01 0.  1.
       -4    1    3    3    0  502  0.49271139612E+03  0.18125423733E+03 -0.10641546637E+03  0.53567105840E+03  0.12699999809E+01 0. -1.
</event>
<event>
 5   0  0.3744875E-03  0.1100089E+04  0.7818609E-02  0.9205106E-01
       -2   -1    0    0    0  501  0.00000000000E+00  0.00000000000E+00  0.37094879401E+03  0.37094879402E+03  0.25500000920E-02 0. -1.
        2   -1    0    0  501    0  0.00000000000E+00  0.00000000000E+00 -0.81560775993E+03  0.81560775993E+03  0.25500000920E-02 0.  1.
    10030    2    1    2    0    0  0.00000000000E+00  0.00000000000E+00 -0.44465896592E+03  0.11865565539E+04  0.11000885690E+04 0.  0.
        2    1    3    3  502    0  0.33987030650E+03  0.39217576504E+03 -0.41896366574E+03  0.66696642280E+03  0.25500000920E-02 0.  1.
       -2    1    3    3    0  502 -0.33987030650E+03 -0.39217576504E+03 -0.25695300175E+02  0.51959013115E+03  0.25500000920E-02 0. -1.
</event>
<event>
 5   0  0.2300702E-03  0.1095241E+04  0.7818609E-02  0.9209842E-01
       -1   -1    0    0    0  501  0.00000000000E+00  0.00000000000E+00  0.39582787097E+03  0.39582787100E+03  0.50400001928E-02 0.  1.
        1   -1    0    0  501    0  0.00000000000E+00  0.00000000000E+00 -0.75762315672E+03  0.75762315673E+03  0.50400001928E-02 0. -1.
    10030    2    1    2    0    0  0.00000000000E+00  0.00000000000E+00 -0.36179528575E+03  0.11534510277E+04  0.10952412723E+04 0.  0.
        5    1    3    3  502    0  0.85544258315E+02  0.12658836873E+03  0.37290579273E+03  0.40301768630E+03  0.46999998093E+01 0.  1.
       -5    1    3    3    0  502 -0.85544258315E+02 -0.12658836873E+03 -0.73470107847E+03  0.75043334143E+03  0.46999998093E+01 0. -1.
</event>
<event>
 5   0  0.2255788E-03  0.1093290E+04  0.7818609E-02  0.9211757E-01
       -1   -1    0    0    0  501  0.00000000000E+00  0.00000000000E+00  0.20726885421E+03  0.20726885427E+03  0.50400001928E-02 0.  1.
        1   -1    0    0  501    0  0.00000000000E+00  0.00000000000E+00 -0.14417058210E+04  0.14417058210E+04  0.50400001928E-02 0. -1.
    10030    2    1    2    0    0  0.00000000000E+00  0.00000000000E+00 -0.12344369668E+04  0.16489746752E+04  0.10932899225E+04 0.  0.
        3    1    3    3  502    0 -0.18873800074E+03 -0.38517258821E+03 -0.10609404443E+03  0.44185508042E+03  0.10100000352E+00 0.  1.
       -3    1    3    3    0  502  0.18873800074E+03  0.38517258821E+03 -0.11283429223E+04  0.12071195948E+04  0.10100000352E+00 0. -1.
</event>
<event>
 5   0  0.2255788E-03  0.1142791E+04  0.7818609E-02  0.9164460E-01
       -1   -1    0    0    0  501  0.00000000000E+00  0.00000000000E+00  0.80878902639E+03  0.80878902641E+03  0.50400001928E-02 0.  1.
        1   -1    0    0  501    0  0.00000000000E+00  0.00000000000E+00 -0.40368121910E+03  0.40368121913E+03  0.50400001928E-02 0. -1.
    10030    2    1    2    0    0  0.00000000000E+00  0.00000000000E+00  0.40510780729E+03  0.12124702455E+04  0.11427912149E+04 0.  0.
        3    1    3    3  502    0  0.10581017272E+03  0.17099001478E+03  0.77001020597E+03  0.79583233492E+03  0.10100000352E+00 0.  1.
       -3    1    3    3    0  502 -0.10581017272E+03 -0.17099001478E+03 -0.36490239868E+03  0.41663791062E+03  0.10100000352E+00 0. -1.
</event>
<event>
 5   0  0.2374100E-03  0.1137696E+04  0.7818609E-02  0.9169210E-01
        1   -1    0    0  501    0  0.00000000000E+00  0.00000000000E+00  0.69492579690E+03  0.69492579692E+03  0.50400001928E-02 0. -1.
       -1   -1    0    0    0  501  0.00000000000E+00  0.00000000000E+00 -0.46564390665E+03  0.46564390668E+03  0.50400001928E-02 0.  1.
    10030    2    1    2    0    0  0.00000000000E+00  0.00000000000E+00  0.22928189024E+03  0.11605697036E+04  0.11376958520E+04 0.  0.
        2    1    3    3  502    0  0.43060138230E+03 -0.28508406094E+03  0.35796867882E+03  0.62835662427E+03  0.25500000920E-02 0. -1.
       -2    1    3    3    0  502 -0.43060138230E+03  0.28508406094E+03 -0.12868678858E+03  0.53221307932E+03  0.25500000920E-02 0.  1.
</event>
<event>
 5   0  0.3748901E-03  0.1091314E+04  0.7818609E-02  0.9213699E-01
        2   -1    0    0  501    0  0.00000000000E+00  0.00000000000E+00  0.76134878953E+03  0.76134878954E+03  0.25500000920E-02 0. -1.
       -2   -1    0    0    0  501  0.00000000000E+00  0.00000000000E+00 -0.39107128855E+03  0.39107128856E+03  0.25500000920E-02 0.  1.
    10030    2    1    2    0    0  0.00000000000E+00  0.00000000000E+00  0.37027750098E+03  0.11524200781E+04  0.10913141659E+04 0.  0.
        5    1    3    3  502    0  0.99825298678E+01 -0.43466525680E+03  0.53327390305E+03  0.68806735284E+03  0.46999998093E+01 0. -1.
       -5    1    3    3    0  502 -0.99825298678E+01  0.43466525680E+03 -0.16299640206E+03  0.46435272526E+03  0.46999998093E+01 0.  1.
</event>
<event>
 5   0  0.2257667E-03  0.1098848E+04  0.7818609E-02  0.9206316E-01
       -1   -1    0    0    0  501  0.00000000000E+00  0.00000000000E+00  0.20951494689E+03  0.20951494695E+03  0.50400001928E-02 0.  1.
        1   -1    0    0  501    0  0.00000000000E+00  0.00000000000E+00 -0.14407877355E+04  0.14407877355E+04  0.50400001928E-02 0. -1.
    10030    2    1    2    0    0  0.00000000000E+00  0.00000000000E+00 -0.12312727886E+04  0.16503026825E+04  0.10988476982E+04 0.  0.
        4    1    3    3  502    0 -0.15739599710E+03  0.18438686625E+03  0.12484179832E+03  0.27268865736E+03  0.12699999809E+01 0.  1.
       -4    1    3    3    0  502  0.15739599710E+03 -0.18438686625E+03 -0.13561145869E+04  0.13776140251E+04  0.12699999809E+01 0. -1.
</event>
<event>
 5   0  0.2255788E-03  0.1096878E+04  0.7818609E-02  0.9208240E-01
        1   -1    0    0  501    0  0.00000000000E+00  0.00000000000E+00  0.36630312976E+03  0.36630312980E+03  0.50400001928E-02 0. -1.
       -1   -1    0    0    0  501  0.00000000000E+00  0.00000000000E+00 -0.82113737438E+03  0.82113737439E+03  0.50400001928E-02 0.  1.
    10030    2    1    2    0    0  0.00000000000E+00  0.00000000000E+00 -0.45483424462E+03  0.11874405042E+04  0.10968777329E+04 0.  0.
        3    1    3    3  502    0  0.71152074798E+02 -0.23427812490E+03  0.30385206968E+03  0.39022422785E+03  0.10100000352E+00 0. -1.
       -3    1    3    3    0  502 -0.71152074798E+02  0.23427812490E+03 -0.75868631430E+03  0.79721627634E+03  0.10100000352E+00 0.  1.
</event>
<event>
 5   0  0.3744875E-03  0.1097592E+04  0.7818609E-02  0.9207542E-01
       -2   -1    0    0    0  501  0.00000000000E+00  0.00000000000E+00  0.28633663168E+03  0.28633663170E+03  0.25500000920E-02 0. -1.
        2   -1    0    0  501    0  0.00000000000E+00  0.00000000000E+00 -0.10518293769E+04  0.10518293769E+04  0.25500000920E-02 0.  1.
    10030    2    1    2    0    0  0.00000000000E+00  0.00000000000E+00 -0.76549274525E+03  0.13381660086E+04  0.10975924215E+04 0.  0.
        2    1    3    3  502    0  0.48825996113E+02 -0.32943972266E+03 -0.91454327626E+03  0.97329538832E+03  0.25500000920E-02 0.  1.
       -2    1    3    3    0  502 -0.48825996113E+02  0.32943972266E+03  0.14905053101E+03  0.36487062031E+03  0.25500000920E-02 0. -1.
</event>
<event>
 5   0  0.1508625E-03  0.1116317E+04  0.7818609E-02  0.9189433E-01
        4   -1    0    0  501    0  0.00000000000E+00  0.00000000000E+00  0.17609905170E+04  0.17609909749E+04  0.12699999809E+01 0. -1.
       -4   -1    0    0    0  501  0.00000000000E+00  0.00000000000E+00 -0.17690942605E+03  0.17691398454E+03  0.12699999809E+01 0.  1.
    10030    2    1    2    0    0  0.00000000000E+00  0.00000000000E+00  0.15840810909E+04  0.19379049595E+04  0.11163165901E+04 0.  0.
        4    1    3    3  502    0 -0.77939246822E+02 -0.27243838645E+03 -0.42751554349E+02  0.28657723026E+03  0.12699999809E+01 0.  1.
       -4    1    3    3    0  502  0.77939246822E+02  0.27243838645E+03  0.16268326453E+04  0.16513277292E+04  0.12699999809E+01 0. -1.
</event>
<event>
 5   0  0.3748901E-03  0.1100871E+04  0.7818609E-02  0.9204344E-01
        2   -1    0    0  501    0  0.00000000000E+00  0.00000000000E+00  0.17151239580E+04  0.17151239580E+04  0.25500000920E-02 0. -1.
       -2   -1    0    0    0  501  0.00000000000E+00  0.00000000000E+00 -0.17665135421E+03  0.17665135423E+03  0.25500000920E-02 0.  1.
    10030    2    1    2    0    0  0.00000000000E+00  0.00000000000E+00  0.15384726038E+04  0.18917753123E+04  0.11008705098E+04 0.  0.
        5    1    3    3  502    0  0.21132835002E+02 -0.47863769759E+03  0.12348538909E+04  0.13245477961E+04  0.46999998093E+01 0. -1.
       -5    1    3    3    0  502 -0.21132835002E+02  0.47863769759E+03  0.30361871295E+03  0.56722751619E+03  0.46999998093E+01 0.  1.
</event>
<event>
 5   0  0.2298958E-03  0.1097538E+04  0.7818609E-02  0.9207595E-01
       -1   -1    0    0    0  501  0.00000000000E+00  0.00000000000E+00  0.44465448040E+03  0.44465448043E+03  0.50400001928E-02 0.  1.
        1   -1    0    0  501    0  0.00000000000E+00  0.00000000000E+00 -0.67726135826E+03  0.67726135828E+03  0.50400001928E-02 0. -1.
    10030    2    1    2    0    0  0.00000000000E+00  0.00000000000E+00 -0.23260687786E+03  0.11219158387E+04  0.10975377850E+04 0.  0.
        1    1    3    3  502    0  0.49557804382E+03 -0.16844011524E+03 -0.28482154469E+03  0.59589678829E+03  0.50400001928E-02 0. -1.
       -1    1    3    3    0  502 -0.49557804382E+03  0.16844011524E+03  0.52214666832E+02  0.52601905042E+03  0.50400001928E-02 0.  1.
</event>
<event>
 5   0  0.3962999E-03  0.1105474E+04  0.7818609E-02  0.9199873E-01
        2   -1    0    0  501    0  0.00000000000E+00  0.00000000000E+00  0.10781955092E+04  0.10781955092E+04  0.25500000920E-02 0. -1.
       -2   -1    0    0    0  501  0.00000000000E+00  0.00000000000E+00 -0.28336082522E+03  0.28336082523E+03  0.25500000920E-02 0.  1.
    10030    2    1    2    0    0  0.00000000000E+00  0.00000000000E+00  0.79483468395E+03  0.13615563344E+04  0.11054743222E+04 0.  0.
        3    1    3    3  502    0  0.53416368609E+03 -0.12356419055E+03  0.31103135437E+03  0.63034868630E+03  0.10100000352E+00 0.  1.
       -3    1    3    3    0  502 -0.53416368609E+03  0.12356419055E+03  0.48380332959E+03  0.73120764810E+03  0.10100000352E+00 0. -1.
</event>
<event>
 5   0  0.3748901E-03  0.1102101E+04  0.7818609E-02  0.9203147E-01
        2   -1    0    0  501    0  0.00000000000E+00  0.00000000000E+00  0.14137661385E+04  0.14137661385E+04  0.25500000920E-02 0. -1.
       -2   -1    0    0    0  501  0.00000000000E+00  0.00000000000E+00 -0.21478560413E+03  0.21478560414E+03  0.25500000920E-02 0.  1.
    10030    2    1    2    0    0  0.00000000000E+00  0.00000000000E+00  0.11989805344E+04  0.16285517427E+04  0.11021009285E+04 0.  0.
        5    1    3    3  502    0  0.23839336159E+03 -0.22286547541E+03  0.12555767357E+04  0.12973031427E+04  0.46999998093E+01 0. -1.
       -5    1    3    3    0  502 -0.23839336159E+03  0.22286547541E+03 -0.56596201255E+02  0.33124859996E+03  0.46999998093E+01 0.  1.
</event>
<event>
 5   0  0.2298958E-03  0.1095528E+04  0.7818609E-02  0.9209562E-01
        1   -1    0    0  501    0  0.00000000000E+00  0.00000000000E+00  0.11561384565E+04  0.11561384565E+04  0.50400001928E-02 0. -1.
       -1   -1    0    0    0  501  0.00000000000E+00  0.00000000000E+00 -0.25952376568E+03  0.25952376573E+03  0.50400001928E-02 0.  1.
    10030    2    1    2    0    0  0.00000000000E+00  0.00000000000E+00  0.89661469080E+03  0.14156622222E+04  0.10955280114E+04 0.  0.
        1    1    3    3  502    0  0.34770345405E+03  0.10594943064E+03  0.97783727778E+03  0.10432107724E+04  0.50400001928E-02 0. -1.
       -1    1    3    3    0  502 -0.34770345405E+03 -0.10594943064E+03 -0.81222586978E+02  0.37245144982E+03  0.50400001928E-02 0.  1.
</event>
<event>
 5   0  0.3744875E-03  0.1107426E+04  0.7818609E-02  0.9197985E-01
       -2   -1    0    0    0  501  0.00000000000E+00  0.00000000000E+00  0.31208043604E+03  0.31208043605E+03  0.25500000920E-02 0. -1.
        2   -1    0    0  501    0  0.00000000000E+00  0.00000000000E+00 -0.98243202476E+03  0.98243202476E+03  0.25500000920E-02 0.  1.
    10030    2    1    2    0    0  0.00000000000E+00  0.00000000000E+00 -0.67035158872E+03  0.12945124608E+04  0.11074255093E+04 0.  0.
        2    1    3    3  502    0 -0.33997353099E+03  0.29091473314E+03 -0.71644413957E+03  0.84469260022E+03  0.25500000920E-02 0.  1.
       -2    1    3    3    0  502  0.33997353099E+03 -0.29091473314E+03  0.46092550849E+02  0.44981986060E+03  0.25500000920E-02 0. -1.
</event>
<event>
 5   0  0.3748901E-03  0.1105193E+04  0.7818609E-02  0.9200145E-01
        2   -1    0    0  501    0  0.00000000000E+00  0.00000000000E+00  0.12810735547E+04  0.12810735547E+04  0.25500000920E-02 0. -1.
       -2   -1    0    0    0  501  0.00000000000E+00  0.00000000000E+00 -0.23836481178E+03  0.23836481179E+03  0.25500000920E-02 0.  1.
    10030    2    1    2    0    0  0.00000000000E+00  0.00000000000E+00  0.10427087430E+04  0.15194383665E+04  0.11051929366E+04 0.  0.
        5    1    3    3  502    0  0.26392243092E+03 -0.40433740568E+03  0.89076084532E+03  0.10132229571E+04  0.46999998093E+01 0. -1.
       -5    1    3    3    0  502 -0.26392243092E+03  0.40433740568E+03  0.15194789763E+03  0.50621540946E+03  0.46999998093E+01 0.  1.
</event>
<event>
 5   0  0.2374100E-03  0.1101594E+04  0.7818609E-02  0.9203640E-01
       -1   -1    0    0    0  501  0.00000000000E+00  0.00000000000E+00  0.18381002235E+03  0.18381002242E+03  0.50400001928E-02 0.  1.
        1   -1    0    0  501    0  0.00000000000E+00  0.00000000000E+00 -0.16504941034E+04  0.16504941034E+04  0.50400001928E-02 0. -1.
    10030    2    1    2    0    0  0.00000000000E+00  0.00000000000E+00 -0.14666840811E+04  0.18343041258E+04  0.11015940416E+04 0.  0.
        2    1    3    3  502    0 -0.39804547572E+03  0.22015527652E+03 -0.12505238353E+04  0.13306834368E+04  0.25500000920E-02 0. -1.
       -2    1    3    3    0  502  0.39804547572E+03 -0.22015527652E+03 -0.21616024582E+03  0.50362068901E+03  0.25500000920E-02 0.  1.
</event>
<event>
 5   0  0.3748901E-03  0.1109952E+04  0.7818609E-02  0.9195546E-01
        2   -1    0    0  501    0  0.00000000000E+00  0.00000000000E+00  0.51443258206E+03  0.51443258207E+03  0.25500000920E-02 0. -1.
       -2   -1    0    0    0  501  0.00000000000E+00  0.00000000000E+00 -0.59871448536E+03  0.59871448537E+03  0.25500000920E-02 0.  1.
    10030    2    1    2    0    0  0.00000000000E+00  0.00000000000E+00 -0.84281903299E+02  0.11131470674E+04  0.11099517803E+04 0.  0.
        5    1    3    3  502    0  0.13635367162E+03  0.53763819949E+03 -0.60331284689E+02  0.55795081434E+03  0.46999998093E+01 0.  1.
       -5    1    3    3    0  502 -0.13635367162E+03 -0.53763819949E+03 -0.23950618610E+02  0.55519625309E+03  0.46999998093E+01 0. -1.
</event>
<event>
 5   0  0.2257667E-03  0.1034542E+04  0.7818609E-02  0.9271451E-01
        1   -1    0    0  501    0  0.00000000000E+00  0.00000000000E+00  0.35308037658E+03  0.35308037662E+03  0.50400001928E-02 0.  1.
       -1   -1    0    0    0  501  0.00000000000E+00  0.00000000000E+00 -0.75781373936E+03  0.75781373938E+03  0.50400001928E-02 0. -1.
    10030    2    1    2    0    0  0.00000000000E+00  0.00000000000E+00 -0.40473336278E+03  0.11108941160E+04  0.10345417546E+04 0.  0.
        4    1    3    3  502    0 -0.29299994707E+03 -0.18817795936E+03  0.20836493731E+03  0.40580472320E+03  0.12699999809E+01 0.  1.
       -4    1    3    3    0  502  0.29299994707E+03  0.18817795936E+03 -0.61309830008E+03  0.70508939280E+03  0.12699999809E+01 0. -1.
</event>
<event>
 5   0  0.2300702E-03  0.9616080E+03  0.7818609E-02  0.9351685E-01
       -1   -1    0    0    0  501  0.00000000000E+00  0.00000000000E+00  0.30074272338E+03  0.30074272342E+03  0.50400001928E-02 0. -1.
        1   -1    0    0  501    0  0.00000000000E+00  0.00000000000E+00 -0.76867184127E+03  0.76867184128E+03  0.50400001928E-02 0.  1.
    10030    2    1    2    0    0  0.00000000000E+00  0.00000000000E+00 -0.46792911789E+03  0.10694145647E+04  0.96160795122E+03 0.  0.
        5    1    3    3  502    0  0.22632318455E+03  0.36369671481E+03  0.88041257292E+01  0.42848230635E+03  0.46999998093E+01 0. -1.
       -5    1    3    3    0  502 -0.22632318455E+03 -0.36369671481E+03 -0.47673324362E+03  0.64093225835E+03  0.46999998093E+01 0.  1.
</event>
<event>
 5   0  0.2300702E-03  0.1078133E+04  0.7818609E-02  0.9226771E-01
       -1   -1    0    0    0  501  0.00000000000E+00  0.00000000000E+00  0.52163734284E+03  0.52163734286E+03  0.50400001928E-02 0. -1.
        1   -1    0    0  501    0  0.00000000000E+00  0.00000000000E+00 -0.55707810828E+03  0.55707810830E+03  0.50400001928E-02 0.  1.
    10030    2    1    2    0    0  0.00000000000E+00  0.00000000000E+00 -0.35440765438E+02  0.10787154512E+04  0.10781330979E+04 0.  0.
        5    1    3    3  502    0 -0.96955757426E+02 -0.13349225816E+03 -0.53117400871E+03  0.55622703945E+03  0.46999998093E+01 0.  1.
       -5    1    3    3    0  502  0.96955757426E+02  0.13349225816E+03  0.49573324327E+03  0.52248841171E+03  0.46999998093E+01 0. -1.
</event>
<event>
 5   0  0.2300702E-03  0.1114676E+04  0.7818609E-02  0.9191005E-01
        1   -1    0    0  501    0  0.00000000000E+00  0.00000000000E+00  0.58585062533E+03  0.58585062535E+03  0.50400001928E-02 0.  1.
       -1   -1    0    0    0  501  0.00000000000E+00  0.00000000000E+00 -0.53021301397E+03  0.53021301399E+03  0.50400001928E-02 0. -1.
    10030    2    1    2    0    0  0.00000000000E+00  0.00000000000E+00  0.55637611363E+02  0.11160636393E+04  0.11146759633E+04 0.  0.
        5    1    3    3  502    0  0.35177503140E+03  0.39146687842E+03 -0.15574395001E+03  0.54888091384E+03  0.46999998093E+01 0. -1.
       -5    1    3    3    0  502 -0.35177503140E+03 -0.39146687842E+03  0.21138156137E+03  0.56718272550E+03  0.46999998093E+01 0.  1.
</event>
<event>
 5   0  0.3962999E-03  0.1189502E+04  0.7818609E-02  0.9122095E-01
        2   -1    0    0  501    0  0.00000000000E+00  0.00000000000E+00  0.68982849035E+03  0.68982849035E+03  0.25500000920E-02 0.  1.
       -2   -1    0    0    0  501  0.00000000000E+00  0.00000000000E+00 -0.51277820606E+03  0.51277820607E+03  0.25500000920E-02 0. -1.
    10030    2    1    2    0    0  0.00000000000E+00  0.00000000000E+00  0.17705028429E+03  0.12026066964E+04  0.11895024435E+04 0.  0.
        3    1    3    3  502    0 -0.28705826993E+02 -0.59295044422E+03  0.51866180339E+02  0.59590633884E+03  0.10100000352E+00 0. -1.
       -3    1    3    3    0  502  0.28705826993E+02  0.59295044422E+03  0.12518410395E+03  0.60670035758E+03  0.10100000352E+00 0.  1.
</event>
<event>
 5   0  0.2300702E-03  0.1106203E+04  0.7818609E-02  0.9199167E-01
       -1   -1    0    0    0  501  0.00000000000E+00  0.00000000000E+00  0.39352849288E+03  0.39352849291E+03  0.50400001928E-02 0.  1.
        1   -1    0    0  501    0  0.00000000000E+00  0.00000000000E+00 -0.77738040247E+03  0.77738040248E+03  0.50400001928E-02 0. -1.
    10030    2    1    2    0    0  0.00000000000E+00  0.00000000000E+00 -0.38385190959E+03  0.11709088954E+04  0.11062031246E+04 0.  0.
        5    1    3    3  502    0 -0.26107741291E+03  0.44076566471E+03 -0.41259955484E+03  0.65779652581E+03  0.46999998093E+01 0. -1.
       -5    1    3    3    0  502  0.26107741291E+03 -0.44076566471E+03  0.28747645254E+02  0.51311236958E+03  0.46999998093E+01 0.  1.
</event>
<event>
 5   0  0.2300702E-03  0.1109783E+04  0.7818609E-02  0.9195709E-01
       -1   -1    0    0    0  501  0.00000000000E+00  0.00000000000E+00  0.37016086941E+03  0.37016086945E+03  0.50400001928E-02 0.  1.
        1   -1    0    0  501    0  0.00000000000E+00  0.00000000000E+00 -0.83181216981E+03  0.83181216983E+03  0.50400001928E-02 0. -1.
    10030    2    1    2    0    0  0.00000000000E+00  0.00000000000E+00 -0.46165130040E+03  0.12019730393E+04  0.11097825300E+04 0.  0.
        5    1    3    3  502    0  0.32809637834E+03 -0.13121332198E+03 -0.69416993680E+03  0.77894682778E+03  0.46999998093E+01 0. -1.
       -5    1    3    3    0  502 -0.32809637834E+03  0.13121332198E+03  0.23251863640E+03  0.42302621150E+03  0.46999998093E+01 0.  1.
</event>
<event>
 5   0  0.3962999E-03  0.1035631E+04  0.7818609E-02  0.9270306E-01
       -2   -1    0    0    0  501  0.00000000000E+00  0.00000000000E+00  0.66927209722E+03  0.66927209723E+03  0.25500000920E-02 0. -1.
        2   -1    0    0  501    0  0.00000000000E+00  0.00000000000E+00 -0.40063397984E+03  0.40063397985E+03  0.25500000920E-02 0.  1.
    10030    2    1    2    0    0  0.00000000000E+00  0.00000000000E+00  0.26863811738E+03  0.10699060771E+04  0.10356314864E+04 0.  0.
        3    1    3    3  502    0 -0.37315285699E+03 -0.34017542709E+03  0.25288113350E+03  0.56472228020E+03  0.10100000352E+00 0. -1.
       -3    1    3    3    0  502  0.37315285699E+03  0.34017542709E+03  0.15756983889E+02  0.50518379687E+03  0.10100000352E+00 0.  1.
</event>
<event>
 5   0  0.3992414E-03  0.1102135E+04  0.7818609E-02  0.9203114E-01
        2   -1    0    0  501    0  0.00000000000E+00  0.00000000000E+00  0.80815171782E+03  0.80815171782E+03  0.25500000920E-02 0. -1.
       -2   -1    0    0    0  501  0.00000000000E+00  0.00000000000E+00 -0.37576508485E+03  0.37576508486E+03  0.25500000920E-02 0.  1.
    10030    2    1    2    0    0  0.00000000000E+00  0.00000000000E+00  0.43238663297E+03  0.11839168027E+04  0.11021346539E+04 0.  0.
        1    1    3    3  502    0 -0.30073329333E+03 -0.45730136155E+03  0.28506098054E+03  0.61711004825E+03  0.50400001928E-02 0.  1.
       -1    1    3    3    0  502  0.30073329333E+03  0.45730136155E+03  0.14732565242E+03  0.56680675444E+03  0.50400001928E-02 0. -1.
</event>
<event>
 5   0  0.3713158E-03  0.1098785E+04  0.7818609E-02  0.9206377E-01
        2   -1    0    0  501    0  0.00000000000E+00  0.00000000000E+00  0.11471384054E+04  0.11471384054E+04  0.25500000920E-02 0.  1.
       -2   -1    0    0    0  501  0.00000000000E+00  0.00000000000E+00 -0.26311727246E+03  0.26311727247E+03  0.25500000920E-02 0. -1.
    10030    2    1    2    0    0  0.00000000000E+00  0.00000000000E+00  0.88402113297E+03  0.14102556779E+04  0.10987846529E+04 0.  0.
        4    1    3    3  502    0  0.38054110464E+03  0.39485568160E+03  0.48472855860E+03  0.73190568384E+03  0.12699999809E+01 0.  1.
       -4    1    3    3    0  502 -0.38054110464E+03 -0.39485568160E+03  0.39929257437E+03  0.67834999407E+03  0.12699999809E+01 0. -1.
</event>
<event>
 5   0  0.2374100E-03  0.1088218E+04  0.7818609E-02  0.9216752E-01
        1   -1    0    0  501    0  0.00000000000E+00  0.00000000000E+00  0.86349070034E+03  0.86349070036E+03  0.50400001928E-02 0. -1.
       -1   -1    0    0    0  501  0.00000000000E+00  0.00000000000E+00 -0.34285808523E+03  0.34285808527E+03  0.50400001928E-02 0.  1.
    10030    2    1    2    0    0  0.00000000000E+00  0.00000000000E+00  0.52063261511E+03  0.12063487856E+04  0.10882183019E+04 0.  0.
        2    1    3    3  502    0  0.52740673969E+03 -0.93618766673E+02  0.15437875449E+03  0.55745416169E+03  0.25500000920E-02 0.  1.
       -2    1    3    3    0  502 -0.52740673969E+03  0.93618766673E+02  0.36625386062E+03  0.64889462393E+03  0.25500000920E-02 0. -1.
</event>
<event>
 5   0  0.3748901E-03  0.1106669E+04  0.7818609E-02  0.9198716E-01
        2   -1    0    0  501    0  0.00000000000E+00  0.00000000000E+00  0.17627611947E+04  0.17627611947E+04  0.25500000920E-02 0.  1.
       -2   -1    0    0    0  501  0.00000000000E+00  0.00000000000E+00 -0.17369283038E+03  0.17369283040E+03  0.25500000920E-02 0. -1.
    10030    2    1    2    0    0  0.00000000000E+00  0.00000000000E+00  0.15890683644E+04  0.19364540251E+04  0.11066688415E+04 0.  0.
        5    1    3    3  502    0  0.28747366402E+03 -0.13328995421E+03  0.82943457552E+00  0.31690708001E+03  0.46999998093E+01 0. -1.
       -5    1    3    3    0  502 -0.28747366402E+03  0.13328995421E+03  0.15882389298E+04  0.16195469451E+04  0.46999998093E+01 0.  1.
</event>
<event>
 5   0  0.2257667E-03  0.1085442E+04  0.7818609E-02  0.9219498E-01
        1   -1    0    0  501    0  0.00000000000E+00  0.00000000000E+00  0.62741709925E+03  0.62741709927E+03  0.50400001928E-02 0. -1.
       -1   -1    0    0    0  501  0.00000000000E+00  0.00000000000E+00 -0.46945820438E+03  0.46945820441E+03  0.50400001928E-02 0.  1.
    10030    2    1    2    0    0  0.00000000000E+00  0.00000000000E+00  0.15795889487E+03  0.10968753037E+04  0.10854420387E+04 0.  0.
        4    1    3    3  502    0  0.27608630947E+03 -0.30416221422E+03  0.43740719600E+03  0.60005413993E+03  0.12699999809E+01 0. -1.
       -4    1    3    3    0  502 -0.27608630947E+03  0.30416221422E+03 -0.27944830113E+03  0.49682116374E+03  0.12699999809E+01 0.  1.
</event>
<event>
 5   0  0.3992414E-03  0.1061968E+04  0.7818609E-02  0.9243074E-01
       -2   -1    0    0    0  501  0.00000000000E+00  0.00000000000E+00  0.13160166949E+03  0.13160166952E+03  0.25500000920E-02 0.  1.
        2   -1    0    0  501    0  0.00000000000E+00  0.00000000000E+00 -0.21424041793E+04  0.21424041793E+04  0.25500000920E-02 0. -1.
    10030    2    1    2    0    0  0.00000000000E+00  0.00000000000E+00 -0.20108025098E+04  0.22740058488E+04  0.10619679218E+04 0.  0.
        1    1    3    3  502    0  0.21399257826E+02  0.83808157435E+02 -0.21272168514E+04  0.21289746988E+04  0.50400001928E-02 0. -1.
       -1    1    3    3    0  502 -0.21399257826E+02 -0.83808157435E+02  0.11641434162E+03  0.14503114993E+03  0.50400001928E-02 0.  1.
</event>
<event>
 5   0  0.3748901E-03  0.1114228E+04  0.7818609E-02  0.9191434E-01
       -2   -1    0    0    0  501  0.00000000000E+00  0.00000000000E+00  0.32491686080E+03  0.32491686081E+03  0.25500000920E-02 0. -1.
        2   -1    0    0  501    0  0.00000000000E+00  0.00000000000E+00 -0.95524718742E+03  0.95524718743E+03  0.25500000920E-02 0.  1.
    10030    2    1    2    0    0  0.00000000000E+00  0.00000000000E+00 -0.63033032662E+03  0.12801640482E+04  0.11142278357E+04 0.  0.
        5    1    3    3  502    0  0.49692537095E+03  0.25089851159E+03 -0.34004515763E+03  0.65233249700E+03  0.46999998093E+01 0.  1.
       -5    1    3    3    0  502 -0.49692537095E+03 -0.25089851159E+03 -0.29028516899E+03  0.62783155125E+03  0.46999998093E+01 0. -1.
</event>
<event>
 5   0  0.3744875E-03  0.1053301E+04  0.7818609E-02  0.9251943E-01
       -2   -1    0    0    0  501  0.00000000000E+00  0.00000000000E+00  0.40683724595E+03  0.40683724596E+03  0.25500000920E-02 0. -1.
        2   -1    0    0  501    0  0.00000000000E+00  0.00000000000E+00 -0.68174804477E+03  0.68174804477E+03  0.25500000920E-02 0.  1.
    10030    2    1    2    0    0  0.00000000000E+00  0.00000000000E+00 -0.27491079882E+03  0.10885852907E+04  0.10533005212E+04 0.  0.
        2    1    3    3  502    0  0.48834162386E+02 -0.20510927876E+03 -0.63622550170E+03  0.67025180393E+03  0.25500000920E-02 0.  1.
       -2    1    3    3    0  502 -0.48834162386E+02  0.20510927876E+03  0.36131470288E+03  0.41833348680E+03  0.25500000920E-02 0. -1.
</event>
<event>
 5   0  0.2298958E-03  0.1087466E+04  0.7818609E-02  0.9217495E-01
       -1   -1    0    0    0  501  0.00000000000E+00  0.00000000000E+00  0.20889188280E+03  0.20889188287E+03  0.50400001928E-02 0.  1.
        1   -1    0    0  501    0  0.00000000000E+00  0.00000000000E+00 -0.14153036153E+04  0.14153036153E+04  0.50400001928E-02 0. -1.
    10030    2    1    2    0    0  0.00000000000E+00  0.00000000000E+00 -0.12064117325E+04  0.16241954982E+04  0.10874657457E+04 0.  0.
        1    1    3    3  502    0 -0.12777943480E+03 -0.15807922597E+03 -0.13564235320E+04  0.13715689643E+04  0.50400001928E-02 0. -1.
       -1    1    3    3    0  502  0.12777943480E+03  0.15807922597E+03  0.15001179945E+03  0.25262653393E+03  0.50400001928E-02 0.  1.
</event>
<event>
 5   0  0.2257667E-03  0.1097053E+04  0.7818609E-02  0.9208069E-01
       -1   -1    0    0    0  501  0.00000000000E+00  0.00000000000E+00  0.41022029312E+03  0.41022029315E+03  0.50400001928E-02 0.  1.
        1   -1    0    0  501    0  0.00000000000E+00  0.00000000000E+00 -0.73346289734E+03  0.73346289736E+03  0.50400001928E-02 0. -1.
    10030    2    1    2    0    0  0.00000000000E+00  0.00000000000E+00 -0.32324260423E+03  0.11436831905E+04  0.10970530794E+04 0.  0.
        4    1    3    3  502    0  0.22470550390E+03  0.15331893109E+03  0.33494435092E+03  0.43149575806E+03  0.12699999809E+01 0.  1.
       -4    1    3    3    0  502 -0.22470550390E+03 -0.15331893109E+03 -0.65818695515E+03  0.71218743245E+03  0.12699999809E+01 0. -1.
</event>
<event>
 5   0  0.3744875E-03  0.1103011E+04  0.7818609E-02  0.9202262E-01
       -2   -1    0    0    0  501  0.00000000000E+00  0.00000000000E+00  0.62557277076E+03  0.62557277076E+03  0.25500000920E-02 0. -1.
        2   -1    0    0  501    0  0.00000000000E+00  0.00000000000E+00 -0.48620784806E+03  0.48620784807E+03  0.25500000920E-02 0.  1.
    10030    2    1    2    0    0  0.00000000000E+00  0.00000000000E+00  0.13936492270E+03  0.11117806188E+04  0.11030111345E+04 0.  0.
        2    1    3    3  502    0  0.26280649572E+03  0.39168524936E+03  0.35774089090E+03  0.59199926840E+03  0.25500000920E-02 0. -1.
       -2    1    3    3    0  502 -0.26280649572E+03 -0.39168524936E+03 -0.21837596821E+03  0.51978135043E+03  0.25500000920E-02 0.  1.
</event>
<event>
 5   0  0.3748901E-03  0.1140293E+04  0.7818609E-02  0.9166786E-01
        2   -1    0    0  501    0  0.00000000000E+00  0.00000000000E+00  0.56569282581E+03  0.56569282581E+03  0.25500000920E-02 0.  1.
       -2   -1    0    0    0  501  0.00000000000E+00  0.00000000000E+00 -0.57463481555E+03  0.57463481555E+03  0.25500000920E-02 0. -1.
    10030    2    1    2    0    0  0.00000000000E+00  0.00000000000E+00 -0.89419897388E+01  0.11403276414E+04  0.11402925811E+04 0.  0.
        5    1    3    3  502    0  0.52193271726E+03 -0.18066885170E+03  0.13691831365E+03  0.56905510272E+03  0.46999998093E+01 0.  1.
       -5    1    3    3    0  502 -0.52193271726E+03  0.18066885170E+03 -0.14586030339E+03  0.57127253865E+03  0.46999998093E+01 0. -1.
</event>
<event>
 5   0  0.2257667E-03  0.1083925E+04  0.7818609E-02  0.9221003E-01
       -1   -1    0    0    0  501  0.00000000000E+00  0.00000000000E+00  0.88043848575E+03  0.88043848576E+03  0.50400001928E-02 0.  1.
        1   -1    0    0  501    0  0.00000000000E+00  0.00000000000E+00 -0.33361007798E+03  0.33361007801E+03  0.50400001928E-02 0. -1.
    10030    2    1    2    0    0  0.00000000000E+00  0.00000000000E+00  0.54682840777E+03  0.12140485638E+04  0.10839246319E+04 0.  0.
        4    1    3    3  502    0 -0.34019410732E+03 -0.72187343355E+01  0.74588023766E+03  0.81983113055E+03  0.12699999809E+01 0.  1.
       -4    1    3    3    0  502  0.34019410732E+03  0.72187343355E+01 -0.19905182988E+03  0.39421743323E+03  0.12699999809E+01 0. -1.
</event>
<event>
 5   0  0.2374100E-03  0.1135502E+04  0.7818609E-02  0.9171263E-01
       -1   -1    0    0    0  501  0.00000000000E+00  0.00000000000E+00  0.61380122984E+03  0.61380122986E+03  0.50400001928E-02 0. -1.
        1   -1    0    0  501    0  0.00000000000E+00  0.00000000000E+00 -0.52515608749E+03  0.52515608751E+03  0.50400001928E-02 0.  1.
    10030    2    1    2    0    0  0.00000000000E+00  0.00000000000E+00  0.88645142350E+02  0.11389573174E+04  0.11355024481E+04 0.  0.
        2    1    3    3  502    0 -0.75778294427E+02 -0.47693173672E+03 -0.25514103287E+03  0.54617138158E+03  0.25500000920E-02 0.  1.
       -2    1    3    3    0  502  0.75778294427E+02  0.47693173672E+03  0.34378617522E+03  0.59278593579E+03  0.25500000920E-02 0. -1.
</event>
<event>
 5   0  0.1508625E-03  0.1098838E+04  0.7818609E-02  0.9206326E-01
        3   -1    0    0  501    0  0.00000000000E+00  0.00000000000E+00  0.95915344140E+03  0.95915344672E+03  0.10100000352E+00 0. -1.
       -3   -1    0    0    0  501  0.00000000000E+00  0.00000000000E+00 -0.31471604819E+03  0.31471606440E+03  0.10100000352E+00 0.  1.
    10030    2    1    2    0    0  0.00000000000E+00  0.00000000000E+00  0.64443739321E+03  0.12738695111E+04  0.10988375574E+04 0.  0.
        5    1    3    3  502    0  0.30837260002E+03 -0.30363636907E+03 -0.70145501913E+02  0.43844177094E+03  0.46999998093E+01 0.  1.
       -5    1    3    3    0  502 -0.30837260002E+03  0.30363636907E+03  0.71458289512E+03  0.83542774018E+03  0.46999998093E+01 0. -1.
</event>
<event>
 5   0  0.3713158E-03  0.1123205E+04  0.7818609E-02  0.9182866E-01
       -2   -1    0    0    0  501  0.00000000000E+00  0.00000000000E+00  0.34033933714E+03  0.34033933715E+03  0.25500000920E-02 0. -1.
        2   -1    0    0  501    0  0.00000000000E+00  0.00000000000E+00 -0.92671369517E+03  0.92671369518E+03  0.25500000920E-02 0.  1.
    10030    2    1    2    0    0  0.00000000000E+00  0.00000000000E+00 -0.58637435803E+03  0.12670530323E+04  0.11232045668E+04 0.  0.
        4    1    3    3  502    0 -0.37520609160E+03 -0.77222860613E+02  0.17008088533E+03  0.41913255877E+03  0.12699999809E+01 0. -1.
       -4    1    3    3    0  502  0.37520609160E+03  0.77222860613E+02 -0.75645524336E+03  0.84792047356E+03  0.12699999809E+01 0.  1.
</event>
<event>
 5   0  0.2300702E-03  0.1087402E+04  0.7818609E-02  0.9217558E-01
        1   -1    0    0  501    0  0.00000000000E+00  0.00000000000E+00  0.63416702696E+03  0.63416702698E+03  0.50400001928E-02 0.  1.
       -1   -1    0    0    0  501  0.00000000000E+00  0.00000000000E+00 -0.46614027765E+03  0.46614027768E+03  0.50400001928E-02 0. -1.
    10030    2    1    2    0    0  0.00000000000E+00  0.00000000000E+00  0.16802674930E+03  0.11003073047E+04  0.10874020306E+04 0.  0.
        5    1    3    3  502    0 -0.50021954117E+03 -0.91011216748E+02  0.27887632848E+03  0.57991096517E+03  0.46999998093E+01 0. -1.
       -5    1    3    3    0  502  0.50021954117E+03  0.91011216748E+02 -0.11084957917E+03  0.52039633948E+03  0.46999998093E+01 0.  1.
</event>
<event>
 5   0  0.3713158E-03  0.1095006E+04  0.7818609E-02  0.9210073E-01
        2   -1    0    0  501    0  0.00000000000E+00  0.00000000000E+00  0.99630131411E+03  0.99630131411E+03  0.25500000920E-02 0. -1.
       -2   -1    0    0    0  501  0.00000000000E+00  0.00000000000E+00 -0.30087235563E+03  0.30087235565E+03  0.25500000920E-02 0.  1.
    10030    2    1    2    0    0  0.00000000000E+00  0.00000000000E+00  0.69542895847E+03  0.12971736698E+04  0.10950059786E+04 0.  0.
        4    1    3    3  502    0  0.16361706107E+03  0.96632448046E+02  0.95598271997E+03  0.97468607586E+03  0.12699999809E+01 0. -1.
       -4    1    3    3    0  502 -0.16361706107E+03 -0.96632448046E+02 -0.26055376150E+03  0.32248759390E+03  0.12699999809E+01 0.  1.
</event>
<event>
 5   0  0.3713158E-03  0.1105097E+04  0.7818609E-02  0.9200238E-01
        2   -1    0    0  501    0  0.00000000000E+00  0.00000000000E+00  0.59666658490E+03  0.59666658491E+03  0.25500000920E-02 0. -1.
       -2   -1    0    0    0  501  0.00000000000E+00  0.00000000000E+00 -0.51169252690E+03  0.51169252691E+03  0.25500000920E-02 0.  1.
    10030    2    1    2    0    0  0.00000000000E+00  0.00000000000E+00  0.84974057997E+02  0.11083591118E+04  0.11050969777E+04 0.  0.
        4    1    3    3  502    0 -0.15048826584E+03 -0.39319388163E+03 -0.31642414315E+03  0.52666307823E+03  0.12699999809E+01 0.  1.
       -4    1    3    3    0  502  0.15048826584E+03  0.39319388163E+03  0.40139820114E+03  0.58169603358E+03  0.12699999809E+01 0. -1.
</event>
<event>
 5   0  0.3962999E-03  0.1108410E+04  0.7818609E-02  0.9197034E-01
        2   -1    0    0  501    0  0.00000000000E+00  0.00000000000E+00  0.30165669219E+03  0.30165669220E+03  0.25500000920E-02 0. -1.
       -2   -1    0    0    0  501  0.00000000000E+00  0.00000000000E+00 -0.10181873342E+04  0.10181873342E+04  0.25500000920E-02 0.  1.
    10030    2    1    2    0    0  0.00000000000E+00  0.00000000000E+00 -0.71653064203E+03  0.13198440264E+04  0.11084097136E+04 0.  0.
        3    1    3    3  502    0  0.13048547000E+03 -0.20903871056E+02 -0.99915198073E+03  0.10078532237E+04  0.10100000352E+00 0.  1.
       -3    1    3    3    0  502 -0.13048547000E+03  0.20903871056E+02  0.28262133869E+03  0.31199080274E+03  0.10100000352E+00 0. -1.
</event>
<event>
 5   0  0.2374100E-03  0.9571995E+03  0.7818609E-02  0.9356775E-01
       -1   -1    0    0    0  501  0.00000000000E+00  0.00000000000E+00  0.10213566076E+04  0.10213566076E+04  0.50400001928E-02 0. -1.
        1   -1    0    0  501    0  0.00000000000E+00  0.00000000000E+00 -0.22426812476E+03  0.22426812482E+03  0.50400001928E-02 0.  1.
    10030    2    1    2    0    0  0.00000000000E+00  0.00000000000E+00  0.79708848283E+03  0.12456247324E+04  0.95719952181E+03 0.  0.
        2    1    3    3  502    0  0.41466374263E+03  0.23444471685E+03  0.45884737099E+03  0.66140097866E+03  0.25500000920E-02 0. -1.
       -2    1    3    3    0  502 -0.41466374263E+03 -0.23444471685E+03  0.33824111184E+03  0.58422375376E+03  0.25500000920E-02 0.  1.
</event>
<event>
 5   0  0.2257667E-03  0.1100572E+04  0.7818609E-02  0.9204634E-01
       -1   -1    0    0    0  501  0.00000000000E+00  0.00000000000E+00  0.26983241194E+03  0.26983241199E+03  0.50400001928E-02 0.  1.
        1   -1    0    0  501    0  0.00000000000E+00  0.00000000000E+00 -0.11222329725E+04  0.11222329725E+04  0.50400001928E-02 0. -1.
    10030    2    1    2    0    0  0.00000000000E+00  0.00000000000E+00 -0.85240056053E+03  0.13920653845E+04  0.11005722689E+04 0.  0.
        4    1    3    3  502    0  0.45420175592E+03  0.30722794065E+03 -0.48450690566E+03  0.73173546936E+03  0.12699999809E+01 0.  1.
       -4    1    3    3    0  502 -0.45420175592E+03 -0.30722794065E+03 -0.36789365487E+03  0.66032991511E+03  0.12699999809E+01 0. -1.
</event>
<event>
 5   0  0.2300702E-03  0.1099547E+04  0.7818609E-02  0.9205634E-01
        1   -1    0    0  501    0  0.00000000000E+00  0.00000000000E+00  0.29367364432E+03  0.29367364437E+03  0.50400001928E-02 0. -1.
       -1   -1    0    0    0  501  0.00000000000E+00  0.00000000000E+00 -0.10292063644E+04  0.10292063645E+04  0.50400001928E-02 0.  1.
    10030    2    1    2    0    0  0.00000000000E+00  0.00000000000E+00 -0.73553272012E+03  0.13228800088E+04  0.10995467864E+04 0.  0.
        5    1    3    3  502    0  0.16023168161E+02 -0.54880409265E+03 -0.33403580493E+03  0.64268552419E+03  0.46999998093E+01 0. -1.
       -5    1    3    3    0  502 -0.16023168161E+02  0.54880409265E+03 -0.40149691519E+03  0.68019448463E+03  0.46999998093E+01 0.  1.
</event>
<event>
 5   0  0.3992414E-03  0.1118447E+04  0.7818609E-02  0.9187396E-01
       -2   -1    0    0    0  501  0.00000000000E+00  0.00000000000E+00  0.34995561138E+03  0.34995561139E+03  0.25500000920E-02 0. -1.
        2   -1    0    0  501    0  0.00000000000E+00  0.00000000000E+00 -0.89363055175E+03  0.89363055175E+03  0.25500000920E-02 0.  1.
    10030    2    1    2    0    0  0.00000000000E+00  0.00000000000E+00 -0.54367494037E+03  0.12435861631E+04  0.11184471844E+04 0.  0.
        1    1    3    3  502    0  0.48580941262E+03  0.23914972696E+03 -0.11646095448E+03  0.55386508397E+03  0.50400001928E-02 0. -1.
       -1    1    3    3    0  502 -0.48580941262E+03 -0.23914972696E+03 -0.42721398589E+03  0.68972107917E+03  0.50400001928E-02 0.  1.
</event>
<event>
 5   0  0.3748901E-03  0.1078982E+04  0.7818609E-02  0.9225923E-01
        2   -1    0    0  501    0  0.00000000000E+00  0.00000000000E+00  0.50452227900E+03  0.50452227900E+03  0.25500000920E-02 0. -1.
       -2   -1    0    0    0  501  0.00000000000E+00  0.00000000000E+00 -0.57688359221E+03  0.57688359222E+03  0.25500000920E-02 0.  1.
    10030    2    1    2    0    0  0.00000000000E+00  0.00000000000E+00 -0.72361313217E+02  0.10814058712E+04  0.10789821586E+04 0.  0.
        5    1    3    3  502    0 -0.34688677610E+03 -0.22483651079E+03 -0.38358102876E+03  0.56394892291E+03  0.46999998093E+01 0.  1.
       -5    1    3    3    0  502  0.34688677610E+03  0.22483651079E+03  0.31121971555E+03  0.51745694832E+03  0.46999998093E+01 0. -1.
</event>
<event>
 5   0  0.3713158E-03  0.1094568E+04  0.7818609E-02  0.9210502E-01
        2   -1    0    0  501    0  0.00000000000E+00  0.00000000000E+00  0.13414708065E+04  0.13414708065E+04  0.25500000920E-02 0. -1.
       -2   -1    0    0    0  501  0.00000000000E+00  0.00000000000E+00 -0.22327723063E+03  0.22327723065E+03  0.25500000920E-02 0.  1.
    10030    2    1    2    0    0  0.00000000000E+00  0.00000000000E+00  0.11181935758E+04  0.15647480371E+04  0.10945682010E+04 0.  0.
        4    1    3    3  502    0 -0.32406923671E+03 -0.87489223841E+02  0.11770278829E+04  0.12239573050E+04  0.12699999809E+01 0. -1.
       -4    1    3    3    0  502  0.32406923671E+03  0.87489223841E+02 -0.58834307108E+02  0.34079073206E+03  0.12699999809E+01 0.  1.
</event>
<event>
 5   0  0.2300702E-03  0.1097478E+04  0.7818609E-02  0.9207653E-01
       -1   -1    0    0    0  501  0.00000000000E+00  0.00000000000E+00  0.27009570009E+03  0.27009570014E+03  0.50400001928E-02 0. -1.
        1   -1    0    0  501    0  0.00000000000E+00  0.00000000000E+00 -0.11148437086E+04  0.11148437086E+04  0.50400001928E-02 0.  1.
    10030    2    1    2    0    0  0.00000000000E+00  0.00000000000E+00 -0.84474800846E+03  0.13849394087E+04  0.10974780034E+04 0.  0.
        5    1    3    3  502    0 -0.23262736068E+02 -0.28313308075E+03 -0.10147914543E+04  0.10538165315E+04  0.46999998093E+01 0.  1.
       -5    1    3    3    0  502  0.23262736068E+02  0.28313308075E+03  0.17004344588E+03  0.33112287718E+03  0.46999998093E+01 0. -1.
</event>
<event>
 5   0  0.2298958E-03  0.1090935E+04  0.7818609E-02  0.9214073E-01
        1   -1    0    0  501    0  0.00000000000E+00  0.00000000000E+00  0.91436955037E+03  0.91436955038E+03  0.50400001928E-02 0. -1.
       -1   -1    0    0    0  501  0.00000000000E+00  0.00000000000E+00 -0.32539866247E+03  0.32539866251E+03  0.50400001928E-02 0.  1.
    10030    2    1    2    0    0  0.00000000000E+00  0.00000000000E+00  0.58897088790E+03  0.12397682129E+04  0.10909346978E+04 0.  0.
        1    1    3    3  502    0  0.55748753316E+02 -0.40275925491E+03  0.70770100382E+03  0.81618849033E+03  0.50400001928E-02 0.  1.
       -1    1    3    3    0  502 -0.55748753316E+02  0.40275925491E+03 -0.11873011592E+03  0.42357972256E+03  0.50400001928E-02 0. -1.
</event>
<event>
 5   0  0.1508625E-03  0.1107389E+04  0.7818609E-02  0.9198020E-01
       -4   -1    0    0    0  501  0.00000000000E+00  0.00000000000E+00  0.47369430444E+03  0.47369600691E+03  0.12699999809E+01 0. -1.
        4   -1    0    0  501    0  0.00000000000E+00  0.00000000000E+00 -0.64720171205E+03  0.64720295811E+03  0.12699999809E+01 0.  1.
    10030    2    1    2    0    0  0.00000000000E+00  0.00000000000E+00 -0.17350740761E+03  0.11208989650E+04  0.11073886713E+04 0.  0.
        3    1    3    3  502    0  0.34370900070E+03  0.19849198040E+03  0.30401646480E+03  0.49996096299E+03  0.10100000352E+00 0. -1.
       -3    1    3    3    0  502 -0.34370900070E+03 -0.19849198040E+03 -0.47752387241E+03  0.62093800203E+03  0.10100000352E+00 0.  1.
</event>
<event>
 5   0  0.2374100E-03  0.1087370E+04  0.7818609E-02  0.9217591E-01
        1   -1    0    0  501    0  0.00000000000E+00  0.00000000000E+00  0.91956471232E+03  0.91956471233E+03  0.50400001928E-02 0.  1.
       -1   -1    0    0    0  501  0.00000000000E+00  0.00000000000E+00 -0.32144895321E+03  0.32144895325E+03  0.50400001928E-02 0. -1.
    10030    2    1    2    0    0  0.00000000000E+00  0.00000000000E+00  0.59811575911E+03  0.12410136656E+04  0.10873695126E+04 0.  0.
        2    1    3    3  502    0  0.59980639326E+02  0.75381916306E+02  0.90974666994E+03  0.91483283384E+03  0.25500000920E-02 0.  1.
       -2    1    3    3    0  502 -0.59980639326E+02 -0.75381916306E+02 -0.31163091083E+03  0.32618083174E+03  0.25500000920E-02 0. -1.
</event>
<event>
 5   0  0.2255788E-03  0.1112727E+04  0.7818609E-02  0.9192875E-01
        1   -1    0    0  501    0  0.00000000000E+00  0.00000000000E+00  0.56821250611E+03  0.56821250613E+03  0.50400001928E-02 0.  1.
       -1   -1    0    0    0  501  0.00000000000E+00  0.00000000000E+00 -0.54476162876E+03  0.54476162878E+03  0.50400001928E-02 0. -1.
    10030    2    1    2    0    0  0.00000000000E+00  0.00000000000E+00  0.23450877349E+02  0.11129741349E+04  0.11127270471E+04 0.  0.
        3    1    3    3  502    0 -0.17018330026E+03  0.41219911092E+03 -0.32101928736E+03  0.54947598291E+03  0.10100000352E+00 0. -1.
       -3    1    3    3    0  502  0.17018330026E+03 -0.41219911092E+03  0.34447016471E+03  0.56349815200E+03  0.10100000352E+00 0.  1.
</event>
<event>
 5   0  0.3992414E-03  0.1098648E+04  0.7818609E-02  0.9206511E-01
       -2   -1    0    0    0  501  0.00000000000E+00  0.00000000000E+00  0.19377980543E+03  0.19377980545E+03  0.25500000920E-02 0. -1.
        2   -1    0    0  501    0  0.00000000000E+00  0.00000000000E+00 -0.15572148117E+04  0.15572148117E+04  0.25500000920E-02 0.  1.
    10030    2    1    2    0    0  0.00000000000E+00  0.00000000000E+00 -0.13634350063E+04  0.17509946171E+04  0.10986478658E+04 0.  0.
        1    1    3    3  502    0 -0.46923560217E+03  0.22121737856E+03 -0.39378848854E+03  0.65129759147E+03  0.50400001928E-02 0.  1.
       -1    1    3    3    0  502  0.46923560217E+03 -0.22121737856E+03 -0.96964651773E+03  0.10996970257E+04  0.50400001928E-02 0. -1.
</event>
<event>
 5   0  0.2374100E-03  0.1106544E+04  0.7818609E-02  0.9198837E-01
       -1   -1    0    0    0  501  0.00000000000E+00  0.00000000000E+00  0.60196505011E+03  0.60196505013E+03  0.50400001928E-02 0. -1.
        1   -1    0    0  501    0  0.00000000000E+00  0.00000000000E+00 -0.50851795754E+03  0.50851795756E+03  0.50400001928E-02 0.  1.
    10030    2    1    2    0    0  0.00000000000E+00  0.00000000000E+00  0.93447092572E+02  0.11104830077E+04  0.11065442383E+04 0.  0.
        2    1    3    3  502    0 -0.82400057958E+02 -0.51427637308E+03  0.23404292569E+03  0.57100442076E+03  0.25500000920E-02 0. -1.
       -2    1    3    3    0  502  0.82400057958E+02  0.51427637308E+03 -0.14059583312E+03  0.53947858693E+03  0.25500000920E-02 0.  1.
</event>
<event>
 5   0  0.2257667E-03  0.1099873E+04  0.7818609E-02  0.9205315E-01
        1   -1    0    0  501    0  0.00000000000E+00  0.00000000000E+00  0.95419155503E+03  0.95419155504E+03  0.50400001928E-02 0. -1.
       -1   -1    0    0    0  501  0.00000000000E+00  0.00000000000E+00 -0.31694929724E+03  0.31694929728E+03  0.50400001928E-02 0.  1.
    10030    2    1    2    0    0  0.00000000000E+00  0.00000000000E+00  0.63724225779E+03  0.12711408523E+04  0.10998733433E+04 0.  0.
        4    1    3    3  502    0 -0.49219627997E+03  0.23193435018E+03  0.22632285737E+03  0.58929989774E+03  0.12699999809E+01 0.  1.
       -4    1    3    3    0  502  0.49219627997E+03 -0.23193435018E+03  0.41091940042E+03  0.68184095458E+03  0.12699999809E+01 0. -1.
</event>
<event>
 5   0  0.3713158E-03  0.1106712E+04  0.7818609E-02  0.9198674E-01
       -2   -1    0    0    0  501  0.00000000000E+00  0.00000000000E+00  0.35143104357E+03  0.35143104358E+03  0.25500000920E-02 0. -1.
        2   -1    0    0  501    0  0.00000000000E+00  0.00000000000E+00 -0.87130315269E+03  0.87130315269E+03  0.25500000920E-02 0.  1.
    10030    2    1    2    0    0  0.00000000000E+00  0.00000000000E+00 -0.51987210912E+03  0.12227341963E+04  0.11067122051E+04 0.  0.
        4    1    3    3  502    0  0.23087961435E+03 -0.22892094016E+03 -0.75463955587E+03  0.82170108029E+03  0.12699999809E+01 0.  1.
       -4    1    3    3    0  502 -0.23087961435E+03  0.22892094016E+03  0.23476744675E+03  0.40103311599E+03  0.12699999809E+01 0. -1.
</event>
<event>
 5   0  0.2300702E-03  0.9140249E+03  0.7818609E-02  0.9408217E-01
       -1   -1    0    0    0  501  0.00000000000E+00  0.00000000000E+00  0.23031861140E+03  0.23031861146E+03  0.50400001928E-02 0.  1.
        1   -1    0    0  501    0  0.00000000000E+00  0.00000000000E+00 -0.90683248087E+03  0.90683248088E+03  0.50400001928E-02 0. -1.
    10030    2    1    2    0    0  0.00000000000E+00  0.00000000000E+00 -0.67651386946E+03  0.11371510923E+04  0.91402494016E+03 0.  0.
        5    1    3    3  502    0  0.23660108830E+03  0.10523160452E+03  0.13020528238E+03  0.28987802802E+03  0.46999998093E+01 0.  1.
       -5    1    3    3    0  502 -0.23660108830E+03 -0.10523160452E+03 -0.80671915184E+03  0.84727306432E+03  0.46999998093E+01 0. -1.
</event>
<event>
 5   0  0.2300702E-03  0.1105673E+04  0.7818609E-02  0.9199680E-01
       -1   -1    0    0    0  501  0.00000000000E+00  0.00000000000E+00  0.19820418810E+03  0.19820418816E+03  0.50400001928E-02 0. -1.
        1   -1    0    0  501    0  0.00000000000E+00  0.00000000000E+00 -0.15419863708E+04  0.15419863708E+04  0.50400001928E-02 0.  1.
    10030    2    1    2    0    0  0.00000000000E+00  0.00000000000E+00 -0.13437821827E+04  0.17401905590E+04  0.11056729295E+04 0.  0.
        5    1    3    3  502    0  0.15716983529E+03  0.94738563373E+02  0.14883331141E+03  0.23632857868E+03  0.46999998093E+01 0. -1.
       -5    1    3    3    0  502 -0.15716983529E+03 -0.94738563373E+02 -0.14926154941E+04  0.15038619803E+04  0.46999998093E+01 0.  1.
</event>
<event>
 5   0  0.2374100E-03  0.1101581E+04  0.7818609E-02  0.9203652E-01
        1   -1    0    0  501    0  0.00000000000E+00  0.00000000000E+00  0.64400012584E+03  0.64400012586E+03  0.50400001928E-02 0. -1.
       -1   -1    0    0    0  501  0.00000000000E+00  0.00000000000E+00 -0.47107177005E+03  0.47107177007E+03  0.50400001928E-02 0.  1.
    10030    2    1    2    0    0  0.00000000000E+00  0.00000000000E+00  0.17292835579E+03  0.11150718959E+04  0.11015811894E+04 0.  0.
        2    1    3    3  502    0  0.55025331422E+03  0.38060506901E+01  0.11078093407E+03  0.56130705607E+03  0.25500000920E-02 0. -1.
       -2    1    3    3    0  502 -0.55025331422E+03 -0.38060506901E+01  0.62147421726E+02  0.55376483986E+03  0.25500000920E-02 0.  1.
</event>
<event>
 5   0  0.3992414E-03  0.1101460E+04  0.7818609E-02  0.9203770E-01
        2   -1    0    0  501    0  0.00000000000E+00  0.00000000000E+00  0.39996164718E+03  0.39996164719E+03  0.25500000920E-02 0.  1.
       -2   -1    0    0    0  501  0.00000000000E+00  0.00000000000E+00 -0.75833148374E+03  0.75833148374E+03  0.25500000920E-02 0. -1.
    10030    2    1    2    0    0  0.00000000000E+00  0.00000000000E+00 -0.35836983656E+03  0.11582931309E+04  0.11014599572E+04 0.  0.
        1    1    3    3  502    0  0.91224550595E+02 -0.16834322535E+03 -0.72220284606E+03  0.74715347221E+03  0.50400001928E-02 0. -1.
       -1    1    3    3    0  502 -0.91224550595E+02  0.16834322535E+03  0.36383300950E+03  0.41113965873E+03  0.50400001928E-02 0.  1.
</event>
<event>
 5   0  0.2374100E-03  0.1092504E+04  0.7818609E-02  0.9212529E-01
       -1   -1    0    0    0  501  0.00000000000E+00  0.00000000000E+00  0.49083222626E+03  0.49083222629E+03  0.50400001928E-02 0. -1.
        1   -1    0    0  501    0  0.00000000000E+00  0.00000000000E+00 -0.60792943086E+03  0.60792943088E+03  0.50400001928E-02 0.  1.
    10030    2    1    2    0    0  0.00000000000E+00  0.00000000000E+00 -0.11709720459E+03  0.10987616572E+04  0.10925041986E+04 0.  0.
        2    1    3    3  502    0 -0.32458719194E+03 -0.36110671186E+03  0.19315762529E+03  0.52255599771E+03  0.25500000920E-02 0. -1.
       -2    1    3    3    0  502  0.32458719194E+03  0.36110671186E+03 -0.31025482988E+03  0.57620565946E+03  0.25500000920E-02 0.  1.
</event>
<event>
 5   0  0.3992414E-03  0.1098307E+04  0.7818609E-02  0.9206843E-01
        2   -1    0    0  501    0  0.00000000000E+00  0.00000000000E+00  0.15432177971E+04  0.15432177971E+04  0.25500000920E-02 0. -1.
       -2   -1    0    0    0  501  0.00000000000E+00  0.00000000000E+00 -0.19541617377E+03  0.19541617379E+03  0.25500000920E-02 0.  1.
    10030    2    1    2    0    0  0.00000000000E+00  0.00000000000E+00  0.13478016233E+04  0.17386339709E+04  0.10983072744E+04 0.  0.
        1    1    3    3  502    0 -0.52417830184E+03 -0.25732509977E+01  0.41474953865E+03  0.66842104513E+03  0.50400001928E-02 0.  1.
       -1    1    3    3    0  502  0.52417830184E+03  0.25732509977E+01  0.93305208470E+03  0.10702129258E+04  0.50400001928E-02 0. -1.
</event>
<event>
 5   0  0.3962999E-03  0.1105549E+04  0.7818609E-02  0.9199800E-01
        2   -1    0    0  501    0  0.00000000000E+00  0.00000000000E+00  0.48694332625E+03  0.48694332625E+03  0.25500000920E-02 0.  1.
       -2   -1    0    0    0  501  0.00000000000E+00  0.00000000000E+00 -0.62750547706E+03  0.62750547706E+03  0.25500000920E-02 0. -1.
    10030    2    1    2    0    0  0.00000000000E+00  0.00000000000E+00 -0.14056215081E+03  0.11144488033E+04  0.11055489211E+04 0.  0.
        3    1    3    3  502    0  0.17445746362E+03 -0.21682244506E+03  0.41117472985E+03  0.49649979654E+03  0.10100000352E+00 0.  1.
       -3    1    3    3    0  502 -0.17445746362E+03  0.21682244506E+03 -0.55173688066E+03  0.61794900678E+03  0.10100000352E+00 0. -1.
</event>
<event>
 5   0  0.3962999E-03  0.1107410E+04  0.7818609E-02  0.9198000E-01
       -2   -1    0    0    0  501  0.00000000000E+00  0.00000000000E+00  0.77741959667E+03  0.77741959668E+03  0.25500000920E-02 0. -1.
        2   -1    0    0  501    0  0.00000000000E+00  0.00000000000E+00 -0.39436743707E+03  0.39436743708E+03  0.25500000920E-02 0.  1.
    10030    2    1    2    0    0  0.00000000000E+00  0.00000000000E+00  0.38305215960E+03  0.11717870338E+04  0.11074095428E+04 0.  0.
        3    1    3    3  502    0  0.18740443068E+03  0.38696429831E+03 -0.17765054744E+03  0.46521125955E+03  0.10100000352E+00 0.  1.
       -3    1    3    3    0  502 -0.18740443068E+03 -0.38696429831E+03  0.56070270704E+03  0.70657577420E+03  0.10100000352E+00 0. -1.
</event>
<event>
 5   0  0.2298958E-03  0.1033603E+04  0.7818609E-02  0.9272438E-01
       -1   -1    0    0    0  501  0.00000000000E+00  0.00000000000E+00  0.15749806945E+04  0.15749806945E+04  0.50400001928E-02 0. -1.
        1   -1    0    0  501    0  0.00000000000E+00  0.00000000000E+00 -0.16957920774E+03  0.16957920781E+03  0.50400001928E-02 0.  1.
    10030    2    1    2    0    0  0.00000000000E+00  0.00000000000E+00  0.14054014868E+04  0.17445599023E+04  0.10336033639E+04 0.  0.
        1    1    3    3  502    0  0.34393746969E+03 -0.27879559344E+03  0.25275843223E+03  0.50981054429E+03  0.50400001928E-02 0.  1.
       -1    1    3    3    0  502 -0.34393746969E+03  0.27879559344E+03  0.11526430545E+04  0.12347493580E+04  0.50400001928E-02 0. -1.
</event>
<event>
 5   0  0.2300702E-03  0.1090460E+04  0.7818609E-02  0.9214540E-01
        1   -1    0    0  501    0  0.00000000000E+00  0.00000000000E+00  0.18992335608E+03  0.18992335615E+03  0.50400001928E-02 0.  1.
       -1   -1    0    0    0  501  0.00000000000E+00  0.00000000000E+00 -0.15652415527E+04  0.15652415528E+04  0.50400001928E-02 0. -1.
    10030    2    1    2    0    0  0.00000000000E+00  0.00000000000E+00 -0.13753181967E+04  0.17551649089E+04  0.10904603227E+04 0.  0.
        5    1    3    3  502    0 -0.13615535406E+03  0.54911361060E+02 -0.15327952497E+04  0.15398171663E+04  0.46999998093E+01 0. -1.
       -5    1    3    3    0  502  0.13615535406E+03 -0.54911361060E+02  0.15747705306E+03  0.21534774262E+03  0.46999998093E+01 0.  1.
</event>
<event>
 5   0  0.3962999E-03  0.1110422E+04  0.7818609E-02  0.9195093E-01
       -2   -1    0    0    0  501  0.00000000000E+00  0.00000000000E+00  0.14455575174E+03  0.14455575176E+03  0.25500000920E-02 0. -1.
        2   -1    0    0  501    0  0.00000000000E+00  0.00000000000E+00 -0.21324585084E+04  0.21324585084E+04  0.25500000920E-02 0.  1.
    10030    2    1    2    0    0  0.00000000000E+00  0.00000000000E+00 -0.19879027566E+04  0.22770142601E+04  0.11104217987E+04 0.  0.
        3    1    3    3  502    0 -0.28205536873E+03 -0.30548777056E+03 -0.23945557466E+03  0.47980932821E+03  0.10100000352E+00 0. -1.
       -3    1    3    3    0  502  0.28205536873E+03  0.30548777056E+03 -0.17484471820E+04  0.17972049319E+04  0.10100000352E+00 0.  1.
</event>
<event>
 5   0  0.2300702E-03  0.1099013E+04  0.7818609E-02  0.9206154E-01
        1   -1    0    0  501    0  0.00000000000E+00  0.00000000000E+00  0.29764354620E+03  0.29764354624E+03  0.50400001928E-02 0. -1.
       -1   -1    0    0    0  501  0.00000000000E+00  0.00000000000E+00 -0.10144932456E+04  0.10144932456E+04  0.50400001928E-02 0.  1.
    10030    2    1    2    0    0  0.00000000000E+00  0.00000000000E+00 -0.71684969935E+03  0.13121367918E+04  0.10990129521E+04 0.  0.
        5    1    3    3  502    0  0.26507143631E+03 -0.11275216696E+03  0.20024863491E+03  0.35085256630E+03  0.46999998093E+01 0. -1.
       -5    1    3    3    0  502 -0.26507143631E+03  0.11275216696E+03 -0.91709833426E+03  0.96128422550E+03  0.46999998093E+01 0.  1.
</event>
<event>
 5   0  0.3744875E-03  0.1107093E+04  0.7818609E-02  0.9198306E-01
        2   -1    0    0  501    0  0.00000000000E+00  0.00000000000E+00  0.47208552354E+03  0.47208552355E+03  0.25500000920E-02 0.  1.
       -2   -1    0    0    0  501  0.00000000000E+00  0.00000000000E+00 -0.64906413641E+03  0.64906413641E+03  0.25500000920E-02 0. -1.
    10030    2    1    2    0    0  0.00000000000E+00  0.00000000000E+00 -0.17697861287E+03  0.11211496600E+04  0.11070930993E+04 0.  0.
        2    1    3    3  502    0 -0.40328124708E+03 -0.14829139582E+03  0.26492255793E+03  0.50478714725E+03  0.25500000920E-02 0.  1.
       -2    1    3    3    0  502  0.40328124708E+03  0.14829139582E+03 -0.44190117080E+03  0.61636251271E+03  0.25500000920E-02 0. -1.
</event>
<event>
 5   0  0.2298958E-03  0.1106596E+04  0.7818609E-02  0.9198787E-01
       -1   -1    0    0    0  501  0.00000000000E+00  0.00000000000E+00  0.36805620615E+03  0.36805620618E+03  0.50400001928E-02 0. -1.
        1   -1    0    0  501    0  0.00000000000E+00  0.00000000000E+00 -0.83177111779E+03  0.83177111780E+03  0.50400001928E-02 0.  1.
    10030    2    1    2    0    0  0.00000000000E+00  0.00000000000E+00 -0.46371491164E+03  0.11998273240E+04  0.11065957203E+04 0.  0.
        1    1    3    3  502    0  0.26767345703E+03  0.40596403117E+03 -0.51807225381E+03  0.71053130431E+03  0.50400001928E-02 0.  1.
       -1    1    3    3    0  502 -0.26767345703E+03 -0.40596403117E+03  0.54357342177E+02  0.48929601968E+03  0.50400001928E-02 0. -1.
</event>
<event>
 5   0  0.2298958E-03  0.1110607E+04  0.7818609E-02  0.9194915E-01
       -1   -1    0    0    0  501  0.00000000000E+00  0.00000000000E+00  0.23390703159E+03  0.23390703164E+03  0.50400001928E-02 0.  1.
        1   -1    0    0  501    0  0.00000000000E+00  0.00000000000E+00 -0.13183093928E+04  0.13183093928E+04  0.50400001928E-02 0. -1.
    10030    2    1    2    0    0  0.00000000000E+00  0.00000000000E+00 -0.10844023612E+04  0.15522164244E+04  0.11106067474E+04 0.  0.
        1    1    3    3  502    0 -0.26969611999E+03 -0.35392538310E+03 -0.77896510190E+02  0.45173780035E+03  0.50400001928E-02 0.  1.
       -1    1    3    3    0  502  0.26969611999E+03  0.35392538310E+03 -0.10065058510E+04  0.11004786241E+04  0.50400001928E-02 0. -1.
</event>
<event>
 5   0  0.2374100E-03  0.1109885E+04  0.7818609E-02  0.9195611E-01
       -1   -1    0    0    0  501  0.00000000000E+00  0.00000000000E+00  0.46075478663E+03  0.46075478666E+03  0.50400001928E-02 0. -1.
        1   -1    0    0  501    0  0.00000000000E+00  0.00000000000E+00 -0.66838353092E+03  0.66838353094E+03  0.50400001928E-02 0.  1.
    10030    2    1    2    0    0  0.00000000000E+00  0.00000000000E+00 -0.20762874430E+03  0.11291383176E+04  0.11098845187E+04 0.  0.
        2    1    3    3  502    0 -0.21121685972E+03 -0.88619431686E+02  0.41041929708E+03  0.47001060087E+03  0.25500000920E-02 0. -1.
       -2    1    3    3    0  502  0.21121685972E+03  0.88619431686E+02 -0.61804804138E+03  0.65912771673E+03  0.25500000920E-02 0.  1.
</event>
<event>
 5   0  0.3713158E-03  0.1085976E+04  0.7818609E-02  0.9218969E-01
        2   -1    0    0  501    0  0.00000000000E+00  0.00000000000E+00  0.18579585332E+04  0.18579585332E+04  0.25500000920E-02 0. -1.
       -2   -1    0    0    0  501  0.00000000000E+00  0.00000000000E+00 -0.15868811204E+03  0.15868811206E+03  0.25500000920E-02 0.  1.
    10030    2    1    2    0    0  0.00000000000E+00  0.00000000000E+00  0.16992704212E+04  0.20166466453E+04  0.10859759333E+04 0.  0.
        4    1    3    3  502    0  0.13016399042E+03  0.48895014836E+03  0.48375909804E+03  0.70002813502E+03  0.12699999809E+01 0. -1.
       -4    1    3    3    0  502 -0.13016399042E+03 -0.48895014836E+03  0.12155113232E+04  0.13166185103E+04  0.12699999809E+01 0.  1.
</event>
<event>
 5   0  0.2255788E-03  0.1047599E+04  0.7818609E-02  0.9257827E-01
        1   -1    0    0  501    0  0.00000000000E+00  0.00000000000E+00  0.30825215948E+03  0.30825215952E+03  0.50400001928E-02 0.  1.
       -1   -1    0    0    0  501  0.00000000000E+00  0.00000000000E+00 -0.89006923821E+03  0.89006923822E+03  0.50400001928E-02 0. -1.
    10030    2    1    2    0    0  0.00000000000E+00  0.00000000000E+00 -0.58181707873E+03  0.11983213977E+04  0.10475987109E+04 0.  0.
        3    1    3    3  502    0  0.96998153335E+02  0.70968528110E+02 -0.87408326460E+03  0.88230762061E+03  0.10100000352E+00 0. -1.
       -3    1    3    3    0  502 -0.96998153335E+02 -0.70968528110E+02  0.29226618587E+03  0.31601377713E+03  0.10100000352E+00 0.  1.
</event>
<event>
 5   0  0.2300702E-03  0.1089393E+04  0.7818609E-02  0.9215593E-01
       -1   -1    0    0    0  501  0.00000000000E+00  0.00000000000E+00  0.38167743254E+03  0.38167743257E+03  0.50400001928E-02 0.  1.
        1   -1    0    0  501    0  0.00000000000E+00  0.00000000000E+00 -0.77734254683E+03  0.77734254685E+03  0.50400001928E-02 0. -1.
    10030    2    1    2    0    0  0.00000000000E+00  0.00000000000E+00 -0.39566511429E+03  0.11590199794E+04  0.10893926886E+04 0.  0.
        5    1    3    3  502    0  0.21190865131E+03 -0.49884575847E+03 -0.25531985328E+03  0.59913494700E+03  0.46999998093E+01 0.  1.
       -5    1    3    3    0  502 -0.21190865131E+03  0.49884575847E+03 -0.14034526101E+03  0.55988503242E+03  0.46999998093E+01 0. -1.
</event>
<event>
 5   0  0.2374100E-03  0.1101874E+04  0.7818609E-02  0.9203367E-01
        1   -1    0    0  501    0  0.00000000000E+00  0.00000000000E+00  0.20937106122E+04  0.20937106122E+04  0.50400001928E-02 0. -1.
       -1   -1    0    0    0  501  0.00000000000E+00  0.00000000000E+00 -0.14497301846E+03  0.14497301855E+03  0.50400001928E-02 0.  1.
    10030    2    1    2    0    0  0.00000000000E+00  0.00000000000E+00  0.19487375937E+04  0.22386836307E+04  0.11018739444E+04 0.  0.
        2    1    3    3  502    0  0.53749134541E+03 -0.78219316461E+02  0.11618627614E+04  0.12825522540E+04  0.25500000920E-02 0.  1.
       -2    1    3    3    0  502 -0.53749134541E+03  0.78219316461E+02  0.78687483232E+03  0.95613137675E+03  0.25500000920E-02 0. -1.
</event>
<event>
 5   0  0.3744875E-03  0.1099398E+04  0.7818609E-02  0.9205779E-01
       -2   -1    0    0    0  501  0.00000000000E+00  0.00000000000E+00  0.36909498971E+03  0.36909498972E+03  0.25500000920E-02 0.  1.
        2   -1    0    0  501    0  0.00000000000E+00  0.00000000000E+00 -0.81867535254E+03  0.81867535254E+03  0.25500000920E-02 0. -1.
    10030    2    1    2    0    0  0.00000000000E+00  0.00000000000E+00 -0.44958036283E+03  0.11877703423E+04  0.10993979640E+04 0.  0.
        2    1    3    3  502    0 -0.62849102452E+02  0.30564956356E+03  0.26413191787E+03  0.40882433322E+03  0.25500000920E-02 0.  1.
       -2    1    3    3    0  502  0.62849102452E+02 -0.30564956356E+03 -0.71371228070E+03  0.77894600905E+03  0.25500000920E-02 0. -1.
</event>
<event>
 5   0  0.1508625E-03  0.1122897E+04  0.7818609E-02  0.9183158E-01
       -3   -1    0    0    0  501  0.00000000000E+00  0.00000000000E+00  0.53446287225E+03  0.53446288179E+03  0.10100000352E+00 0.  1.
        3   -1    0    0  501    0  0.00000000000E+00  0.00000000000E+00 -0.58979614820E+03  0.58979615685E+03  0.10100000352E+00 0. -1.
    10030    2    1    2    0    0  0.00000000000E+00  0.00000000000E+00 -0.55333275947E+02  0.11242590386E+04  0.11228965289E+04 0.  0.
        3    1    3    3  502    0  0.20191267023E+03  0.17416629596E+03 -0.52235270642E+03  0.58647675585E+03  0.10100000352E+00 0. -1.
       -3    1    3    3    0  502 -0.20191267023E+03 -0.17416629596E+03  0.46701943047E+03  0.53778228279E+03  0.10100000352E+00 0.  1.
</event>
<event>
 5   0  0.3713158E-03  0.1109810E+04  0.7818609E-02  0.9195682E-01
       -2   -1    0    0    0  501  0.00000000000E+00  0.00000000000E+00  0.42283806916E+03  0.42283806917E+03  0.25500000920E-02 0.  1.
        2   -1    0    0  501    0  0.00000000000E+00  0.00000000000E+00 -0.72822142501E+03  0.72822142501E+03  0.25500000920E-02 0. -1.
    10030    2    1    2    0    0  0.00000000000E+00  0.00000000000E+00 -0.30538335584E+03  0.11510594942E+04  0.11098103284E+04 0.  0.
        4    1    3    3  502    0 -0.33466348548E+03  0.22253284037E+03  0.24414884170E+03  0.47024545012E+03  0.12699999809E+01 0.  1.
       -4    1    3    3    0  502  0.33466348548E+03 -0.22253284037E+03 -0.54953219754E+03  0.68081404406E+03  0.12699999809E+01 0. -1.
</event>
<event>
 5   0  0.3713158E-03  0.1087327E+04  0.7818609E-02  0.9217633E-01
       -2   -1    0    0    0  501  0.00000000000E+00  0.00000000000E+00  0.24875089017E+03  0.24875089018E+03  0.25500000920E-02 0.  1.
        2   -1    0    0  501    0  0.00000000000E+00  0.00000000000E+00 -0.11882162971E+04  0.11882162971E+04  0.25500000920E-02 0. -1.
    10030    2    1    2    0    0  0.00000000000E+00  0.00000000000E+00 -0.93946540688E+03  0.14369671872E+04  0.10873267432E+04 0.  0.
        4    1    3    3  502    0 -0.11784669415E+03  0.87889868775E+02 -0.11614474150E+04  0.11707152442E+04  0.12699999809E+01 0. -1.
       -4    1    3    3    0  502  0.11784669415E+03 -0.87889868775E+02  0.22198200809E+03  0.26625194304E+03  0.12699999809E+01 0.  1.
</event>
<event>
 5   0  0.2257667E-03  0.1102566E+04  0.7818609E-02  0.9202694E-01
        1   -1    0    0  501    0  0.00000000000E+00  0.00000000000E+00  0.87748101142E+03  0.87748101143E+03  0.50400001928E-02 0. -1.
       -1   -1    0    0    0  501  0.00000000000E+00  0.00000000000E+00 -0.34634702063E+03  0.34634702067E+03  0.50400001928E-02 0.  1.
    10030    2    1    2    0    0  0.00000000000E+00  0.00000000000E+00  0.53113399079E+03  0.12238280321E+04  0.11025659781E+04 0.  0.
        4    1    3    3  502    0  0.11575116530E+03 -0.37042486407E+03 -0.16902791202E+03  0.42330244523E+03  0.12699999809E+01 0.  1.
       -4    1    3    3    0  502 -0.11575116530E+03  0.37042486407E+03  0.70016190281E+03  0.80052558687E+03  0.12699999809E+01 0. -1.
</event>
<event>
 5   0  0.3744875E-03  0.1161753E+04  0.7818609E-02  0.9147009E-01
       -2   -1    0    0    0  501  0.00000000000E+00  0.00000000000E+00  0.24454257646E+03  0.24454257647E+03  0.25500000920E-02 0.  1.
        2   -1    0    0  501    0  0.00000000000E+00  0.00000000000E+00 -0.13797908231E+04  0.13797908231E+04  0.25500000920E-02 0. -1.
    10030    2    1    2    0    0  0.00000000000E+00  0.00000000000E+00 -0.11352482466E+04  0.16243333996E+04  0.11617531629E+04 0.  0.
        2    1    3    3  502    0  0.22054694191E+03 -0.43984322758E+03 -0.99928331206E+03  0.11138537409E+04  0.25500000920E-02 0. -1.
       -2    1    3    3    0  502 -0.22054694191E+03  0.43984322758E+03 -0.13596493458E+03  0.51047965863E+03  0.25500000920E-02 0.  1.
</event>
<event>
 5   0  0.1508625E-03  0.1089973E+04  0.7818609E-02  0.9215020E-01
       -3   -1    0    0    0  501  0.00000000000E+00  0.00000000000E+00  0.20943426503E+03  0.20943428938E+03  0.10100000352E+00 0. -1.
        3   -1    0    0  501    0  0.00000000000E+00  0.00000000000E+00 -0.14181551256E+04  0.14181551291E+04  0.10100000352E+00 0.  1.
    10030    2    1    2    0    0  0.00000000000E+00  0.00000000000E+00 -0.12087208605E+04  0.16275894185E+04  0.10899730256E+04 0.  0.
        5    1    3    3  502    0  0.42190560132E+03  0.21957721980E+02 -0.11183939677E+04  0.11955390563E+04  0.46999998093E+01 0.  1.
       -5    1    3    3    0  502 -0.42190560132E+03 -0.21957721980E+02 -0.90326892798E+02  0.43205036227E+03  0.46999998093E+01 0. -1.
</event>
<event>
 5   0  0.3713158E-03  0.1092775E+04  0.7818609E-02  0.9212263E-01
        2   -1    0    0  501    0  0.00000000000E+00  0.00000000000E+00  0.14053836324E+04  0.14053836324E+04  0.25500000920E-02 0.  1.
       -2   -1    0    0    0  501  0.00000000000E+00  0.00000000000E+00 -0.21242544053E+03  0.21242544054E+03  0.25500000920E-02 0. -1.
    10030    2    1    2    0    0  0.00000000000E+00  0.00000000000E+00  0.11929581919E+04  0.16178090730E+04  0.10927748849E+04 0.  0.
        4    1    3    3  502    0 -0.36245447763E+03 -0.28124370149E+03  0.15713825626E+03  0.48493846256E+03  0.12699999809E+01 0. -1.
       -4    1    3    3    0  502  0.36245447763E+03  0.28124370149E+03  0.10358199356E+04  0.11328706104E+04  0.12699999809E+01 0.  1.
</event>
<event>
 5   0  0.3748901E-03  0.1105706E+04  0.7818609E-02  0.9199648E-01
        2   -1    0    0  501    0  0.00000000000E+00  0.00000000000E+00  0.77742300079E+03  0.77742300079E+03  0.25500000920E-02 0.  1.
       -2   -1    0    0    0  501  0.00000000000E+00  0.00000000000E+00 -0.39315339494E+03  0.39315339495E+03  0.25500000920E-02 0. -1.
    10030    2    1    2    0    0  0.00000000000E+00  0.00000000000E+00  0.38426960585E+03  0.11705763957E+04  0.11057060949E+04 0.  0.
        5    1    3    3  502    0  0.12960729208E+03 -0.20069810058E+03  0.71992824957E+03  0.75854897816E+03  0.46999998093E+01 0.  1.
       -5    1    3    3    0  502 -0.12960729208E+03  0.20069810058E+03 -0.33565864372E+03  0.41202741758E+03  0.46999998093E+01 0. -1.
</event>
<event>
 5   0  0.3748901E-03  0.1097222E+04  0.7818609E-02  0.9207904E-01
        2   -1    0    0  501    0  0.00000000000E+00  0.00000000000E+00  0.39602624357E+03  0.39602624358E+03  0.25500000920E-02 0.  1.
       -2   -1    0    0    0  501  0.00000000000E+00  0.00000000000E+00 -0.75998437105E+03  0.75998437106E+03  0.25500000920E-02 0. -1.
    10030    2    1    2    0    0  0.00000000000E+00  0.00000000000E+00 -0.36395812748E+03  0.11560106146E+04  0.10972215012E+04 0.  0.
        5    1    3    3  502    0  0.53466852470E+03 -0.10670952947E+03 -0.24601654168E+03  0.59816685278E+03  0.46999998093E+01 0.  1.
       -5    1    3    3    0  502 -0.53466852470E+03  0.10670952947E+03 -0.11794158580E+03  0.55784376186E+03  0.46999998093E+01 0. -1.
</event>
<event>
 5   0  0.3962999E-03  0.1099581E+04  0.7818609E-02  0.9205600E-01
       -2   -1    0    0    0  501  0.00000000000E+00  0.00000000000E+00  0.29768596174E+03  0.29768596175E+03  0.25500000920E-02 0.  1.
        2   -1    0    0  501    0  0.00000000000E+00  0.00000000000E+00 -0.10153983323E+04  0.10153983323E+04  0.25500000920E-02 0. -1.
    10030    2    1    2    0    0  0.00000000000E+00  0.00000000000E+00 -0.71771237052E+03  0.13130842940E+04  0.10995814278E+04 0.  0.
        3    1    3    3  502    0 -0.42661004055E+03  0.34668579386E+03 -0.36971277202E+03  0.66247619607E+03  0.10100000352E+00 0.  1.
       -3    1    3    3    0  502  0.42661004055E+03 -0.34668579386E+03 -0.34799959850E+03  0.65060809795E+03  0.10100000352E+00 0. -1.
</event>
<event>
 5   0  0.2300702E-03  0.1107020E+04  0.7818609E-02  0.9198377E-01
       -1   -1    0    0    0  501  0.00000000000E+00  0.00000000000E+00  0.39221107355E+03  0.39221107358E+03  0.50400001928E-02 0. -1.
        1   -1    0    0  501    0  0.00000000000E+00  0.00000000000E+00 -0.78114374448E+03  0.78114374450E+03  0.50400001928E-02 0.  1.
    10030    2    1    2    0    0  0.00000000000E+00  0.00000000000E+00 -0.38893267093E+03  0.11733548181E+04  0.11070198312E+04 0.  0.
        5    1    3    3  502    0  0.21832738469E+03  0.37354692232E+03 -0.56032680843E+03  0.70794941368E+03  0.46999998093E+01 0.  1.
       -5    1    3    3    0  502 -0.21832738469E+03 -0.37354692232E+03  0.17139413750E+03  0.46540540440E+03  0.46999998093E+01 0. -1.
</event>
<event>
 5   0  0.2374100E-03  0.1093785E+04  0.7818609E-02  0.9211271E-01
        1   -1    0    0  501    0  0.00000000000E+00  0.00000000000E+00  0.17920870859E+03  0.17920870867E+03  0.50400001928E-02 0. -1.
       -1   -1    0    0    0  501  0.00000000000E+00  0.00000000000E+00 -0.16689552333E+04  0.16689552333E+04  0.50400001928E-02 0.  1.
    10030    2    1    2    0    0  0.00000000000E+00  0.00000000000E+00 -0.14897465247E+04  0.18481639420E+04  0.10937848274E+04 0.  0.
        2    1    3    3  502    0  0.86134725490E+02  0.46579607973E+02 -0.16540215569E+04  0.16569176689E+04  0.25500000920E-02 0.  1.
       -2    1    3    3    0  502 -0.86134725490E+02 -0.46579607973E+02  0.16427503211E+03  0.19124627316E+03  0.25500000920E-02 0. -1.
</event>
<event>
 5   0  0.3992414E-03  0.1089977E+04  0.7818609E-02  0.9215016E-01
        2   -1    0    0  501    0  0.00000000000E+00  0.00000000000E+00  0.52788061691E+03  0.52788061692E+03  0.25500000920E-02 0. -1.
       -2   -1    0    0    0  501  0.00000000000E+00  0.00000000000E+00 -0.56265110627E+03  0.56265110628E+03  0.25500000920E-02 0.  1.
    10030    2    1    2    0    0  0.00000000000E+00  0.00000000000E+00 -0.34770489359E+02  0.10905317232E+04  0.10899772715E+04 0.  0.
        1    1    3    3  502    0  0.44476072886E+03 -0.13784555607E+03 -0.30072377405E+03  0.55429982101E+03  0.50400001928E-02 0.  1.
       -1    1    3    3    0  502 -0.44476072886E+03  0.13784555607E+03  0.26595328469E+03  0.53623190219E+03  0.50400001928E-02 0. -1.
</event>
<event>
 5   0  0.2257667E-03  0.1098343E+04  0.7818609E-02  0.9206809E-01
        1   -1    0    0  501    0  0.00000000000E+00  0.00000000000E+00  0.10825107883E+04  0.10825107883E+04  0.50400001928E-02 0. -1.
       -1   -1    0    0    0  501  0.00000000000E+00  0.00000000000E+00 -0.27860149016E+03  0.27860149020E+03  0.50400001928E-02 0.  1.
    10030    2    1    2    0    0  0.00000000000E+00  0.00000000000E+00  0.80390929814E+03  0.13611122785E+04  0.10983426037E+04 0.  0.
        4    1    3    3  502    0 -0.76979179033E+02  0.31487351699E+03  0.95131270797E+03  0.10050216948E+04  0.12699999809E+01 0. -1.
       -4    1    3    3    0  502  0.76979179033E+02 -0.31487351699E+03 -0.14740340983E+03  0.35609058375E+03  0.12699999809E+01 0.  1.
</event>
<event>
 5   0  0.3962999E-03  0.1102795E+04  0.7818609E-02  0.9202472E-01
        2   -1    0    0  501    0  0.00000000000E+00  0.00000000000E+00  0.71679145428E+03  0.71679145429E+03  0.25500000920E-02 0. -1.
       -2   -1    0    0    0  501  0.00000000000E+00  0.00000000000E+00 -0.42416657019E+03  0.42416657019E+03  0.25500000920E-02 0.  1.
    10030    2    1    2    0    0  0.00000000000E+00  0.00000000000E+00  0.29262488410E+03  0.11409580245E+04  0.11027945823E+04 0.  0.
        3    1    3    3  502    0  0.41134986315E+03  0.25889705943E+03  0.41571276115E+03  0.63957291005E+03  0.10100000352E+00 0. -1.
       -3    1    3    3    0  502 -0.41134986315E+03 -0.25889705943E+03 -0.12308787705E+03  0.50138511443E+03  0.10100000352E+00 0.  1.
</event>
<event>
 5   0  0.2300702E-03  0.1113137E+04  0.7818609E-02  0.9192482E-01
        1   -1    0    0  501    0  0.00000000000E+00  0.00000000000E+00  0.86261988224E+03  0.86261988226E+03  0.50400001928E-02 0. -1.
       -1   -1    0    0    0  501  0.00000000000E+00  0.00000000000E+00 -0.35910175069E+03  0.35910175072E+03  0.50400001928E-02 0.  1.
    10030    2    1    2    0    0  0.00000000000E+00  0.00000000000E+00  0.50351813156E+03  0.12217216330E+04  0.11131366671E+04 0.  0.
        5    1    3    3  502    0 -0.27596696665E+03  0.10606770165E+03  0.76928332956E+03  0.82415232521E+03  0.46999998093E+01 0. -1.
       -5    1    3    3    0  502  0.27596696665E+03 -0.10606770165E+03 -0.26576519800E+03  0.39756930777E+03  0.46999998093E+01 0.  1.
</event>
<event>
 5   0  0.2255788E-03  0.1090829E+04  0.7818609E-02  0.9214177E-01
       -1   -1    0    0    0  501  0.00000000000E+00  0.00000000000E+00  0.67679260454E+03  0.67679260456E+03  0.50400001928E-02 0.  1.
        1   -1    0    0  501    0  0.00000000000E+00  0.00000000000E+00 -0.43953910728E+03  0.43953910731E+03  0.50400001928E-02 0. -1.
    10030    2    1    2    0    0  0.00000000000E+00  0.00000000000E+00  0.23725349726E+03  0.11163317119E+04  0.10908287074E+04 0.  0.
        3    1    3    3  502    0  0.39736680681E+03 -0.23215429381E+03  0.41818307050E+03  0.62183043182E+03  0.10100000352E+00 0. -1.
       -3    1    3    3    0  502 -0.39736680681E+03  0.23215429381E+03 -0.18092957324E+03  0.49450128004E+03  0.10100000352E+00 0.  1.
</event>
<event>
 5   0  0.2300702E-03  0.1105274E+04  0.7818609E-02  0.9200066E-01
       -1   -1    0    0    0  501  0.00000000000E+00  0.00000000000E+00  0.75078358139E+03  0.75078358141E+03  0.50400001928E-02 0. -1.
        1   -1    0    0  501    0  0.00000000000E+00  0.00000000000E+00 -0.40678533722E+03  0.40678533725E+03  0.50400001928E-02 0.  1.
    10030    2    1    2    0    0  0.00000000000E+00  0.00000000000E+00  0.34399824417E+03  0.11575689187E+04  0.11052741784E+04 0.  0.
        5    1    3    3  502    0 -0.64230535805E+02  0.42945303983E+03 -0.18597725585E+03  0.47240354025E+03  0.46999998093E+01 0.  1.
       -5    1    3    3    0  502  0.64230535805E+02 -0.42945303983E+03  0.52997550002E+03  0.68516537841E+03  0.46999998093E+01 0. -1.
</event>
<event>
 5   0  0.3744875E-03  0.1098377E+04  0.7818609E-02  0.9206775E-01
        2   -1    0    0  501    0  0.00000000000E+00  0.00000000000E+00  0.11067792151E+04  0.11067792151E+04  0.25500000920E-02 0.  1.
       -2   -1    0    0    0  501  0.00000000000E+00  0.00000000000E+00 -0.27250973028E+03  0.27250973029E+03  0.25500000920E-02 0. -1.
    10030    2    1    2    0    0  0.00000000000E+00  0.00000000000E+00  0.83426948484E+03  0.13792889454E+04  0.10983771764E+04 0.  0.
        2    1    3    3  502    0 -0.33493378673E+03  0.14538480679E+03 -0.98015421287E+02  0.37805344378E+03  0.25500000920E-02 0. -1.
       -2    1    3    3    0  502  0.33493378673E+03 -0.14538480679E+03  0.93228490613E+03  0.10012355016E+04  0.25500000920E-02 0.  1.
</event>
<event>
 5   0  0.3748901E-03  0.1098843E+04  0.7818609E-02  0.9206321E-01
       -2   -1    0    0    0  501  0.00000000000E+00  0.00000000000E+00  0.19320227824E+03  0.19320227826E+03  0.25500000920E-02 0. -1.
        2   -1    0    0  501    0  0.00000000000E+00  0.00000000000E+00 -0.15624237801E+04  0.15624237801E+04  0.25500000920E-02 0.  1.
    10030    2    1    2    0    0  0.00000000000E+00  0.00000000000E+00 -0.13692215018E+04  0.17556260583E+04  0.10988427256E+04 0.  0.
        5    1    3    3  502    0 -0.40211760621E+03 -0.37152517619E+03 -0.75803945523E+03  0.93508044116E+03  0.46999998093E+01 0.  1.
       -5    1    3    3    0  502  0.40211760621E+03  0.37152517619E+03 -0.61118204658E+03  0.82054561715E+03  0.46999998093E+01 0. -1.
</event>
<event>
 5   0  0.2257667E-03  0.1077528E+04  0.7818609E-02  0.9227376E-01
        1   -1    0    0  501    0  0.00000000000E+00  0.00000000000E+00  0.60016233908E+03  0.60016233910E+03  0.50400001928E-02 0.  1.
       -1   -1    0    0    0  501  0.00000000000E+00  0.00000000000E+00 -0.48364669198E+03  0.48364669201E+03  0.50400001928E-02 0. -1.
    10030    2    1    2    0    0  0.00000000000E+00  0.00000000000E+00  0.11651564710E+03  0.10838090311E+04  0.10775277815E+04 0.  0.
        4    1    3    3  502    0 -0.20120955842E+03 -0.37719421151E+03  0.38804739572E+03  0.57735877392E+03  0.12699999809E+01 0.  1.
       -4    1    3    3    0  502  0.20120955842E+03  0.37719421151E+03 -0.27153174862E+03  0.50645025719E+03  0.12699999809E+01 0. -1.
</event>
<event>
 5   0  0.3713158E-03  0.1089606E+04  0.7818609E-02  0.9215382E-01
        2   -1    0    0  501    0  0.00000000000E+00  0.00000000000E+00  0.24560333343E+03  0.24560333344E+03  0.25500000920E-02 0.  1.
       -2   -1    0    0    0  501  0.00000000000E+00  0.00000000000E+00 -0.12084945160E+04  0.12084945160E+04  0.25500000920E-02 0. -1.
    10030    2    1    2    0    0  0.00000000000E+00  0.00000000000E+00 -0.96289118259E+03  0.14540978495E+04  0.10896059500E+04 0.  0.
        4    1    3    3  502    0 -0.49353636550E+03 -0.18084002015E+03 -0.29024410562E+03  0.60043693316E+03  0.12699999809E+01 0.  1.
       -4    1    3    3    0  502  0.49353636550E+03  0.18084002015E+03 -0.67264707697E+03  0.85366091630E+03  0.12699999809E+01 0. -1.
</event>
<event>
 5   0  0.2300702E-03  0.1106646E+04  0.7818609E-02  0.9198738E-01
       -1   -1    0    0    0  501  0.00000000000E+00  0.00000000000E+00  0.12996028658E+03  0.12996028668E+03  0.50400001928E-02 0. -1.
        1   -1    0    0  501    0  0.00000000000E+00  0.00000000000E+00 -0.23558452936E+04  0.23558452936E+04  0.50400001928E-02 0.  1.
    10030    2    1    2    0    0  0.00000000000E+00  0.00000000000E+00 -0.22258850070E+04  0.24858055803E+04  0.11066459770E+04 0.  0.
        5    1    3    3  502    0 -0.19143706694E+03 -0.22878298376E+03 -0.21596920976E+04  0.21802022499E+04  0.46999998093E+01 0.  1.
       -5    1    3    3    0  502  0.19143706694E+03  0.22878298376E+03 -0.66192909428E+02  0.30560333034E+03  0.46999998093E+01 0. -1.
</event>
<event>
 5   0  0.3744875E-03  0.1105396E+04  0.7818609E-02  0.9199948E-01
       -2   -1    0    0    0  501  0.00000000000E+00  0.00000000000E+00  0.16593720771E+03  0.16593720773E+03  0.25500000920E-02 0. -1.
        2   -1    0    0  501    0  0.00000000000E+00  0.00000000000E+00 -0.18409076547E+04  0.18409076547E+04  0.25500000920E-02 0.  1.
    10030    2    1    2    0    0  0.00000000000E+00  0.00000000000E+00 -0.16749704470E+04  0.20068448625E+04  0.11053959940E+04 0.  0.
        2    1    3    3  502    0  0.43329358125E+03 -0.24767442446E+03 -0.40636975743E+03  0.64360106265E+03  0.25500000920E-02 0. -1.
       -2    1    3    3    0  502 -0.43329358125E+03  0.24767442446E+03 -0.12686006896E+04  0.13632437998E+04  0.25500000920E-02 0.  1.
</event>
<event>
 5   0  0.3962999E-03  0.1105136E+04  0.7818609E-02  0.9200200E-01
       -2   -1    0    0    0  501  0.00000000000E+00  0.00000000000E+00  0.28150399334E+03  0.28150399335E+03  0.25500000920E-02 0. -1.
        2   -1    0    0  501    0  0.00000000000E+00  0.00000000000E+00 -0.10846438842E+04  0.10846438842E+04  0.25500000920E-02 0.  1.
    10030    2    1    2    0    0  0.00000000000E+00  0.00000000000E+00 -0.80313989084E+03  0.13661478775E+04  0.11051363441E+04 0.  0.
        3    1    3    3  502    0  0.20388044883E+03 -0.49031843531E+03 -0.59047582002E+03  0.79412915175E+03  0.10100000352E+00 0.  1.
       -3    1    3    3    0  502 -0.20388044883E+03  0.49031843531E+03 -0.21266407082E+03  0.57201872578E+03  0.10100000352E+00 0. -1.
</event>
<event>
 5   0  0.2374100E-03  0.1085406E+04  0.7818609E-02  0.9219534E-01
        1   -1    0    0  501    0  0.00000000000E+00  0.00000000000E+00  0.12448588843E+04  0.12448588843E+04  0.50400001928E-02 0.  1.
       -1   -1    0    0    0  501  0.00000000000E+00  0.00000000000E+00 -0.23659435222E+03  0.23659435228E+03  0.50400001928E-02 0. -1.
    10030    2    1    2    0    0  0.00000000000E+00  0.00000000000E+00  0.10082645320E+04  0.14814532366E+04  0.10854060648E+04 0.  0.
        2    1    3    3  502    0 -0.13820360497E+03  0.51456304824E+03  0.64499472492E+03  0.83659641538E+03  0.25500000920E-02 0. -1.
       -2    1    3    3    0  502  0.13820360497E+03 -0.51456304824E+03  0.36326980713E+03  0.64485682118E+03  0.25500000920E-02 0.  1.
</event>
<event>
 5   0  0.2300702E-03  0.1095794E+04  0.7818609E-02  0.9209301E-01
        1   -1    0    0  501    0  0.00000000000E+00  0.00000000000E+00  0.53783176595E+03  0.53783176597E+03  0.50400001928E-02 0. -1.
       -1   -1    0    0    0  501  0.00000000000E+00  0.00000000000E+00 -0.55815086690E+03  0.55815086692E+03  0.50400001928E-02 0.  1.
    10030    2    1    2    0    0  0.00000000000E+00  0.00000000000E+00 -0.20319100953E+02  0.10959826329E+04  0.10957942625E+04 0.  0.
        5    1    3    3  502    0  0.32895317858E+03 -0.98400120102E+02 -0.43717134450E+03  0.55590795262E+03  0.46999998093E+01 0.  1.
       -5    1    3    3    0  502 -0.32895317858E+03  0.98400120102E+02  0.41685224355E+03  0.54007468028E+03  0.46999998093E+01 0. -1.
</event>
<event>
 5   0  0.3962999E-03  0.1100402E+04  0.7818609E-02  0.9204800E-01
        2   -1    0    0  501    0  0.00000000000E+00  0.00000000000E+00  0.17234123260E+04  0.17234123260E+04  0.25500000920E-02 0.  1.
       -2   -1    0    0    0  501  0.00000000000E+00  0.00000000000E+00 -0.17565216715E+03  0.17565216717E+03  0.25500000920E-02 0. -1.
    10030    2    1    2    0    0  0.00000000000E+00  0.00000000000E+00  0.15477601589E+04  0.18990644932E+04  0.11004019447E+04 0.  0.
        3    1    3    3  502    0  0.46155367656E+03 -0.18571284085E+03  0.11793494728E+04  0.12799946268E+04  0.10100000352E+00 0.  1.
       -3    1    3    3    0  502 -0.46155367656E+03  0.18571284085E+03  0.36841068611E+03  0.61906986637E+03  0.10100000352E+00 0. -1.
</event>
<event>
 5   0  0.3962999E-03  0.1101599E+04  0.7818609E-02  0.9203634E-01
       -2   -1    0    0    0  501  0.00000000000E+00  0.00000000000E+00  0.44090163871E+03  0.44090163872E+03  0.25500000920E-02 0.  1.
        2   -1    0    0  501    0  0.00000000000E+00  0.00000000000E+00 -0.68809055522E+03  0.68809055523E+03  0.25500000920E-02 0. -1.
    10030    2    1    2    0    0  0.00000000000E+00  0.00000000000E+00 -0.24718891651E+03  0.11289921939E+04  0.11015992981E+04 0.  0.
        3    1    3    3  502    0 -0.35393469707E+03  0.37190897057E+03  0.80850840672E+02  0.51973350942E+03  0.10100000352E+00 0.  1.
       -3    1    3    3    0  502  0.35393469707E+03 -0.37190897057E+03 -0.32803975718E+03  0.60925868452E+03  0.10100000352E+00 0. -1.
</event>
<event>
 5   0  0.3744875E-03  0.1106647E+04  0.7818609E-02  0.9198737E-01
        2   -1    0    0  501    0  0.00000000000E+00  0.00000000000E+00  0.17416771723E+04  0.17416771723E+04  0.25500000920E-02 0. -1.
       -2   -1    0    0    0  501  0.00000000000E+00  0.00000000000E+00 -0.17578853793E+03  0.17578853795E+03  0.25500000920E-02 0.  1.
    10030    2    1    2    0    0  0.00000000000E+00  0.00000000000E+00  0.15658886343E+04  0.19174657102E+04  0.11066469784E+04 0.  0.
        2    1    3    3  502    0 -0.12784378145E+03  0.21117522326E+03 -0.75087558897E+02  0.25802548107E+03  0.25500000920E-02 0.  1.
       -2    1    3    3    0  502  0.12784378145E+03 -0.21117522326E+03  0.16409761932E+04  0.16594402292E+04  0.25500000920E-02 0. -1.
</event>
<event>
 5   0  0.2298958E-03  0.1033660E+04  0.7818609E-02  0.9272379E-01
       -1   -1    0    0    0  501  0.00000000000E+00  0.00000000000E+00  0.24806329476E+03  0.24806329481E+03  0.50400001928E-02 0.  1.
        1   -1    0    0  501    0  0.00000000000E+00  0.00000000000E+00 -0.10767937068E+04  0.10767937068E+04  0.50400001928E-02 0. -1.
    10030    2    1    2    0    0  0.00000000000E+00  0.00000000000E+00 -0.82873041202E+03  0.13248570016E+04  0.10336595082E+04 0.  0.
        1    1    3    3  502    0  0.18953770113E+03  0.46053326188E+03 -0.23723992671E+03  0.55163231260E+03  0.50400001928E-02 0.  1.
       -1    1    3    3    0  502 -0.18953770113E+03 -0.46053326188E+03 -0.59149048531E+03  0.77322468901E+03  0.50400001928E-02 0. -1.
</event>
<event>
 5   0  0.3713158E-03  0.1104771E+04  0.7818609E-02  0.9200554E-01
        2   -1    0    0  501    0  0.00000000000E+00  0.00000000000E+00  0.72179992025E+03  0.72179992026E+03  0.25500000920E-02 0. -1.
       -2   -1    0    0    0  501  0.00000000000E+00  0.00000000000E+00 -0.42273474858E+03  0.42273474859E+03  0.25500000920E-02 0.  1.
    10030    2    1    2    0    0  0.00000000000E+00  0.00000000000E+00  0.29906517167E+03  0.11445346688E+04  0.11047713027E+04 0.  0.
        4    1    3    3  502    0  0.25677839298E+03  0.24097500158E+02  0.65559388832E+03  0.70450038461E+03  0.12699999809E+01 0. -1.
       -4    1    3    3    0  502 -0.25677839298E+03 -0.24097500158E+02 -0.35652871665E+03  0.44003428424E+03  0.12699999809E+01 0.  1.
</event>
<event>
 5   0  0.3962999E-03  0.1124347E+04  0.7818609E-02  0.9181782E-01
       -2   -1    0    0    0  501  0.00000000000E+00  0.00000000000E+00  0.27044951611E+03  0.27044951612E+03  0.25500000920E-02 0.  1.
        2   -1    0    0  501    0  0.00000000000E+00  0.00000000000E+00 -0.11685688265E+04  0.11685688265E+04  0.25500000920E-02 0. -1.
    10030    2    1    2    0    0  0.00000000000E+00  0.00000000000E+00 -0.89811931044E+03  0.14390183427E+04  0.11243466969E+04 0.  0.
        3    1    3    3  502    0  0.54409893455E+03  0.13799416858E+03 -0.40955283766E+03  0.69485219881E+03  0.10100000352E+00 0. -1.
       -3    1    3    3    0  502 -0.54409893455E+03 -0.13799416858E+03 -0.48856647277E+03  0.74416614386E+03  0.10100000352E+00 0.  1.
</event>
<event>
 5   0  0.1508625E-03  0.1097382E+04  0.7818609E-02  0.9207747E-01
        4   -1    0    0  501    0  0.00000000000E+00  0.00000000000E+00  0.24198933471E+03  0.24199266728E+03  0.12699999809E+01 0.  1.
       -4   -1    0    0    0  501  0.00000000000E+00  0.00000000000E+00 -0.12441002454E+04  0.12441008937E+04  0.12699999809E+01 0. -1.
    10030    2    1    2    0    0  0.00000000000E+00  0.00000000000E+00 -0.10021109107E+04  0.14860935609E+04  0.10973822463E+04 0.  0.
        1    1    3    3  502    0 -0.40985641823E+03 -0.21570180636E+03 -0.10264771313E+03  0.47439024638E+03  0.50400001928E-02 0. -1.
       -1    1    3    3    0  502  0.40985641823E+03  0.21570180636E+03 -0.89946319760E+03  0.10117033146E+04  0.50400001928E-02 0.  1.
</event>
<event>
 5   0  0.2298958E-03  0.1116059E+04  0.7818609E-02  0.9189680E-01
        1   -1    0    0  501    0  0.00000000000E+00  0.00000000000E+00  0.41436159905E+03  0.41436159908E+03  0.50400001928E-02 0.  1.
       -1   -1    0    0    0  501  0.00000000000E+00  0.00000000000E+00 -0.75150994949E+03  0.75150994951E+03  0.50400001928E-02 0. -1.
    10030    2    1    2    0    0  0.00000000000E+00  0.00000000000E+00 -0.33714835043E+03  0.11658715486E+04  0.11160588952E+04 0.  0.
        1    1    3    3  502    0  0.51858449104E+03 -0.12266732363E+02 -0.38346533493E+03  0.64507829772E+03  0.50400001928E-02 0. -1.
       -1    1    3    3    0  502 -0.51858449104E+03  0.12266732363E+02  0.46316984493E+02  0.52079325087E+03  0.50400001928E-02 0.  1.
</event>
<event>
 5   0  0.3992414E-03  0.1111670E+04  0.7818609E-02  0.9193891E-01
        2   -1    0    0  501    0  0.00000000000E+00  0.00000000000E+00  0.70958033837E+03  0.70958033838E+03  0.25500000920E-02 0.  1.
       -2   -1    0    0    0  501  0.00000000000E+00  0.00000000000E+00 -0.43540194261E+03  0.43540194262E+03  0.25500000920E-02 0. -1.
    10030    2    1    2    0    0  0.00000000000E+00  0.00000000000E+00  0.27417839576E+03  0.11449822810E+04  0.11116701989E+04 0.  0.
        1    1    3    3  502    0  0.34225207551E+03  0.34524319385E+03  0.41465172115E+03  0.63895648989E+03  0.50400001928E-02 0. -1.
       -1    1    3    3    0  502 -0.34225207551E+03 -0.34524319385E+03 -0.14047332539E+03  0.50602579111E+03  0.50400001928E-02 0.  1.
</event>
<event>
 5   0  0.2300702E-03  0.1116219E+04  0.7818609E-02  0.9189526E-01
        1   -1    0    0  501    0  0.00000000000E+00  0.00000000000E+00  0.12139129004E+04  0.12139129004E+04  0.50400001928E-02 0.  1.
       -1   -1    0    0    0  501  0.00000000000E+00  0.00000000000E+00 -0.25659684117E+03  0.25659684122E+03  0.50400001928E-02 0. -1.
    10030    2    1    2    0    0  0.00000000000E+00  0.00000000000E+00  0.95731605919E+03  0.14705097416E+04  0.11162190031E+04 0.  0.
        5    1    3    3  502    0  0.46375746640E+03 -0.11725014683E+03  0.99929337678E+02  0.48869883067E+03  0.46999998093E+01 0. -1.
       -5    1    3    3    0  502 -0.46375746640E+03  0.11725014683E+03  0.85738672151E+03  0.98181091091E+03  0.46999998093E+01 0.  1.
</event>
<event>
 5   0  0.2257667E-03  0.1111345E+04  0.7818609E-02  0.9194204E-01
        1   -1    0    0  501    0  0.00000000000E+00  0.00000000000E+00  0.84381291275E+03  0.84381291276E+03  0.50400001928E-02 0. -1.
       -1   -1    0    0    0  501  0.00000000000E+00  0.00000000000E+00 -0.36592467431E+03  0.36592467435E+03  0.50400001928E-02 0.  1.
    10030    2    1    2    0    0  0.00000000000E+00  0.00000000000E+00  0.47788823844E+03  0.12097375871E+04  0.11113450685E+04 0.  0.
        4    1    3    3  502    0 -0.26270207298E+02  0.17488468211E+03 -0.33447250576E+03  0.37834937007E+03  0.12699999809E+01 0.  1.
       -4    1    3    3    0  502  0.26270207298E+02 -0.17488468211E+03  0.81236074419E+03  0.83138821704E+03  0.12699999809E+01 0. -1.
</event>
<event>
 5   0  0.3962999E-03  0.1159938E+04  0.7818609E-02  0.9148664E-01
        2   -1    0    0  501    0  0.00000000000E+00  0.00000000000E+00  0.11689104920E+04  0.11689104920E+04  0.25500000920E-02 0. -1.
       -2   -1    0    0    0  501  0.00000000000E+00  0.00000000000E+00 -0.28775865656E+03  0.28775865658E+03  0.25500000920E-02 0.  1.
    10030    2    1    2    0    0  0.00000000000E+00  0.00000000000E+00  0.88115183548E+03  0.14566691486E+04  0.11599381239E+04 0.  0.
        3    1    3    3  502    0 -0.26259135238E+03 -0.18362005554E+01  0.10899756267E+04  0.11211621056E+04  0.10100000352E+00 0. -1.
       -3    1    3    3    0  502  0.26259135238E+03  0.18362005554E+01 -0.20882379120E+03  0.33550704307E+03  0.10100000352E+00 0.  1.
</event>
<event>
 5   0  0.2257667E-03  0.1107297E+04  0.7818609E-02  0.9198109E-01
       -1   -1    0    0    0  501  0.00000000000E+00  0.00000000000E+00  0.14947788572E+03  0.14947788581E+03  0.50400001928E-02 0. -1.
        1   -1    0    0  501    0  0.00000000000E+00  0.00000000000E+00 -0.20506482237E+04  0.20506482237E+04  0.50400001928E-02 0.  1.
    10030    2    1    2    0    0  0.00000000000E+00  0.00000000000E+00 -0.19011703380E+04  0.22001261095E+04  0.11072968183E+04 0.  0.
        4    1    3    3  502    0 -0.15493038791E+02 -0.54772906288E+03 -0.11080149266E+04  0.12361010683E+04  0.12699999809E+01 0. -1.
       -4    1    3    3    0  502  0.15493038791E+02  0.54772906288E+03 -0.79315541133E+03  0.96402504117E+03  0.12699999809E+01 0.  1.
</event>
<event>
 5   0  0.2298958E-03  0.1114645E+04  0.7818609E-02  0.9191034E-01
        1   -1    0    0  501    0  0.00000000000E+00  0.00000000000E+00  0.39813644180E+03  0.39813644183E+03  0.50400001928E-02 0.  1.
       -1   -1    0    0    0  501  0.00000000000E+00  0.00000000000E+00 -0.78015538197E+03  0.78015538199E+03  0.50400001928E-02 0. -1.
    10030    2    1    2    0    0  0.00000000000E+00  0.00000000000E+00 -0.38201894017E+03  0.11782918238E+04  0.11146448544E+04 0.  0.
        1    1    3    3  502    0  0.40638318083E+03 -0.25198447877E+03  0.11163315479E+03  0.49102487561E+03  0.50400001928E-02 0.  1.
       -1    1    3    3    0  502 -0.40638318083E+03  0.25198447877E+03 -0.49365209497E+03  0.68726694820E+03  0.50400001928E-02 0. -1.
</event>
<event>
 5   0  0.2374100E-03  0.1085243E+04  0.7818609E-02  0.9219695E-01
        1   -1    0    0  501    0  0.00000000000E+00  0.00000000000E+00  0.93339003815E+03  0.93339003816E+03  0.50400001928E-02 0.  1.
       -1   -1    0    0    0  501  0.00000000000E+00  0.00000000000E+00 -0.31545042133E+03  0.31545042138E+03  0.50400001928E-02 0. -1.
    10030    2    1    2    0    0  0.00000000000E+00  0.00000000000E+00  0.61793961681E+03  0.12488404595E+04  0.10852433475E+04 0.  0.
        2    1    3    3  502    0 -0.28330603131E+03  0.37929247812E+03  0.38304509782E+01  0.47343401198E+03  0.25500000920E-02 0. -1.
       -2    1    3    3    0  502  0.28330603131E+03 -0.37929247812E+03  0.61410916583E+03  0.77540644755E+03  0.25500000920E-02 0.  1.
</event>
<event>
 5   0  0.3992414E-03  0.1088735E+04  0.7818609E-02  0.9216242E-01
       -2   -1    0    0    0  501  0.00000000000E+00  0.00000000000E+00  0.36230219028E+03  0.36230219029E+03  0.25500000920E-02 0.  1.
        2   -1    0    0  501    0  0.00000000000E+00  0.00000000000E+00 -0.81792454950E+03  0.81792454951E+03  0.25500000920E-02 0. -1.
    10030    2    1    2    0    0  0.00000000000E+00  0.00000000000E+00 -0.45562235923E+03  0.11802267398E+04  0.10887347809E+04 0.  0.
        1    1    3    3  502    0 -0.25223849296E+03  0.46518868403E+03 -0.36625857844E+03  0.64356049862E+03  0.50400001928E-02 0. -1.
       -1    1    3    3    0  502  0.25223849296E+03 -0.46518868403E+03 -0.89363780785E+02  0.53666624118E+03  0.50400001928E-02 0.  1.
</event>
<event>
 5   0  0.2300702E-03  0.1106750E+04  0.7818609E-02  0.9198638E-01
       -1   -1    0    0    0  501  0.00000000000E+00  0.00000000000E+00  0.60618400351E+03  0.60618400353E+03  0.50400001928E-02 0. -1.
        1   -1    0    0  501    0  0.00000000000E+00  0.00000000000E+00 -0.50516661246E+03  0.50516661248E+03  0.50400001928E-02 0.  1.
    10030    2    1    2    0    0  0.00000000000E+00  0.00000000000E+00  0.10101739105E+03  0.11113506160E+04  0.11067500524E+04 0.  0.
        5    1    3    3  502    0  0.12636895165E+03 -0.52710792928E+03  0.16228153784E+03  0.56583501887E+03  0.46999998093E+01 0. -1.
       -5    1    3    3    0  502 -0.12636895165E+03  0.52710792928E+03 -0.61264146791E+02  0.54551559715E+03  0.46999998093E+01 0.  1.
</event>
<event>
 5   0  0.3962999E-03  0.9030626E+03  0.7818609E-02  0.9421761E-01
        2   -1    0    0  501    0  0.00000000000E+00  0.00000000000E+00  0.12706702939E+04  0.12706702939E+04  0.25500000920E-02 0. -1.
       -2   -1    0    0    0  501  0.00000000000E+00  0.00000000000E+00 -0.16045116404E+03  0.16045116406E+03  0.25500000920E-02 0.  1.
    10030    2    1    2    0    0  0.00000000000E+00  0.00000000000E+00  0.11102191299E+04  0.14311214580E+04  0.90306262857E+03 0.  0.
        3    1    3    3  502    0 -0.39513848766E+03 -0.13235465597E+03  0.27958155243E+03  0.50181474076E+03  0.10100000352E+00 0.  1.
       -3    1    3    3    0  502  0.39513848766E+03  0.13235465597E+03  0.83063757742E+03  0.92930671719E+03  0.10100000352E+00 0. -1.
</event>
<event>
 5   0  0.3744875E-03  0.1101117E+04  0.7818609E-02  0.9204104E-01
        2   -1    0    0  501    0  0.00000000000E+00  0.00000000000E+00  0.16799848330E+04  0.16799848330E+04  0.25500000920E-02 0.  1.
       -2   -1    0    0    0  501  0.00000000000E+00  0.00000000000E+00 -0.18042690399E+03  0.18042690401E+03  0.25500000920E-02 0. -1.
    10030    2    1    2    0    0  0.00000000000E+00  0.00000000000E+00  0.14995579290E+04  0.18604117370E+04  0.11011166372E+04 0.  0.
        2    1    3    3  502    0 -0.72276776366E+02  0.52830745028E+03  0.98132853462E+03  0.11168430451E+04  0.25500000920E-02 0. -1.
       -2    1    3    3    0  502  0.72276776366E+02 -0.52830745028E+03  0.51822939436E+03  0.74356869193E+03  0.25500000920E-02 0.  1.
</event>
<event>
 5   0  0.3713158E-03  0.1088654E+04  0.7818609E-02  0.9216321E-01
        2   -1    0    0  501    0  0.00000000000E+00  0.00000000000E+00  0.11308675631E+04  0.11308675631E+04  0.25500000920E-02 0. -1.
       -2   -1    0    0    0  501  0.00000000000E+00  0.00000000000E+00 -0.26200409478E+03  0.26200409480E+03  0.25500000920E-02 0.  1.
    10030    2    1    2    0    0  0.00000000000E+00  0.00000000000E+00  0.86886346827E+03  0.13928716579E+04  0.10886540905E+04 0.  0.
        4    1    3    3  502    0 -0.71048076968E+02  0.13608326679E+03  0.11025952224E+04  0.11132314774E+04  0.12699999809E+01 0. -1.
       -4    1    3    3    0  502  0.71048076968E+02 -0.13608326679E+03 -0.23373175416E+03  0.27964018049E+03  0.12699999809E+01 0.  1.
</event>
<event>
 5   0  0.3962999E-03  0.1101969E+04  0.7818609E-02  0.9203275E-01
        2   -1    0    0  501    0  0.00000000000E+00  0.00000000000E+00  0.13413450680E+04  0.13413450680E+04  0.25500000920E-02 0.  1.
       -2   -1    0    0    0  501  0.00000000000E+00  0.00000000000E+00 -0.22632792119E+03  0.22632792121E+03  0.25500000920E-02 0. -1.
    10030    2    1    2    0    0  0.00000000000E+00  0.00000000000E+00  0.11150171468E+04  0.15676729892E+04  0.11019688577E+04 0.  0.
        3    1    3    3  502    0 -0.29945191866E+01 -0.16551044088E+03 -0.19011532756E+03  0.25208435326E+03  0.10100000352E+00 0. -1.
       -3    1    3    3    0  502  0.29945191866E+01  0.16551044088E+03  0.13051324743E+04  0.13155886359E+04  0.10100000352E+00 0.  1.
</event>
<event>
 5   0  0.2298958E-03  0.1109810E+04  0.7818609E-02  0.9195683E-01
       -1   -1    0    0    0  501  0.00000000000E+00  0.00000000000E+00  0.31203960590E+03  0.31203960594E+03  0.50400001928E-02 0.  1.
        1   -1    0    0  501    0  0.00000000000E+00  0.00000000000E+00 -0.98679668863E+03  0.98679668864E+03  0.50400001928E-02 0. -1.
    10030    2    1    2    0    0  0.00000000000E+00  0.00000000000E+00 -0.67475708273E+03  0.12988362946E+04  0.11098101637E+04 0.  0.
        1    1    3    3  502    0  0.35585874430E+03 -0.34396526478E+03 -0.43694864787E+02  0.49684684814E+03  0.50400001928E-02 0.  1.
       -1    1    3    3    0  502 -0.35585874430E+03  0.34396526478E+03 -0.63106221794E+03  0.80198944645E+03  0.50400001928E-02 0. -1.
</event>
<event>
 5   0  0.2300702E-03  0.1108591E+04  0.7818609E-02  0.9196859E-01
       -1   -1    0    0    0  501  0.00000000000E+00  0.00000000000E+00  0.20418184264E+03  0.20418184270E+03  0.50400001928E-02 0.  1.
        1   -1    0    0  501    0  0.00000000000E+00  0.00000000000E+00 -0.15047546035E+04  0.15047546035E+04  0.50400001928E-02 0. -1.
    10030    2    1    2    0    0  0.00000000000E+00  0.00000000000E+00 -0.13005727608E+04  0.17089364462E+04  0.11085911198E+04 0.  0.
        5    1    3    3  502    0  0.31398622592E+03 -0.42150868498E+03 -0.37902563798E+03  0.64802734960E+03  0.46999998093E+01 0.  1.
       -5    1    3    3    0  502 -0.31398622592E+03  0.42150868498E+03 -0.92154712283E+03  0.10609090966E+04  0.46999998093E+01 0. -1.
</event>
<event>
 5   0  0.1508625E-03  0.1058085E+04  0.7818609E-02  0.9247037E-01
        3   -1    0    0  501    0  0.00000000000E+00  0.00000000000E+00  0.10374359985E+04  0.10374360034E+04  0.10100000352E+00 0.  1.
       -3   -1    0    0    0  501  0.00000000000E+00  0.00000000000E+00 -0.26978613549E+03  0.26978615440E+03  0.10100000352E+00 0. -1.
    10030    2    1    2    0    0  0.00000000000E+00  0.00000000000E+00  0.76764986301E+03  0.13072221578E+04  0.10580848065E+04 0.  0.
        4    1    3    3  502    0  0.14075184765E+03 -0.30211901601E+03 -0.12376340065E+03  0.35553617916E+03  0.12699999809E+01 0. -1.
       -4    1    3    3    0  502 -0.14075184765E+03  0.30211901601E+03  0.89141326366E+03  0.95168597866E+03  0.12699999809E+01 0.  1.
</event>
<event>
 5   0  0.3713158E-03  0.1100813E+04  0.7818609E-02  0.9204399E-01
       -2   -1    0    0    0  501  0.00000000000E+00  0.00000000000E+00  0.69850695620E+03  0.69850695620E+03  0.25500000920E-02 0. -1.
        2   -1    0    0  501    0  0.00000000000E+00  0.00000000000E+00 -0.43370731364E+03  0.43370731364E+03  0.25500000920E-02 0.  1.
    10030    2    1    2    0    0  0.00000000000E+00  0.00000000000E+00  0.26479964256E+03  0.11322142698E+04  0.11008134729E+04 0.  0.
        4    1    3    3  502    0 -0.34131096736E+02  0.89011787830E+02 -0.42514989260E+03  0.43570870339E+03  0.12699999809E+01 0.  1.
       -4    1    3    3    0  502  0.34131096736E+02 -0.89011787830E+02  0.68994953516E+03  0.69650556645E+03  0.12699999809E+01 0. -1.
</event>
<event>
 5   0  0.3744875E-03  0.1126269E+04  0.7818609E-02  0.9179960E-01
       -2   -1    0    0    0  501  0.00000000000E+00  0.00000000000E+00  0.37257880394E+03  0.37257880394E+03  0.25500000920E-02 0.  1.
        2   -1    0    0  501    0  0.00000000000E+00  0.00000000000E+00 -0.85115000163E+03  0.85115000163E+03  0.25500000920E-02 0. -1.
    10030    2    1    2    0    0  0.00000000000E+00  0.00000000000E+00 -0.47857119769E+03  0.12237288056E+04  0.11262689725E+04 0.  0.
        2    1    3    3  502    0  0.44028766675E+03  0.34490417163E+03 -0.16796784302E+03  0.58397372663E+03  0.25500000920E-02 0.  1.
       -2    1    3    3    0  502 -0.44028766675E+03 -0.34490417163E+03 -0.31060335468E+03  0.63975507895E+03  0.25500000920E-02 0. -1.
</event>
<event>
 5   0  0.2374100E-03  0.1094616E+04  0.7818609E-02  0.9210455E-01
        1   -1    0    0  501    0  0.00000000000E+00  0.00000000000E+00  0.14718267878E+04  0.14718267879E+04  0.50400001928E-02 0.  1.
       -1   -1    0    0    0  501  0.00000000000E+00  0.00000000000E+00 -0.20352005809E+03  0.20352005815E+03  0.50400001928E-02 0. -1.
    10030    2    1    2    0    0  0.00000000000E+00  0.00000000000E+00  0.12683067298E+04  0.16753468460E+04  0.10946164139E+04 0.  0.
        2    1    3    3  502    0 -0.47005090625E+03  0.28020096471E+03  0.64833359803E+03  0.84840844493E+03  0.25500000920E-02 0. -1.
       -2    1    3    3    0  502  0.47005090625E+03 -0.28020096471E+03  0.61997313173E+03  0.82693840107E+03  0.25500000920E-02 0.  1.
</event>
<event>
 5   0  0.1508625E-03  0.1101062E+04  0.7818609E-02  0.9204158E-01
        4   -1    0    0  501    0  0.00000000000E+00  0.00000000000E+00  0.75352176602E+03  0.75352283626E+03  0.12699999809E+01 0. -1.
       -4   -1    0    0    0  501  0.00000000000E+00  0.00000000000E+00 -0.40222118091E+03  0.40222318589E+03  0.12699999809E+01 0.  1.
    10030    2    1    2    0    0  0.00000000000E+00  0.00000000000E+00  0.35130058511E+03  0.11557460222E+04  0.11010616543E+04 0.  0.
        2    1    3    3  502    0 -0.33347006823E+03  0.15375079447E+03  0.60619549361E+03  0.70874153941E+03  0.25500000920E-02 0. -1.
       -2    1    3    3    0  502  0.33347006823E+03 -0.15375079447E+03 -0.25489490850E+03  0.44700448274E+03  0.25500000920E-02 0.  1.
</event>
<event>
 5   0  0.3992414E-03  0.1088592E+04  0.7818609E-02  0.9216383E-01
       -2   -1    0    0    0  501  0.00000000000E+00  0.00000000000E+00  0.46230763238E+03  0.46230763239E+03  0.25500000920E-02 0.  1.
        2   -1    0    0  501    0  0.00000000000E+00  0.00000000000E+00 -0.64082445371E+03  0.64082445372E+03  0.25500000920E-02 0. -1.
    10030    2    1    2    0    0  0.00000000000E+00  0.00000000000E+00 -0.17851682133E+03  0.11031320861E+04  0.10885918169E+04 0.  0.
        1    1    3    3  502    0 -0.32561875390E+03  0.41605037935E+03  0.43381246554E+02  0.53010133336E+03  0.50400001928E-02 0.  1.
       -1    1    3    3    0  502  0.32561875390E+03 -0.41605037935E+03 -0.22189806788E+03  0.57303075276E+03  0.50400001928E-02 0. -1.
</event>
<event>
 5   0  0.2257667E-03  0.1101162E+04  0.7818609E-02  0.9204061E-01
        1   -1    0    0  501    0  0.00000000000E+00  0.00000000000E+00  0.32041223401E+03  0.32041223405E+03  0.50400001928E-02 0. -1.
       -1   -1    0    0    0  501  0.00000000000E+00  0.00000000000E+00 -0.94609111344E+03  0.94609111345E+03  0.50400001928E-02 0.  1.
    10030    2    1    2    0    0  0.00000000000E+00  0.00000000000E+00 -0.62567887943E+03  0.12665033475E+04  0.11011615091E+04 0.  0.
        4    1    3    3  502    0 -0.17118534944E+03 -0.52315522437E+03 -0.29914626440E+03  0.62648696160E+03  0.12699999809E+01 0.  1.
       -4    1    3    3    0  502  0.17118534944E+03  0.52315522437E+03 -0.32653261503E+03  0.64001638590E+03  0.12699999809E+01 0. -1.
</event>
<event>
 5   0  0.2300702E-03  0.1124445E+04  0.7818609E-02  0.9181689E-01
       -1   -1    0    0    0  501  0.00000000000E+00  0.00000000000E+00  0.61783010045E+03  0.61783010047E+03  0.50400001928E-02 0.  1.
        1   -1    0    0  501    0  0.00000000000E+00  0.00000000000E+00 -0.51161955190E+03  0.51161955193E+03  0.50400001928E-02 0. -1.
    10030    2    1    2    0    0  0.00000000000E+00  0.00000000000E+00  0.10621054855E+03  0.11294496524E+04  0.11244446792E+04 0.  0.
        5    1    3    3  502    0 -0.29114374000E+03 -0.42433549624E+03 -0.17427941555E+03  0.54334215315E+03  0.46999998093E+01 0. -1.
       -5    1    3    3    0  502  0.29114374000E+03  0.42433549624E+03  0.28048996411E+03  0.58610749925E+03  0.46999998093E+01 0.  1.
</event>
<event>
 5   0  0.2298958E-03  0.1103469E+04  0.7818609E-02  0.9201817E-01
       -1   -1    0    0    0  501  0.00000000000E+00  0.00000000000E+00  0.52812123991E+03  0.52812123993E+03  0.50400001928E-02 0.  1.
        1   -1    0    0  501    0  0.00000000000E+00  0.00000000000E+00 -0.57640399220E+03  0.57640399222E+03  0.50400001928E-02 0. -1.
    10030    2    1    2    0    0  0.00000000000E+00  0.00000000000E+00 -0.48282752292E+02  0.11045252322E+04  0.11034694215E+04 0.  0.
        1    1    3    3  502    0 -0.20135262887E+02  0.44408093634E+03  0.30297076451E+03  0.53796337329E+03  0.50400001928E-02 0.  1.
       -1    1    3    3    0  502  0.20135262887E+02 -0.44408093634E+03 -0.35125351680E+03  0.56656185886E+03  0.50400001928E-02 0. -1.
</event>
<event>
 5   0  0.2255788E-03  0.1099731E+04  0.7818609E-02  0.9205454E-01
        1   -1    0    0  501    0  0.00000000000E+00  0.00000000000E+00  0.80594991780E+03  0.80594991782E+03  0.50400001928E-02 0.  1.
       -1   -1    0    0    0  501  0.00000000000E+00  0.00000000000E+00 -0.37514996870E+03  0.37514996873E+03  0.50400001928E-02 0. -1.
    10030    2    1    2    0    0  0.00000000000E+00  0.00000000000E+00  0.43079994911E+03  0.11810998865E+04  0.10997310334E+04 0.  0.
        3    1    3    3  502    0  0.52850425985E+03 -0.15023544015E+03  0.23855027477E+03  0.59899389308E+03  0.10100000352E+00 0. -1.
       -3    1    3    3    0  502 -0.52850425985E+03  0.15023544015E+03  0.19224967434E+03  0.58210599347E+03  0.10100000352E+00 0.  1.
</event>
<event>
 5   0  0.3992414E-03  0.1088436E+04  0.7818609E-02  0.9216537E-01
        2   -1    0    0  501    0  0.00000000000E+00  0.00000000000E+00  0.12878726626E+04  0.12878726626E+04  0.25500000920E-02 0.  1.
       -2   -1    0    0    0  501  0.00000000000E+00  0.00000000000E+00 -0.22997101048E+03  0.22997101049E+03  0.25500000920E-02 0. -1.
    10030    2    1    2    0    0  0.00000000000E+00  0.00000000000E+00  0.10579016522E+04  0.15178436731E+04  0.10884362684E+04 0.  0.
        1    1    3    3  502    0 -0.13226979128E+03 -0.93192856879E+02  0.12535543304E+04  0.12639535852E+04  0.50400001928E-02 0.  1.
       -1    1    3    3    0  502  0.13226979128E+03  0.93192856879E+02 -0.19565267820E+03  0.25389008797E+03  0.50400001928E-02 0. -1.
</event>
<event>
 5   0  0.3992414E-03  0.1100081E+04  0.7818609E-02  0.9205113E-01
        2   -1    0    0  501    0  0.00000000000E+00  0.00000000000E+00  0.10838064796E+04  0.10838064796E+04  0.25500000920E-02 0.  1.
       -2   -1    0    0    0  501  0.00000000000E+00  0.00000000000E+00 -0.27914972558E+03  0.27914972559E+03  0.25500000920E-02 0. -1.
    10030    2    1    2    0    0  0.00000000000E+00  0.00000000000E+00  0.80465675399E+03  0.13629562052E+04  0.11000805086E+04 0.  0.
        1    1    3    3  502    0 -0.28113841742E+03  0.30715007501E+03  0.84760375780E+03  0.94435804047E+03  0.50400001928E-02 0.  1.
       -1    1    3    3    0  502  0.28113841742E+03 -0.30715007501E+03 -0.42947003811E+02  0.41859816470E+03  0.50400001928E-02 0. -1.
</event>
<event>
 5   0  0.1508625E-03  0.1100700E+04  0.7818609E-02  0.9204510E-01
        3   -1    0    0  501    0  0.00000000000E+00  0.00000000000E+00  0.32671680085E+03  0.32671681646E+03  0.10100000352E+00 0. -1.
       -3   -1    0    0    0  501  0.00000000000E+00  0.00000000000E+00 -0.92705734273E+03  0.92705734823E+03  0.10100000352E+00 0.  1.
    10030    2    1    2    0    0  0.00000000000E+00  0.00000000000E+00 -0.60034054188E+03  0.12537741647E+04  0.11007001816E+04 0.  0.
        2    1    3    3  502    0 -0.43558345912E+02 -0.15735114498E+03 -0.89883618118E+03  0.91354430266E+03  0.25500000920E-02 0.  1.
       -2    1    3    3    0  502  0.43558345912E+02  0.15735114498E+03  0.29849563930E+03  0.34022986203E+03  0.25500000920E-02 0. -1.
</event>
<event>
 5   0  0.3713158E-03  0.1082471E+04  0.7818609E-02  0.9222447E-01
        2   -1    0    0  501    0  0.00000000000E+00  0.00000000000E+00  0.84656329976E+03  0.84656329977E+03  0.25500000920E-02 0.  1.
       -2   -1    0    0    0  501  0.00000000000E+00  0.00000000000E+00 -0.34602942473E+03  0.34602942473E+03  0.25500000920E-02 0. -1.
    10030    2    1    2    0    0  0.00000000000E+00  0.00000000000E+00  0.50053387504E+03  0.11925927245E+04  0.10824708987E+04 0.  0.
        4    1    3    3  502    0 -0.30415225276E+03 -0.23764804878E+03  0.66827077458E+03  0.77173352202E+03  0.12699999809E+01 0.  1.
       -4    1    3    3    0  502  0.30415225276E+03  0.23764804878E+03 -0.16773689954E+03  0.42085920249E+03  0.12699999809E+01 0. -1.
</event>
<event>
 5   0  0.2374100E-03  0.1103962E+04  0.7818609E-02  0.9201339E-01
       -1   -1    0    0    0  501  0.00000000000E+00  0.00000000000E+00  0.48084229057E+03  0.48084229060E+03  0.50400001928E-02 0. -1.
        1   -1    0    0  501    0  0.00000000000E+00  0.00000000000E+00 -0.63364392179E+03  0.63364392181E+03  0.50400001928E-02 0.  1.
    10030    2    1    2    0    0  0.00000000000E+00  0.00000000000E+00 -0.15280163122E+03  0.11144862124E+04  0.11039615841E+04 0.  0.
        2    1    3    3  502    0  0.23130014783E+03 -0.44776396036E+03  0.15089105744E+03  0.52608025414E+03  0.25500000920E-02 0. -1.
       -2    1    3    3    0  502 -0.23130014783E+03  0.44776396036E+03 -0.30369268866E+03  0.58840595827E+03  0.25500000920E-02 0.  1.
</event>
<event>
 5   0  0.3748901E-03  0.1100099E+04  0.7818609E-02  0.9205096E-01
        2   -1    0    0  501    0  0.00000000000E+00  0.00000000000E+00  0.51967548727E+03  0.51967548728E+03  0.25500000920E-02 0. -1.
       -2   -1    0    0    0  501  0.00000000000E+00  0.00000000000E+00 -0.58219838660E+03  0.58219838660E+03  0.25500000920E-02 0.  1.
    10030    2    1    2    0    0  0.00000000000E+00  0.00000000000E+00 -0.62522899328E+02  0.11018738739E+04  0.11000985960E+04 0.  0.
        5    1    3    3  502    0  0.23248589245E+03 -0.74631191437E+02  0.46239558278E+03  0.52292568295E+03  0.46999998093E+01 0. -1.
       -5    1    3    3    0  502 -0.23248589245E+03  0.74631191437E+02 -0.52491848211E+03  0.57894819093E+03  0.46999998093E+01 0.  1.
</event>
<event>
 5   0  0.3748901E-03  0.1104107E+04  0.7818609E-02  0.9201198E-01
       -2   -1    0    0    0  501  0.00000000000E+00  0.00000000000E+00  0.59881653181E+03  0.59881653181E+03  0.25500000920E-02 0. -1.
        2   -1    0    0  501    0  0.00000000000E+00  0.00000000000E+00 -0.50894241605E+03  0.50894241605E+03  0.25500000920E-02 0.  1.
    10030    2    1    2    0    0  0.00000000000E+00  0.00000000000E+00  0.89874115762E+02  0.11077589479E+04  0.11041071188E+04 0.  0.
        5    1    3    3  502    0  0.12860686755E+03 -0.56976829356E+02 -0.49064024616E+03  0.51042729806E+03  0.46999998093E+01 0.  1.
       -5    1    3    3    0  502 -0.12860686755E+03  0.56976829356E+02  0.58051436192E+03  0.59733164980E+03  0.46999998093E+01 0. -1.
</event>
<event>
 5   0  0.3962999E-03  0.1104053E+04  0.7818609E-02  0.9201251E-01
        2   -1    0    0  501    0  0.00000000000E+00  0.00000000000E+00  0.33812280145E+03  0.33812280146E+03  0.25500000920E-02 0.  1.
       -2   -1    0    0    0  501  0.00000000000E+00  0.00000000000E+00 -0.90124988250E+03  0.90124988250E+03  0.25500000920E-02 0. -1.
    10030    2    1    2    0    0  0.00000000000E+00  0.00000000000E+00 -0.56312708105E+03  0.12393726840E+04  0.11040527797E+04 0.  0.
        3    1    3    3  502    0 -0.16099862433E+03 -0.45307819611E+03  0.22841884690E+02  0.48137529093E+03  0.10100000352E+00 0.  1.
       -3    1    3    3    0  502  0.16099862433E+03  0.45307819611E+03 -0.58596896574E+03  0.75799739303E+03  0.10100000352E+00 0. -1.
</event>
<event>
 5   0  0.3748901E-03  0.1105184E+04  0.7818609E-02  0.9200154E-01
        2   -1    0    0  501    0  0.00000000000E+00  0.00000000000E+00  0.15714521141E+04  0.15714521141E+04  0.25500000920E-02 0.  1.
       -2   -1    0    0    0  501  0.00000000000E+00  0.00000000000E+00 -0.19431574202E+03  0.19431574203E+03  0.25500000920E-02 0. -1.
    10030    2    1    2    0    0  0.00000000000E+00  0.00000000000E+00  0.13771363720E+04  0.17657678561E+04  0.11051839369E+04 0.  0.
        5    1    3    3  502    0  0.80970637241E+02  0.43439118918E+03  0.15846448516E+03  0.46945184246E+03  0.46999998093E+01 0. -1.
       -5    1    3    3    0  502 -0.80970637241E+02 -0.43439118918E+03  0.12186718869E+04  0.12963160136E+04  0.46999998093E+01 0.  1.
</event>
<event>
 5   0  0.3744875E-03  0.1076203E+04  0.7818609E-02  0.9228701E-01
       -2   -1    0    0    0  501  0.00000000000E+00  0.00000000000E+00  0.27998206012E+03  0.27998206013E+03  0.25500000920E-02 0.  1.
        2   -1    0    0  501    0  0.00000000000E+00  0.00000000000E+00 -0.10341850563E+04  0.10341850563E+04  0.25500000920E-02 0. -1.
    10030    2    1    2    0    0  0.00000000000E+00  0.00000000000E+00 -0.75420299620E+03  0.13141671165E+04  0.10762030712E+04 0.  0.
        2    1    3    3  502    0 -0.35671834187E+03  0.49291074894E+02 -0.86535747382E+03  0.93729458709E+03  0.25500000920E-02 0. -1.
       -2    1    3    3    0  502  0.35671834187E+03 -0.49291074894E+02  0.11115447762E+03  0.37687252936E+03  0.25500000920E-02 0.  1.
</event>
<event>
 5   0  0.3748901E-03  0.1106866E+04  0.7818609E-02  0.9198525E-01
        2   -1    0    0  501    0  0.00000000000E+00  0.00000000000E+00  0.10349010785E+04  0.10349010785E+04  0.25500000920E-02 0. -1.
       -2   -1    0    0    0  501  0.00000000000E+00  0.00000000000E+00 -0.29595907090E+03  0.29595907091E+03  0.25500000920E-02 0.  1.
    10030    2    1    2    0    0  0.00000000000E+00  0.00000000000E+00  0.73894200755E+03  0.13308601494E+04  0.11068664990E+04 0.  0.
        5    1    3    3  502    0 -0.21466284334E+03  0.46520670577E+03  0.62101837140E+03  0.80509833128E+03  0.46999998093E+01 0.  1.
       -5    1    3    3    0  502  0.21466284334E+03 -0.46520670577E+03  0.11792363615E+03  0.52576181809E+03  0.46999998093E+01 0. -1.
</event>
<event>
 5   0  0.3744875E-03  0.1104016E+04  0.7818609E-02  0.9201287E-01
       -2   -1    0    0    0  501  0.00000000000E+00  0.00000000000E+00  0.78846023076E+03  0.78846023076E+03  0.25500000920E-02 0. -1.
        2   -1    0    0  501    0  0.00000000000E+00  0.00000000000E+00 -0.38646552600E+03  0.38646552601E+03  0.25500000920E-02 0.  1.
    10030    2    1    2    0    0  0.00000000000E+00  0.00000000000E+00  0.40199470476E+03  0.11749257568E+04  0.11040157568E+04 0.  0.
        2    1    3    3  502    0  0.30510073622E+03  0.75385089341E+02  0.68395496366E+03  0.75270430001E+03  0.25500000920E-02 0. -1.
       -2    1    3    3    0  502 -0.30510073622E+03 -0.75385089341E+02 -0.28196025890E+03  0.42222145676E+03  0.25500000920E-02 0.  1.
</event>
<event>
 5   0  0.3713158E-03  0.1090745E+04  0.7818609E-02  0.9214259E-01
       -2   -1    0    0    0  501  0.00000000000E+00  0.00000000000E+00  0.21762376065E+03  0.21762376066E+03  0.25500000920E-02 0.  1.
        2   -1    0    0  501    0  0.00000000000E+00  0.00000000000E+00 -0.13667227078E+04  0.13667227078E+04  0.25500000920E-02 0. -1.
    10030    2    1    2    0    0  0.00000000000E+00  0.00000000000E+00 -0.11490989471E+04  0.15843464684E+04  0.10907453148E+04 0.  0.
        4    1    3    3  502    0 -0.34100156896E+03 -0.84805271999E+02  0.31274086525E+02  0.35277993931E+03  0.12699999809E+01 0.  1.
       -4    1    3    3    0  502  0.34100156896E+03  0.84805271999E+02 -0.11803730336E+04  0.12315665291E+04  0.12699999809E+01 0. -1.
</event>
<event>
 5   0  0.3992414E-03  0.1123966E+04  0.7818609E-02  0.9182143E-01
        2   -1    0    0  501    0  0.00000000000E+00  0.00000000000E+00  0.90948433435E+03  0.90948433436E+03  0.25500000920E-02 0.  1.
       -2   -1    0    0    0  501  0.00000000000E+00  0.00000000000E+00 -0.34725711156E+03  0.34725711157E+03  0.25500000920E-02 0. -1.
    10030    2    1    2    0    0  0.00000000000E+00  0.00000000000E+00  0.56222722279E+03  0.12567414459E+04  0.11239660190E+04 0.  0.
        1    1    3    3  502    0  0.47212875179E+03  0.10535013446E+03  0.60094739482E+03  0.77145445780E+03  0.50400001928E-02 0.  1.
       -1    1    3    3    0  502 -0.47212875179E+03 -0.10535013446E+03 -0.38720172026E+02  0.48528698812E+03  0.50400001928E-02 0. -1.
</event>
<event>
 5   0  0.2298958E-03  0.1106821E+04  0.7818609E-02  0.9198569E-01
       -1   -1    0    0    0  501  0.00000000000E+00  0.00000000000E+00  0.23596658703E+03  0.23596658709E+03  0.50400001928E-02 0. -1.
        1   -1    0    0  501    0  0.00000000000E+00  0.00000000000E+00 -0.12979093444E+04  0.12979093445E+04  0.50400001928E-02 0.  1.
    10030    2    1    2    0    0  0.00000000000E+00  0.00000000000E+00 -0.10619427574E+04  0.15338759315E+04  0.11068211027E+04 0.  0.
        1    1    3    3  502    0  0.24490868350E+03 -0.33359618656E+03 -0.10401546794E+04  0.11194589926E+04  0.50400001928E-02 0.  1.
       -1    1    3    3    0  502 -0.24490868350E+03  0.33359618656E+03 -0.21788078023E+02  0.41441693898E+03  0.50400001928E-02 0. -1.
</event>
<event>
 5   0  0.2300702E-03  0.1191378E+04  0.7818609E-02  0.9120437E-01
       -1   -1    0    0    0  501  0.00000000000E+00  0.00000000000E+00  0.39011472366E+03  0.39011472369E+03  0.50400001928E-02 0.  1.
        1   -1    0    0  501    0  0.00000000000E+00  0.00000000000E+00 -0.90959310334E+03  0.90959310336E+03  0.50400001928E-02 0. -1.
    10030    2    1    2    0    0  0.00000000000E+00  0.00000000000E+00 -0.51947837969E+03  0.12997078270E+04  0.11913784658E+04 0.  0.
        5    1    3    3  502    0 -0.18469438953E+03  0.20542345490E+02  0.35766188947E+03  0.40308575100E+03  0.46999998093E+01 0.  1.
       -5    1    3    3    0  502  0.18469438953E+03 -0.20542345490E+02 -0.87714026916E+03  0.89662207605E+03  0.46999998093E+01 0. -1.
</event>
<event>
 5   0  0.2374100E-03  0.1096833E+04  0.7818609E-02  0.9208284E-01
        1   -1    0    0  501    0  0.00000000000E+00  0.00000000000E+00  0.12202125180E+04  0.12202125180E+04  0.50400001928E-02 0.  1.
       -1   -1    0    0    0  501  0.00000000000E+00  0.00000000000E+00 -0.24648203099E+03  0.24648203104E+03  0.50400001928E-02 0. -1.
    10030    2    1    2    0    0  0.00000000000E+00  0.00000000000E+00  0.97373048699E+03  0.14666945490E+04  0.10968326394E+04 0.  0.
        2    1    3    3  502    0  0.34057448163E+03 -0.24655407729E+03  0.16022235959E+02  0.42075717774E+03  0.25500000920E-02 0. -1.
       -2    1    3    3    0  502 -0.34057448163E+03  0.24655407729E+03  0.95770825103E+03  0.10459373713E+04  0.25500000920E-02 0.  1.
</event>
<event>
 5   0  0.2300702E-03  0.1068938E+04  0.7818609E-02  0.9236007E-01
       -1   -1    0    0    0  501  0.00000000000E+00  0.00000000000E+00  0.61608465561E+03  0.61608465563E+03  0.50400001928E-02 0.  1.
        1   -1    0    0  501    0  0.00000000000E+00  0.00000000000E+00 -0.46366555258E+03  0.46366555260E+03  0.50400001928E-02 0. -1.
    10030    2    1    2    0    0  0.00000000000E+00  0.00000000000E+00  0.15241910303E+03  0.10797502082E+04  0.10689382252E+04 0.  0.
        5    1    3    3  502    0  0.46783448297E+03  0.19602356965E+02 -0.18404309629E+03  0.50313746347E+03  0.46999998093E+01 0. -1.
       -5    1    3    3    0  502 -0.46783448297E+03 -0.19602356965E+02  0.33646219932E+03  0.57661274477E+03  0.46999998093E+01 0.  1.
</event>
<event>
 5   0  0.3992414E-03  0.1091414E+04  0.7818609E-02  0.9213601E-01
       -2   -1    0    0    0  501  0.00000000000E+00  0.00000000000E+00  0.31378721368E+03  0.31378721369E+03  0.25500000920E-02 0.  1.
        2   -1    0    0  501    0  0.00000000000E+00  0.00000000000E+00 -0.94903794608E+03  0.94903794608E+03  0.25500000920E-02 0. -1.
    10030    2    1    2    0    0  0.00000000000E+00  0.00000000000E+00 -0.63525073239E+03  0.12628251598E+04  0.10914137122E+04 0.  0.
        1    1    3    3  502    0  0.31825968374E+03  0.44305108864E+03 -0.30075936381E+03  0.62292831721E+03  0.50400001928E-02 0. -1.
       -1    1    3    3    0  502 -0.31825968374E+03 -0.44305108864E+03 -0.33449136858E+03  0.63989684256E+03  0.50400001928E-02 0.  1.
</event>
<event>
 5   0  0.3713158E-03  0.1094425E+04  0.7818609E-02  0.9210643E-01
       -2   -1    0    0    0  501  0.00000000000E+00  0.00000000000E+00  0.39816156717E+03  0.39816156718E+03  0.25500000920E-02 0. -1.
        2   -1    0    0  501    0  0.00000000000E+00  0.00000000000E+00 -0.75206028295E+03  0.75206028295E+03  0.25500000920E-02 0.  1.
    10030    2    1    2    0    0  0.00000000000E+00  0.00000000000E+00 -0.35389871578E+03  0.11502218501E+04  0.10944249648E+04 0.  0.
        4    1    3    3  502    0  0.29883389629E+03  0.63497715651E+02 -0.65408425611E+03  0.72191515045E+03  0.12699999809E+01 0.  1.
       -4    1    3    3    0  502 -0.29883389629E+03 -0.63497715651E+02  0.30018554033E+03  0.42830669968E+03  0.12699999809E+01 0. -1.
</event>
<event>
 5   0  0.2257667E-03  0.1094061E+04  0.7818609E-02  0.9211000E-01
        1   -1    0    0  501    0  0.00000000000E+00  0.00000000000E+00  0.14528673998E+04  0.14528673998E+04  0.50400001928E-02 0. -1.
       -1   -1    0    0    0  501  0.00000000000E+00  0.00000000000E+00 -0.20596663420E+03  0.20596663426E+03  0.50400001928E-02 0.  1.
    10030    2    1    2    0    0  0.00000000000E+00  0.00000000000E+00  0.12469007656E+04  0.16588340341E+04  0.10940607082E+04 0.  0.
        4    1    3    3  502    0  0.38935406399E+03  0.24823763018E+03  0.17875102323E+03  0.49514851245E+03  0.12699999809E+01 0.  1.
       -4    1    3    3    0  502 -0.38935406399E+03 -0.24823763018E+03  0.10681497424E+04  0.11636855216E+04  0.12699999809E+01 0. -1.
</event>
<event>
 5   0  0.2374100E-03  0.1094911E+04  0.7818609E-02  0.9210166E-01
       -1   -1    0    0    0  501  0.00000000000E+00  0.00000000000E+00  0.22791340148E+03  0.22791340154E+03  0.50400001928E-02 0.  1.
        1   -1    0    0  501    0  0.00000000000E+00  0.00000000000E+00 -0.13150063908E+04  0.13150063908E+04  0.50400001928E-02 0. -1.
    10030    2    1    2    0    0  0.00000000000E+00  0.00000000000E+00 -0.10870929893E+04  0.15429197924E+04  0.10949111006E+04 0.  0.
        2    1    3    3  502    0  0.27391089321E+03 -0.14305240863E+03  0.93263411326E+02  0.32278356980E+03  0.25500000920E-02 0. -1.
       -2    1    3    3    0  502 -0.27391089321E+03  0.14305240863E+03 -0.11803564007E+04  0.12201362226E+04  0.25500000920E-02 0.  1.
</event>
<event>
 5   0  0.2374100E-03  0.1121604E+04  0.7818609E-02  0.9184387E-01
        1   -1    0    0  501    0  0.00000000000E+00  0.00000000000E+00  0.68673284691E+03  0.68673284693E+03  0.50400001928E-02 0. -1.
       -1   -1    0    0    0  501  0.00000000000E+00  0.00000000000E+00 -0.45796410457E+03  0.45796410459E+03  0.50400001928E-02 0.  1.
    10030    2    1    2    0    0  0.00000000000E+00  0.00000000000E+00  0.22876874235E+03  0.11446969515E+04  0.11216041964E+04 0.  0.
        2    1    3    3  502    0  0.16017666687E+03 -0.52573453311E+03  0.52747683646E+00  0.54959407034E+03  0.25500000920E-02 0.  1.
       -2    1    3    3    0  502 -0.16017666687E+03  0.52573453311E+03  0.22824126551E+03  0.59510288119E+03  0.25500000920E-02 0. -1.
</event>
<event>
 5   0  0.3744875E-03  0.1110995E+04  0.7818609E-02  0.9194541E-01
       -2   -1    0    0    0  501  0.00000000000E+00  0.00000000000E+00  0.13372537236E+03  0.13372537239E+03  0.25500000920E-02 0.  1.
        2   -1    0    0  501    0  0.00000000000E+00  0.00000000000E+00 -0.23075461982E+04  0.23075461982E+04  0.25500000920E-02 0. -1.
    10030    2    1    2    0    0  0.00000000000E+00  0.00000000000E+00 -0.21738208258E+04  0.24412715706E+04  0.11109950038E+04 0.  0.
        2    1    3    3  502    0 -0.35849131860E+03  0.10882474948E+03 -0.18566923906E+03  0.41812906853E+03  0.25500000920E-02 0.  1.
       -2    1    3    3    0  502  0.35849131860E+03 -0.10882474948E+03 -0.19881515868E+04  0.20231425021E+04  0.25500000920E-02 0. -1.
</event>
<event>
 5   0  0.2257667E-03  0.1118873E+04  0.7818609E-02  0.9186989E-01
        1   -1    0    0  501    0  0.00000000000E+00  0.00000000000E+00  0.90361422088E+03  0.90361422089E+03  0.50400001928E-02 0. -1.
       -1   -1    0    0    0  501  0.00000000000E+00  0.00000000000E+00 -0.34635285058E+03  0.34635285062E+03  0.50400001928E-02 0.  1.
    10030    2    1    2    0    0  0.00000000000E+00  0.00000000000E+00  0.55726137029E+03  0.12499670715E+04  0.11188732927E+04 0.  0.
        4    1    3    3  502    0 -0.12307251570E+03  0.87807902139E+02  0.88035771527E+03  0.89324598602E+03  0.12699999809E+01 0. -1.
       -4    1    3    3    0  502  0.12307251570E+03 -0.87807902139E+02 -0.32309634498E+03  0.35672108550E+03  0.12699999809E+01 0.  1.
</event>
<event>
 5   0  0.2374100E-03  0.1069961E+04  0.7818609E-02  0.9234975E-01
       -1   -1    0    0    0  501  0.00000000000E+00  0.00000000000E+00  0.84906448651E+03  0.84906448653E+03  0.50400001928E-02 0.  1.
        1   -1    0    0  501    0  0.00000000000E+00  0.00000000000E+00 -0.33708186209E+03  0.33708186213E+03  0.50400001928E-02 0. -1.
    10030    2    1    2    0    0  0.00000000000E+00  0.00000000000E+00  0.51198262442E+03  0.11861463487E+04  0.10699611922E+04 0.  0.
        2    1    3    3  502    0  0.49852005124E+03 -0.18513716108E+03  0.32069173597E+03  0.62100016057E+03  0.25500000920E-02 0. -1.
       -2    1    3    3    0  502 -0.49852005124E+03  0.18513716108E+03  0.19129088845E+03  0.56514618809E+03  0.25500000920E-02 0.  1.
</event>
<event>
 5   0  0.2255788E-03  0.1103056E+04  0.7818609E-02  0.9202218E-01
        1   -1    0    0  501    0  0.00000000000E+00  0.00000000000E+00  0.22187674050E+03  0.22187674056E+03  0.50400001928E-02 0.  1.
       -1   -1    0    0    0  501  0.00000000000E+00  0.00000000000E+00 -0.13709558907E+04  0.13709558907E+04  0.50400001928E-02 0. -1.
    10030    2    1    2    0    0  0.00000000000E+00  0.00000000000E+00 -0.11490791502E+04  0.15928326313E+04  0.11030561626E+04 0.  0.
        3    1    3    3  502    0 -0.40212470200E+03 -0.21573937646E+03 -0.10218016760E+04  0.11190739162E+04  0.10100000352E+00 0. -1.
       -3    1    3    3    0  502  0.40212470200E+03  0.21573937646E+03 -0.12727747418E+03  0.47375871512E+03  0.10100000352E+00 0.  1.
</event>
<event>
 5   0  0.2257667E-03  0.1095211E+04  0.7818609E-02  0.9209873E-01
        1   -1    0    0  501    0  0.00000000000E+00  0.00000000000E+00  0.10909849583E+04  0.10909849583E+04  0.50400001928E-02 0.  1.
       -1   -1    0    0    0  501  0.00000000000E+00  0.00000000000E+00 -0.27486311625E+03  0.27486311629E+03  0.50400001928E-02 0. -1.
    10030    2    1    2    0    0  0.00000000000E+00  0.00000000000E+00  0.81612184205E+03  0.13658480746E+04  0.10952105285E+04 0.  0.
        4    1    3    3  502    0  0.31701606245E+03 -0.44650175496E+03  0.40478229762E+03  0.68096499352E+03  0.12699999809E+01 0. -1.
       -4    1    3    3    0  502 -0.31701606245E+03  0.44650175496E+03  0.41133954443E+03  0.68488308108E+03  0.12699999809E+01 0.  1.
</event>
<event>
 5   0  0.3713158E-03  0.1099995E+04  0.7818609E-02  0.9205197E-01
        2   -1    0    0  501    0  0.00000000000E+00  0.00000000000E+00  0.67514423157E+03  0.67514423158E+03  0.25500000920E-02 0.  1.
       -2   -1    0    0    0  501  0.00000000000E+00  0.00000000000E+00 -0.44804806088E+03  0.44804806088E+03  0.25500000920E-02 0. -1.
    10030    2    1    2    0    0  0.00000000000E+00  0.00000000000E+00  0.22709617070E+03  0.11231922925E+04  0.10999946614E+04 0.  0.
        4    1    3    3  502    0  0.46690262922E+03 -0.28977803631E+03  0.90128051247E+02  0.55686089288E+03  0.12699999809E+01 0. -1.
       -4    1    3    3    0  502 -0.46690262922E+03  0.28977803631E+03  0.13696811945E+03  0.56633139958E+03  0.12699999809E+01 0.  1.
</event>
<event>
 5   0  0.3744875E-03  0.1092623E+04  0.7818609E-02  0.9212412E-01
       -2   -1    0    0    0  501  0.00000000000E+00  0.00000000000E+00  0.18975196876E+03  0.18975196878E+03  0.25500000920E-02 0. -1.
        2   -1    0    0  501    0  0.00000000000E+00  0.00000000000E+00 -0.15728752069E+04  0.15728752069E+04  0.25500000920E-02 0.  1.
    10030    2    1    2    0    0  0.00000000000E+00  0.00000000000E+00 -0.13831232381E+04  0.17626271757E+04  0.10926228391E+04 0.  0.
        2    1    3    3  502    0  0.21853048888E+03  0.14585835346E+03  0.81139321443E+02  0.27497967804E+03  0.25500000920E-02 0. -1.
       -2    1    3    3    0  502 -0.21853048888E+03 -0.14585835346E+03 -0.14642625596E+04  0.14876474976E+04  0.25500000920E-02 0.  1.
</event>
<event>
 5   0  0.3748901E-03  0.1100202E+04  0.7818609E-02  0.9204995E-01
       -2   -1    0    0    0  501  0.00000000000E+00  0.00000000000E+00  0.61087326679E+03  0.61087326679E+03  0.25500000920E-02 0.  1.
        2   -1    0    0  501    0  0.00000000000E+00  0.00000000000E+00 -0.49537443540E+03  0.49537443541E+03  0.25500000920E-02 0. -1.
    10030    2    1    2    0    0  0.00000000000E+00  0.00000000000E+00  0.11549883138E+03  0.11062477022E+04  0.11002017990E+04 0.  0.
        5    1    3    3  502    0  0.27227274472E+02  0.38344328018E+03 -0.33788305656E+03  0.51181747088E+03  0.46999998093E+01 0. -1.
       -5    1    3    3    0  502 -0.27227274472E+02 -0.38344328018E+03  0.45338188795E+03  0.59443023132E+03  0.46999998093E+01 0.  1.
</event>
<event>
 5   0  0.3962999E-03  0.1104635E+04  0.7818609E-02  0.9200686E-01
       -2   -1    0    0    0  501  0.00000000000E+00  0.00000000000E+00  0.31946316093E+03  0.31946316094E+03  0.25500000920E-02 0. -1.
        2   -1    0    0  501    0  0.00000000000E+00  0.00000000000E+00 -0.95489704025E+03  0.95489704025E+03  0.25500000920E-02 0.  1.
    10030    2    1    2    0    0  0.00000000000E+00  0.00000000000E+00 -0.63543387932E+03  0.12743602012E+04  0.11046346488E+04 0.  0.
        3    1    3    3  502    0  0.31838546192E+03  0.34350731480E+02  0.20143151479E+03  0.37831724844E+03  0.10100000352E+00 0. -1.
       -3    1    3    3    0  502 -0.31838546192E+03 -0.34350731480E+02 -0.83686539411E+03  0.89604295275E+03  0.10100000352E+00 0.  1.
</event>
<event>
 5   0  0.3992414E-03  0.1115545E+04  0.7818609E-02  0.9190172E-01
        2   -1    0    0  501    0  0.00000000000E+00  0.00000000000E+00  0.32864522555E+03  0.32864522556E+03  0.25500000920E-02 0.  1.
       -2   -1    0    0    0  501  0.00000000000E+00  0.00000000000E+00 -0.94664436615E+03  0.94664436615E+03  0.25500000920E-02 0. -1.
    10030    2    1    2    0    0  0.00000000000E+00  0.00000000000E+00 -0.61799914060E+03  0.12752895917E+04  0.11155449811E+04 0.  0.
        1    1    3    3  502    0 -0.43780664588E+03  0.48477915479E+02 -0.70017635297E+03  0.82720716435E+03  0.50400001928E-02 0. -1.
       -1    1    3    3    0  502  0.43780664588E+03 -0.48477915479E+02  0.82177212373E+02  0.44808242737E+03  0.50400001928E-02 0.  1.
</event>
<event>
 5   0  0.2255788E-03  0.1102670E+04  0.7818609E-02  0.9202593E-01
       -1   -1    0    0    0  501  0.00000000000E+00  0.00000000000E+00  0.26050242973E+03  0.26050242978E+03  0.50400001928E-02 0.  1.
        1   -1    0    0  501    0  0.00000000000E+00  0.00000000000E+00 -0.11668620814E+04  0.11668620814E+04  0.50400001928E-02 0. -1.
    10030    2    1    2    0    0  0.00000000000E+00  0.00000000000E+00 -0.90635965165E+03  0.14273645112E+04  0.11026702271E+04 0.  0.
        3    1    3    3  502    0  0.41178815647E+03 -0.46016891861E+01  0.21341939825E+02  0.41236652380E+03  0.10100000352E+00 0.  1.
       -3    1    3    3    0  502 -0.41178815647E+03  0.46016891861E+01 -0.92770159148E+03  0.10149979874E+04  0.10100000352E+00 0. -1.
</event>
<event>
 5   0  0.2255788E-03  0.1102842E+04  0.7818609E-02  0.9202426E-01
       -1   -1    0    0    0  501  0.00000000000E+00  0.00000000000E+00  0.69503352822E+03  0.69503352824E+03  0.50400001928E-02 0.  1.
        1   -1    0    0  501    0  0.00000000000E+00  0.00000000000E+00 -0.43748274585E+03  0.43748274588E+03  0.50400001928E-02 0. -1.
    10030    2    1    2    0    0  0.00000000000E+00  0.00000000000E+00  0.25755078237E+03  0.11325162741E+04  0.11028421037E+04 0.  0.
        3    1    3    3  502    0 -0.36226118123E+03 -0.24955561709E+03  0.47021848857E+03  0.64390729662E+03  0.10100000352E+00 0.  1.
       -3    1    3    3    0  502  0.36226118123E+03  0.24955561709E+03 -0.21266770620E+03  0.48860897751E+03  0.10100000352E+00 0. -1.
</event>
<event>
 5   0  0.3962999E-03  0.1108578E+04  0.7818609E-02  0.9196872E-01
       -2   -1    0    0    0  501  0.00000000000E+00  0.00000000000E+00  0.20330080320E+03  0.20330080321E+03  0.25500000920E-02 0. -1.
        2   -1    0    0  501    0  0.00000000000E+00  0.00000000000E+00 -0.15112387343E+04  0.15112387343E+04  0.25500000920E-02 0.  1.
    10030    2    1    2    0    0  0.00000000000E+00  0.00000000000E+00 -0.13079379311E+04  0.17145395375E+04  0.11085775544E+04 0.  0.
        3    1    3    3  502    0  0.33167809515E+03 -0.40908340416E+03 -0.38664006973E+03  0.65333769529E+03  0.10100000352E+00 0. -1.
       -3    1    3    3    0  502 -0.33167809515E+03  0.40908340416E+03 -0.92129786137E+03  0.10612018422E+04  0.10100000352E+00 0.  1.
</event>
<event>
 5   0  0.2257667E-03  0.1092025E+04  0.7818609E-02  0.9213000E-01
        1   -1    0    0  501    0  0.00000000000E+00  0.00000000000E+00  0.10739258960E+04  0.10739258960E+04  0.50400001928E-02 0.  1.
       -1   -1    0    0    0  501  0.00000000000E+00  0.00000000000E+00 -0.27760704538E+03  0.27760704543E+03  0.50400001928E-02 0. -1.
    10030    2    1    2    0    0  0.00000000000E+00  0.00000000000E+00  0.79631885059E+03  0.13515329414E+04  0.10920245326E+04 0.  0.
        4    1    3    3  502    0  0.16331220748E+03  0.50922587270E+03  0.26176099614E+03  0.59540095611E+03  0.12699999809E+01 0.  1.
       -4    1    3    3    0  502 -0.16331220748E+03 -0.50922587270E+03  0.53455785445E+03  0.75613198530E+03  0.12699999809E+01 0. -1.
</event>
<event>
 5   0  0.3992414E-03  0.1095400E+04  0.7818609E-02  0.9209687E-01
        2   -1    0    0  501    0  0.00000000000E+00  0.00000000000E+00  0.18285966441E+04  0.18285966441E+04  0.25500000920E-02 0.  1.
       -2   -1    0    0    0  501  0.00000000000E+00  0.00000000000E+00 -0.16404669924E+03  0.16404669926E+03  0.25500000920E-02 0. -1.
    10030    2    1    2    0    0  0.00000000000E+00  0.00000000000E+00  0.16645499448E+04  0.19926433433E+04  0.10953999155E+04 0.  0.
        1    1    3    3  502    0 -0.54456313058E+03  0.44010379942E+02  0.76207258256E+03  0.93767826990E+03  0.50400001928E-02 0. -1.
       -1    1    3    3    0  502  0.54456313058E+03 -0.44010379942E+02  0.90247736228E+03  0.10549650734E+04  0.50400001928E-02 0.  1.
</event>
<event>
 5   0  0.3962999E-03  0.1102708E+04  0.7818609E-02  0.9202557E-01
        2   -1    0    0  501    0  0.00000000000E+00  0.00000000000E+00  0.21533928809E+03  0.21533928810E+03  0.25500000920E-02 0. -1.
       -2   -1    0    0    0  501  0.00000000000E+00  0.00000000000E+00 -0.14116837026E+04  0.14116837026E+04  0.25500000920E-02 0.  1.
    10030    2    1    2    0    0  0.00000000000E+00  0.00000000000E+00 -0.11963444145E+04  0.16270229907E+04  0.11027075107E+04 0.  0.
        3    1    3    3  502    0  0.43381673970E+03  0.21945363077E+03 -0.98189376108E+03  0.10956606354E+04  0.10100000352E+00 0.  1.
       -3    1    3    3    0  502 -0.43381673970E+03 -0.21945363077E+03 -0.21445065347E+03  0.53136235534E+03  0.10100000352E+00 0. -1.
</event>
<event>
 5   0  0.2298958E-03  0.1105813E+04  0.7818609E-02  0.9199545E-01
        1   -1    0    0  501    0  0.00000000000E+00  0.00000000000E+00  0.95938164931E+03  0.95938164932E+03  0.50400001928E-02 0. -1.
       -1   -1    0    0    0  501  0.00000000000E+00  0.00000000000E+00 -0.31864844855E+03  0.31864844859E+03  0.50400001928E-02 0.  1.
    10030    2    1    2    0    0  0.00000000000E+00  0.00000000000E+00  0.64073320076E+03  0.12780300979E+04  0.11058127765E+04 0.  0.
        1    1    3    3  502    0 -0.43163731422E+03  0.42376424820E+02 -0.75967266915E+02  0.44031529393E+03  0.50400001928E-02 0.  1.
       -1    1    3    3    0  502  0.43163731422E+03 -0.42376424820E+02  0.71670046768E+03  0.83771480398E+03  0.50400001928E-02 0. -1.
</event>
<event>
 5   0  0.3962999E-03  0.1100908E+04  0.7818609E-02  0.9204307E-01
       -2   -1    0    0    0  501  0.00000000000E+00  0.00000000000E+00  0.36427411704E+03  0.36427411705E+03  0.25500000920E-02 0.  1.
        2   -1    0    0  501    0  0.00000000000E+00  0.00000000000E+00 -0.83179040961E+03  0.83179040962E+03  0.25500000920E-02 0. -1.
    10030    2    1    2    0    0  0.00000000000E+00  0.00000000000E+00 -0.46751629257E+03  0.11960645267E+04  0.11009082015E+04 0.  0.
        3    1    3    3  502    0  0.28120657635E+02 -0.53548405895E+03 -0.98647643854E+02  0.54522042938E+03  0.10100000352E+00 0.  1.
       -3    1    3    3    0  502 -0.28120657635E+02  0.53548405895E+03 -0.36886864872E+03  0.65084409729E+03  0.10100000352E+00 0. -1.
</event>
<event>
 5   0  0.3992414E-03  0.1103385E+04  0.7818609E-02  0.9201899E-01
       -2   -1    0    0    0  501  0.00000000000E+00  0.00000000000E+00  0.43947217945E+03  0.43947217946E+03  0.25500000920E-02 0.  1.
        2   -1    0    0  501    0  0.00000000000E+00  0.00000000000E+00 -0.69256801273E+03  0.69256801273E+03  0.25500000920E-02 0. -1.
    10030    2    1    2    0    0  0.00000000000E+00  0.00000000000E+00 -0.25309583328E+03  0.11320401922E+04  0.11033845639E+04 0.  0.
        1    1    3    3  502    0 -0.28301295846E+03  0.39288987005E+03 -0.39781112435E+03  0.62666775513E+03  0.50400001928E-02 0. -1.
       -1    1    3    3    0  502  0.28301295846E+03 -0.39288987005E+03  0.14471529107E+03  0.50537243706E+03  0.50400001928E-02 0.  1.
</event>
<event>
 5   0  0.2374100E-03  0.1115529E+04  0.7818609E-02  0.9190188E-01
        1   -1    0    0  501    0  0.00000000000E+00  0.00000000000E+00  0.69997082501E+03  0.69997082503E+03  0.50400001928E-02 0.  1.
       -1   -1    0    0    0  501  0.00000000000E+00  0.00000000000E+00 -0.44444846770E+03  0.44444846773E+03  0.50400001928E-02 0. -1.
    10030    2    1    2    0    0  0.00000000000E+00  0.00000000000E+00  0.25552235731E+03  0.11444192928E+04  0.11155285037E+04 0.  0.
        2    1    3    3  502    0 -0.44234336042E+02  0.37950869896E+03  0.54463148463E+03  0.66528714337E+03  0.25500000920E-02 0.  1.
       -2    1    3    3    0  502  0.44234336042E+02 -0.37950869896E+03 -0.28910912732E+03  0.47913214939E+03  0.25500000920E-02 0. -1.
</event>
<event>
 5   0  0.3713158E-03  0.1098884E+04  0.7818609E-02  0.9206281E-01
       -2   -1    0    0    0  501  0.00000000000E+00  0.00000000000E+00  0.18178792746E+03  0.18178792748E+03  0.25500000920E-02 0. -1.
        2   -1    0    0  501    0  0.00000000000E+00  0.00000000000E+00 -0.16606509859E+04  0.16606509859E+04  0.25500000920E-02 0.  1.
    10030    2    1    2    0    0  0.00000000000E+00  0.00000000000E+00 -0.14788630585E+04  0.18424389134E+04  0.10988836171E+04 0.  0.
        4    1    3    3  502    0  0.80439059456E+01 -0.36818635517E+03 -0.55781701547E+02  0.37247698946E+03  0.12699999809E+01 0. -1.
       -4    1    3    3    0  502 -0.80439059456E+01  0.36818635517E+03 -0.14230813569E+04  0.14699619239E+04  0.12699999809E+01 0.  1.
</event>
<event>
 5   0  0.3744875E-03  0.1142642E+04  0.7818609E-02  0.9164598E-01
        2   -1    0    0  501    0  0.00000000000E+00  0.00000000000E+00  0.18292971612E+04  0.18292971612E+04  0.25500000920E-02 0.  1.
       -2   -1    0    0    0  501  0.00000000000E+00  0.00000000000E+00 -0.17843344261E+03  0.17843344263E+03  0.25500000920E-02 0. -1.
    10030    2    1    2    0    0  0.00000000000E+00  0.00000000000E+00  0.16508637186E+04  0.20077306038E+04  0.11426421838E+04 0.  0.
        2    1    3    3  502    0  0.28780337330E+02 -0.87210944296E+02  0.18162428350E+04  0.18185631944E+04  0.25500000920E-02 0.  1.
       -2    1    3    3    0  502 -0.28780337330E+02  0.87210944296E+02 -0.16537911639E+03  0.18916740937E+03  0.25500000920E-02 0. -1.
</event>
<event>
 5   0  0.2255788E-03  0.1105147E+04  0.7818609E-02  0.9200189E-01
        1   -1    0    0  501    0  0.00000000000E+00  0.00000000000E+00  0.73400353346E+03  0.73400353348E+03  0.50400001928E-02 0.  1.
       -1   -1    0    0    0  501  0.00000000000E+00  0.00000000000E+00 -0.41598931006E+03  0.41598931009E+03  0.50400001928E-02 0. -1.
    10030    2    1    2    0    0  0.00000000000E+00  0.00000000000E+00  0.31801422340E+03  0.11499928436E+04  0.11051472725E+04 0.  0.
        3    1    3    3  502    0  0.45566200421E+03  0.17146717137E+03 -0.11295799262E+03  0.49978832643E+03  0.10100000352E+00 0. -1.
       -3    1    3    3    0  502 -0.45566200421E+03 -0.17146717137E+03  0.43097221601E+03  0.65020451714E+03  0.10100000352E+00 0.  1.
</event>
<event>
 5   0  0.2257667E-03  0.1104556E+04  0.7818609E-02  0.9200763E-01
       -1   -1    0    0    0  501  0.00000000000E+00  0.00000000000E+00  0.20824358961E+03  0.20824358967E+03  0.50400001928E-02 0.  1.
        1   -1    0    0  501    0  0.00000000000E+00  0.00000000000E+00 -0.14646836440E+04  0.14646836440E+04  0.50400001928E-02 0. -1.
    10030    2    1    2    0    0  0.00000000000E+00  0.00000000000E+00 -0.12564400544E+04  0.16729272337E+04  0.11045559827E+04 0.  0.
        4    1    3    3  502    0  0.46733371743E+02  0.61492324012E+02 -0.14564613675E+04  0.14585083620E+04  0.12699999809E+01 0. -1.
       -4    1    3    3    0  502 -0.46733371743E+02 -0.61492324012E+02  0.20002131313E+03  0.21441887172E+03  0.12699999809E+01 0.  1.
</event>
<event>
 5   0  0.2300702E-03  0.1079476E+04  0.7818609E-02  0.9225430E-01
        1   -1    0    0  501    0  0.00000000000E+00  0.00000000000E+00  0.28073118675E+03  0.28073118679E+03  0.50400001928E-02 0.  1.
       -1   -1    0    0    0  501  0.00000000000E+00  0.00000000000E+00 -0.10377090697E+04  0.10377090697E+04  0.50400001928E-02 0. -1.
    10030    2    1    2    0    0  0.00000000000E+00  0.00000000000E+00 -0.75697788293E+03  0.13184402565E+04  0.10794763521E+04 0.  0.
        5    1    3    3  502    0  0.25592136031E+03 -0.66523102403E+02 -0.95314867695E+03  0.98915901461E+03  0.46999998093E+01 0. -1.
       -5    1    3    3    0  502 -0.25592136031E+03  0.66523102403E+02  0.19617079403E+03  0.32928124186E+03  0.46999998093E+01 0.  1.
</event>
<event>
 5   0  0.2257667E-03  0.1087544E+04  0.7818609E-02  0.9217418E-01
       -1   -1    0    0    0  501  0.00000000000E+00  0.00000000000E+00  0.19750079422E+03  0.19750079429E+03  0.50400001928E-02 0. -1.
        1   -1    0    0  501    0  0.00000000000E+00  0.00000000000E+00 -0.14971492945E+04  0.14971492945E+04  0.50400001928E-02 0.  1.
    10030    2    1    2    0    0  0.00000000000E+00  0.00000000000E+00 -0.12996485003E+04  0.16946500888E+04  0.10875443435E+04 0.  0.
        4    1    3    3  502    0 -0.23031742446E+03 -0.78453653955E+02 -0.14075905657E+04  0.14284655772E+04  0.12699999809E+01 0.  1.
       -4    1    3    3    0  502  0.23031742446E+03  0.78453653955E+02  0.10794206538E+03  0.26618451159E+03  0.12699999809E+01 0. -1.
</event>
<event>
 5   0  0.2298958E-03  0.1098258E+04  0.7818609E-02  0.9206891E-01
       -1   -1    0    0    0  501  0.00000000000E+00  0.00000000000E+00  0.27530593278E+03  0.27530593283E+03  0.50400001928E-02 0.  1.
        1   -1    0    0  501    0  0.00000000000E+00  0.00000000000E+00 -0.10953011763E+04  0.10953011763E+04  0.50400001928E-02 0. -1.
    10030    2    1    2    0    0  0.00000000000E+00  0.00000000000E+00 -0.81999524356E+03  0.13706071092E+04  0.10982584615E+04 0.  0.
        1    1    3    3  502    0 -0.35929804943E+03  0.22768987667E+03 -0.84340004732E+03  0.94459589673E+03  0.50400001928E-02 0. -1.
       -1    1    3    3    0  502  0.35929804943E+03 -0.22768987667E+03  0.23404803763E+02  0.42601121245E+03  0.50400001928E-02 0.  1.
</event>
<event>
 5   0  0.3748901E-03  0.1101258E+04  0.7818609E-02  0.9203967E-01
        2   -1    0    0  501    0  0.00000000000E+00  0.00000000000E+00  0.47566276519E+03  0.47566276520E+03  0.25500000920E-02 0.  1.
       -2   -1    0    0    0  501  0.00000000000E+00  0.00000000000E+00 -0.63740972266E+03  0.63740972266E+03  0.25500000920E-02 0. -1.
    10030    2    1    2    0    0  0.00000000000E+00  0.00000000000E+00 -0.16174695746E+03  0.11130724879E+04  0.11012575925E+04 0.  0.
        5    1    3    3  502    0  0.48829893652E+03 -0.16119688172E+03  0.11808785240E+03  0.52762402994E+03  0.46999998093E+01 0. -1.
       -5    1    3    3    0  502 -0.48829893652E+03  0.16119688172E+03 -0.27983480986E+03  0.58544845793E+03  0.46999998093E+01 0.  1.
</event>
<event>
 5   0  0.2257667E-03  0.1091800E+04  0.7818609E-02  0.9213221E-01
       -1   -1    0    0    0  501  0.00000000000E+00  0.00000000000E+00  0.10435088328E+04  0.10435088328E+04  0.50400001928E-02 0. -1.
        1   -1    0    0  501    0  0.00000000000E+00  0.00000000000E+00 -0.28558161714E+03  0.28558161719E+03  0.50400001928E-02 0.  1.
    10030    2    1    2    0    0  0.00000000000E+00  0.00000000000E+00  0.75792721562E+03  0.13290904500E+04  0.10918002381E+04 0.  0.
        4    1    3    3  502    0 -0.14884307953E+03 -0.32219016039E+03 -0.12596715629E+03  0.37660337112E+03  0.12699999809E+01 0.  1.
       -4    1    3    3    0  502  0.14884307953E+03  0.32219016039E+03  0.88389437192E+03  0.95248707885E+03  0.12699999809E+01 0. -1.
</event>
<event>
 5   0  0.3748901E-03  0.1098700E+04  0.7818609E-02  0.9206460E-01
        2   -1    0    0  501    0  0.00000000000E+00  0.00000000000E+00  0.65439427481E+03  0.65439427482E+03  0.25500000920E-02 0. -1.
       -2   -1    0    0    0  501  0.00000000000E+00  0.00000000000E+00 -0.46116765937E+03  0.46116765937E+03  0.25500000920E-02 0.  1.
    10030    2    1    2    0    0  0.00000000000E+00  0.00000000000E+00  0.19322661545E+03  0.11155619342E+04  0.10987000974E+04 0.  0.
        5    1    3    3  502    0 -0.33899309815E+03 -0.94254853559E+02  0.52494429092E+03  0.63197222769E+03  0.46999998093E+01 0. -1.
       -5    1    3    3    0  502  0.33899309815E+03  0.94254853559E+02 -0.33171767547E+03  0.48358970650E+03  0.46999998093E+01 0.  1.
</event>
<event>
 5   0  0.3962999E-03  0.1149522E+04  0.7818609E-02  0.9158225E-01
       -2   -1    0    0    0  501  0.00000000000E+00  0.00000000000E+00  0.62914535603E+03  0.62914535603E+03  0.25500000920E-02 0. -1.
        2   -1    0    0  501    0  0.00000000000E+00  0.00000000000E+00 -0.52507745692E+03  0.52507745693E+03  0.25500000920E-02 0.  1.
    10030    2    1    2    0    0  0.00000000000E+00  0.00000000000E+00  0.10406789911E+03  0.11542228130E+04  0.11495217155E+04 0.  0.
        3    1    3    3  502    0  0.76898213843E+02  0.11248619632E+02 -0.51977737950E+03  0.52555532647E+03  0.10100000352E+00 0.  1.
       -3    1    3    3    0  502 -0.76898213843E+02 -0.11248619632E+02  0.62384527860E+03  0.62866748649E+03  0.10100000352E+00 0. -1.
</event>
<event>
 5   0  0.3962999E-03  0.1033481E+04  0.7818609E-02  0.9272567E-01
        2   -1    0    0  501    0  0.00000000000E+00  0.00000000000E+00  0.12870464226E+04  0.12870464226E+04  0.25500000920E-02 0.  1.
       -2   -1    0    0    0  501  0.00000000000E+00  0.00000000000E+00 -0.20746775916E+03  0.20746775918E+03  0.25500000920E-02 0. -1.
    10030    2    1    2    0    0  0.00000000000E+00  0.00000000000E+00  0.10795786635E+04  0.14945141818E+04  0.10334807928E+04 0.  0.
        3    1    3    3  502    0 -0.40760970733E+03 -0.31759861643E+03  0.53622582879E+03  0.74468295558E+03  0.10100000352E+00 0. -1.
       -3    1    3    3    0  502  0.40760970733E+03  0.31759861643E+03  0.54335283468E+03  0.74983122623E+03  0.10100000352E+00 0.  1.
</event>
<event>
 5   0  0.2300702E-03  0.1100375E+04  0.7818609E-02  0.9204826E-01
        1   -1    0    0  501    0  0.00000000000E+00  0.00000000000E+00  0.57190077676E+03  0.57190077679E+03  0.50400001928E-02 0. -1.
       -1   -1    0    0    0  501  0.00000000000E+00  0.00000000000E+00 -0.52929897317E+03  0.52929897320E+03  0.50400001928E-02 0.  1.
    10030    2    1    2    0    0  0.00000000000E+00  0.00000000000E+00  0.42601803592E+02  0.11011997500E+04  0.11003753794E+04 0.  0.
        5    1    3    3  502    0  0.41135199818E+03  0.14502788717E+03 -0.31427232071E+03  0.53761764854E+03  0.46999998093E+01 0.  1.
       -5    1    3    3    0  502 -0.41135199818E+03 -0.14502788717E+03  0.35687412431E+03  0.56358210144E+03  0.46999998093E+01 0. -1.
</event>
<event>
 5   0  0.3748901E-03  0.1095797E+04  0.7818609E-02  0.9209298E-01
       -2   -1    0    0    0  501  0.00000000000E+00  0.00000000000E+00  0.71912816594E+03  0.71912816594E+03  0.25500000920E-02 0. -1.
        2   -1    0    0  501    0  0.00000000000E+00  0.00000000000E+00 -0.41743999878E+03  0.41743999878E+03  0.25500000920E-02 0.  1.
    10030    2    1    2    0    0  0.00000000000E+00  0.00000000000E+00  0.30168816716E+03  0.11365681647E+04  0.10957971723E+04 0.  0.
        5    1    3    3  502    0  0.15796568892E+03  0.50103720086E+03 -0.10438506709E+02  0.52547358443E+03  0.46999998093E+01 0.  1.
       -5    1    3    3    0  502 -0.15796568892E+03 -0.50103720086E+03  0.31212667387E+03  0.61109458029E+03  0.46999998093E+01 0. -1.
</event>
<event>
 5   0  0.3962999E-03  0.1101656E+04  0.7818609E-02  0.9203579E-01
       -2   -1    0    0    0  501  0.00000000000E+00  0.00000000000E+00  0.32920064504E+03  0.32920064505E+03  0.25500000920E-02 0. -1.
        2   -1    0    0  501    0  0.00000000000E+00  0.00000000000E+00 -0.92166208404E+03  0.92166208405E+03  0.25500000920E-02 0.  1.
    10030    2    1    2    0    0  0.00000000000E+00  0.00000000000E+00 -0.59246143900E+03  0.12508627291E+04  0.11016564847E+04 0.  0.
        3    1    3    3  502    0 -0.14290352696E+03  0.39046071721E+03  0.11399215962E+03  0.43113247658E+03  0.10100000352E+00 0. -1.
       -3    1    3    3    0  502  0.14290352696E+03 -0.39046071721E+03 -0.70645359862E+03  0.81973025252E+03  0.10100000352E+00 0.  1.
</event>
<event>
 5   0  0.2255788E-03  0.1103552E+04  0.7818609E-02  0.9201737E-01
        1   -1    0    0  501    0  0.00000000000E+00  0.00000000000E+00  0.11529491851E+04  0.11529491851E+04  0.50400001928E-02 0. -1.
       -1   -1    0    0    0  501  0.00000000000E+00  0.00000000000E+00 -0.26406778936E+03  0.26406778941E+03  0.50400001928E-02 0.  1.
    10030    2    1    2    0    0  0.00000000000E+00  0.00000000000E+00  0.88888139569E+03  0.14170169745E+04  0.11035519790E+04 0.  0.
        3    1    3    3  502    0  0.34870431046E+02 -0.26580821502E+03  0.10637031815E+04  0.10969660080E+04  0.10100000352E+00 0. -1.
       -3    1    3    3    0  502 -0.34870431046E+02  0.26580821502E+03 -0.17482178583E+03  0.32005096647E+03  0.10100000352E+00 0.  1.
</event>
<event>
 5   0  0.2255788E-03  0.9975062E+03  0.7818609E-02  0.9311284E-01
        1   -1    0    0  501    0  0.00000000000E+00  0.00000000000E+00  0.58814368762E+03  0.58814368764E+03  0.50400001928E-02 0.  1.
       -1   -1    0    0    0  501  0.00000000000E+00  0.00000000000E+00 -0.42294876815E+03  0.42294876818E+03  0.50400001928E-02 0. -1.
    10030    2    1    2    0    0  0.00000000000E+00  0.00000000000E+00  0.16519491946E+03  0.10110924558E+04  0.99750618685E+03 0.  0.
        3    1    3    3  502    0  0.34583990782E+03 -0.14365717813E+03  0.41649573725E+03  0.56009939834E+03  0.10100000352E+00 0.  1.
       -3    1    3    3    0  502 -0.34583990782E+03  0.14365717813E+03 -0.25130081779E+03  0.45099305748E+03  0.10100000352E+00 0. -1.
</event>
<event>
 5   0  0.2257667E-03  0.1124286E+04  0.7818609E-02  0.9181839E-01
        1   -1    0    0  501    0  0.00000000000E+00  0.00000000000E+00  0.10487016058E+04  0.10487016058E+04  0.50400001928E-02 0.  1.
       -1   -1    0    0    0  501  0.00000000000E+00  0.00000000000E+00 -0.30132934315E+03  0.30132934319E+03  0.50400001928E-02 0. -1.
    10030    2    1    2    0    0  0.00000000000E+00  0.00000000000E+00  0.74737226260E+03  0.13500309490E+04  0.11242856684E+04 0.  0.
        4    1    3    3  502    0  0.21217746203E+03  0.39979794248E+02  0.99692422657E+03  0.10200378355E+04  0.12699999809E+01 0.  1.
       -4    1    3    3    0  502 -0.21217746203E+03 -0.39979794248E+02 -0.24955196397E+03  0.32999311350E+03  0.12699999809E+01 0. -1.
</event>
<event>
 5   0  0.1508625E-03  0.1081165E+04  0.7818609E-02  0.9223747E-01
       -3   -1    0    0    0  501  0.00000000000E+00  0.00000000000E+00  0.42921434701E+03  0.42921435889E+03  0.10100000352E+00 0.  1.
        3   -1    0    0  501    0  0.00000000000E+00  0.00000000000E+00 -0.68084719939E+03  0.68084720688E+03  0.10100000352E+00 0. -1.
    10030    2    1    2    0    0  0.00000000000E+00  0.00000000000E+00 -0.25163285238E+03  0.11100615658E+04  0.10811649215E+04 0.  0.
        5    1    3    3  502    0  0.14425908284E+03  0.65358019946E+02 -0.65647153422E+03  0.67532164114E+03  0.46999998093E+01 0. -1.
       -5    1    3    3    0  502 -0.14425908284E+03 -0.65358019946E+02  0.40483868184E+03  0.43473992463E+03  0.46999998093E+01 0.  1.
</event>
<event>
 5   0  0.3992414E-03  0.1130278E+04  0.7818609E-02  0.9176174E-01
        2   -1    0    0  501    0  0.00000000000E+00  0.00000000000E+00  0.18317069949E+04  0.18317069949E+04  0.25500000920E-02 0. -1.
       -2   -1    0    0    0  501  0.00000000000E+00  0.00000000000E+00 -0.17436295858E+03  0.17436295859E+03  0.25500000920E-02 0.  1.
    10030    2    1    2    0    0  0.00000000000E+00  0.00000000000E+00  0.16573440363E+04  0.20060699535E+04  0.11302775781E+04 0.  0.
        1    1    3    3  502    0  0.22549291383E+03 -0.38161496578E+03  0.14508940845E+04  0.15170928386E+04  0.50400001928E-02 0. -1.
       -1    1    3    3    0  502 -0.22549291383E+03  0.38161496578E+03  0.20644995179E+03  0.48897711492E+03  0.50400001928E-02 0.  1.
</event>
<event>
 5   0  0.3748901E-03  0.1106658E+04  0.7818609E-02  0.9198727E-01
       -2   -1    0    0    0  501  0.00000000000E+00  0.00000000000E+00  0.52707996027E+03  0.52707996027E+03  0.25500000920E-02 0.  1.
        2   -1    0    0  501    0  0.00000000000E+00  0.00000000000E+00 -0.58088506529E+03  0.58088506530E+03  0.25500000920E-02 0. -1.
    10030    2    1    2    0    0  0.00000000000E+00  0.00000000000E+00 -0.53805105029E+02  0.11079650256E+04  0.11066578101E+04 0.  0.
        5    1    3    3  502    0  0.23896307339E+03 -0.33949132771E+03 -0.39311197637E+03  0.57176641034E+03  0.46999998093E+01 0. -1.
       -5    1    3    3    0  502 -0.23896307339E+03  0.33949132771E+03  0.33930687135E+03  0.53619861523E+03  0.46999998093E+01 0.  1.
</event>
<event>
 5   0  0.3744875E-03  0.1125241E+04  0.7818609E-02  0.9180934E-01
       -2   -1    0    0    0  501  0.00000000000E+00  0.00000000000E+00  0.58709859695E+03  0.58709859696E+03  0.25500000920E-02 0.  1.
        2   -1    0    0  501    0  0.00000000000E+00  0.00000000000E+00 -0.53916256742E+03  0.53916256742E+03  0.25500000920E-02 0. -1.
    10030    2    1    2    0    0  0.00000000000E+00  0.00000000000E+00  0.47936029532E+02  0.11262611644E+04  0.11252405731E+04 0.  0.
        2    1    3    3  502    0 -0.73902768637E+02  0.21585977313E+03  0.53871505708E+03  0.58503929236E+03  0.25500000920E-02 0.  1.
       -2    1    3    3    0  502  0.73902768637E+02 -0.21585977313E+03 -0.49077902755E+03  0.54122187202E+03  0.25500000920E-02 0. -1.
</event>
<event>
 5   0  0.3962999E-03  0.1097742E+04  0.7818609E-02  0.9207395E-01
       -2   -1    0    0    0  501  0.00000000000E+00  0.00000000000E+00  0.13766626815E+03  0.13766626817E+03  0.25500000920E-02 0.  1.
        2   -1    0    0  501    0  0.00000000000E+00  0.00000000000E+00 -0.21883321506E+04  0.21883321506E+04  0.25500000920E-02 0. -1.
    10030    2    1    2    0    0  0.00000000000E+00  0.00000000000E+00 -0.20506658825E+04  0.23259984188E+04  0.10977422660E+04 0.  0.
        3    1    3    3  502    0  0.18601918450E+03 -0.20310180932E+03 -0.19347275103E+02  0.27609384130E+03  0.10100000352E+00 0.  1.
       -3    1    3    3    0  502 -0.18601918450E+03  0.20310180932E+03 -0.20313186074E+04  0.20499045775E+04  0.10100000352E+00 0. -1.
</event>
<event>
 5   0  0.2374100E-03  0.1098454E+04  0.7818609E-02  0.9206700E-01
        1   -1    0    0  501    0  0.00000000000E+00  0.00000000000E+00  0.60670511198E+03  0.60670511201E+03  0.50400001928E-02 0.  1.
       -1   -1    0    0    0  501  0.00000000000E+00  0.00000000000E+00 -0.49719396446E+03  0.49719396448E+03  0.50400001928E-02 0. -1.
    10030    2    1    2    0    0  0.00000000000E+00  0.00000000000E+00  0.10951114753E+03  0.11038990765E+04  0.10984536766E+04 0.  0.
        2    1    3    3  502    0  0.29801600781E+03 -0.19419436310E+03  0.47530965943E+03  0.59367016425E+03  0.25500000920E-02 0.  1.
       -2    1    3    3    0  502 -0.29801600781E+03  0.19419436310E+03 -0.36579851190E+03  0.51022891224E+03  0.25500000920E-02 0. -1.
</event>
<event>
 5   0  0.2298958E-03  0.1111813E+04  0.7818609E-02  0.9193754E-01
        1   -1    0    0  501    0  0.00000000000E+00  0.00000000000E+00  0.81867277432E+03  0.81867277434E+03  0.50400001928E-02 0. -1.
       -1   -1    0    0    0  501  0.00000000000E+00  0.00000000000E+00 -0.37747961551E+03  0.37747961555E+03  0.50400001928E-02 0.  1.
    10030    2    1    2    0    0  0.00000000000E+00  0.00000000000E+00  0.44119315881E+03  0.11961523899E+04  0.11118134450E+04 0.  0.
        1    1    3    3  502    0  0.24330633161E+03  0.58431260946E+02 -0.31346662375E+03  0.40109039815E+03  0.50400001928E-02 0.  1.
       -1    1    3    3    0  502 -0.24330633161E+03 -0.58431260946E+02  0.75465978256E+03  0.79506199173E+03  0.50400001928E-02 0. -1.
</event>
<event>
 5   0  0.3962999E-03  0.1083713E+04  0.7818609E-02  0.9221213E-01
        2   -1    0    0  501    0  0.00000000000E+00  0.00000000000E+00  0.11375682616E+04  0.11375682617E+04  0.25500000920E-02 0. -1.
       -2   -1    0    0    0  501  0.00000000000E+00  0.00000000000E+00 -0.25810199959E+03  0.25810199960E+03  0.25500000920E-02 0.  1.
    10030    2    1    2    0    0  0.00000000000E+00  0.00000000000E+00  0.87946626206E+03  0.13956702613E+04  0.10837133256E+04 0.  0.
        3    1    3    3  502    0  0.84799310093E+02  0.51274979593E+02 -0.24633283149E+03  0.26551821142E+03  0.10100000352E+00 0.  1.
       -3    1    3    3    0  502 -0.84799310093E+02 -0.51274979593E+02  0.11257990935E+04  0.11301520498E+04  0.10100000352E+00 0. -1.
</event>
<event>
 5   0  0.3748901E-03  0.1093649E+04  0.7818609E-02  0.9211405E-01
        2   -1    0    0  501    0  0.00000000000E+00  0.00000000000E+00  0.86624762982E+03  0.86624762982E+03  0.25500000920E-02 0.  1.
       -2   -1    0    0    0  501  0.00000000000E+00  0.00000000000E+00 -0.34518630657E+03  0.34518630658E+03  0.25500000920E-02 0. -1.
    10030    2    1    2    0    0  0.00000000000E+00  0.00000000000E+00  0.52106132325E+03  0.12114339364E+04  0.10936486089E+04 0.  0.
        5    1    3    3  502    0  0.27473093261E+03  0.41435386938E+03  0.51270815042E+03  0.71418341615E+03  0.46999998093E+01 0.  1.
       -5    1    3    3    0  502 -0.27473093261E+03 -0.41435386938E+03  0.83531728310E+01  0.49725052026E+03  0.46999998093E+01 0. -1.
</event>
<event>
 5   0  0.2255788E-03  0.1103247E+04  0.7818609E-02  0.9202033E-01
        1   -1    0    0  501    0  0.00000000000E+00  0.00000000000E+00  0.29536045378E+03  0.29536045383E+03  0.50400001928E-02 0. -1.
       -1   -1    0    0    0  501  0.00000000000E+00  0.00000000000E+00 -0.10302266993E+04  0.10302266993E+04  0.50400001928E-02 0.  1.
    10030    2    1    2    0    0  0.00000000000E+00  0.00000000000E+00 -0.73486624548E+03  0.13255871531E+04  0.11032465281E+04 0.  0.
        3    1    3    3  502    0 -0.78527333815E+02  0.18595118784E+03 -0.98425837165E+03  0.10047432203E+04  0.10100000352E+00 0.  1.
       -3    1    3    3    0  502  0.78527333815E+02 -0.18595118784E+03  0.24939212616E+03  0.32084393279E+03  0.10100000352E+00 0. -1.
</event>
<event>
 5   0  0.2374100E-03  0.9933498E+03  0.7818609E-02  0.9315869E-01
        1   -1    0    0  501    0  0.00000000000E+00  0.00000000000E+00  0.15611249144E+04  0.15611249144E+04  0.50400001928E-02 0. -1.
       -1   -1    0    0    0  501  0.00000000000E+00  0.00000000000E+00 -0.15801806413E+03  0.15801806421E+03  0.50400001928E-02 0.  1.
    10030    2    1    2    0    0  0.00000000000E+00  0.00000000000E+00  0.14031068502E+04  0.17191429786E+04  0.99334976098E+03 0.  0.
        2    1    3    3  502    0  0.23690648330E+03  0.38891986514E+03  0.10446531828E+04  0.11395980062E+04  0.25500000920E-02 0. -1.
       -2    1    3    3    0  502 -0.23690648330E+03 -0.38891986514E+03  0.35845366740E+03  0.57954497238E+03  0.25500000920E-02 0.  1.
</event>
<event>
 5   0  0.2374100E-03  0.1095795E+04  0.7818609E-02  0.9209300E-01
       -1   -1    0    0    0  501  0.00000000000E+00  0.00000000000E+00  0.61128578722E+03  0.61128578724E+03  0.50400001928E-02 0.  1.
        1   -1    0    0  501    0  0.00000000000E+00  0.00000000000E+00 -0.49108277372E+03  0.49108277375E+03  0.50400001928E-02 0. -1.
    10030    2    1    2    0    0  0.00000000000E+00  0.00000000000E+00  0.12020301350E+03  0.11023685610E+04  0.10957954553E+04 0.  0.
        2    1    3    3  502    0  0.37462110334E+03  0.21652088661E+03 -0.27802422654E+03  0.51431482184E+03  0.25500000920E-02 0. -1.
       -2    1    3    3    0  502 -0.37462110334E+03 -0.21652088661E+03  0.39822724004E+03  0.58805373915E+03  0.25500000920E-02 0.  1.
</event>
<event>
 5   0  0.3713158E-03  0.1123310E+04  0.7818609E-02  0.9182765E-01
       -2   -1    0    0    0  501  0.00000000000E+00  0.00000000000E+00  0.39437265059E+03  0.39437265060E+03  0.25500000920E-02 0.  1.
        2   -1    0    0  501    0  0.00000000000E+00  0.00000000000E+00 -0.79989476053E+03  0.79989476053E+03  0.25500000920E-02 0. -1.
    10030    2    1    2    0    0  0.00000000000E+00  0.00000000000E+00 -0.40552210994E+03  0.11942674111E+04  0.11233104948E+04 0.  0.
        4    1    3    3  502    0 -0.31204110434E+03 -0.12845919525E+03 -0.68010272812E+03  0.75921851224E+03  0.12699999809E+01 0. -1.
       -4    1    3    3    0  502  0.31204110434E+03  0.12845919525E+03  0.27458061818E+03  0.43504889888E+03  0.12699999809E+01 0.  1.
</event>
<event>
 5   0  0.2300702E-03  0.1098577E+04  0.7818609E-02  0.9206580E-01
        1   -1    0    0  501    0  0.00000000000E+00  0.00000000000E+00  0.13252139140E+04  0.13252139140E+04  0.50400001928E-02 0.  1.
       -1   -1    0    0    0  501  0.00000000000E+00  0.00000000000E+00 -0.22767481823E+03  0.22767481829E+03  0.50400001928E-02 0. -1.
    10030    2    1    2    0    0  0.00000000000E+00  0.00000000000E+00  0.10975390958E+04  0.15528887323E+04  0.10985769651E+04 0.  0.
        5    1    3    3  502    0 -0.95025943080E+01  0.23812319380E+03 -0.15076105504E+03  0.28203535317E+03  0.46999998093E+01 0. -1.
       -5    1    3    3    0  502  0.95025943080E+01 -0.23812319380E+03  0.12483001508E+04  0.12708533791E+04  0.46999998093E+01 0.  1.
</event>
<event>
 5   0  0.3748901E-03  0.1098407E+04  0.7818609E-02  0.9206746E-01
        2   -1    0    0  501    0  0.00000000000E+00  0.00000000000E+00  0.98128816454E+03  0.98128816454E+03  0.25500000920E-02 0.  1.
       -2   -1    0    0    0  501  0.00000000000E+00  0.00000000000E+00 -0.30737614212E+03  0.30737614213E+03  0.25500000920E-02 0. -1.
    10030    2    1    2    0    0  0.00000000000E+00  0.00000000000E+00  0.67391202242E+03  0.12886643067E+04  0.10984071564E+04 0.  0.
        5    1    3    3  502    0 -0.81454013516E+02  0.12199379152E+03 -0.28394384086E+03  0.31963015542E+03  0.46999998093E+01 0. -1.
       -5    1    3    3    0  502  0.81454013516E+02 -0.12199379152E+03  0.95785586328E+03  0.96903415126E+03  0.46999998093E+01 0.  1.
</event>
<event>
 5   0  0.2374100E-03  0.1104276E+04  0.7818609E-02  0.9201034E-01
        1   -1    0    0  501    0  0.00000000000E+00  0.00000000000E+00  0.57315367444E+03  0.57315367446E+03  0.50400001928E-02 0. -1.
       -1   -1    0    0    0  501  0.00000000000E+00  0.00000000000E+00 -0.53189299423E+03  0.53189299426E+03  0.50400001928E-02 0.  1.
    10030    2    1    2    0    0  0.00000000000E+00  0.00000000000E+00  0.41260680207E+02  0.11050466687E+04  0.11042760961E+04 0.  0.
        2    1    3    3  502    0 -0.25390127853E+03  0.48181269558E+03  0.11150720733E+03  0.55591653165E+03  0.25500000920E-02 0. -1.
       -2    1    3    3    0  502  0.25390127853E+03 -0.48181269558E+03 -0.70246527126E+02  0.54913013707E+03  0.25500000920E-02 0.  1.
</event>
<event>
 5   0  0.3992414E-03  0.1096447E+04  0.7818609E-02  0.9208662E-01
       -2   -1    0    0    0  501  0.00000000000E+00  0.00000000000E+00  0.20866805971E+03  0.20866805973E+03  0.25500000920E-02 0. -1.
        2   -1    0    0  501    0  0.00000000000E+00  0.00000000000E+00 -0.14403217083E+04  0.14403217083E+04  0.25500000920E-02 0.  1.
    10030    2    1    2    0    0  0.00000000000E+00  0.00000000000E+00 -0.12316536486E+04  0.16489897680E+04  0.10964472377E+04 0.  0.
        1    1    3    3  502    0  0.42350618907E+03 -0.31172926188E+03 -0.38275746415E+03  0.65041210111E+03  0.50400001928E-02 0. -1.
       -1    1    3    3    0  502 -0.42350618907E+03  0.31172926188E+03 -0.84889618443E+03  0.99857766691E+03  0.50400001928E-02 0.  1.
</event>
<event>
 5   0  0.2300702E-03  0.1101287E+04  0.7818609E-02  0.9203938E-01
        1   -1    0    0  501    0  0.00000000000E+00  0.00000000000E+00  0.11587146236E+04  0.11587146237E+04  0.50400001928E-02 0. -1.
       -1   -1    0    0    0  501  0.00000000000E+00  0.00000000000E+00 -0.26167653408E+03  0.26167653413E+03  0.50400001928E-02 0.  1.
    10030    2    1    2    0    0  0.00000000000E+00  0.00000000000E+00  0.89703808957E+03  0.14203911578E+04  0.11012872954E+04 0.  0.
        5    1    3    3  502    0 -0.37663468781E+03  0.18400785469E+03  0.90900641754E+03  0.10010131546E+04  0.46999998093E+01 0. -1.
       -5    1    3    3    0  502  0.37663468781E+03 -0.18400785469E+03 -0.11968327972E+02  0.41937800314E+03  0.46999998093E+01 0.  1.
</event>
<event>
 5   0  0.1508625E-03  0.1106167E+04  0.7818609E-02  0.9199202E-01
        4   -1    0    0  501    0  0.00000000000E+00  0.00000000000E+00  0.16859756232E+03  0.16860234553E+03  0.12699999809E+01 0. -1.
       -4   -1    0    0    0  501  0.00000000000E+00  0.00000000000E+00 -0.18143559396E+04  0.18143563841E+04  0.12699999809E+01 0.  1.
    10030    2    1    2    0    0  0.00000000000E+00  0.00000000000E+00 -0.16457583773E+04  0.19829587296E+04  0.11061666633E+04 0.  0.
        4    1    3    3  502    0 -0.27363253677E+03  0.21211593699E+03 -0.15960696668E+04  0.16331894960E+04  0.12699999809E+01 0. -1.
       -4    1    3    3    0  502  0.27363253677E+03 -0.21211593699E+03 -0.49688710517E+02  0.34976923358E+03  0.12699999809E+01 0.  1.
</event>
<event>
 5   0  0.3744875E-03  0.1073836E+04  0.7818609E-02  0.9231075E-01
       -2   -1    0    0    0  501  0.00000000000E+00  0.00000000000E+00  0.21287685751E+03  0.21287685752E+03  0.25500000920E-02 0. -1.
        2   -1    0    0  501    0  0.00000000000E+00  0.00000000000E+00 -0.13542147429E+04  0.13542147429E+04  0.25500000920E-02 0.  1.
    10030    2    1    2    0    0  0.00000000000E+00  0.00000000000E+00 -0.11413378854E+04  0.15670916004E+04  0.10738360748E+04 0.  0.
        2    1    3    3  502    0 -0.19097526337E+03 -0.25588823657E+03  0.59270103686E+02  0.32475111398E+03  0.25500000920E-02 0. -1.
       -2    1    3    3    0  502  0.19097526337E+03  0.25588823657E+03 -0.12006079891E+04  0.12423404864E+04  0.25500000920E-02 0.  1.
</event>
<event>
 5   0  0.3744875E-03  0.1105189E+04  0.7818609E-02  0.9200149E-01
        2   -1    0    0  501    0  0.00000000000E+00  0.00000000000E+00  0.19345737110E+04  0.19345737110E+04  0.25500000920E-02 0. -1.
       -2   -1    0    0    0  501  0.00000000000E+00  0.00000000000E+00 -0.15784394117E+03  0.15784394119E+03  0.25500000920E-02 0.  1.
    10030    2    1    2    0    0  0.00000000000E+00  0.00000000000E+00  0.17767297698E+04  0.20924176522E+04  0.11051891043E+04 0.  0.
        2    1    3    3  502    0  0.29660227340E+03 -0.57516629107E+02  0.17643555772E+04  0.17900367800E+04  0.25500000920E-02 0. -1.
       -2    1    3    3    0  502 -0.29660227340E+03  0.57516629107E+02  0.12374192679E+02  0.30238087218E+03  0.25500000920E-02 0.  1.
</event>
<event>
 5   0  0.3713158E-03  0.1109868E+04  0.7818609E-02  0.9195627E-01
        2   -1    0    0  501    0  0.00000000000E+00  0.00000000000E+00  0.60403951156E+03  0.60403951157E+03  0.25500000920E-02 0. -1.
       -2   -1    0    0    0  501  0.00000000000E+00  0.00000000000E+00 -0.50982025024E+03  0.50982025024E+03  0.25500000920E-02 0.  1.
    10030    2    1    2    0    0  0.00000000000E+00  0.00000000000E+00  0.94219261327E+02  0.11138597618E+04  0.11098676947E+04 0.  0.
        4    1    3    3  502    0  0.22730394077E+02 -0.20066952356E+03  0.56584888513E+03  0.60080903971E+03  0.12699999809E+01 0. -1.
       -4    1    3    3    0  502 -0.22730394077E+02  0.20066952356E+03 -0.47162962380E+03  0.51305072210E+03  0.12699999809E+01 0.  1.
</event>
<event>
 5   0  0.3744875E-03  0.1096913E+04  0.7818609E-02  0.9208205E-01
       -2   -1    0    0    0  501  0.00000000000E+00  0.00000000000E+00  0.56540040325E+03  0.56540040325E+03  0.25500000920E-02 0. -1.
        2   -1    0    0  501    0  0.00000000000E+00  0.00000000000E+00 -0.53202085155E+03  0.53202085155E+03  0.25500000920E-02 0.  1.
    10030    2    1    2    0    0  0.00000000000E+00  0.00000000000E+00  0.33379551701E+02  0.10974212548E+04  0.10969134952E+04 0.  0.
        2    1    3    3  502    0  0.31818551261E+03 -0.27700725688E+03  0.36732278191E+03  0.55937560451E+03  0.25500000920E-02 0. -1.
       -2    1    3    3    0  502 -0.31818551261E+03  0.27700725688E+03 -0.33394323021E+03  0.53804565030E+03  0.25500000920E-02 0.  1.
</event>
<event>
 5   0  0.3744875E-03  0.1081548E+04  0.7818609E-02  0.9223365E-01
        2   -1    0    0  501    0  0.00000000000E+00  0.00000000000E+00  0.56314115078E+03  0.56314115079E+03  0.25500000920E-02 0.  1.
       -2   -1    0    0    0  501  0.00000000000E+00  0.00000000000E+00 -0.51929555744E+03  0.51929555744E+03  0.25500000920E-02 0. -1.
    10030    2    1    2    0    0  0.00000000000E+00  0.00000000000E+00  0.43845593346E+02  0.10824367082E+04  0.10815483305E+04 0.  0.
        2    1    3    3  502    0 -0.32147436449E+03  0.11647075023E+03  0.44122455539E+03  0.55820275077E+03  0.25500000920E-02 0.  1.
       -2    1    3    3    0  502  0.32147436449E+03 -0.11647075023E+03 -0.39737896204E+03  0.52423395747E+03  0.25500000920E-02 0. -1.
</event>
<event>
 5   0  0.3962999E-03  0.1108045E+04  0.7818609E-02  0.9197386E-01
       -2   -1    0    0    0  501  0.00000000000E+00  0.00000000000E+00  0.11109937697E+04  0.11109937697E+04  0.25500000920E-02 0. -1.
        2   -1    0    0  501    0  0.00000000000E+00  0.00000000000E+00 -0.27627615771E+03  0.27627615772E+03  0.25500000920E-02 0.  1.
    10030    2    1    2    0    0  0.00000000000E+00  0.00000000000E+00  0.83471761197E+03  0.13872699274E+04  0.11080452878E+04 0.  0.
        3    1    3    3  502    0 -0.33692634507E+03 -0.44535162962E+02  0.96515362103E+03  0.10232420364E+04  0.10100000352E+00 0. -1.
       -3    1    3    3    0  502  0.33692634507E+03  0.44535162962E+02 -0.13043600906E+03  0.36402789097E+03  0.10100000352E+00 0.  1.
</event>
<event>
 5   0  0.2374100E-03  0.1100344E+04  0.7818609E-02  0.9204857E-01
        1   -1    0    0  501    0  0.00000000000E+00  0.00000000000E+00  0.15301127931E+04  0.15301127931E+04  0.50400001928E-02 0.  1.
       -1   -1    0    0    0  501  0.00000000000E+00  0.00000000000E+00 -0.19782141227E+03  0.19782141233E+03  0.50400001928E-02 0. -1.
    10030    2    1    2    0    0  0.00000000000E+00  0.00000000000E+00  0.13322913808E+04  0.17279342054E+04  0.11003437167E+04 0.  0.
        2    1    3    3  502    0 -0.16222693996E+03  0.26895604153E+03  0.13754788399E+04  0.14108851730E+04  0.25500000920E-02 0.  1.
       -2    1    3    3    0  502  0.16222693996E+03 -0.26895604153E+03 -0.43187459113E+02  0.31704903241E+03  0.25500000920E-02 0. -1.
</event>
<event>
 5   0  0.2298958E-03  0.1143859E+04  0.7818609E-02  0.9163468E-01
        1   -1    0    0  501    0  0.00000000000E+00  0.00000000000E+00  0.13070019998E+04  0.13070019998E+04  0.50400001928E-02 0. -1.
       -1   -1    0    0    0  501  0.00000000000E+00  0.00000000000E+00 -0.25026987524E+03  0.25026987529E+03  0.50400001928E-02 0.  1.
    10030    2    1    2    0    0  0.00000000000E+00  0.00000000000E+00  0.10567321246E+04  0.15572718751E+04  0.11438587806E+04 0.  0.
        1    1    3    3  502    0  0.28419032468E+02  0.56699209142E+03  0.43389143823E+03  0.71452743358E+03  0.50400001928E-02 0. -1.
       -1    1    3    3    0  502 -0.28419032468E+02 -0.56699209142E+03  0.62284068637E+03  0.84274444155E+03  0.50400001928E-02 0.  1.
</event>
<event>
 5   0  0.2255788E-03  0.1060692E+04  0.7818609E-02  0.9244374E-01
       -1   -1    0    0    0  501  0.00000000000E+00  0.00000000000E+00  0.14472592615E+03  0.14472592624E+03  0.50400001928E-02 0. -1.
        1   -1    0    0  501    0  0.00000000000E+00  0.00000000000E+00 -0.19434458659E+04  0.19434458659E+04  0.50400001928E-02 0.  1.
    10030    2    1    2    0    0  0.00000000000E+00  0.00000000000E+00 -0.17987199397E+04  0.20881717921E+04  0.10606922324E+04 0.  0.
        3    1    3    3  502    0 -0.30522656569E+03  0.97437493465E+02 -0.67348483673E+02  0.32740364993E+03  0.10100000352E+00 0. -1.
       -3    1    3    3    0  502  0.30522656569E+03 -0.97437493465E+02 -0.17313714560E+04  0.17607681422E+04  0.10100000352E+00 0.  1.
</event>
<event>
 5   0  0.1508625E-03  0.1108123E+04  0.7818609E-02  0.9197310E-01
        3   -1    0    0  501    0  0.00000000000E+00  0.00000000000E+00  0.44986794096E+03  0.44986795230E+03  0.10100000352E+00 0.  1.
       -3   -1    0    0    0  501  0.00000000000E+00  0.00000000000E+00 -0.68238744406E+03  0.68238745154E+03  0.10100000352E+00 0. -1.
    10030    2    1    2    0    0  0.00000000000E+00  0.00000000000E+00 -0.23251950310E+03  0.11322554038E+04  0.11081231792E+04 0.  0.
        5    1    3    3  502    0 -0.67388671013E+00 -0.40466648172E+03  0.27040812305E+03  0.48672174654E+03  0.46999998093E+01 0.  1.
       -5    1    3    3    0  502  0.67388671013E+00  0.40466648172E+03 -0.50292762615E+03  0.64553365729E+03  0.46999998093E+01 0. -1.
</event>
<event>
 5   0  0.2374100E-03  0.1051934E+04  0.7818609E-02  0.9253350E-01
       -1   -1    0    0    0  501  0.00000000000E+00  0.00000000000E+00  0.39465056657E+03  0.39465056661E+03  0.50400001928E-02 0. -1.
        1   -1    0    0  501    0  0.00000000000E+00  0.00000000000E+00 -0.70097757480E+03  0.70097757482E+03  0.50400001928E-02 0.  1.
    10030    2    1    2    0    0  0.00000000000E+00  0.00000000000E+00 -0.30632700823E+03  0.10956281414E+04  0.10519338327E+04 0.  0.
        2    1    3    3  502    0  0.13719083676E+03  0.33708300392E+03 -0.54866646158E+03  0.65839286394E+03  0.25500000920E-02 0.  1.
       -2    1    3    3    0  502 -0.13719083676E+03 -0.33708300392E+03  0.24233945335E+03  0.43723527749E+03  0.25500000920E-02 0. -1.
</event>
<event>
 5   0  0.2298958E-03  0.1088156E+04  0.7818609E-02  0.9216814E-01
        1   -1    0    0  501    0  0.00000000000E+00  0.00000000000E+00  0.14977443987E+04  0.14977443987E+04  0.50400001928E-02 0.  1.
       -1   -1    0    0    0  501  0.00000000000E+00  0.00000000000E+00 -0.19764431295E+03  0.19764431301E+03  0.50400001928E-02 0. -1.
    10030    2    1    2    0    0  0.00000000000E+00  0.00000000000E+00  0.13001000858E+04  0.16953887118E+04  0.10881556189E+04 0.  0.
        1    1    3    3  502    0  0.49977729149E+02  0.36709611204E+03  0.12708524372E+04  0.13237534687E+04  0.50400001928E-02 0.  1.
       -1    1    3    3    0  502 -0.49977729149E+02 -0.36709611204E+03  0.29247648622E+02  0.37163524303E+03  0.50400001928E-02 0. -1.
</event>
<event>
 5   0  0.3713158E-03  0.1130394E+04  0.7818609E-02  0.9176064E-01
       -2   -1    0    0    0  501  0.00000000000E+00  0.00000000000E+00  0.26494401968E+03  0.26494401969E+03  0.25500000920E-02 0.  1.
        2   -1    0    0  501    0  0.00000000000E+00  0.00000000000E+00 -0.12057179852E+04  0.12057179852E+04  0.25500000920E-02 0. -1.
    10030    2    1    2    0    0  0.00000000000E+00  0.00000000000E+00 -0.94077396550E+03  0.14706620049E+04  0.11303942137E+04 0.  0.
        4    1    3    3  502    0 -0.46677617925E+03  0.78350215673E+02 -0.68485609858E+02  0.47823702227E+03  0.12699999809E+01 0.  1.
       -4    1    3    3    0  502  0.46677617925E+03 -0.78350215673E+02 -0.87228835564E+03  0.99242498261E+03  0.12699999809E+01 0. -1.
</event>
<event>
 5   0  0.3713158E-03  0.1095112E+04  0.7818609E-02  0.9209969E-01
        2   -1    0    0  501    0  0.00000000000E+00  0.00000000000E+00  0.36001491624E+03  0.36001491625E+03  0.25500000920E-02 0. -1.
       -2   -1    0    0    0  501  0.00000000000E+00  0.00000000000E+00 -0.83279263246E+03  0.83279263246E+03  0.25500000920E-02 0.  1.
    10030    2    1    2    0    0  0.00000000000E+00  0.00000000000E+00 -0.47277771622E+03  0.11928075487E+04  0.10951123592E+04 0.  0.
        4    1    3    3  502    0  0.33227356835E+03 -0.40509474295E+03 -0.40966806939E+03  0.66508421645E+03  0.12699999809E+01 0.  1.
       -4    1    3    3    0  502 -0.33227356835E+03  0.40509474295E+03 -0.63109646828E+02  0.52772333226E+03  0.12699999809E+01 0. -1.
</event>
<event>
 5   0  0.3744875E-03  0.1096846E+04  0.7818609E-02  0.9208272E-01
       -2   -1    0    0    0  501  0.00000000000E+00  0.00000000000E+00  0.23710037194E+03  0.23710037195E+03  0.25500000920E-02 0.  1.
        2   -1    0    0  501    0  0.00000000000E+00  0.00000000000E+00 -0.12685247769E+04  0.12685247769E+04  0.25500000920E-02 0. -1.
    10030    2    1    2    0    0  0.00000000000E+00  0.00000000000E+00 -0.10314244050E+04  0.15056251488E+04  0.10968458350E+04 0.  0.
        2    1    3    3  502    0 -0.54107692944E+03 -0.69730045288E+02 -0.59264601265E+03  0.80551587141E+03  0.25500000920E-02 0. -1.
       -2    1    3    3    0  502  0.54107692944E+03  0.69730045288E+02 -0.43877839231E+03  0.70010927744E+03  0.25500000920E-02 0.  1.
</event>
<event>
 5   0  0.2300702E-03  0.1089356E+04  0.7818609E-02  0.9215629E-01
        1   -1    0    0  501    0  0.00000000000E+00  0.00000000000E+00  0.19989241423E+03  0.19989241430E+03  0.50400001928E-02 0. -1.
       -1   -1    0    0    0  501  0.00000000000E+00  0.00000000000E+00 -0.14841678378E+04  0.14841678378E+04  0.50400001928E-02 0.  1.
    10030    2    1    2    0    0  0.00000000000E+00  0.00000000000E+00 -0.12842754236E+04  0.16840602521E+04  0.10893555752E+04 0.  0.
        5    1    3    3  502    0 -0.43172271990E+03 -0.33189442650E+03 -0.62567634408E+03  0.82947657878E+03  0.46999998093E+01 0. -1.
       -5    1    3    3    0  502  0.43172271990E+03  0.33189442650E+03 -0.65859907950E+03  0.85458367333E+03  0.46999998093E+01 0.  1.
</event>
<event>
 5   0  0.2257667E-03  0.1099437E+04  0.7818609E-02  0.9205741E-01
        1   -1    0    0  501    0  0.00000000000E+00  0.00000000000E+00  0.54154518401E+03  0.54154518403E+03  0.50400001928E-02 0.  1.
       -1   -1    0    0    0  501  0.00000000000E+00  0.00000000000E+00 -0.55801542341E+03  0.55801542343E+03  0.50400001928E-02 0. -1.
    10030    2    1    2    0    0  0.00000000000E+00  0.00000000000E+00 -0.16470239395E+02  0.10995606075E+04  0.10994372473E+04 0.  0.
        4    1    3    3  502    0 -0.47333228546E+03 -0.26606984908E+03  0.77520260494E+02  0.54849578005E+03  0.12699999809E+01 0.  1.
       -4    1    3    3    0  502  0.47333228546E+03  0.26606984908E+03 -0.93990499889E+02  0.55106482742E+03  0.12699999809E+01 0. -1.
</event>
<event>
 5   0  0.2255788E-03  0.1088364E+04  0.7818609E-02  0.9216607E-01
       -1   -1    0    0    0  501  0.00000000000E+00  0.00000000000E+00  0.50828548780E+03  0.50828548782E+03  0.50400001928E-02 0.  1.
        1   -1    0    0  501    0  0.00000000000E+00  0.00000000000E+00 -0.58261408766E+03  0.58261408768E+03  0.50400001928E-02 0. -1.
    10030    2    1    2    0    0  0.00000000000E+00  0.00000000000E+00 -0.74328599861E+02  0.10908995755E+04  0.10883644349E+04 0.  0.
        3    1    3    3  502    0  0.25319814646E+03 -0.39734355011E+03  0.23576221842E+03  0.52685390008E+03  0.10100000352E+00 0.  1.
       -3    1    3    3    0  502 -0.25319814646E+03  0.39734355011E+03 -0.31009081829E+03  0.56404567543E+03  0.10100000352E+00 0. -1.
</event>
<event>
 5   0  0.1508625E-03  0.1122432E+04  0.7818609E-02  0.9183600E-01
       -3   -1    0    0    0  501  0.00000000000E+00  0.00000000000E+00  0.81689364538E+03  0.81689365162E+03  0.10100000352E+00 0.  1.
        3   -1    0    0  501    0  0.00000000000E+00  0.00000000000E+00 -0.38556210244E+03  0.38556211567E+03  0.10100000352E+00 0. -1.
    10030    2    1    2    0    0  0.00000000000E+00  0.00000000000E+00  0.43133154293E+03  0.12024557673E+04  0.11224317228E+04 0.  0.
        3    1    3    3  502    0 -0.34041812691E+03  0.44611847950E+03  0.20757525724E+03  0.59832574447E+03  0.10100000352E+00 0.  1.
       -3    1    3    3    0  502  0.34041812691E+03 -0.44611847950E+03  0.22375628570E+03  0.60413002282E+03  0.10100000352E+00 0. -1.
</event>
<event>
 5   0  0.2257667E-03  0.1096710E+04  0.7818609E-02  0.9208405E-01
       -1   -1    0    0    0  501  0.00000000000E+00  0.00000000000E+00  0.49527566223E+03  0.49527566226E+03  0.50400001928E-02 0. -1.
        1   -1    0    0  501    0  0.00000000000E+00  0.00000000000E+00 -0.60712250049E+03  0.60712250052E+03  0.50400001928E-02 0.  1.
    10030    2    1    2    0    0  0.00000000000E+00  0.00000000000E+00 -0.11184683826E+03  0.11023981628E+04  0.10967096216E+04 0.  0.
        4    1    3    3  502    0  0.11822635844E+01 -0.31634966024E+03  0.39429808429E+03  0.50552062021E+03  0.12699999809E+01 0. -1.
       -4    1    3    3    0  502 -0.11822635844E+01  0.31634966024E+03 -0.50614492256E+03  0.59687754256E+03  0.12699999809E+01 0.  1.
</event>
<event>
 5   0  0.2374100E-03  0.1098018E+04  0.7818609E-02  0.9207126E-01
       -1   -1    0    0    0  501  0.00000000000E+00  0.00000000000E+00  0.42337660630E+03  0.42337660633E+03  0.50400001928E-02 0. -1.
        1   -1    0    0  501    0  0.00000000000E+00  0.00000000000E+00 -0.71192098954E+03  0.71192098956E+03  0.50400001928E-02 0.  1.
    10030    2    1    2    0    0  0.00000000000E+00  0.00000000000E+00 -0.28854438324E+03  0.11352975959E+04  0.10980176547E+04 0.  0.
        2    1    3    3  502    0 -0.15004449855E+03  0.46450866938E+03 -0.40405773371E+03  0.63367523831E+03  0.25500000920E-02 0.  1.
       -2    1    3    3    0  502  0.15004449855E+03 -0.46450866938E+03  0.11551335047E+03  0.50162235758E+03  0.25500000920E-02 0. -1.
</event>
<event>
 5   0  0.3992414E-03  0.1104087E+04  0.7818609E-02  0.9201217E-01
       -2   -1    0    0    0  501  0.00000000000E+00  0.00000000000E+00  0.21703414158E+03  0.21703414159E+03  0.25500000920E-02 0. -1.
        2   -1    0    0  501    0  0.00000000000E+00  0.00000000000E+00 -0.14041671525E+04  0.14041671525E+04  0.25500000920E-02 0.  1.
    10030    2    1    2    0    0  0.00000000000E+00  0.00000000000E+00 -0.11871330109E+04  0.16212012941E+04  0.11040873382E+04 0.  0.
        1    1    3    3  502    0  0.40488589777E+03  0.37525492715E+03 -0.59625885620E+03  0.81257213476E+03  0.50400001928E-02 0. -1.
       -1    1    3    3    0  502 -0.40488589777E+03 -0.37525492715E+03 -0.59087415468E+03  0.80862915930E+03  0.50400001928E-02 0.  1.
</event>
<event>
 5   0  0.3744875E-03  0.1070948E+04  0.7818609E-02  0.9233980E-01
       -2   -1    0    0    0  501  0.00000000000E+00  0.00000000000E+00  0.24735605024E+03  0.24735605026E+03  0.25500000920E-02 0.  1.
        2   -1    0    0  501    0  0.00000000000E+00  0.00000000000E+00 -0.11591880620E+04  0.11591880620E+04  0.25500000920E-02 0. -1.
    10030    2    1    2    0    0  0.00000000000E+00  0.00000000000E+00 -0.91183201177E+03  0.14065441123E+04  0.10709475814E+04 0.  0.
        2    1    3    3  502    0 -0.44130672731E+03 -0.30198105365E+03 -0.49278380388E+03  0.72717264917E+03  0.25500000920E-02 0.  1.
       -2    1    3    3    0  502  0.44130672731E+03  0.30198105365E+03 -0.41904820789E+03  0.67937146310E+03  0.25500000920E-02 0. -1.
</event>
<event>
 5   0  0.3962999E-03  0.1092445E+04  0.7818609E-02  0.9212587E-01
        2   -1    0    0  501    0  0.00000000000E+00  0.00000000000E+00  0.10096952839E+04  0.10096952839E+04  0.25500000920E-02 0.  1.
       -2   -1    0    0    0  501  0.00000000000E+00  0.00000000000E+00 -0.29549393287E+03  0.29549393288E+03  0.25500000920E-02 0. -1.
    10030    2    1    2    0    0  0.00000000000E+00  0.00000000000E+00  0.71420135102E+03  0.13051892168E+04  0.10924446539E+04 0.  0.
        3    1    3    3  502    0  0.12666022359E+03  0.32010138014E+02 -0.27655339499E+03  0.30585822150E+03  0.10100000352E+00 0. -1.
       -3    1    3    3    0  502 -0.12666022359E+03 -0.32010138014E+02  0.99075474601E+03  0.99933099528E+03  0.10100000352E+00 0.  1.
</event>
<event>
 5   0  0.3748901E-03  0.1097176E+04  0.7818609E-02  0.9207948E-01
       -2   -1    0    0    0  501  0.00000000000E+00  0.00000000000E+00  0.46377378928E+03  0.46377378929E+03  0.25500000920E-02 0.  1.
        2   -1    0    0  501    0  0.00000000000E+00  0.00000000000E+00 -0.64891330312E+03  0.64891330312E+03  0.25500000920E-02 0. -1.
    10030    2    1    2    0    0  0.00000000000E+00  0.00000000000E+00 -0.18513951384E+03  0.11126870924E+04  0.10971763423E+04 0.  0.
        5    1    3    3  502    0 -0.12297780580E+03 -0.38184738416E+03  0.28688003085E+03  0.49320706362E+03  0.46999998093E+01 0.  1.
       -5    1    3    3    0  502  0.12297780580E+03  0.38184738416E+03 -0.47201954468E+03  0.61948002879E+03  0.46999998093E+01 0. -1.
</event>
<event>
 5   0  0.2300702E-03  0.1094377E+04  0.7818609E-02  0.9210690E-01
        1   -1    0    0  501    0  0.00000000000E+00  0.00000000000E+00  0.67930417076E+03  0.67930417078E+03  0.50400001928E-02 0. -1.
       -1   -1    0    0    0  501  0.00000000000E+00  0.00000000000E+00 -0.44076749873E+03  0.44076749876E+03  0.50400001928E-02 0.  1.
    10030    2    1    2    0    0  0.00000000000E+00  0.00000000000E+00  0.23853667203E+03  0.11200716695E+04  0.10943769008E+04 0.  0.
        5    1    3    3  502    0  0.83969791136E+02 -0.51994999179E+03  0.27105474474E+03  0.59236110982E+03  0.46999998093E+01 0. -1.
       -5    1    3    3    0  502 -0.83969791136E+02  0.51994999179E+03 -0.32518072707E+02  0.52771055972E+03  0.46999998093E+01 0.  1.
</event>
<event>
 5   0  0.2374100E-03  0.1104890E+04  0.7818609E-02  0.9200439E-01
        1   -1    0    0  501    0  0.00000000000E+00  0.00000000000E+00  0.43667478530E+03  0.43667478533E+03  0.50400001928E-02 0. -1.
       -1   -1    0    0    0  501  0.00000000000E+00  0.00000000000E+00 -0.69890767654E+03  0.69890767656E+03  0.50400001928E-02 0.  1.
    10030    2    1    2    0    0  0.00000000000E+00  0.00000000000E+00 -0.26223289124E+03  0.11355824619E+04  0.11048897857E+04 0.  0.
        2    1    3    3  502    0 -0.27613066115E+03  0.47818084277E+03 -0.14862791692E+03  0.57183504450E+03  0.25500000920E-02 0. -1.
       -2    1    3    3    0  502  0.27613066115E+03 -0.47818084277E+03 -0.11360497432E+03  0.56374741739E+03  0.25500000920E-02 0.  1.
</event>
<event>
 5   0  0.2300702E-03  0.1106798E+04  0.7818609E-02  0.9198591E-01
        1   -1    0    0  501    0  0.00000000000E+00  0.00000000000E+00  0.26393032663E+04  0.26393032663E+04  0.50400001928E-02 0.  1.
       -1   -1    0    0    0  501  0.00000000000E+00  0.00000000000E+00 -0.11603458306E+03  0.11603458317E+03  0.50400001928E-02 0. -1.
    10030    2    1    2    0    0  0.00000000000E+00  0.00000000000E+00  0.25232686832E+04  0.27553378495E+04  0.11067980019E+04 0.  0.
        5    1    3    3  502    0 -0.32131365732E+03 -0.25166696019E+03  0.33132710266E+03  0.52571709520E+03  0.46999998093E+01 0. -1.
       -5    1    3    3    0  502  0.32131365732E+03  0.25166696019E+03  0.21919415806E+04  0.22296207543E+04  0.46999998093E+01 0.  1.
</event>
<event>
 5   0  0.3744875E-03  0.1099626E+04  0.7818609E-02  0.9205556E-01
       -2   -1    0    0    0  501  0.00000000000E+00  0.00000000000E+00  0.21255136823E+03  0.21255136825E+03  0.25500000920E-02 0.  1.
        2   -1    0    0  501    0  0.00000000000E+00  0.00000000000E+00 -0.14222186351E+04  0.14222186351E+04  0.25500000920E-02 0. -1.
    10030    2    1    2    0    0  0.00000000000E+00  0.00000000000E+00 -0.12096672668E+04  0.16347700033E+04  0.10996263307E+04 0.  0.
        2    1    3    3  502    0 -0.47990558552E+03 -0.95512436089E+01 -0.20621498684E+03  0.52242245173E+03  0.25500000920E-02 0.  1.
       -2    1    3    3    0  502  0.47990558552E+03  0.95512436089E+01 -0.10034522800E+04  0.11123475516E+04  0.25500000920E-02 0. -1.
</event>
<event>
 5   0  0.3992414E-03  0.1153638E+04  0.7818609E-02  0.9154434E-01
       -2   -1    0    0    0  501  0.00000000000E+00  0.00000000000E+00  0.43115344270E+03  0.43115344271E+03  0.25500000920E-02 0. -1.
        2   -1    0    0  501    0  0.00000000000E+00  0.00000000000E+00 -0.77169787311E+03  0.77169787311E+03  0.25500000920E-02 0.  1.
    10030    2    1    2    0    0  0.00000000000E+00  0.00000000000E+00 -0.34054443041E+03  0.12028513158E+04  0.11536380623E+04 0.  0.
        1    1    3    3  502    0  0.33441934977E+03  0.45309398012E+03 -0.30045746618E+03  0.63828296651E+03  0.50400001928E-02 0. -1.
       -1    1    3    3    0  502 -0.33441934977E+03 -0.45309398012E+03 -0.40086964223E+02  0.56456834932E+03  0.50400001928E-02 0.  1.
</event>
<event>
 5   0  0.3992414E-03  0.1118139E+04  0.7818609E-02  0.9187691E-01
        2   -1    0    0  501    0  0.00000000000E+00  0.00000000000E+00  0.36669294179E+03  0.36669294180E+03  0.25500000920E-02 0. -1.
       -2   -1    0    0    0  501  0.00000000000E+00  0.00000000000E+00 -0.85237179978E+03  0.85237179978E+03  0.25500000920E-02 0.  1.
    10030    2    1    2    0    0  0.00000000000E+00  0.00000000000E+00 -0.48567885799E+03  0.12190647416E+04  0.11181390303E+04 0.  0.
        1    1    3    3  502    0  0.44328202343E+03  0.17781970927E+03 -0.55965380002E+03  0.73575211669E+03  0.50400001928E-02 0.  1.
       -1    1    3    3    0  502 -0.44328202343E+03 -0.17781970927E+03  0.73974942037E+02  0.48331262489E+03  0.50400001928E-02 0. -1.
</event>
<event>
 5   0  0.3962999E-03  0.1104156E+04  0.7818609E-02  0.9201150E-01
        2   -1    0    0  501    0  0.00000000000E+00  0.00000000000E+00  0.84547817725E+03  0.84547817725E+03  0.25500000920E-02 0.  1.
       -2   -1    0    0    0  501  0.00000000000E+00  0.00000000000E+00 -0.36049447368E+03  0.36049447369E+03  0.25500000920E-02 0. -1.
    10030    2    1    2    0    0  0.00000000000E+00  0.00000000000E+00  0.48498370356E+03  0.12059726509E+04  0.11041561674E+04 0.  0.
        3    1    3    3  502    0  0.35531566386E+03 -0.23579630794E+02 -0.21829346742E+03  0.41768082084E+03  0.10100000352E+00 0. -1.
       -3    1    3    3    0  502 -0.35531566386E+03  0.23579630794E+02  0.70327717099E+03  0.78829183010E+03  0.10100000352E+00 0.  1.
</event>
<event>
 5   0  0.2257667E-03  0.1085281E+04  0.7818609E-02  0.9219658E-01
        1   -1    0    0  501    0  0.00000000000E+00  0.00000000000E+00  0.43809370927E+03  0.43809370930E+03  0.50400001928E-02 0.  1.
       -1   -1    0    0    0  501  0.00000000000E+00  0.00000000000E+00 -0.67213576822E+03  0.67213576824E+03  0.50400001928E-02 0. -1.
    10030    2    1    2    0    0  0.00000000000E+00  0.00000000000E+00 -0.23404205895E+03  0.11102294775E+04  0.10852805202E+04 0.  0.
        4    1    3    3  502    0  0.10691936977E+03  0.20250307670E+03 -0.62028311531E+03  0.66120496349E+03  0.12699999809E+01 0. -1.
       -4    1    3    3    0  502 -0.10691936977E+03 -0.20250307670E+03  0.38624105636E+03  0.44902451405E+03  0.12699999809E+01 0.  1.
</event>
<event>
 5   0  0.3992414E-03  0.1097514E+04  0.7818609E-02  0.9207618E-01
       -2   -1    0    0    0  501  0.00000000000E+00  0.00000000000E+00  0.47536139841E+03  0.47536139842E+03  0.25500000920E-02 0. -1.
        2   -1    0    0  501    0  0.00000000000E+00  0.00000000000E+00 -0.63348520629E+03  0.63348520630E+03  0.25500000920E-02 0.  1.
    10030    2    1    2    0    0  0.00000000000E+00  0.00000000000E+00 -0.15812380788E+03  0.11088466047E+04  0.10975143070E+04 0.  0.
        1    1    3    3  502    0 -0.38343203747E+03 -0.14670808710E+03  0.28882840011E+03  0.50196138787E+03  0.50400001928E-02 0.  1.
       -1    1    3    3    0  502  0.38343203747E+03  0.14670808710E+03 -0.44695220799E+03  0.60688521685E+03  0.50400001928E-02 0. -1.
</event>
<event>
 5   0  0.2374100E-03  0.1094076E+04  0.7818609E-02  0.9210985E-01
       -1   -1    0    0    0  501  0.00000000000E+00  0.00000000000E+00  0.75681013967E+03  0.75681013968E+03  0.50400001928E-02 0.  1.
        1   -1    0    0  501    0  0.00000000000E+00  0.00000000000E+00 -0.39541059765E+03  0.39541059768E+03  0.50400001928E-02 0. -1.
    10030    2    1    2    0    0  0.00000000000E+00  0.00000000000E+00  0.36139954202E+03  0.11522207374E+04  0.10940763221E+04 0.  0.
        2    1    3    3  502    0 -0.17363286376E+03  0.23039608984E+03  0.67017990374E+03  0.72963815208E+03  0.25500000920E-02 0.  1.
       -2    1    3    3    0  502  0.17363286376E+03 -0.23039608984E+03 -0.30878036172E+03  0.42258258528E+03  0.25500000920E-02 0. -1.
</event>
<event>
 5   0  0.3748901E-03  0.1100946E+04  0.7818609E-02  0.9204270E-01
       -2   -1    0    0    0  501  0.00000000000E+00  0.00000000000E+00  0.36409361811E+03  0.36409361811E+03  0.25500000920E-02 0.  1.
        2   -1    0    0  501    0  0.00000000000E+00  0.00000000000E+00 -0.83225964920E+03  0.83225964920E+03  0.25500000920E-02 0. -1.
    10030    2    1    2    0    0  0.00000000000E+00  0.00000000000E+00 -0.46816603109E+03  0.11963532673E+04  0.11009458241E+04 0.  0.
        5    1    3    3  502    0 -0.41232141424E+03  0.18896225029E+03 -0.57301394419E+03  0.73080965436E+03  0.46999998093E+01 0. -1.
       -5    1    3    3    0  502  0.41232141424E+03 -0.18896225029E+03  0.10484791310E+03  0.46554361295E+03  0.46999998093E+01 0.  1.
</event>
<event>
 5   0  0.3962999E-03  0.1099660E+04  0.7818609E-02  0.9205524E-01
        2   -1    0    0  501    0  0.00000000000E+00  0.00000000000E+00  0.12347972514E+04  0.12347972514E+04  0.25500000920E-02 0. -1.
       -2   -1    0    0    0  501  0.00000000000E+00  0.00000000000E+00 -0.24482795968E+03  0.24482795970E+03  0.25500000920E-02 0.  1.
    10030    2    1    2    0    0  0.00000000000E+00  0.00000000000E+00  0.98996929168E+03  0.14796252111E+04  0.10996597504E+04 0.  0.
        3    1    3    3  502    0 -0.31017486931E+03  0.14425053129E+03  0.10741821325E+04  0.11273348790E+04  0.10100000352E+00 0. -1.
       -3    1    3    3    0  502  0.31017486931E+03 -0.14425053129E+03 -0.84212840826E+02  0.35229033210E+03  0.10100000352E+00 0.  1.
</event>
<event>
 5   0  0.2374100E-03  0.1107487E+04  0.7818609E-02  0.9197925E-01
        1   -1    0    0  501    0  0.00000000000E+00  0.00000000000E+00  0.22557482053E+04  0.22557482053E+04  0.50400001928E-02 0.  1.
       -1   -1    0    0    0  501  0.00000000000E+00  0.00000000000E+00 -0.13593352250E+03  0.13593352260E+03  0.50400001928E-02 0. -1.
    10030    2    1    2    0    0  0.00000000000E+00  0.00000000000E+00  0.21198146828E+04  0.23916817279E+04  0.11074868840E+04 0.  0.
        2    1    3    3  502    0 -0.54000622760E+03  0.32399459303E+02  0.13152045821E+04  0.14221179781E+04  0.25500000920E-02 0. -1.
       -2    1    3    3    0  502  0.54000622760E+03 -0.32399459303E+02  0.80461010069E+03  0.96956374981E+03  0.25500000920E-02 0.  1.
</event>
<event>
 5   0  0.2374100E-03  0.1105002E+04  0.7818609E-02  0.9200331E-01
       -1   -1    0    0    0  501  0.00000000000E+00  0.00000000000E+00  0.54071975440E+03  0.54071975443E+03  0.50400001928E-02 0.  1.
        1   -1    0    0  501    0  0.00000000000E+00  0.00000000000E+00 -0.56453859275E+03  0.56453859278E+03  0.50400001928E-02 0. -1.
    10030    2    1    2    0    0  0.00000000000E+00  0.00000000000E+00 -0.23818838352E+02  0.11052583472E+04  0.11050016638E+04 0.  0.
        2    1    3    3  502    0  0.18231744502E+03 -0.26496526277E+03  0.43742864638E+03  0.54294572649E+03  0.25500000920E-02 0.  1.
       -2    1    3    3    0  502 -0.18231744502E+03  0.26496526277E+03 -0.46124748474E+03  0.56231262071E+03  0.25500000920E-02 0. -1.
</event>
<event>
 5   0  0.2300702E-03  0.1106852E+04  0.7818609E-02  0.9198539E-01
       -1   -1    0    0    0  501  0.00000000000E+00  0.00000000000E+00  0.25231493450E+03  0.25231493455E+03  0.50400001928E-02 0.  1.
        1   -1    0    0  501    0  0.00000000000E+00  0.00000000000E+00 -0.12138816612E+04  0.12138816613E+04  0.50400001928E-02 0. -1.
    10030    2    1    2    0    0  0.00000000000E+00  0.00000000000E+00 -0.96156672674E+03  0.14661965958E+04  0.11068522429E+04 0.  0.
        5    1    3    3  502    0 -0.41575190510E+03  0.36522384117E+03 -0.48674888947E+03  0.73701063232E+03  0.46999998093E+01 0. -1.
       -5    1    3    3    0  502  0.41575190510E+03 -0.36522384117E+03 -0.47481783727E+03  0.72918596348E+03  0.46999998093E+01 0.  1.
</event>
<event>
 5   0  0.3744875E-03  0.1096295E+04  0.7818609E-02  0.9208810E-01
        2   -1    0    0  501    0  0.00000000000E+00  0.00000000000E+00  0.90611827290E+03  0.90611827290E+03  0.25500000920E-02 0.  1.
       -2   -1    0    0    0  501  0.00000000000E+00  0.00000000000E+00 -0.33159673310E+03  0.33159673311E+03  0.25500000920E-02 0. -1.
    10030    2    1    2    0    0  0.00000000000E+00  0.00000000000E+00  0.57452153980E+03  0.12377150060E+04  0.10962953235E+04 0.  0.
        2    1    3    3  502    0  0.28841634216E+03 -0.29566565861E+03 -0.11959170851E+03  0.43000505213E+03  0.25500000920E-02 0. -1.
       -2    1    3    3    0  502 -0.28841634216E+03  0.29566565861E+03  0.69411324831E+03  0.80770995388E+03  0.25500000920E-02 0.  1.
</event>
<event>
 5   0  0.3744875E-03  0.1088489E+04  0.7818609E-02  0.9216484E-01
       -2   -1    0    0    0  501  0.00000000000E+00  0.00000000000E+00  0.11237923193E+04  0.11237923193E+04  0.25500000920E-02 0.  1.
        2   -1    0    0  501    0  0.00000000000E+00  0.00000000000E+00 -0.26357390083E+03  0.26357390084E+03  0.25500000920E-02 0. -1.
    10030    2    1    2    0    0  0.00000000000E+00  0.00000000000E+00  0.86021841850E+03  0.13873662202E+04  0.10884894585E+04 0.  0.
        2    1    3    3  502    0  0.41018827444E+03 -0.65708782106E+02  0.87826527737E+03  0.97155646361E+03  0.25500000920E-02 0.  1.
       -2    1    3    3    0  502 -0.41018827444E+03  0.65708782106E+02 -0.18046858868E+02  0.41580975657E+03  0.25500000920E-02 0. -1.
</event>
<event>
 5   0  0.2255788E-03  0.1111207E+04  0.7818609E-02  0.9194337E-01
       -1   -1    0    0    0  501  0.00000000000E+00  0.00000000000E+00  0.38667660292E+03  0.38667660296E+03  0.50400001928E-02 0.  1.
        1   -1    0    0  501    0  0.00000000000E+00  0.00000000000E+00 -0.79832900779E+03  0.79832900781E+03  0.50400001928E-02 0. -1.
    10030    2    1    2    0    0  0.00000000000E+00  0.00000000000E+00 -0.41165240487E+03  0.11850056108E+04  0.11112068192E+04 0.  0.
        3    1    3    3  502    0  0.36560040812E+03  0.30534967002E+03  0.99162487603E+02  0.48655450727E+03  0.10100000352E+00 0.  1.
       -3    1    3    3    0  502 -0.36560040812E+03 -0.30534967002E+03 -0.51081489247E+03  0.69845110349E+03  0.10100000352E+00 0. -1.
</event>
<event>
 5   0  0.3713158E-03  0.1113897E+04  0.7818609E-02  0.9191751E-01
       -2   -1    0    0    0  501  0.00000000000E+00  0.00000000000E+00  0.38973216209E+03  0.38973216210E+03  0.25500000920E-02 0.  1.
        2   -1    0    0  501    0  0.00000000000E+00  0.00000000000E+00 -0.79591034289E+03  0.79591034289E+03  0.25500000920E-02 0. -1.
    10030    2    1    2    0    0  0.00000000000E+00  0.00000000000E+00 -0.40617818080E+03  0.11856425050E+04  0.11138974078E+04 0.  0.
        4    1    3    3  502    0 -0.44224717177E+03 -0.14745266304E+03  0.12127706033E+03  0.48169968553E+03  0.12699999809E+01 0.  1.
       -4    1    3    3    0  502  0.44224717177E+03  0.14745266304E+03 -0.52745524113E+03  0.70394281946E+03  0.12699999809E+01 0. -1.
</event>
<event>
 5   0  0.2298958E-03  0.1099038E+04  0.7818609E-02  0.9206130E-01
        1   -1    0    0  501    0  0.00000000000E+00  0.00000000000E+00  0.73824076470E+03  0.73824076472E+03  0.50400001928E-02 0. -1.
       -1   -1    0    0    0  501  0.00000000000E+00  0.00000000000E+00 -0.40904143600E+03  0.40904143603E+03  0.50400001928E-02 0.  1.
    10030    2    1    2    0    0  0.00000000000E+00  0.00000000000E+00  0.32919932870E+03  0.11472822007E+04  0.10990378747E+04 0.  0.
        1    1    3    3  502    0  0.50057641231E+03  0.11953375307E+03  0.36568465984E+03  0.63134010894E+03  0.50400001928E-02 0. -1.
       -1    1    3    3    0  502 -0.50057641231E+03 -0.11953375307E+03 -0.36485331145E+02  0.51594209181E+03  0.50400001928E-02 0.  1.
</event>
<event>
 5   0  0.3744875E-03  0.1107134E+04  0.7818609E-02  0.9198266E-01
       -2   -1    0    0    0  501  0.00000000000E+00  0.00000000000E+00  0.34215726379E+03  0.34215726380E+03  0.25500000920E-02 0.  1.
        2   -1    0    0  501    0  0.00000000000E+00  0.00000000000E+00 -0.89560103111E+03  0.89560103112E+03  0.25500000920E-02 0. -1.
    10030    2    1    2    0    0  0.00000000000E+00  0.00000000000E+00 -0.55344376733E+03  0.12377582949E+04  0.11071339544E+04 0.  0.
        2    1    3    3  502    0 -0.15712053398E+03  0.65348877430E+02  0.31219063013E+03  0.35555636336E+03  0.25500000920E-02 0.  1.
       -2    1    3    3    0  502  0.15712053398E+03 -0.65348877430E+02 -0.86563439745E+03  0.88220193155E+03  0.25500000920E-02 0. -1.
</event>
<event>
 5   0  0.2255788E-03  0.1104343E+04  0.7818609E-02  0.9200969E-01
       -1   -1    0    0    0  501  0.00000000000E+00  0.00000000000E+00  0.22602413483E+03  0.22602413488E+03  0.50400001928E-02 0.  1.
        1   -1    0    0  501    0  0.00000000000E+00  0.00000000000E+00 -0.13489428051E+04  0.13489428051E+04  0.50400001928E-02 0. -1.
    10030    2    1    2    0    0  0.00000000000E+00  0.00000000000E+00 -0.11229186702E+04  0.15749669399E+04  0.11043434801E+04 0.  0.
        3    1    3    3  502    0 -0.54027736037E+03  0.79646401494E+02 -0.67776279113E+03  0.87040541510E+03  0.10100000352E+00 0.  1.
       -3    1    3    3    0  502  0.54027736037E+03 -0.79646401494E+02 -0.44515587909E+03  0.70456152484E+03  0.10100000352E+00 0. -1.
</event>
<event>
 5   0  0.3992414E-03  0.1099480E+04  0.7818609E-02  0.9205699E-01
        2   -1    0    0  501    0  0.00000000000E+00  0.00000000000E+00  0.26903959716E+03  0.26903959717E+03  0.25500000920E-02 0. -1.
       -2   -1    0    0    0  501  0.00000000000E+00  0.00000000000E+00 -0.11233077122E+04  0.11233077122E+04  0.25500000920E-02 0.  1.
    10030    2    1    2    0    0  0.00000000000E+00  0.00000000000E+00 -0.85426811507E+03  0.13923473094E+04  0.10994803398E+04 0.  0.
        1    1    3    3  502    0  0.31169343993E+03 -0.31454866490E+03 -0.83966824246E+03  0.94928205530E+03  0.50400001928E-02 0.  1.
       -1    1    3    3    0  502 -0.31169343993E+03  0.31454866490E+03 -0.14599872602E+02  0.44306525410E+03  0.50400001928E-02 0. -1.
</event>
<event>
 5   0  0.3748901E-03  0.1090012E+04  0.7818609E-02  0.9214982E-01
       -2   -1    0    0    0  501  0.00000000000E+00  0.00000000000E+00  0.26154289058E+03  0.26154289059E+03  0.25500000920E-02 0. -1.
        2   -1    0    0  501    0  0.00000000000E+00  0.00000000000E+00 -0.11356885724E+04  0.11356885724E+04  0.25500000920E-02 0.  1.
    10030    2    1    2    0    0  0.00000000000E+00  0.00000000000E+00 -0.87414568179E+03  0.13972314630E+04  0.10900115082E+04 0.  0.
        5    1    3    3  502    0  0.41229429800E+03  0.35542139956E+03 -0.40320135715E+03  0.67742481785E+03  0.46999998093E+01 0. -1.
       -5    1    3    3    0  502 -0.41229429800E+03 -0.35542139956E+03 -0.47094432464E+03  0.71980664511E+03  0.46999998093E+01 0.  1.
</event>
<event>
 5   0  0.2298958E-03  0.1099122E+04  0.7818609E-02  0.9206048E-01
        1   -1    0    0  501    0  0.00000000000E+00  0.00000000000E+00  0.70540897449E+03  0.70540897451E+03  0.50400001928E-02 0. -1.
       -1   -1    0    0    0  501  0.00000000000E+00  0.00000000000E+00 -0.42814527718E+03  0.42814527721E+03  0.50400001928E-02 0.  1.
    10030    2    1    2    0    0  0.00000000000E+00  0.00000000000E+00  0.27726369731E+03  0.11335542517E+04  0.10991224153E+04 0.  0.
        1    1    3    3  502    0 -0.19159669129E+03  0.29710408706E+03 -0.29530721228E+03  0.46063703749E+03  0.50400001928E-02 0.  1.
       -1    1    3    3    0  502  0.19159669129E+03 -0.29710408706E+03  0.57257090959E+03  0.67291721422E+03  0.50400001928E-02 0. -1.
</event>
<event>
 5   0  0.2374100E-03  0.1092580E+04  0.7818609E-02  0.9212454E-01
        1   -1    0    0  501    0  0.00000000000E+00  0.00000000000E+00  0.10493786770E+04  0.10493786770E+04  0.50400001928E-02 0. -1.
       -1   -1    0    0    0  501  0.00000000000E+00  0.00000000000E+00 -0.28439012934E+03  0.28439012938E+03  0.50400001928E-02 0.  1.
    10030    2    1    2    0    0  0.00000000000E+00  0.00000000000E+00  0.76498854769E+03  0.13337688064E+04  0.10925803178E+04 0.  0.
        2    1    3    3  502    0 -0.39973445635E+03  0.21576071245E+03  0.12035750837E+02  0.45440640393E+03  0.25500000920E-02 0.  1.
       -2    1    3    3    0  502  0.39973445635E+03 -0.21576071245E+03  0.75295279685E+03  0.87936240250E+03  0.25500000920E-02 0. -1.
</event>
<event>
 5   0  0.2257667E-03  0.1117048E+04  0.7818609E-02  0.9188733E-01
        1   -1    0    0  501    0  0.00000000000E+00  0.00000000000E+00  0.70360510351E+03  0.70360510352E+03  0.50400001928E-02 0.  1.
       -1   -1    0    0    0  501  0.00000000000E+00  0.00000000000E+00 -0.44335844457E+03  0.44335844460E+03  0.50400001928E-02 0. -1.
    10030    2    1    2    0    0  0.00000000000E+00  0.00000000000E+00  0.26024665893E+03  0.11469635481E+04  0.11170483684E+04 0.  0.
        4    1    3    3  502    0 -0.54672706825E+03  0.10833055602E+03  0.93078673723E+02  0.56507632133E+03  0.12699999809E+01 0.  1.
       -4    1    3    3    0  502  0.54672706825E+03 -0.10833055602E+03  0.16716798521E+03  0.58188722679E+03  0.12699999809E+01 0. -1.
</event>
<event>
 5   0  0.3744875E-03  0.1089856E+04  0.7818609E-02  0.9215136E-01
       -2   -1    0    0    0  501  0.00000000000E+00  0.00000000000E+00  0.89997425203E+03  0.89997425204E+03  0.25500000920E-02 0. -1.
        2   -1    0    0  501    0  0.00000000000E+00  0.00000000000E+00 -0.32995002393E+03  0.32995002394E+03  0.25500000920E-02 0.  1.
    10030    2    1    2    0    0  0.00000000000E+00  0.00000000000E+00  0.57002422810E+03  0.12299242760E+04  0.10898560015E+04 0.  0.
        2    1    3    3  502    0  0.42042858772E+03 -0.25421224579E+03  0.55102335977E+03  0.73824847193E+03  0.25500000920E-02 0. -1.
       -2    1    3    3    0  502 -0.42042858772E+03  0.25421224579E+03  0.19000868325E+02  0.49167580405E+03  0.25500000920E-02 0.  1.
</event>
<event>
 5   0  0.3744875E-03  0.1116966E+04  0.7818609E-02  0.9188812E-01
       -2   -1    0    0    0  501  0.00000000000E+00  0.00000000000E+00  0.84408540963E+03  0.84408540963E+03  0.25500000920E-02 0.  1.
        2   -1    0    0  501    0  0.00000000000E+00  0.00000000000E+00 -0.36951610956E+03  0.36951610957E+03  0.25500000920E-02 0. -1.
    10030    2    1    2    0    0  0.00000000000E+00  0.00000000000E+00  0.47456930007E+03  0.12136015192E+04  0.11169658127E+04 0.  0.
        2    1    3    3  502    0  0.35896595267E+03 -0.33113624131E+03  0.53163911342E+03  0.72190575036E+03  0.25500000920E-02 0.  1.
       -2    1    3    3    0  502 -0.35896595267E+03  0.33113624131E+03 -0.57069813350E+02  0.49169576883E+03  0.25500000920E-02 0. -1.
</event>
<event>
 5   0  0.3713158E-03  0.1101612E+04  0.7818609E-02  0.9203622E-01
        2   -1    0    0  501    0  0.00000000000E+00  0.00000000000E+00  0.18477165100E+04  0.18477165100E+04  0.25500000920E-02 0.  1.
       -2   -1    0    0    0  501  0.00000000000E+00  0.00000000000E+00 -0.16419574694E+03  0.16419574696E+03  0.25500000920E-02 0. -1.
    10030    2    1    2    0    0  0.00000000000E+00  0.00000000000E+00  0.16835207631E+04  0.20119122570E+04  0.11016118963E+04 0.  0.
        4    1    3    3  502    0  0.36758121972E+03  0.22607178603E+03  0.21662759540E+03  0.48285974519E+03  0.12699999809E+01 0. -1.
       -4    1    3    3    0  502 -0.36758121972E+03 -0.22607178603E+03  0.14668931677E+04  0.15290525118E+04  0.12699999809E+01 0.  1.
</event>
<event>
 5   0  0.3748901E-03  0.1099575E+04  0.7818609E-02  0.9205606E-01
        2   -1    0    0  501    0  0.00000000000E+00  0.00000000000E+00  0.13782836463E+04  0.13782836463E+04  0.25500000920E-02 0.  1.
       -2   -1    0    0    0  501  0.00000000000E+00  0.00000000000E+00 -0.21930644722E+03  0.21930644723E+03  0.25500000920E-02 0. -1.
    10030    2    1    2    0    0  0.00000000000E+00  0.00000000000E+00  0.11589771991E+04  0.15975900935E+04  0.10995753539E+04 0.  0.
        5    1    3    3  502    0 -0.49769775359E+03  0.86140043453E+02  0.26409802430E+03  0.56999387493E+03  0.46999998093E+01 0.  1.
       -5    1    3    3    0  502  0.49769775359E+03 -0.86140043453E+02  0.89487917475E+03  0.10275962186E+04  0.46999998093E+01 0. -1.
</event>
<event>
 5   0  0.3744875E-03  0.1101900E+04  0.7818609E-02  0.9203342E-01
        2   -1    0    0  501    0  0.00000000000E+00  0.00000000000E+00  0.90082277880E+03  0.90082277881E+03  0.25500000920E-02 0.  1.
       -2   -1    0    0    0  501  0.00000000000E+00  0.00000000000E+00 -0.33696507457E+03  0.33696507458E+03  0.25500000920E-02 0. -1.
    10030    2    1    2    0    0  0.00000000000E+00  0.00000000000E+00  0.56385770423E+03  0.12377878534E+04  0.11018998409E+04 0.  0.
        2    1    3    3  502    0 -0.29896509532E+03  0.11798253507E+03  0.78460214634E+03  0.84788002385E+03  0.25500000920E-02 0.  1.
       -2    1    3    3    0  502  0.29896509532E+03 -0.11798253507E+03 -0.22074444211E+03  0.38990782953E+03  0.25500000920E-02 0. -1.
</event>
<event>
 5   0  0.3713158E-03  0.1103829E+04  0.7818609E-02  0.9201468E-01
       -2   -1    0    0    0  501  0.00000000000E+00  0.00000000000E+00  0.36972321221E+03  0.36972321222E+03  0.25500000920E-02 0.  1.
        2   -1    0    0  501    0  0.00000000000E+00  0.00000000000E+00 -0.82388545132E+03  0.82388545132E+03  0.25500000920E-02 0. -1.
    10030    2    1    2    0    0  0.00000000000E+00  0.00000000000E+00 -0.45416223911E+03  0.11936086635E+04  0.11038289280E+04 0.  0.
        4    1    3    3  502    0  0.31230505468E+03  0.11380957539E+03  0.24934584625E+03  0.41552620924E+03  0.12699999809E+01 0.  1.
       -4    1    3    3    0  502 -0.31230505468E+03 -0.11380957539E+03 -0.70350808536E+03  0.77808245430E+03  0.12699999809E+01 0. -1.
</event>
<event>
 5   0  0.3713158E-03  0.1112777E+04  0.7818609E-02  0.9192828E-01
       -2   -1    0    0    0  501  0.00000000000E+00  0.00000000000E+00  0.49211806202E+03  0.49211806203E+03  0.25500000920E-02 0.  1.
        2   -1    0    0  501    0  0.00000000000E+00  0.00000000000E+00 -0.62905212947E+03  0.62905212948E+03  0.25500000920E-02 0. -1.
    10030    2    1    2    0    0  0.00000000000E+00  0.00000000000E+00 -0.13693406745E+03  0.11211701915E+04  0.11127765542E+04 0.  0.
        4    1    3    3  502    0  0.69461456078E+01 -0.19439480019E+03  0.45674097914E+03  0.49643884035E+03  0.12699999809E+01 0.  1.
       -4    1    3    3    0  502 -0.69461456078E+01  0.19439480019E+03 -0.59367504659E+03  0.62473135116E+03  0.12699999809E+01 0. -1.
</event>
<event>
 5   0  0.3713158E-03  0.1068079E+04  0.7818609E-02  0.9236875E-01
        2   -1    0    0  501    0  0.00000000000E+00  0.00000000000E+00  0.94197128970E+03  0.94197128970E+03  0.25500000920E-02 0.  1.
       -2   -1    0    0    0  501  0.00000000000E+00  0.00000000000E+00 -0.30276741698E+03  0.30276741699E+03  0.25500000920E-02 0. -1.
    10030    2    1    2    0    0  0.00000000000E+00  0.00000000000E+00  0.63920387272E+03  0.12447387067E+04  0.10680790500E+04 0.  0.
        4    1    3    3  502    0 -0.20095829200E+03  0.14637540873E+03  0.87041389790E+03  0.90522481294E+03  0.12699999809E+01 0.  1.
       -4    1    3    3    0  502  0.20095829200E+03 -0.14637540873E+03 -0.23121002518E+03  0.33951389375E+03  0.12699999809E+01 0. -1.
</event>
<event>
 5   0  0.3748901E-03  0.1120377E+04  0.7818609E-02  0.9185556E-01
       -2   -1    0    0    0  501  0.00000000000E+00  0.00000000000E+00  0.31344314370E+03  0.31344314371E+03  0.25500000920E-02 0. -1.
        2   -1    0    0  501    0  0.00000000000E+00  0.00000000000E+00 -0.10011737226E+04  0.10011737226E+04  0.25500000920E-02 0.  1.
    10030    2    1    2    0    0  0.00000000000E+00  0.00000000000E+00 -0.68773057889E+03  0.13146168663E+04  0.11203767920E+04 0.  0.
        5    1    3    3  502    0 -0.44802236245E+03 -0.18872909317E+03 -0.67040444695E+03  0.82813460280E+03  0.46999998093E+01 0.  1.
       -5    1    3    3    0  502  0.44802236245E+03  0.18872909317E+03 -0.17326131937E+02  0.48648226351E+03  0.46999998093E+01 0. -1.
</event>
<event>
 5   0  0.2374100E-03  0.1120537E+04  0.7818609E-02  0.9185403E-01
        1   -1    0    0  501    0  0.00000000000E+00  0.00000000000E+00  0.10114016148E+04  0.10114016148E+04  0.50400001928E-02 0.  1.
       -1   -1    0    0    0  501  0.00000000000E+00  0.00000000000E+00 -0.31036237748E+03  0.31036237752E+03  0.50400001928E-02 0. -1.
    10030    2    1    2    0    0  0.00000000000E+00  0.00000000000E+00  0.70103923729E+03  0.13217639923E+04  0.11205373885E+04 0.  0.
        2    1    3    3  502    0  0.28307615915E+03 -0.22441523228E+03 -0.15464760473E+03  0.39295062033E+03  0.25500000920E-02 0. -1.
       -2    1    3    3    0  502 -0.28307615915E+03  0.22441523228E+03  0.85568684202E+03  0.92881337198E+03  0.25500000920E-02 0.  1.
</event>
<event>
 5   0  0.3748901E-03  0.1127717E+04  0.7818609E-02  0.9178590E-01
       -2   -1    0    0    0  501  0.00000000000E+00  0.00000000000E+00  0.38784548694E+03  0.38784548695E+03  0.25500000920E-02 0. -1.
        2   -1    0    0  501    0  0.00000000000E+00  0.00000000000E+00 -0.81975082960E+03  0.81975082961E+03  0.25500000920E-02 0.  1.
    10030    2    1    2    0    0  0.00000000000E+00  0.00000000000E+00 -0.43190534266E+03  0.12075963166E+04  0.11277174463E+04 0.  0.
        5    1    3    3  502    0  0.19411160766E+03 -0.49582547582E+03 -0.41454040181E+03  0.67482446119E+03  0.46999998093E+01 0.  1.
       -5    1    3    3    0  502 -0.19411160766E+03  0.49582547582E+03 -0.17364940857E+02  0.53277185536E+03  0.46999998093E+01 0. -1.
</event>
<event>
 5   0  0.3962999E-03  0.1100752E+04  0.7818609E-02  0.9204460E-01
        2   -1    0    0  501    0  0.00000000000E+00  0.00000000000E+00  0.18268208957E+04  0.18268208957E+04  0.25500000920E-02 0.  1.
       -2   -1    0    0    0  501  0.00000000000E+00  0.00000000000E+00 -0.16581457645E+03  0.16581457647E+03  0.25500000920E-02 0. -1.
    10030    2    1    2    0    0  0.00000000000E+00  0.00000000000E+00  0.16610063192E+04  0.19926354721E+04  0.11007516216E+04 0.  0.
        3    1    3    3  502    0 -0.27478825510E+03 -0.16863393320E+03  0.16379791769E+04  0.16694076144E+04  0.10100000352E+00 0.  1.
       -3    1    3    3    0  502  0.27478825510E+03  0.16863393320E+03  0.23027142273E+02  0.32322785779E+03  0.10100000352E+00 0. -1.
</event>
<event>
 5   0  0.3748901E-03  0.1088587E+04  0.7818609E-02  0.9216387E-01
        2   -1    0    0  501    0  0.00000000000E+00  0.00000000000E+00  0.14445424458E+04  0.14445424458E+04  0.25500000920E-02 0. -1.
       -2   -1    0    0    0  501  0.00000000000E+00  0.00000000000E+00 -0.20508616584E+03  0.20508616585E+03  0.25500000920E-02 0.  1.
    10030    2    1    2    0    0  0.00000000000E+00  0.00000000000E+00  0.12394562800E+04  0.16496286116E+04  0.10885874730E+04 0.  0.
        5    1    3    3  502    0  0.53156647631E+03  0.24249995520E+02  0.79305660443E+03  0.95504546952E+03  0.46999998093E+01 0. -1.
       -5    1    3    3    0  502 -0.53156647631E+03 -0.24249995520E+02  0.44639967552E+03  0.69458314212E+03  0.46999998093E+01 0.  1.
</event>
<event>
 5   0  0.2257667E-03  0.1138104E+04  0.7818609E-02  0.9168829E-01
        1   -1    0    0  501    0  0.00000000000E+00  0.00000000000E+00  0.53006758508E+03  0.53006758510E+03  0.50400001928E-02 0. -1.
       -1   -1    0    0    0  501  0.00000000000E+00  0.00000000000E+00 -0.61090342950E+03  0.61090342952E+03  0.50400001928E-02 0.  1.
    10030    2    1    2    0    0  0.00000000000E+00  0.00000000000E+00 -0.80835844423E+02  0.11409710146E+04  0.11381038716E+04 0.  0.
        4    1    3    3  502    0  0.42627741644E+03  0.37221069282E+03 -0.10027811863E+03  0.57472649982E+03  0.12699999809E+01 0. -1.
       -4    1    3    3    0  502 -0.42627741644E+03 -0.37221069282E+03  0.19442274211E+02  0.56624451480E+03  0.12699999809E+01 0.  1.
</event>
<event>
 5   0  0.2300702E-03  0.1080059E+04  0.7818609E-02  0.9224849E-01
        1   -1    0    0  501    0  0.00000000000E+00  0.00000000000E+00  0.66163288756E+03  0.66163288757E+03  0.50400001928E-02 0.  1.
       -1   -1    0    0    0  501  0.00000000000E+00  0.00000000000E+00 -0.44077602626E+03  0.44077602629E+03  0.50400001928E-02 0. -1.
    10030    2    1    2    0    0  0.00000000000E+00  0.00000000000E+00  0.22085686130E+03  0.11024089139E+04  0.10800591003E+04 0.  0.
        5    1    3    3  502    0 -0.34981766390E+03  0.41589965476E+02  0.52817470544E+03  0.63489584396E+03  0.46999998093E+01 0.  1.
       -5    1    3    3    0  502  0.34981766390E+03 -0.41589965476E+02 -0.30731784414E+03  0.46751306991E+03  0.46999998093E+01 0. -1.
</event>
<event>
 5   0  0.2300702E-03  0.1099512E+04  0.7818609E-02  0.9205668E-01
       -1   -1    0    0    0  501  0.00000000000E+00  0.00000000000E+00  0.19089798155E+03  0.19089798162E+03  0.50400001928E-02 0. -1.
        1   -1    0    0  501    0  0.00000000000E+00  0.00000000000E+00 -0.15832096911E+04  0.15832096911E+04  0.50400001928E-02 0.  1.
    10030    2    1    2    0    0  0.00000000000E+00  0.00000000000E+00 -0.13923117095E+04  0.17741076727E+04  0.10995117725E+04 0.  0.
        5    1    3    3  502    0 -0.15228910470E+03 -0.16655968207E+03  0.11267000807E+03  0.25229094280E+03  0.46999998093E+01 0. -1.
       -5    1    3    3    0  502  0.15228910470E+03  0.16655968207E+03 -0.15049817176E+04  0.15218167299E+04  0.46999998093E+01 0.  1.
</event>
<event>
 5   0  0.1508625E-03  0.1063924E+04  0.7818609E-02  0.9241085E-01
        3   -1    0    0  501    0  0.00000000000E+00  0.00000000000E+00  0.73643162260E+03  0.73643162953E+03  0.10100000352E+00 0.  1.
       -3   -1    0    0    0  501  0.00000000000E+00  0.00000000000E+00 -0.38426319835E+03  0.38426321162E+03  0.10100000352E+00 0. -1.
    10030    2    1    2    0    0  0.00000000000E+00  0.00000000000E+00  0.35216842425E+03  0.11206948412E+04  0.10639240236E+04 0.  0.
        3    1    3    3  502    0 -0.13411575331E+03  0.43727667772E+03 -0.11004532498E+03  0.47043374870E+03  0.10100000352E+00 0. -1.
       -3    1    3    3    0  502  0.13411575331E+03 -0.43727667772E+03  0.46221374923E+03  0.65026109245E+03  0.10100000352E+00 0.  1.
</event>
<event>
 5   0  0.3992414E-03  0.1112774E+04  0.7818609E-02  0.9192830E-01
       -2   -1    0    0    0  501  0.00000000000E+00  0.00000000000E+00  0.33564063137E+03  0.33564063138E+03  0.25500000920E-02 0. -1.
        2   -1    0    0  501    0  0.00000000000E+00  0.00000000000E+00 -0.92231505029E+03  0.92231505029E+03  0.25500000920E-02 0.  1.
    10030    2    1    2    0    0  0.00000000000E+00  0.00000000000E+00 -0.58667441892E+03  0.12579556817E+04  0.11127738419E+04 0.  0.
        1    1    3    3  502    0  0.41519451667E+02 -0.55265401862E+03 -0.34890380433E+03  0.65489250558E+03  0.50400001928E-02 0.  1.
       -1    1    3    3    0  502 -0.41519451667E+02  0.55265401862E+03 -0.23777061459E+03  0.60306317609E+03  0.50400001928E-02 0. -1.
</event>
<event>
 5   0  0.3992414E-03  0.1099143E+04  0.7818609E-02  0.9206028E-01
        2   -1    0    0  501    0  0.00000000000E+00  0.00000000000E+00  0.63530785436E+03  0.63530785437E+03  0.25500000920E-02 0. -1.
       -2   -1    0    0    0  501  0.00000000000E+00  0.00000000000E+00 -0.47540536904E+03  0.47540536905E+03  0.25500000920E-02 0.  1.
    10030    2    1    2    0    0  0.00000000000E+00  0.00000000000E+00  0.15990248532E+03  0.11107132234E+04  0.10991428751E+04 0.  0.
        1    1    3    3  502    0 -0.41931172355E+03 -0.34515800580E+03 -0.50315563707E+01  0.54312216587E+03  0.50400001928E-02 0.  1.
       -1    1    3    3    0  502  0.41931172355E+03  0.34515800580E+03  0.16493404169E+03  0.56759105755E+03  0.50400001928E-02 0. -1.
</event>
<event>
 5   0  0.2257667E-03  0.1102790E+04  0.7818609E-02  0.9202477E-01
       -1   -1    0    0    0  501  0.00000000000E+00  0.00000000000E+00  0.38036191609E+03  0.38036191612E+03  0.50400001928E-02 0. -1.
        1   -1    0    0  501    0  0.00000000000E+00  0.00000000000E+00 -0.79933502252E+03  0.79933502253E+03  0.50400001928E-02 0.  1.
    10030    2    1    2    0    0  0.00000000000E+00  0.00000000000E+00 -0.41897310643E+03  0.11796969387E+04  0.11027902807E+04 0.  0.
        4    1    3    3  502    0  0.31201377184E+03  0.43554581920E+03 -0.70082652559E+02  0.54033873221E+03  0.12699999809E+01 0.  1.
       -4    1    3    3    0  502 -0.31201377184E+03 -0.43554581920E+03 -0.34889045387E+03  0.63935820644E+03  0.12699999809E+01 0. -1.
</event>
<event>
 5   0  0.3744875E-03  0.1065493E+04  0.7818609E-02  0.9239493E-01
        2   -1    0    0  501    0  0.00000000000E+00  0.00000000000E+00  0.14797782386E+04  0.14797782386E+04  0.25500000920E-02 0.  1.
       -2   -1    0    0    0  501  0.00000000000E+00  0.00000000000E+00 -0.19179808084E+03  0.19179808085E+03  0.25500000920E-02 0. -1.
    10030    2    1    2    0    0  0.00000000000E+00  0.00000000000E+00  0.12879801578E+04  0.16715763195E+04  0.10654926114E+04 0.  0.
        2    1    3    3  502    0  0.46800648402E+03 -0.23296962551E+03  0.80485219588E+03  0.95973536598E+03  0.25500000920E-02 0.  1.
       -2    1    3    3    0  502 -0.46800648402E+03  0.23296962551E+03  0.48312796191E+03  0.71184095350E+03  0.25500000920E-02 0. -1.
</event>
<event>
 5   0  0.1508625E-03  0.1089498E+04  0.7818609E-02  0.9215489E-01
        3   -1    0    0  501    0  0.00000000000E+00  0.00000000000E+00  0.21603199235E+03  0.21603201596E+03  0.10100000352E+00 0. -1.
       -3   -1    0    0    0  501  0.00000000000E+00  0.00000000000E+00 -0.13736447459E+04  0.13736447496E+04  0.10100000352E+00 0.  1.
    10030    2    1    2    0    0  0.00000000000E+00  0.00000000000E+00 -0.11576127536E+04  0.15896767656E+04  0.10894975594E+04 0.  0.
        2    1    3    3  502    0  0.19083557677E+03  0.49313049127E+03 -0.76991582394E+03  0.93400550038E+03  0.25500000920E-02 0.  1.
       -2    1    3    3    0  502 -0.19083557677E+03 -0.49313049127E+03 -0.38769692963E+03  0.65567126521E+03  0.25500000920E-02 0. -1.
</event>
<event>
 5   0  0.3748901E-03  0.1128770E+04  0.7818609E-02  0.9177596E-01
       -2   -1    0    0    0  501  0.00000000000E+00  0.00000000000E+00  0.25546270510E+03  0.25546270511E+03  0.25500000920E-02 0. -1.
        2   -1    0    0  501    0  0.00000000000E+00  0.00000000000E+00 -0.12468759763E+04  0.12468759763E+04  0.25500000920E-02 0.  1.
    10030    2    1    2    0    0  0.00000000000E+00  0.00000000000E+00 -0.99141327116E+03  0.15023386814E+04  0.11287697902E+04 0.  0.
        5    1    3    3  502    0  0.14807836080E+03  0.87488992573E+02 -0.12111187774E+04  0.12232793253E+04  0.46999998093E+01 0.  1.
       -5    1    3    3    0  502 -0.14807836080E+03 -0.87488992573E+02  0.21970550622E+03  0.27905935609E+03  0.46999998093E+01 0. -1.
</event>
<event>
 5   0  0.3748901E-03  0.1088350E+04  0.7818609E-02  0.9216622E-01
        2   -1    0    0  501    0  0.00000000000E+00  0.00000000000E+00  0.10235205742E+04  0.10235205742E+04  0.25500000920E-02 0. -1.
       -2   -1    0    0    0  501  0.00000000000E+00  0.00000000000E+00 -0.28932146663E+03  0.28932146664E+03  0.25500000920E-02 0.  1.
    10030    2    1    2    0    0  0.00000000000E+00  0.00000000000E+00  0.73419910758E+03  0.13128420408E+04  0.10883500791E+04 0.  0.
        5    1    3    3  502    0  0.59641453916E+02 -0.52596538187E+03  0.21495811212E+03  0.57133682353E+03  0.46999998093E+01 0.  1.
       -5    1    3    3    0  502 -0.59641453916E+02  0.52596538187E+03  0.51924099546E+03  0.74150521732E+03  0.46999998093E+01 0. -1.
</event>
<event>
 5   0  0.2298958E-03  0.1216758E+04  0.7818609E-02  0.9098314E-01
        1   -1    0    0  501    0  0.00000000000E+00  0.00000000000E+00  0.55452236258E+03  0.55452236260E+03  0.50400001928E-02 0.  1.
       -1   -1    0    0    0  501  0.00000000000E+00  0.00000000000E+00 -0.66746587100E+03  0.66746587102E+03  0.50400001928E-02 0. -1.
    10030    2    1    2    0    0  0.00000000000E+00  0.00000000000E+00 -0.11294350843E+03  0.12219882336E+04  0.12167575794E+04 0.  0.
        1    1    3    3  502    0 -0.60240819673E+03 -0.85006336331E+02 -0.54720980021E+02  0.61083229972E+03  0.50400001928E-02 0. -1.
       -1    1    3    3    0  502  0.60240819673E+03  0.85006336331E+02 -0.58222528409E+02  0.61115593390E+03  0.50400001928E-02 0.  1.
</event>
<event>
 5   0  0.2257667E-03  0.1101138E+04  0.7818609E-02  0.9204083E-01
        1   -1    0    0  501    0  0.00000000000E+00  0.00000000000E+00  0.28822269682E+03  0.28822269686E+03  0.50400001928E-02 0.  1.
       -1   -1    0    0    0  501  0.00000000000E+00  0.00000000000E+00 -0.10517089320E+04  0.10517089321E+04  0.50400001928E-02 0. -1.
    10030    2    1    2    0    0  0.00000000000E+00  0.00000000000E+00 -0.76348623523E+03  0.13399316289E+04  0.11011382923E+04 0.  0.
        4    1    3    3  502    0 -0.31243887174E+03  0.12901485743E+03 -0.91056928725E+03  0.97128827945E+03  0.12699999809E+01 0. -1.
       -4    1    3    3    0  502  0.31243887174E+03 -0.12901485743E+03  0.14708305202E+03  0.36864334947E+03  0.12699999809E+01 0.  1.
</event>
<event>
 5   0  0.3962999E-03  0.1097361E+04  0.7818609E-02  0.9207768E-01
       -2   -1    0    0    0  501  0.00000000000E+00  0.00000000000E+00  0.20064102222E+03  0.20064102224E+03  0.25500000920E-02 0. -1.
        2   -1    0    0  501    0  0.00000000000E+00  0.00000000000E+00 -0.15004429216E+04  0.15004429216E+04  0.25500000920E-02 0.  1.
    10030    2    1    2    0    0  0.00000000000E+00  0.00000000000E+00 -0.12998018994E+04  0.17010839438E+04  0.10973612014E+04 0.  0.
        3    1    3    3  502    0  0.10491576305E+03 -0.45401247311E+03 -0.20084766223E+03  0.50741938936E+03  0.10100000352E+00 0. -1.
       -3    1    3    3    0  502 -0.10491576305E+03  0.45401247311E+03 -0.10989542371E+04  0.11936645545E+04  0.10100000352E+00 0.  1.
</event>
<event>
 5   0  0.3992414E-03  0.1106879E+04  0.7818609E-02  0.9198513E-01
        2   -1    0    0  501    0  0.00000000000E+00  0.00000000000E+00  0.12018268606E+04  0.12018268606E+04  0.25500000920E-02 0. -1.
       -2   -1    0    0    0  501  0.00000000000E+00  0.00000000000E+00 -0.25485807592E+03  0.25485807593E+03  0.25500000920E-02 0.  1.
    10030    2    1    2    0    0  0.00000000000E+00  0.00000000000E+00  0.94696878468E+03  0.14566849365E+04  0.11068790020E+04 0.  0.
        1    1    3    3  502    0 -0.15681845436E+03  0.52248275002E+03  0.59634139427E+03  0.80820994193E+03  0.50400001928E-02 0. -1.
       -1    1    3    3    0  502  0.15681845436E+03 -0.52248275002E+03  0.35062739041E+03  0.64847499460E+03  0.50400001928E-02 0.  1.
</event>
<event>
 5   0  0.3748901E-03  0.1100479E+04  0.7818609E-02  0.9204725E-01
       -2   -1    0    0    0  501  0.00000000000E+00  0.00000000000E+00  0.46146050114E+03  0.46146050114E+03  0.25500000920E-02 0. -1.
        2   -1    0    0  501    0  0.00000000000E+00  0.00000000000E+00 -0.65609833866E+03  0.65609833867E+03  0.25500000920E-02 0.  1.
    10030    2    1    2    0    0  0.00000000000E+00  0.00000000000E+00 -0.19463783753E+03  0.11175588398E+04  0.11004789288E+04 0.  0.
        5    1    3    3  502    0 -0.18017886763E+01  0.25708801279E+03  0.39669172982E+03  0.47274085001E+03  0.46999998093E+01 0. -1.
       -5    1    3    3    0  502  0.18017886763E+01 -0.25708801279E+03 -0.59132956735E+03  0.64481798980E+03  0.46999998093E+01 0.  1.
</event>
<event>
 5   0  0.3748901E-03  0.1099774E+04  0.7818609E-02  0.9205412E-01
        2   -1    0    0  501    0  0.00000000000E+00  0.00000000000E+00  0.22424057511E+04  0.22424057511E+04  0.25500000920E-02 0. -1.
       -2   -1    0    0    0  501  0.00000000000E+00  0.00000000000E+00 -0.13484437881E+03  0.13484437883E+03  0.25500000920E-02 0.  1.
    10030    2    1    2    0    0  0.00000000000E+00  0.00000000000E+00  0.21075613723E+04  0.23772501299E+04  0.10997741779E+04 0.  0.
        5    1    3    3  502    0  0.33827305836E+03  0.31593209873E+03  0.41214455582E+03  0.61977978179E+03  0.46999998093E+01 0.  1.
       -5    1    3    3    0  502 -0.33827305836E+03 -0.31593209873E+03  0.16954168165E+04  0.17574703481E+04  0.46999998093E+01 0. -1.
</event>
<event>
 5   0  0.3962999E-03  0.1098250E+04  0.7818609E-02  0.9206899E-01
       -2   -1    0    0    0  501  0.00000000000E+00  0.00000000000E+00  0.28945772935E+03  0.28945772936E+03  0.25500000920E-02 0.  1.
        2   -1    0    0  501    0  0.00000000000E+00  0.00000000000E+00 -0.10417352679E+04  0.10417352679E+04  0.25500000920E-02 0. -1.
    10030    2    1    2    0    0  0.00000000000E+00  0.00000000000E+00 -0.75227753855E+03  0.13311929973E+04  0.10982501086E+04 0.  0.
        3    1    3    3  502    0  0.50508817527E+03  0.18428795438E+03 -0.24082651484E+03  0.58912947251E+03  0.10100000352E+00 0. -1.
       -3    1    3    3    0  502 -0.50508817527E+03 -0.18428795438E+03 -0.51145102371E+03  0.74206352476E+03  0.10100000352E+00 0.  1.
</event>
<event>
 5   0  0.3713158E-03  0.1088330E+04  0.7818609E-02  0.9216641E-01
        2   -1    0    0  501    0  0.00000000000E+00  0.00000000000E+00  0.96464208809E+03  0.96464208810E+03  0.25500000920E-02 0.  1.
       -2   -1    0    0    0  501  0.00000000000E+00  0.00000000000E+00 -0.30696957275E+03  0.30696957276E+03  0.25500000920E-02 0. -1.
    10030    2    1    2    0    0  0.00000000000E+00  0.00000000000E+00  0.65767251534E+03  0.12716116609E+04  0.10883304087E+04 0.  0.
        4    1    3    3  502    0 -0.52552337504E+02  0.17763749754E+03  0.92666438285E+03  0.94500016934E+03  0.12699999809E+01 0.  1.
       -4    1    3    3    0  502  0.52552337504E+02 -0.17763749754E+03 -0.26899186750E+03  0.32661149152E+03  0.12699999809E+01 0. -1.
</event>
<event>
 5   0  0.2300702E-03  0.1105398E+04  0.7818609E-02  0.9199946E-01
        1   -1    0    0  501    0  0.00000000000E+00  0.00000000000E+00  0.11231488991E+04  0.11231488992E+04  0.50400001928E-02 0. -1.
       -1   -1    0    0    0  501  0.00000000000E+00  0.00000000000E+00 -0.27198194009E+03  0.27198194014E+03  0.50400001928E-02 0.  1.
    10030    2    1    2    0    0  0.00000000000E+00  0.00000000000E+00  0.85116695906E+03  0.13951308393E+04  0.11053980580E+04 0.  0.
        5    1    3    3  502    0 -0.40385385417E+03 -0.14085940984E+03  0.86734771262E+03  0.96708502907E+03  0.46999998093E+01 0. -1.
       -5    1    3    3    0  502  0.40385385417E+03  0.14085940984E+03 -0.16180753557E+02  0.42804581023E+03  0.46999998093E+01 0.  1.
</event>
<event>
 5   0  0.3962999E-03  0.1133512E+04  0.7818609E-02  0.9173131E-01
       -2   -1    0    0    0  501  0.00000000000E+00  0.00000000000E+00  0.77322611021E+03  0.77322611022E+03  0.25500000920E-02 0. -1.
        2   -1    0    0  501    0  0.00000000000E+00  0.00000000000E+00 -0.41541849014E+03  0.41541849015E+03  0.25500000920E-02 0.  1.
    10030    2    1    2    0    0  0.00000000000E+00  0.00000000000E+00  0.35780762008E+03  0.11886446004E+04  0.11335121054E+04 0.  0.
        3    1    3    3  502    0 -0.49974723672E+03 -0.14126978551E+03 -0.59088560454E+02  0.52268147192E+03  0.10100000352E+00 0.  1.
       -3    1    3    3    0  502  0.49974723672E+03  0.14126978551E+03  0.41689618053E+03  0.66596312845E+03  0.10100000352E+00 0. -1.
</event>
<event>
 5   0  0.3713158E-03  0.1101085E+04  0.7818609E-02  0.9204135E-01
       -2   -1    0    0    0  501  0.00000000000E+00  0.00000000000E+00  0.49344587704E+03  0.49344587705E+03  0.25500000920E-02 0. -1.
        2   -1    0    0  501    0  0.00000000000E+00  0.00000000000E+00 -0.61424583945E+03  0.61424583946E+03  0.25500000920E-02 0.  1.
    10030    2    1    2    0    0  0.00000000000E+00  0.00000000000E+00 -0.12079996241E+03  0.11076917165E+04  0.11010850593E+04 0.  0.
        4    1    3    3  502    0 -0.14325653944E+03  0.52728732838E+03 -0.12819201046E+03  0.56123895731E+03  0.12699999809E+01 0. -1.
       -4    1    3    3    0  502  0.14325653944E+03 -0.52728732838E+03  0.73920480478E+01  0.54645275920E+03  0.12699999809E+01 0.  1.
</event>
<event>
 5   0  0.3992414E-03  0.1087885E+04  0.7818609E-02  0.9217082E-01
       -2   -1    0    0    0  501  0.00000000000E+00  0.00000000000E+00  0.40689601970E+03  0.40689601970E+03  0.25500000920E-02 0.  1.
        2   -1    0    0  501    0  0.00000000000E+00  0.00000000000E+00 -0.72714689387E+03  0.72714689388E+03  0.25500000920E-02 0. -1.
    10030    2    1    2    0    0  0.00000000000E+00  0.00000000000E+00 -0.32025087418E+03  0.11340429136E+04  0.10878845102E+04 0.  0.
        1    1    3    3  502    0  0.43797312187E+03 -0.12269471714E+03 -0.47110983082E+03  0.65484266951E+03  0.50400001928E-02 0. -1.
       -1    1    3    3    0  502 -0.43797312187E+03  0.12269471714E+03  0.15085895665E+03  0.47920024407E+03  0.50400001928E-02 0.  1.
</event>
<event>
 5   0  0.2257667E-03  0.1090767E+04  0.7818609E-02  0.9214238E-01
        1   -1    0    0  501    0  0.00000000000E+00  0.00000000000E+00  0.47762096415E+03  0.47762096418E+03  0.50400001928E-02 0.  1.
       -1   -1    0    0    0  501  0.00000000000E+00  0.00000000000E+00 -0.62275928808E+03  0.62275928810E+03  0.50400001928E-02 0. -1.
    10030    2    1    2    0    0  0.00000000000E+00  0.00000000000E+00 -0.14513832393E+03  0.11003802523E+04  0.10907665041E+04 0.  0.
        4    1    3    3  502    0 -0.16367721684E+03 -0.43281055068E+03 -0.36377592480E+03  0.58859981351E+03  0.12699999809E+01 0. -1.
       -4    1    3    3    0  502  0.16367721684E+03  0.43281055068E+03  0.21863760087E+03  0.51178043877E+03  0.12699999809E+01 0.  1.
</event>
<event>
 5   0  0.3962999E-03  0.1095711E+04  0.7818609E-02  0.9209382E-01
        2   -1    0    0  501    0  0.00000000000E+00  0.00000000000E+00  0.20472778280E+04  0.20472778280E+04  0.25500000920E-02 0. -1.
       -2   -1    0    0    0  501  0.00000000000E+00  0.00000000000E+00 -0.14660725312E+03  0.14660725314E+03  0.25500000920E-02 0.  1.
    10030    2    1    2    0    0  0.00000000000E+00  0.00000000000E+00  0.19006705748E+04  0.21938850811E+04  0.10957112371E+04 0.  0.
        3    1    3    3  502    0  0.12232780811E+03 -0.93918329796E+02 -0.10224723689E+03  0.18503851750E+03  0.10100000352E+00 0.  1.
       -3    1    3    3    0  502 -0.12232780811E+03  0.93918329796E+02  0.20029178117E+04  0.20088465636E+04  0.10100000352E+00 0. -1.
</event>
<event>
 5   0  0.3748901E-03  0.1097475E+04  0.7818609E-02  0.9207657E-01
       -2   -1    0    0    0  501  0.00000000000E+00  0.00000000000E+00  0.75277414779E+03  0.75277414780E+03  0.25500000920E-02 0.  1.
        2   -1    0    0  501    0  0.00000000000E+00  0.00000000000E+00 -0.40000411801E+03  0.40000411802E+03  0.25500000920E-02 0. -1.
    10030    2    1    2    0    0  0.00000000000E+00  0.00000000000E+00  0.35277002978E+03  0.11527782658E+04  0.10974748454E+04 0.  0.
        5    1    3    3  502    0  0.15605847952E+03 -0.44618037751E+03 -0.11633234145E+03  0.48681257376E+03  0.46999998093E+01 0. -1.
       -5    1    3    3    0  502 -0.15605847952E+03  0.44618037751E+03  0.46910237123E+03  0.66596569206E+03  0.46999998093E+01 0.  1.
</event>
<event>
 5   0  0.2255788E-03  0.1010866E+04  0.7818609E-02  0.9296707E-01
        1   -1    0    0  501    0  0.00000000000E+00  0.00000000000E+00  0.34161572904E+03  0.34161572908E+03  0.50400001928E-02 0. -1.
       -1   -1    0    0    0  501  0.00000000000E+00  0.00000000000E+00 -0.74780659606E+03  0.74780659607E+03  0.50400001928E-02 0.  1.
    10030    2    1    2    0    0  0.00000000000E+00  0.00000000000E+00 -0.40619086702E+03  0.10894223252E+04  0.10108659565E+04 0.  0.
        3    1    3    3  502    0 -0.25467304535E+03  0.22777319215E+03  0.19830488803E+03  0.39504914367E+03  0.10100000352E+00 0. -1.
       -3    1    3    3    0  502  0.25467304535E+03 -0.22777319215E+03 -0.60449575505E+03  0.69437318149E+03  0.10100000352E+00 0.  1.
</event>
<event>
 5   0  0.1508625E-03  0.1104079E+04  0.7818609E-02  0.9201225E-01
       -3   -1    0    0    0  501  0.00000000000E+00  0.00000000000E+00  0.65338320640E+03  0.65338321421E+03  0.10100000352E+00 0. -1.
        3   -1    0    0  501    0  0.00000000000E+00  0.00000000000E+00 -0.46641468412E+03  0.46641469506E+03  0.10100000352E+00 0.  1.
    10030    2    1    2    0    0  0.00000000000E+00  0.00000000000E+00  0.18696852228E+03  0.11197979093E+04  0.11040788601E+04 0.  0.
        1    1    3    3  502    0  0.51465987546E+03 -0.17580895243E+03  0.18951039488E+03  0.57593208363E+03  0.50400001928E-02 0.  1.
       -1    1    3    3    0  502 -0.51465987546E+03  0.17580895243E+03 -0.25418726061E+01  0.54386582564E+03  0.50400001928E-02 0. -1.
</event>
<event>
 5   0  0.2257667E-03  0.1085793E+04  0.7818609E-02  0.9219151E-01
        1   -1    0    0  501    0  0.00000000000E+00  0.00000000000E+00  0.53738225805E+03  0.53738225808E+03  0.50400001928E-02 0.  1.
       -1   -1    0    0    0  501  0.00000000000E+00  0.00000000000E+00 -0.54846746152E+03  0.54846746154E+03  0.50400001928E-02 0. -1.
    10030    2    1    2    0    0  0.00000000000E+00  0.00000000000E+00 -0.11085203468E+02  0.10858497196E+04  0.10857931349E+04 0.  0.
        4    1    3    3  502    0 -0.19733801833E+03  0.21770140941E+02  0.49977457535E+03  0.53776618672E+03  0.12699999809E+01 0.  1.
       -4    1    3    3    0  502  0.19733801833E+03 -0.21770140941E+02 -0.51085977882E+03  0.54808353289E+03  0.12699999809E+01 0. -1.
</event>
<event>
 5   0  0.3713158E-03  0.1090423E+04  0.7818609E-02  0.9214577E-01
        2   -1    0    0  501    0  0.00000000000E+00  0.00000000000E+00  0.10132679805E+04  0.10132679805E+04  0.25500000920E-02 0.  1.
       -2   -1    0    0    0  501  0.00000000000E+00  0.00000000000E+00 -0.29336320136E+03  0.29336320137E+03  0.25500000920E-02 0. -1.
    10030    2    1    2    0    0  0.00000000000E+00  0.00000000000E+00  0.71990477910E+03  0.13066311818E+04  0.10904229245E+04 0.  0.
        4    1    3    3  502    0  0.15202797845E+03 -0.14136383624E+03 -0.24414876819E+03  0.32047850838E+03  0.12699999809E+01 0. -1.
       -4    1    3    3    0  502 -0.15202797845E+03  0.14136383624E+03  0.96405354729E+03  0.98615267346E+03  0.12699999809E+01 0.  1.
</event>
<event>
 5   0  0.2255788E-03  0.1119378E+04  0.7818609E-02  0.9186508E-01
        1   -1    0    0  501    0  0.00000000000E+00  0.00000000000E+00  0.46161750076E+03  0.46161750079E+03  0.50400001928E-02 0. -1.
       -1   -1    0    0    0  501  0.00000000000E+00  0.00000000000E+00 -0.67859556280E+03  0.67859556281E+03  0.50400001928E-02 0.  1.
    10030    2    1    2    0    0  0.00000000000E+00  0.00000000000E+00 -0.21697806203E+03  0.11402130636E+04  0.11193776624E+04 0.  0.
        3    1    3    3  502    0 -0.38097063326E+03 -0.39025340541E+03  0.19610394890E+02  0.54572971481E+03  0.10100000352E+00 0.  1.
       -3    1    3    3    0  502  0.38097063326E+03  0.39025340541E+03 -0.23658845692E+03  0.59448334879E+03  0.10100000352E+00 0. -1.
</event>
<event>
 5   0  0.3748901E-03  0.1101015E+04  0.7818609E-02  0.9204203E-01
       -2   -1    0    0    0  501  0.00000000000E+00  0.00000000000E+00  0.46597778329E+03  0.46597778329E+03  0.25500000920E-02 0. -1.
        2   -1    0    0  501    0  0.00000000000E+00  0.00000000000E+00 -0.65037101354E+03  0.65037101355E+03  0.25500000920E-02 0.  1.
    10030    2    1    2    0    0  0.00000000000E+00  0.00000000000E+00 -0.18439323025E+03  0.11163487968E+04  0.11010148831E+04 0.  0.
        5    1    3    3  502    0  0.52158551395E+03  0.16424966430E+03 -0.28014529866E+02  0.54757310422E+03  0.46999998093E+01 0. -1.
       -5    1    3    3    0  502 -0.52158551395E+03 -0.16424966430E+03 -0.15637870039E+03  0.56877569262E+03  0.46999998093E+01 0.  1.
</event>
<event>
 5   0  0.3744875E-03  0.1118348E+04  0.7818609E-02  0.9187490E-01
       -2   -1    0    0    0  501  0.00000000000E+00  0.00000000000E+00  0.41484153963E+03  0.41484153963E+03  0.25500000920E-02 0. -1.
        2   -1    0    0  501    0  0.00000000000E+00  0.00000000000E+00 -0.75372352681E+03  0.75372352681E+03  0.25500000920E-02 0.  1.
    10030    2    1    2    0    0  0.00000000000E+00  0.00000000000E+00 -0.33888198718E+03  0.11685650664E+04  0.11183484758E+04 0.  0.
        2    1    3    3  502    0  0.16289811759E+03  0.50113751866E+03  0.26045759780E+02  0.52759168960E+03  0.25500000920E-02 0. -1.
       -2    1    3    3    0  502 -0.16289811759E+03 -0.50113751866E+03 -0.36492774696E+03  0.64097337685E+03  0.25500000920E-02 0.  1.
</event>
<event>
 5   0  0.3748901E-03  0.1089034E+04  0.7818609E-02  0.9215947E-01
       -2   -1    0    0    0  501  0.00000000000E+00  0.00000000000E+00  0.22670147092E+03  0.22670147094E+03  0.25500000920E-02 0. -1.
        2   -1    0    0  501    0  0.00000000000E+00  0.00000000000E+00 -0.13078811778E+04  0.13078811778E+04  0.25500000920E-02 0.  1.
    10030    2    1    2    0    0  0.00000000000E+00  0.00000000000E+00 -0.10811797069E+04  0.15345826487E+04  0.10890336759E+04 0.  0.
        5    1    3    3  502    0 -0.32702324924E+03  0.30060330328E+03 -0.98434051217E+03  0.10799328152E+04  0.46999998093E+01 0.  1.
       -5    1    3    3    0  502  0.32702324924E+03 -0.30060330328E+03 -0.96839194689E+02  0.45464983351E+03  0.46999998093E+01 0. -1.
</event>
<event>
 5   0  0.2255788E-03  0.1097662E+04  0.7818609E-02  0.9207474E-01
        1   -1    0    0  501    0  0.00000000000E+00  0.00000000000E+00  0.44289223401E+03  0.44289223404E+03  0.50400001928E-02 0.  1.
       -1   -1    0    0    0  501  0.00000000000E+00  0.00000000000E+00 -0.68010980343E+03  0.68010980345E+03  0.50400001928E-02 0. -1.
    10030    2    1    2    0    0  0.00000000000E+00  0.00000000000E+00 -0.23721756942E+03  0.11230020375E+04  0.10976617881E+04 0.  0.
        3    1    3    3  502    0 -0.15197248055E+03  0.39594271920E+03  0.23778508205E+03  0.48621808603E+03  0.10100000352E+00 0.  1.
       -3    1    3    3    0  502  0.15197248055E+03 -0.39594271920E+03 -0.47500265148E+03  0.63678395146E+03  0.10100000352E+00 0. -1.
</event>
<event>
 5   0  0.2374100E-03  0.1119736E+04  0.7818609E-02  0.9186166E-01
        1   -1    0    0  501    0  0.00000000000E+00  0.00000000000E+00  0.38599409520E+03  0.38599409523E+03  0.50400001928E-02 0.  1.
       -1   -1    0    0    0  501  0.00000000000E+00  0.00000000000E+00 -0.81206512019E+03  0.81206512021E+03  0.50400001928E-02 0. -1.
    10030    2    1    2    0    0  0.00000000000E+00  0.00000000000E+00 -0.42607102500E+03  0.11980592154E+04  0.11197362928E+04 0.  0.
        2    1    3    3  502    0  0.29363395112E+03 -0.42904280697E+03  0.92297629981E+01  0.51998443822E+03  0.25500000920E-02 0.  1.
       -2    1    3    3    0  502 -0.29363395112E+03  0.42904280697E+03 -0.43530078800E+03  0.67807477722E+03  0.25500000920E-02 0. -1.
</event>
<event>
 5   0  0.3962999E-03  0.1102917E+04  0.7818609E-02  0.9202353E-01
       -2   -1    0    0    0  501  0.00000000000E+00  0.00000000000E+00  0.24238216726E+03  0.24238216727E+03  0.25500000920E-02 0.  1.
        2   -1    0    0  501    0  0.00000000000E+00  0.00000000000E+00 -0.12546576026E+04  0.12546576027E+04  0.25500000920E-02 0. -1.
    10030    2    1    2    0    0  0.00000000000E+00  0.00000000000E+00 -0.10122754354E+04  0.14970397699E+04  0.11029172751E+04 0.  0.
        3    1    3    3  502    0 -0.13979761537E+03 -0.30366043008E+03 -0.11014441090E+04  0.11510569776E+04  0.10100000352E+00 0. -1.
       -3    1    3    3    0  502  0.13979761537E+03  0.30366043008E+03  0.89168673639E+02  0.34598279237E+03  0.10100000352E+00 0.  1.
</event>
<event>
 5   0  0.2374100E-03  0.1131927E+04  0.7818609E-02  0.9174621E-01
       -1   -1    0    0    0  501  0.00000000000E+00  0.00000000000E+00  0.63566119280E+03  0.63566119282E+03  0.50400001928E-02 0. -1.
        1   -1    0    0  501    0  0.00000000000E+00  0.00000000000E+00 -0.50390764354E+03  0.50390764356E+03  0.50400001928E-02 0.  1.
    10030    2    1    2    0    0  0.00000000000E+00  0.00000000000E+00  0.13175354926E+03  0.11395688364E+04  0.11319267357E+04 0.  0.
        2    1    3    3  502    0 -0.44323575586E+03 -0.56841042611E+02 -0.28378017086E+03  0.52935812526E+03  0.25500000920E-02 0.  1.
       -2    1    3    3    0  502  0.44323575586E+03  0.56841042611E+02  0.41553372012E+03  0.61021071112E+03  0.25500000920E-02 0. -1.
</event>
<event>
 5   0  0.3713158E-03  0.1105996E+04  0.7818609E-02  0.9199367E-01
        2   -1    0    0  501    0  0.00000000000E+00  0.00000000000E+00  0.66482086229E+03  0.66482086229E+03  0.25500000920E-02 0.  1.
       -2   -1    0    0    0  501  0.00000000000E+00  0.00000000000E+00 -0.45998379161E+03  0.45998379161E+03  0.25500000920E-02 0. -1.
    10030    2    1    2    0    0  0.00000000000E+00  0.00000000000E+00  0.20483707068E+03  0.11248046539E+04  0.11059960596E+04 0.  0.
        4    1    3    3  502    0  0.30985135692E+03 -0.11935951200E+03 -0.34731281056E+03  0.48050219330E+03  0.12699999809E+01 0. -1.
       -4    1    3    3    0  502 -0.30985135692E+03  0.11935951200E+03  0.55214988124E+03  0.64430246060E+03  0.12699999809E+01 0.  1.
</event>
<event>
 5   0  0.2257667E-03  0.1100767E+04  0.7818609E-02  0.9204445E-01
       -1   -1    0    0    0  501  0.00000000000E+00  0.00000000000E+00  0.44733513549E+03  0.44733513552E+03  0.50400001928E-02 0.  1.
        1   -1    0    0  501    0  0.00000000000E+00  0.00000000000E+00 -0.67716966593E+03  0.67716966594E+03  0.50400001928E-02 0. -1.
    10030    2    1    2    0    0  0.00000000000E+00  0.00000000000E+00 -0.22983453043E+03  0.11245048015E+04  0.11007666134E+04 0.  0.
        4    1    3    3  502    0 -0.29748954194E+03 -0.37477764682E+03  0.16290687266E+03  0.50546866785E+03  0.12699999809E+01 0.  1.
       -4    1    3    3    0  502  0.29748954194E+03  0.37477764682E+03 -0.39274140309E+03  0.61903613362E+03  0.12699999809E+01 0. -1.
</event>
<event>
 5   0  0.2298958E-03  0.1100540E+04  0.7818609E-02  0.9204666E-01
        1   -1    0    0  501    0  0.00000000000E+00  0.00000000000E+00  0.12814125997E+04  0.12814125997E+04  0.50400001928E-02 0. -1.
       -1   -1    0    0    0  501  0.00000000000E+00  0.00000000000E+00 -0.23629932891E+03  0.23629932897E+03  0.50400001928E-02 0.  1.
    10030    2    1    2    0    0  0.00000000000E+00  0.00000000000E+00  0.10451132708E+04  0.15177119287E+04  0.11005397538E+04 0.  0.
        1    1    3    3  502    0 -0.27827653467E+02  0.42996357993E+03  0.50534952220E+02  0.43381659694E+03  0.50400001928E-02 0.  1.
       -1    1    3    3    0  502  0.27827653467E+02 -0.42996357993E+03  0.99457831854E+03  0.10838953317E+04  0.50400001928E-02 0. -1.
</event>
<event>
 5   0  0.2300702E-03  0.1081764E+04  0.7818609E-02  0.9223150E-01
        1   -1    0    0  501    0  0.00000000000E+00  0.00000000000E+00  0.19526763755E+04  0.19526763755E+04  0.50400001928E-02 0.  1.
       -1   -1    0    0    0  501  0.00000000000E+00  0.00000000000E+00 -0.14982182394E+03  0.14982182403E+03  0.50400001928E-02 0. -1.
    10030    2    1    2    0    0  0.00000000000E+00  0.00000000000E+00  0.18028545515E+04  0.21024981995E+04  0.10817643667E+04 0.  0.
        5    1    3    3  502    0 -0.30200396417E+03  0.43599751309E+03  0.11074031888E+04  0.12278697563E+04  0.46999998093E+01 0.  1.
       -5    1    3    3    0  502  0.30200396417E+03 -0.43599751309E+03  0.69545136271E+03  0.87462844323E+03  0.46999998093E+01 0. -1.
</event>
<event>
 5   0  0.2255788E-03  0.1098187E+04  0.7818609E-02  0.9206961E-01
        1   -1    0    0  501    0  0.00000000000E+00  0.00000000000E+00  0.10082356999E+04  0.10082356999E+04  0.50400001928E-02 0. -1.
       -1   -1    0    0    0  501  0.00000000000E+00  0.00000000000E+00 -0.29904083679E+03  0.29904083683E+03  0.50400001928E-02 0.  1.
    10030    2    1    2    0    0  0.00000000000E+00  0.00000000000E+00  0.70919486311E+03  0.13072765367E+04  0.10981869557E+04 0.  0.
        3    1    3    3  502    0 -0.10683732680E+03 -0.50849433230E+03  0.14324632719E+03  0.53898072399E+03  0.10100000352E+00 0.  1.
       -3    1    3    3    0  502  0.10683732680E+03  0.50849433230E+03  0.56594853592E+03  0.76829581275E+03  0.10100000352E+00 0. -1.
</event>
<event>
 5   0  0.3744875E-03  0.1130061E+04  0.7818609E-02  0.9176378E-01
        2   -1    0    0  501    0  0.00000000000E+00  0.00000000000E+00  0.32844834859E+03  0.32844834860E+03  0.25500000920E-02 0.  1.
       -2   -1    0    0    0  501  0.00000000000E+00  0.00000000000E+00 -0.97202263759E+03  0.97202263759E+03  0.25500000920E-02 0. -1.
    10030    2    1    2    0    0  0.00000000000E+00  0.00000000000E+00 -0.64357428900E+03  0.13004709862E+04  0.11300605826E+04 0.  0.
        2    1    3    3  502    0  0.83472364386E+02  0.22112504523E+03 -0.91240008555E+03  0.94251675707E+03  0.25500000920E-02 0. -1.
       -2    1    3    3    0  502 -0.83472364386E+02 -0.22112504523E+03  0.26882579655E+03  0.35795422911E+03  0.25500000920E-02 0.  1.
</event>
<event>
 5   0  0.2257667E-03  0.9673922E+03  0.7818609E-02  0.9345050E-01
        1   -1    0    0  501    0  0.00000000000E+00  0.00000000000E+00  0.45936893043E+03  0.45936893046E+03  0.50400001928E-02 0. -1.
       -1   -1    0    0    0  501  0.00000000000E+00  0.00000000000E+00 -0.50931163322E+03  0.50931163325E+03  0.50400001928E-02 0.  1.
    10030    2    1    2    0    0  0.00000000000E+00  0.00000000000E+00 -0.49942702789E+02  0.96868056371E+03  0.96739224772E+03 0.  0.
        4    1    3    3  502    0  0.31880252307E+03  0.12527009556E+02 -0.38900516178E+03  0.50310893798E+03  0.12699999809E+01 0.  1.
       -4    1    3    3    0  502 -0.31880252307E+03 -0.12527009556E+02  0.33906245899E+03  0.46557162573E+03  0.12699999809E+01 0. -1.
</event>
<event>
 5   0  0.3962999E-03  0.1103929E+04  0.7818609E-02  0.9201371E-01
       -2   -1    0    0    0  501  0.00000000000E+00  0.00000000000E+00  0.17018986097E+03  0.17018986099E+03  0.25500000920E-02 0. -1.
        2   -1    0    0  501    0  0.00000000000E+00  0.00000000000E+00 -0.17901459279E+04  0.17901459279E+04  0.25500000920E-02 0.  1.
    10030    2    1    2    0    0  0.00000000000E+00  0.00000000000E+00 -0.16199560670E+04  0.19603357889E+04  0.11039287778E+04 0.  0.
        3    1    3    3  502    0 -0.25112195617E+03  0.23740784311E+03 -0.15742655179E+04  0.16117495624E+04  0.10100000352E+00 0.  1.
       -3    1    3    3    0  502  0.25112195617E+03 -0.23740784311E+03 -0.45690549050E+02  0.34858622652E+03  0.10100000352E+00 0. -1.
</event>
<event>
 5   0  0.1508625E-03  0.1113365E+04  0.7818609E-02  0.9192263E-01
        3   -1    0    0  501    0  0.00000000000E+00  0.00000000000E+00  0.66275607730E+03  0.66275608500E+03  0.10100000352E+00 0.  1.
       -3   -1    0    0    0  501  0.00000000000E+00  0.00000000000E+00 -0.46758566041E+03  0.46758567131E+03  0.10100000352E+00 0. -1.
    10030    2    1    2    0    0  0.00000000000E+00  0.00000000000E+00  0.19517041690E+03  0.11303417563E+04  0.11133647176E+04 0.  0.
        1    1    3    3  502    0 -0.45781389228E+01 -0.45571640931E+03  0.42214226644E+03  0.62121051038E+03  0.50400001928E-02 0.  1.
       -1    1    3    3    0  502  0.45781389228E+01  0.45571640931E+03 -0.22697184954E+03  0.50913124593E+03  0.50400001928E-02 0. -1.
</event>
<event>
 5   0  0.3713158E-03  0.1115619E+04  0.7818609E-02  0.9190100E-01
       -2   -1    0    0    0  501  0.00000000000E+00  0.00000000000E+00  0.30871805538E+03  0.30871805539E+03  0.25500000920E-02 0. -1.
        2   -1    0    0  501    0  0.00000000000E+00  0.00000000000E+00 -0.10078829312E+04  0.10078829312E+04  0.25500000920E-02 0.  1.
    10030    2    1    2    0    0  0.00000000000E+00  0.00000000000E+00 -0.69916487582E+03  0.13166009866E+04  0.11156193949E+04 0.  0.
        4    1    3    3  502    0  0.16569687632E+02 -0.15845110693E+03  0.28129570121E+03  0.32328036169E+03  0.12699999809E+01 0. -1.
       -4    1    3    3    0  502 -0.16569687632E+02  0.15845110693E+03 -0.98046057703E+03  0.99332062490E+03  0.12699999809E+01 0.  1.
</event>
<event>
 5   0  0.2298958E-03  0.1106446E+04  0.7818609E-02  0.9198932E-01
       -1   -1    0    0    0  501  0.00000000000E+00  0.00000000000E+00  0.21204961913E+03  0.21204961919E+03  0.50400001928E-02 0. -1.
        1   -1    0    0  501    0  0.00000000000E+00  0.00000000000E+00 -0.14433207585E+04  0.14433207585E+04  0.50400001928E-02 0.  1.
    10030    2    1    2    0    0  0.00000000000E+00  0.00000000000E+00 -0.12312711394E+04  0.16553703777E+04  0.11064458725E+04 0.  0.
        1    1    3    3  502    0 -0.18784913753E+03 -0.47416461833E+03 -0.29497711352E+03  0.58917814052E+03  0.50400001928E-02 0. -1.
       -1    1    3    3    0  502  0.18784913753E+03  0.47416461833E+03 -0.93629402585E+03  0.10661922372E+04  0.50400001928E-02 0.  1.
</event>
<event>
 5   0  0.3748901E-03  0.1092982E+04  0.7818609E-02  0.9212059E-01
       -2   -1    0    0    0  501  0.00000000000E+00  0.00000000000E+00  0.25718973646E+03  0.25718973648E+03  0.25500000920E-02 0. -1.
        2   -1    0    0  501    0  0.00000000000E+00  0.00000000000E+00 -0.11612152381E+04  0.11612152381E+04  0.25500000920E-02 0.  1.
    10030    2    1    2    0    0  0.00000000000E+00  0.00000000000E+00 -0.90402550159E+03  0.14184049745E+04  0.10929824172E+04 0.  0.
        5    1    3    3  502    0  0.19097376614E+03  0.13969583419E+03  0.18723973627E+03  0.30177262017E+03  0.46999998093E+01 0. -1.
       -5    1    3    3    0  502 -0.19097376614E+03 -0.13969583419E+03 -0.10912652379E+04  0.11166323544E+04  0.46999998093E+01 0.  1.
</event>
<event>
 5   0  0.1508625E-03  0.1083065E+04  0.7818609E-02  0.9221857E-01
        3   -1    0    0  501    0  0.00000000000E+00  0.00000000000E+00  0.97465868684E+03  0.97465869208E+03  0.10100000352E+00 0. -1.
       -3   -1    0    0    0  501  0.00000000000E+00  0.00000000000E+00 -0.30088205661E+03  0.30088207356E+03  0.10100000352E+00 0.  1.
    10030    2    1    2    0    0  0.00000000000E+00  0.00000000000E+00  0.67377663023E+03  0.12755407656E+04  0.10830647706E+04 0.  0.
        4    1    3    3  502    0 -0.51756452361E+03  0.15853511037E+03  0.35548330443E+03  0.64759278095E+03  0.12699999809E+01 0. -1.
       -4    1    3    3    0  502  0.51756452361E+03 -0.15853511037E+03  0.31829332581E+03  0.62794798469E+03  0.12699999809E+01 0.  1.
</event>
<event>
 5   0  0.3992414E-03  0.1094386E+04  0.7818609E-02  0.9210681E-01
       -2   -1    0    0    0  501  0.00000000000E+00  0.00000000000E+00  0.32401831084E+03  0.32401831085E+03  0.25500000920E-02 0. -1.
        2   -1    0    0  501    0  0.00000000000E+00  0.00000000000E+00 -0.92408452854E+03  0.92408452854E+03  0.25500000920E-02 0.  1.
    10030    2    1    2    0    0  0.00000000000E+00  0.00000000000E+00 -0.60006621770E+03  0.12481028394E+04  0.10943862353E+04 0.  0.
        1    1    3    3  502    0  0.41407421429E+03  0.35209391243E+03 -0.37209650319E+03  0.65869825096E+03  0.50400001928E-02 0.  1.
       -1    1    3    3    0  502 -0.41407421429E+03 -0.35209391243E+03 -0.22796971451E+03  0.58940458844E+03  0.50400001928E-02 0. -1.
</event>
<event>
 5   0  0.3962999E-03  0.1098503E+04  0.7818609E-02  0.9206652E-01
       -2   -1    0    0    0  501  0.00000000000E+00  0.00000000000E+00  0.68942542434E+03  0.68942542434E+03  0.25500000920E-02 0.  1.
        2   -1    0    0  501    0  0.00000000000E+00  0.00000000000E+00 -0.43757790099E+03  0.43757790099E+03  0.25500000920E-02 0. -1.
    10030    2    1    2    0    0  0.00000000000E+00  0.00000000000E+00  0.25184752335E+03  0.11270033253E+04  0.10985032182E+04 0.  0.
        3    1    3    3  502    0 -0.33704110117E+03 -0.13924264656E+02  0.57062866590E+03  0.66287832486E+03  0.10100000352E+00 0.  1.
       -3    1    3    3    0  502  0.33704110117E+03  0.13924264656E+02 -0.31878114254E+03  0.46412500048E+03  0.10100000352E+00 0. -1.
</event>
<event>
 5   0  0.2298958E-03  0.1102581E+04  0.7818609E-02  0.9202680E-01
       -1   -1    0    0    0  501  0.00000000000E+00  0.00000000000E+00  0.46210858221E+03  0.46210858224E+03  0.50400001928E-02 0.  1.
        1   -1    0    0  501    0  0.00000000000E+00  0.00000000000E+00 -0.65768330227E+03  0.65768330229E+03  0.50400001928E-02 0. -1.
    10030    2    1    2    0    0  0.00000000000E+00  0.00000000000E+00 -0.19557472006E+03  0.11197918845E+04  0.11025807878E+04 0.  0.
        1    1    3    3  502    0 -0.38650403673E+03 -0.75470543253E+02  0.29403265444E+03  0.49146350343E+03  0.50400001928E-02 0.  1.
       -1    1    3    3    0  502  0.38650403673E+03  0.75470543253E+02 -0.48960737450E+03  0.62832838110E+03  0.50400001928E-02 0. -1.
</event>
<event>
 5   0  0.1508625E-03  0.1114200E+04  0.7818609E-02  0.9191461E-01
       -4   -1    0    0    0  501  0.00000000000E+00  0.00000000000E+00  0.10744623355E+04  0.10744630860E+04  0.12699999809E+01 0. -1.
        4   -1    0    0  501    0  0.00000000000E+00  0.00000000000E+00 -0.28884938318E+03  0.28885217510E+03  0.12699999809E+01 0.  1.
    10030    2    1    2    0    0  0.00000000000E+00  0.00000000000E+00  0.78561295230E+03  0.13633152611E+04  0.11141996188E+04 0.  0.
        1    1    3    3  502    0  0.51749443440E+03 -0.66534083991E+02  0.15386951137E+03  0.54396976067E+03  0.50400001928E-02 0.  1.
       -1    1    3    3    0  502 -0.51749443440E+03  0.66534083991E+02  0.63174344092E+03  0.81934550047E+03  0.50400001928E-02 0. -1.
</event>
<event>
 5   0  0.3992414E-03  0.1086889E+04  0.7818609E-02  0.9218066E-01
       -2   -1    0    0    0  501  0.00000000000E+00  0.00000000000E+00  0.17076935676E+03  0.17076935678E+03  0.25500000920E-02 0.  1.
        2   -1    0    0  501    0  0.00000000000E+00  0.00000000000E+00 -0.17294194303E+04  0.17294194303E+04  0.25500000920E-02 0. -1.
    10030    2    1    2    0    0  0.00000000000E+00  0.00000000000E+00 -0.15586500735E+04  0.19001887870E+04  0.10868888512E+04 0.  0.
        1    1    3    3  502    0 -0.68110520375E+02 -0.53145606218E+03 -0.62055581378E+03  0.81986224883E+03  0.50400001928E-02 0.  1.
       -1    1    3    3    0  502  0.68110520375E+02  0.53145606218E+03 -0.93809425973E+03  0.10803265382E+04  0.50400001928E-02 0. -1.
</event>
<event>
 5   0  0.3962999E-03  0.1107481E+04  0.7818609E-02  0.9197931E-01
       -2   -1    0    0    0  501  0.00000000000E+00  0.00000000000E+00  0.25113178575E+03  0.25113178576E+03  0.25500000920E-02 0. -1.
        2   -1    0    0  501    0  0.00000000000E+00  0.00000000000E+00 -0.12209859588E+04  0.12209859589E+04  0.25500000920E-02 0.  1.
    10030    2    1    2    0    0  0.00000000000E+00  0.00000000000E+00 -0.96985417310E+03  0.14721177446E+04  0.11074807163E+04 0.  0.
        3    1    3    3  502    0 -0.18901411744E+03 -0.43281518647E+03 -0.86919976316E+03  0.98922371621E+03  0.10100000352E+00 0.  1.
       -3    1    3    3    0  502  0.18901411744E+03  0.43281518647E+03 -0.10065440994E+03  0.48289402841E+03  0.10100000352E+00 0. -1.
</event>
<event>
 5   0  0.2300702E-03  0.1103868E+04  0.7818609E-02  0.9201430E-01
        1   -1    0    0  501    0  0.00000000000E+00  0.00000000000E+00  0.25817763164E+04  0.25817763164E+04  0.50400001928E-02 0. -1.
       -1   -1    0    0    0  501  0.00000000000E+00  0.00000000000E+00 -0.11799292383E+03  0.11799292394E+03  0.50400001928E-02 0.  1.
    10030    2    1    2    0    0  0.00000000000E+00  0.00000000000E+00  0.24637833926E+04  0.26997692403E+04  0.11038683552E+04 0.  0.
        5    1    3    3  502    0 -0.31807187069E+03 -0.10519306683E+03  0.15918129221E+03  0.37093944253E+03  0.46999998093E+01 0.  1.
       -5    1    3    3    0  502  0.31807187069E+03  0.10519306683E+03  0.23046021004E+04  0.23288297978E+04  0.46999998093E+01 0. -1.
</event>
<event>
 5   0  0.3962999E-03  0.1082291E+04  0.7818609E-02  0.9222626E-01
       -2   -1    0    0    0  501  0.00000000000E+00  0.00000000000E+00  0.37500374305E+03  0.37500374306E+03  0.25500000920E-02 0. -1.
        2   -1    0    0  501    0  0.00000000000E+00  0.00000000000E+00 -0.78089536902E+03  0.78089536902E+03  0.25500000920E-02 0.  1.
    10030    2    1    2    0    0  0.00000000000E+00  0.00000000000E+00 -0.40589162597E+03  0.11558991121E+04  0.10822914327E+04 0.  0.
        3    1    3    3  502    0 -0.32384506563E+03  0.11037036169E+03 -0.65072325351E+03  0.73518569500E+03  0.10100000352E+00 0.  1.
       -3    1    3    3    0  502  0.32384506563E+03 -0.11037036169E+03  0.24483162753E+03  0.42071341708E+03  0.10100000352E+00 0. -1.
</event>
<event>
 5   0  0.2374100E-03  0.1068442E+04  0.7818609E-02  0.9236508E-01
        1   -1    0    0  501    0  0.00000000000E+00  0.00000000000E+00  0.32057648222E+03  0.32057648226E+03  0.50400001928E-02 0. -1.
       -1   -1    0    0    0  501  0.00000000000E+00  0.00000000000E+00 -0.89024681858E+03  0.89024681859E+03  0.50400001928E-02 0.  1.
    10030    2    1    2    0    0  0.00000000000E+00  0.00000000000E+00 -0.56967033636E+03  0.12108233008E+04  0.10684422183E+04 0.  0.
        2    1    3    3  502    0 -0.14748079664E+01 -0.37477981625E+03 -0.71626387276E+03  0.80839100760E+03  0.25500000920E-02 0. -1.
       -2    1    3    3    0  502  0.14748079664E+01  0.37477981625E+03  0.14659353640E+03  0.40243229325E+03  0.25500000920E-02 0.  1.
</event>
<event>
 5   0  0.2257667E-03  0.1098526E+04  0.7818609E-02  0.9206629E-01
       -1   -1    0    0    0  501  0.00000000000E+00  0.00000000000E+00  0.82202417801E+03  0.82202417803E+03  0.50400001928E-02 0.  1.
        1   -1    0    0  501    0  0.00000000000E+00  0.00000000000E+00 -0.36700869590E+03  0.36700869593E+03  0.50400001928E-02 0. -1.
    10030    2    1    2    0    0  0.00000000000E+00  0.00000000000E+00  0.45501548211E+03  0.11890328740E+04  0.10985263248E+04 0.  0.
        4    1    3    3  502    0 -0.27370295953E+03  0.36247513301E+03 -0.10678558585E+03  0.46659008385E+03  0.12699999809E+01 0. -1.
       -4    1    3    3    0  502  0.27370295953E+03 -0.36247513301E+03  0.56180106797E+03  0.72244279010E+03  0.12699999809E+01 0.  1.
</event>
<event>
 5   0  0.3962999E-03  0.1102003E+04  0.7818609E-02  0.9203241E-01
       -2   -1    0    0    0  501  0.00000000000E+00  0.00000000000E+00  0.33495346897E+03  0.33495346898E+03  0.25500000920E-02 0.  1.
        2   -1    0    0  501    0  0.00000000000E+00  0.00000000000E+00 -0.90640325330E+03  0.90640325331E+03  0.25500000920E-02 0. -1.
    10030    2    1    2    0    0  0.00000000000E+00  0.00000000000E+00 -0.57144978433E+03  0.12413567223E+04  0.11020034737E+04 0.  0.
        3    1    3    3  502    0 -0.69415052079E+02 -0.47785156840E+03  0.13247097852E+02  0.48304872081E+03  0.10100000352E+00 0. -1.
       -3    1    3    3    0  502  0.69415052079E+02  0.47785156840E+03 -0.58469688218E+03  0.75830800148E+03  0.10100000352E+00 0.  1.
</event>
<event>
 5   0  0.2255788E-03  0.1095222E+04  0.7818609E-02  0.9209862E-01
       -1   -1    0    0    0  501  0.00000000000E+00  0.00000000000E+00  0.37146961968E+03  0.37146961971E+03  0.50400001928E-02 0. -1.
        1   -1    0    0  501    0  0.00000000000E+00  0.00000000000E+00 -0.80727348659E+03  0.80727348661E+03  0.50400001928E-02 0.  1.
    10030    2    1    2    0    0  0.00000000000E+00  0.00000000000E+00 -0.43580386692E+03  0.11787431063E+04  0.10952215759E+04 0.  0.
        3    1    3    3  502    0 -0.47066539799E+03  0.21892602621E+03 -0.30178494735E+02  0.51996660812E+03  0.10100000352E+00 0.  1.
       -3    1    3    3    0  502  0.47066539799E+03 -0.21892602621E+03 -0.40562537218E+03  0.65877649819E+03  0.10100000352E+00 0. -1.
</event>
<event>
 5   0  0.2298958E-03  0.1097381E+04  0.7818609E-02  0.9207749E-01
       -1   -1    0    0    0  501  0.00000000000E+00  0.00000000000E+00  0.25435696766E+03  0.25435696771E+03  0.50400001928E-02 0.  1.
        1   -1    0    0  501    0  0.00000000000E+00  0.00000000000E+00 -0.11836163698E+04  0.11836163699E+04  0.50400001928E-02 0. -1.
    10030    2    1    2    0    0  0.00000000000E+00  0.00000000000E+00 -0.92925940219E+03  0.14379733376E+04  0.10973806464E+04 0.  0.
        1    1    3    3  502    0 -0.37414788764E+03  0.18094815715E+02 -0.98999935541E+03  0.10584955304E+04  0.50400001928E-02 0. -1.
       -1    1    3    3    0  502  0.37414788764E+03 -0.18094815715E+02  0.60739953216E+02  0.37947780715E+03  0.50400001928E-02 0.  1.
</event>
<event>
 5   0  0.2257667E-03  0.1088723E+04  0.7818609E-02  0.9216253E-01
        1   -1    0    0  501    0  0.00000000000E+00  0.00000000000E+00  0.89607682558E+03  0.89607682560E+03  0.50400001928E-02 0. -1.
       -1   -1    0    0    0  501  0.00000000000E+00  0.00000000000E+00 -0.33069663636E+03  0.33069663640E+03  0.50400001928E-02 0.  1.
    10030    2    1    2    0    0  0.00000000000E+00  0.00000000000E+00  0.56538018922E+03  0.12267734620E+04  0.10887232746E+04 0.  0.
        4    1    3    3  502    0 -0.45978016946E+03  0.29142733327E+03  0.28329107777E+03  0.61366370469E+03  0.12699999809E+01 0. -1.
       -4    1    3    3    0  502  0.45978016946E+03 -0.29142733327E+03  0.28208911145E+03  0.61310975731E+03  0.12699999809E+01 0.  1.
</event>
<event>
 5   0  0.3744875E-03  0.1079777E+04  0.7818609E-02  0.9225130E-01
       -2   -1    0    0    0  501  0.00000000000E+00  0.00000000000E+00  0.45869394424E+03  0.45869394425E+03  0.25500000920E-02 0. -1.
        2   -1    0    0  501    0  0.00000000000E+00  0.00000000000E+00 -0.63545533780E+03  0.63545533780E+03  0.25500000920E-02 0.  1.
    10030    2    1    2    0    0  0.00000000000E+00  0.00000000000E+00 -0.17676139356E+03  0.10941492821E+04  0.10797768571E+04 0.  0.
        2    1    3    3  502    0 -0.15177387241E+03  0.42135138491E+03  0.21714078165E+03  0.49771720582E+03  0.25500000920E-02 0. -1.
       -2    1    3    3    0  502  0.15177387241E+03 -0.42135138491E+03 -0.39390217521E+03  0.59643207623E+03  0.25500000920E-02 0.  1.
</event>
<event>
 5   0  0.3744875E-03  0.1103759E+04  0.7818609E-02  0.9201536E-01
       -2   -1    0    0    0  501  0.00000000000E+00  0.00000000000E+00  0.38382350015E+03  0.38382350016E+03  0.25500000920E-02 0. -1.
        2   -1    0    0  501    0  0.00000000000E+00  0.00000000000E+00 -0.79351798857E+03  0.79351798857E+03  0.25500000920E-02 0.  1.
    10030    2    1    2    0    0  0.00000000000E+00  0.00000000000E+00 -0.40969448842E+03  0.11773414887E+04  0.11037587632E+04 0.  0.
        2    1    3    3  502    0  0.38080710747E+03  0.88345908414E+02  0.21067589019E+03  0.44407587566E+03  0.25500000920E-02 0. -1.
       -2    1    3    3    0  502 -0.38080710747E+03 -0.88345908414E+02 -0.62037037862E+03  0.73326561306E+03  0.25500000920E-02 0.  1.
</event>
<event>
 5   0  0.3744875E-03  0.1086465E+04  0.7818609E-02  0.9218486E-01
        2   -1    0    0  501    0  0.00000000000E+00  0.00000000000E+00  0.90688641655E+03  0.90688641656E+03  0.25500000920E-02 0.  1.
       -2   -1    0    0    0  501  0.00000000000E+00  0.00000000000E+00 -0.32540061529E+03  0.32540061530E+03  0.25500000920E-02 0. -1.
    10030    2    1    2    0    0  0.00000000000E+00  0.00000000000E+00  0.58148580127E+03  0.12322870319E+04  0.10864647218E+04 0.  0.
        2    1    3    3  502    0 -0.44524793180E+03 -0.46239353604E+02 -0.58326347166E+02  0.45142636318E+03  0.25500000920E-02 0. -1.
       -2    1    3    3    0  502  0.44524793180E+03  0.46239353604E+02  0.63981214843E+03  0.78086066867E+03  0.25500000920E-02 0.  1.
</event>
<event>
 5   0  0.1508625E-03  0.1248237E+04  0.7818609E-02  0.9071652E-01
        4   -1    0    0  501    0  0.00000000000E+00  0.00000000000E+00  0.75194192472E+03  0.75194299721E+03  0.12699999809E+01 0. -1.
       -4   -1    0    0    0  501  0.00000000000E+00  0.00000000000E+00 -0.51802149849E+03  0.51802305528E+03  0.12699999809E+01 0.  1.
    10030    2    1    2    0    0  0.00000000000E+00  0.00000000000E+00  0.23392042623E+03  0.12699660525E+04  0.12482367599E+04 0.  0.
        3    1    3    3  502    0  0.47633186214E+03 -0.28975238035E+03  0.40233409925E+03  0.68754725105E+03  0.10100000352E+00 0.  1.
       -3    1    3    3    0  502 -0.47633186214E+03  0.28975238035E+03 -0.16841367302E+03  0.58241880143E+03  0.10100000352E+00 0. -1.
</event>
<event>
 5   0  0.2257667E-03  0.1099668E+04  0.7818609E-02  0.9205515E-01
        1   -1    0    0  501    0  0.00000000000E+00  0.00000000000E+00  0.53482878203E+03  0.53482878206E+03  0.50400001928E-02 0.  1.
       -1   -1    0    0    0  501  0.00000000000E+00  0.00000000000E+00 -0.56526025940E+03  0.56526025942E+03  0.50400001928E-02 0. -1.
    10030    2    1    2    0    0  0.00000000000E+00  0.00000000000E+00 -0.30431477366E+02  0.11000890415E+04  0.10996680519E+04 0.  0.
        4    1    3    3  502    0  0.52953665692E+03 -0.89999130891E+02 -0.13276361036E+03  0.55329621698E+03  0.12699999809E+01 0. -1.
       -4    1    3    3    0  502 -0.52953665692E+03  0.89999130891E+02  0.10233213299E+03  0.54679282450E+03  0.12699999809E+01 0.  1.
</event>
<event>
 5   0  0.2255788E-03  0.1097785E+04  0.7818609E-02  0.9207353E-01
       -1   -1    0    0    0  501  0.00000000000E+00  0.00000000000E+00  0.26690688751E+03  0.26690688756E+03  0.50400001928E-02 0.  1.
        1   -1    0    0  501    0  0.00000000000E+00  0.00000000000E+00 -0.11287948090E+04  0.11287948090E+04  0.50400001928E-02 0. -1.
    10030    2    1    2    0    0  0.00000000000E+00  0.00000000000E+00 -0.86188792148E+03  0.13957016966E+04  0.10977852416E+04 0.  0.
        3    1    3    3  502    0 -0.35327506084E+03  0.40991028882E+03 -0.31405040899E+03  0.62566555209E+03  0.10100000352E+00 0. -1.
       -3    1    3    3    0  502  0.35327506084E+03 -0.40991028882E+03 -0.54783751249E+03  0.77003614447E+03  0.10100000352E+00 0.  1.
</event>
<event>
 5   0  0.3748901E-03  0.1108679E+04  0.7818609E-02  0.9196774E-01
       -2   -1    0    0    0  501  0.00000000000E+00  0.00000000000E+00  0.53710682133E+03  0.53710682133E+03  0.25500000920E-02 0. -1.
        2   -1    0    0  501    0  0.00000000000E+00  0.00000000000E+00 -0.57212517957E+03  0.57212517957E+03  0.25500000920E-02 0.  1.
    10030    2    1    2    0    0  0.00000000000E+00  0.00000000000E+00 -0.35018358241E+02  0.11092320009E+04  0.11086790998E+04 0.  0.
        5    1    3    3  502    0 -0.17809675555E+02  0.51920070754E+03 -0.21095421867E+03  0.56072304360E+03  0.46999998093E+01 0. -1.
       -5    1    3    3    0  502  0.17809675555E+02 -0.51920070754E+03  0.17593586042E+03  0.54850895730E+03  0.46999998093E+01 0.  1.
</event>
<event>
 5   0  0.2257667E-03  0.1094686E+04  0.7818609E-02  0.9210387E-01
       -1   -1    0    0    0  501  0.00000000000E+00  0.00000000000E+00  0.41869537543E+03  0.41869537546E+03  0.50400001928E-02 0.  1.
        1   -1    0    0  501    0  0.00000000000E+00  0.00000000000E+00 -0.71551897321E+03  0.71551897323E+03  0.50400001928E-02 0. -1.
    10030    2    1    2    0    0  0.00000000000E+00  0.00000000000E+00 -0.29682359778E+03  0.11342143487E+04  0.10946862293E+04 0.  0.
        4    1    3    3  502    0  0.95274668711E+02  0.17025207998E+03  0.38144413500E+03  0.42844401532E+03  0.12699999809E+01 0.  1.
       -4    1    3    3    0  502 -0.95274668711E+02 -0.17025207998E+03 -0.67826773278E+03  0.70577033337E+03  0.12699999809E+01 0. -1.
</event>
<event>
 5   0  0.3748901E-03  0.1116949E+04  0.7818609E-02  0.9188828E-01
       -2   -1    0    0    0  501  0.00000000000E+00  0.00000000000E+00  0.50257688253E+03  0.50257688253E+03  0.25500000920E-02 0. -1.
        2   -1    0    0  501    0  0.00000000000E+00  0.00000000000E+00 -0.62058950578E+03  0.62058950578E+03  0.25500000920E-02 0.  1.
    10030    2    1    2    0    0  0.00000000000E+00  0.00000000000E+00 -0.11801262325E+03  0.11231663883E+04  0.11169493080E+04 0.  0.
        5    1    3    3  502    0 -0.46330765810E+03 -0.30951645562E+03 -0.96864598279E+02  0.56556101594E+03  0.46999998093E+01 0. -1.
       -5    1    3    3    0  502  0.46330765810E+03  0.30951645562E+03 -0.21148024973E+02  0.55760537238E+03  0.46999998093E+01 0.  1.
</event>
<event>
 5   0  0.2257667E-03  0.1080668E+04  0.7818609E-02  0.9224241E-01
       -1   -1    0    0    0  501  0.00000000000E+00  0.00000000000E+00  0.30415233061E+03  0.30415233065E+03  0.50400001928E-02 0. -1.
        1   -1    0    0  501    0  0.00000000000E+00  0.00000000000E+00 -0.95991716239E+03  0.95991716241E+03  0.50400001928E-02 0.  1.
    10030    2    1    2    0    0  0.00000000000E+00  0.00000000000E+00 -0.65576483179E+03  0.12640694931E+04  0.10806683898E+04 0.  0.
        4    1    3    3  502    0  0.97582677848E+02  0.27697871479E+03 -0.85842053430E+03  0.90726347555E+03  0.12699999809E+01 0.  1.
       -4    1    3    3    0  502 -0.97582677848E+02 -0.27697871479E+03  0.20265570251E+03  0.35680601750E+03  0.12699999809E+01 0. -1.
</event>
<event>
 5   0  0.2300702E-03  0.1093940E+04  0.7818609E-02  0.9211118E-01
        1   -1    0    0  501    0  0.00000000000E+00  0.00000000000E+00  0.41521170831E+03  0.41521170834E+03  0.50400001928E-02 0. -1.
       -1   -1    0    0    0  501  0.00000000000E+00  0.00000000000E+00 -0.72053918724E+03  0.72053918726E+03  0.50400001928E-02 0.  1.
    10030    2    1    2    0    0  0.00000000000E+00  0.00000000000E+00 -0.30532747893E+03  0.11357508956E+04  0.10939402303E+04 0.  0.
        5    1    3    3  502    0  0.23621679495E+03 -0.38749387068E+03 -0.46962600926E+03  0.65308540989E+03  0.46999998093E+01 0.  1.
       -5    1    3    3    0  502 -0.23621679495E+03  0.38749387068E+03  0.16429853033E+03  0.48266548572E+03  0.46999998093E+01 0. -1.
</event>
<event>
 5   0  0.2255788E-03  0.1135125E+04  0.7818609E-02  0.9171617E-01
       -1   -1    0    0    0  501  0.00000000000E+00  0.00000000000E+00  0.29619107705E+03  0.29619107709E+03  0.50400001928E-02 0.  1.
        1   -1    0    0  501    0  0.00000000000E+00  0.00000000000E+00 -0.10875650894E+04  0.10875650894E+04  0.50400001928E-02 0. -1.
    10030    2    1    2    0    0  0.00000000000E+00  0.00000000000E+00 -0.79137401239E+03  0.13837561665E+04  0.11351247953E+04 0.  0.
        3    1    3    3  502    0 -0.53857955926E+03  0.17899722226E+03 -0.39035691194E+03  0.68882978749E+03  0.10100000352E+00 0.  1.
       -3    1    3    3    0  502  0.53857955926E+03 -0.17899722226E+03 -0.40101710045E+03  0.69492637904E+03  0.10100000352E+00 0. -1.
</event>
<event>
 5   0  0.2298958E-03  0.1104703E+04  0.7818609E-02  0.9200620E-01
       -1   -1    0    0    0  501  0.00000000000E+00  0.00000000000E+00  0.84794566054E+03  0.84794566055E+03  0.50400001928E-02 0.  1.
        1   -1    0    0  501    0  0.00000000000E+00  0.00000000000E+00 -0.35980136828E+03  0.35980136831E+03  0.50400001928E-02 0. -1.
    10030    2    1    2    0    0  0.00000000000E+00  0.00000000000E+00  0.48814429226E+03  0.12077470289E+04  0.11047026911E+04 0.  0.
        1    1    3    3  502    0 -0.46286696245E+02 -0.27548626234E+03  0.76502436136E+03  0.81443072909E+03  0.50400001928E-02 0.  1.
       -1    1    3    3    0  502  0.46286696245E+02  0.27548626234E+03 -0.27688006909E+03  0.39331629978E+03  0.50400001928E-02 0. -1.
</event>
<event>
 5   0  0.3713158E-03  0.1097488E+04  0.7818609E-02  0.9207643E-01
       -2   -1    0    0    0  501  0.00000000000E+00  0.00000000000E+00  0.24471265052E+03  0.24471265054E+03  0.25500000920E-02 0.  1.
        2   -1    0    0  501    0  0.00000000000E+00  0.00000000000E+00 -0.12305052271E+04  0.12305052271E+04  0.25500000920E-02 0. -1.
    10030    2    1    2    0    0  0.00000000000E+00  0.00000000000E+00 -0.98579257654E+03  0.14752178776E+04  0.10974883974E+04 0.  0.
        4    1    3    3  502    0  0.33533122594E+03  0.11131951434E+02 -0.10765654791E+04  0.11276372622E+04  0.12699999809E+01 0. -1.
       -4    1    3    3    0  502 -0.33533122594E+03 -0.11131951434E+02  0.90772902590E+02  0.34758061536E+03  0.12699999809E+01 0.  1.
</event>
<event>
 5   0  0.3744875E-03  0.1140551E+04  0.7818609E-02  0.9166545E-01
       -2   -1    0    0    0  501  0.00000000000E+00  0.00000000000E+00  0.14593831460E+04  0.14593831460E+04  0.25500000920E-02 0. -1.
        2   -1    0    0  501    0  0.00000000000E+00  0.00000000000E+00 -0.22284342375E+03  0.22284342376E+03  0.25500000920E-02 0.  1.
    10030    2    1    2    0    0  0.00000000000E+00  0.00000000000E+00  0.12365397223E+04  0.16822265698E+04  0.11405506334E+04 0.  0.
        2    1    3    3  502    0 -0.43382152137E+03 -0.34424041937E+03  0.41759680763E+03  0.69360628060E+03  0.25500000920E-02 0.  1.
       -2    1    3    3    0  502  0.43382152137E+03  0.34424041937E+03  0.81894291465E+03  0.98862028919E+03  0.25500000920E-02 0. -1.
</event>
<event>
 5   0  0.2255788E-03  0.1097543E+04  0.7818609E-02  0.9207590E-01
       -1   -1    0    0    0  501  0.00000000000E+00  0.00000000000E+00  0.40863477493E+03  0.40863477497E+03  0.50400001928E-02 0. -1.
        1   -1    0    0  501    0  0.00000000000E+00  0.00000000000E+00 -0.73696699561E+03  0.73696699563E+03  0.50400001928E-02 0.  1.
    10030    2    1    2    0    0  0.00000000000E+00  0.00000000000E+00 -0.32833222068E+03  0.11456017706E+04  0.10975433338E+04 0.  0.
        3    1    3    3  502    0 -0.23097753075E+03 -0.28816687566E+03  0.25951325928E+03  0.45137335974E+03  0.10100000352E+00 0. -1.
       -3    1    3    3    0  502  0.23097753075E+03  0.28816687566E+03 -0.58784547996E+03  0.69422841086E+03  0.10100000352E+00 0.  1.
</event>
<event>
 5   0  0.3962999E-03  0.1105159E+04  0.7818609E-02  0.9200178E-01
       -2   -1    0    0    0  501  0.00000000000E+00  0.00000000000E+00  0.70092715734E+03  0.70092715734E+03  0.25500000920E-02 0.  1.
        2   -1    0    0  501    0  0.00000000000E+00  0.00000000000E+00 -0.43562920199E+03  0.43562920200E+03  0.25500000920E-02 0. -1.
    10030    2    1    2    0    0  0.00000000000E+00  0.00000000000E+00  0.26529795534E+03  0.11365563593E+04  0.11051594242E+04 0.  0.
        3    1    3    3  502    0 -0.31362018580E+03  0.21072699603E+03 -0.28201921767E+03  0.47148524594E+03  0.10100000352E+00 0. -1.
       -3    1    3    3    0  502  0.31362018580E+03 -0.21072699603E+03  0.54731717302E+03  0.66507111340E+03  0.10100000352E+00 0.  1.
</event>
<event>
 5   0  0.2298958E-03  0.1110942E+04  0.7818609E-02  0.9194592E-01
        1   -1    0    0  501    0  0.00000000000E+00  0.00000000000E+00  0.27227306245E+03  0.27227306250E+03  0.50400001928E-02 0. -1.
       -1   -1    0    0    0  501  0.00000000000E+00  0.00000000000E+00 -0.11332297953E+04  0.11332297953E+04  0.50400001928E-02 0.  1.
    10030    2    1    2    0    0  0.00000000000E+00  0.00000000000E+00 -0.86095673284E+03  0.14055028578E+04  0.11109418470E+04 0.  0.
        1    1    3    3  502    0 -0.33691296476E+03  0.20067123208E+03 -0.92819472469E+03  0.10076332349E+04  0.50400001928E-02 0.  1.
       -1    1    3    3    0  502  0.33691296476E+03 -0.20067123208E+03  0.67237991853E+02  0.39786962285E+03  0.50400001928E-02 0. -1.
</event>
<event>
 5   0  0.2257667E-03  0.1075914E+04  0.7818609E-02  0.9228991E-01
        1   -1    0    0  501    0  0.00000000000E+00  0.00000000000E+00  0.65745215946E+03  0.65745215948E+03  0.50400001928E-02 0. -1.
       -1   -1    0    0    0  501  0.00000000000E+00  0.00000000000E+00 -0.44018052503E+03  0.44018052506E+03  0.50400001928E-02 0.  1.
    10030    2    1    2    0    0  0.00000000000E+00  0.00000000000E+00  0.21727163443E+03  0.10976326845E+04  0.10759138195E+04 0.  0.
        4    1    3    3  502    0 -0.23868216131E+03 -0.23689115824E+02 -0.38260876752E+03  0.45157660504E+03  0.12699999809E+01 0.  1.
       -4    1    3    3    0  502  0.23868216131E+03  0.23689115824E+02  0.59988040194E+03  0.64605607951E+03  0.12699999809E+01 0. -1.
</event>
<event>
 5   0  0.2300702E-03  0.1096579E+04  0.7818609E-02  0.9208532E-01
        1   -1    0    0  501    0  0.00000000000E+00  0.00000000000E+00  0.63806796407E+03  0.63806796409E+03  0.50400001928E-02 0.  1.
       -1   -1    0    0    0  501  0.00000000000E+00  0.00000000000E+00 -0.47114334330E+03  0.47114334333E+03  0.50400001928E-02 0. -1.
    10030    2    1    2    0    0  0.00000000000E+00  0.00000000000E+00  0.16692462077E+03  0.11092113074E+04  0.10965791788E+04 0.  0.
        5    1    3    3  502    0  0.42170795189E+03 -0.35029654888E+03  0.90903343395E+02  0.55572545081E+03  0.46999998093E+01 0.  1.
       -5    1    3    3    0  502 -0.42170795189E+03  0.35029654888E+03  0.76021277373E+02  0.55348585660E+03  0.46999998093E+01 0. -1.
</event>
<event>
 5   0  0.3962999E-03  0.1111974E+04  0.7818609E-02  0.9193599E-01
       -2   -1    0    0    0  501  0.00000000000E+00  0.00000000000E+00  0.12036104984E+03  0.12036104987E+03  0.25500000920E-02 0.  1.
        2   -1    0    0  501    0  0.00000000000E+00  0.00000000000E+00 -0.25682855058E+04  0.25682855058E+04  0.25500000920E-02 0. -1.
    10030    2    1    2    0    0  0.00000000000E+00  0.00000000000E+00 -0.24479244559E+04  0.26886465556E+04  0.11119739922E+04 0.  0.
        3    1    3    3  502    0 -0.16626132509E+03 -0.17909005795E+02  0.58115286368E+02  0.17703377480E+03  0.10100000352E+00 0.  1.
       -3    1    3    3    0  502  0.16626132509E+03  0.17909005795E+02 -0.25060397423E+04  0.25116127808E+04  0.10100000352E+00 0. -1.
</event>
<event>
 5   0  0.2298958E-03  0.1119834E+04  0.7818609E-02  0.9186073E-01
        1   -1    0    0  501    0  0.00000000000E+00  0.00000000000E+00  0.42388528779E+03  0.42388528782E+03  0.50400001928E-02 0. -1.
       -1   -1    0    0    0  501  0.00000000000E+00  0.00000000000E+00 -0.73960360604E+03  0.73960360606E+03  0.50400001928E-02 0.  1.
    10030    2    1    2    0    0  0.00000000000E+00  0.00000000000E+00 -0.31571831825E+03  0.11634888939E+04  0.11198340724E+04 0.  0.
        1    1    3    3  502    0 -0.68828489798E+02  0.54661852792E+03 -0.54075641950E+02  0.55358228941E+03  0.50400001928E-02 0.  1.
       -1    1    3    3    0  502  0.68828489798E+02 -0.54661852792E+03 -0.26164267630E+03  0.60990660446E+03  0.50400001928E-02 0. -1.
</event>
<event>
 5   0  0.3992414E-03  0.1097027E+04  0.7818609E-02  0.9208094E-01
        2   -1    0    0  501    0  0.00000000000E+00  0.00000000000E+00  0.92572447472E+03  0.92572447472E+03  0.25500000920E-02 0.  1.
       -2   -1    0    0    0  501  0.00000000000E+00  0.00000000000E+00 -0.32500714312E+03  0.32500714313E+03  0.25500000920E-02 0. -1.
    10030    2    1    2    0    0  0.00000000000E+00  0.00000000000E+00  0.60071733160E+03  0.12507316179E+04  0.10970270131E+04 0.  0.
        1    1    3    3  502    0  0.10530364009E+03  0.52863596184E+03  0.41619200446E+03  0.68099972200E+03  0.50400001928E-02 0.  1.
       -1    1    3    3    0  502 -0.10530364009E+03 -0.52863596184E+03  0.18452532714E+03  0.56973189585E+03  0.50400001928E-02 0. -1.
</event>
<event>
 5   0  0.2257667E-03  0.1005716E+04  0.7818609E-02  0.9302298E-01
       -1   -1    0    0    0  501  0.00000000000E+00  0.00000000000E+00  0.31874710768E+03  0.31874710772E+03  0.50400001928E-02 0.  1.
        1   -1    0    0  501    0  0.00000000000E+00  0.00000000000E+00 -0.79331283340E+03  0.79331283341E+03  0.50400001928E-02 0. -1.
    10030    2    1    2    0    0  0.00000000000E+00  0.00000000000E+00 -0.47456572572E+03  0.11120599411E+04  0.10057160060E+04 0.  0.
        4    1    3    3  502    0 -0.29892244103E+03 -0.31268385146E+03  0.46223968330E+02  0.43504492281E+03  0.12699999809E+01 0.  1.
       -4    1    3    3    0  502  0.29892244103E+03  0.31268385146E+03 -0.52078969405E+03  0.67701501832E+03  0.12699999809E+01 0. -1.
</event>
<event>
 5   0  0.2300702E-03  0.1113777E+04  0.7818609E-02  0.9191867E-01
        1   -1    0    0  501    0  0.00000000000E+00  0.00000000000E+00  0.73767404131E+03  0.73767404133E+03  0.50400001928E-02 0.  1.
       -1   -1    0    0    0  501  0.00000000000E+00  0.00000000000E+00 -0.42040925585E+03  0.42040925588E+03  0.50400001928E-02 0. -1.
    10030    2    1    2    0    0  0.00000000000E+00  0.00000000000E+00  0.31726478546E+03  0.11580832972E+04  0.11137773472E+04 0.  0.
        5    1    3    3  502    0  0.27926184063E+03  0.41921813453E+03  0.40550488152E+03  0.64667404377E+03  0.46999998093E+01 0.  1.
       -5    1    3    3    0  502 -0.27926184063E+03 -0.41921813453E+03 -0.88240096062E+02  0.51140925344E+03  0.46999998093E+01 0. -1.
</event>
<event>
 5   0  0.2374100E-03  0.8957196E+03  0.7818609E-02  0.9430948E-01
       -1   -1    0    0    0  501  0.00000000000E+00  0.00000000000E+00  0.43135479094E+03  0.43135479097E+03  0.50400001928E-02 0.  1.
        1   -1    0    0  501    0  0.00000000000E+00  0.00000000000E+00 -0.46499638690E+03  0.46499638692E+03  0.50400001928E-02 0. -1.
    10030    2    1    2    0    0  0.00000000000E+00  0.00000000000E+00 -0.33641595956E+02  0.89635117789E+03  0.89571964204E+03 0.  0.
        2    1    3    3  502    0  0.88490130396E+01  0.24907095464E+03  0.35554876724E+03  0.43419992096E+03  0.25500000920E-02 0.  1.
       -2    1    3    3    0  502 -0.88490130396E+01 -0.24907095464E+03 -0.38919036319E+03  0.46215125693E+03  0.25500000920E-02 0. -1.
</event>
<event>
 5   0  0.2374100E-03  0.1095417E+04  0.7818609E-02  0.9209671E-01
        1   -1    0    0  501    0  0.00000000000E+00  0.00000000000E+00  0.47375175384E+03  0.47375175386E+03  0.50400001928E-02 0. -1.
       -1   -1    0    0    0  501  0.00000000000E+00  0.00000000000E+00 -0.63321015646E+03  0.63321015648E+03  0.50400001928E-02 0.  1.
    10030    2    1    2    0    0  0.00000000000E+00  0.00000000000E+00 -0.15945840262E+03  0.11069619103E+04  0.10954166736E+04 0.  0.
        2    1    3    3  502    0 -0.28865719106E+03 -0.31527303495E+03  0.26631880556E+03  0.50363257115E+03  0.25500000920E-02 0. -1.
       -2    1    3    3    0  502  0.28865719106E+03  0.31527303495E+03 -0.42577720818E+03  0.60332933920E+03  0.25500000920E-02 0.  1.
</event>
<event>
 5   0  0.2300702E-03  0.1098634E+04  0.7818609E-02  0.9206525E-01
        1   -1    0    0  501    0  0.00000000000E+00  0.00000000000E+00  0.13255931629E+04  0.13255931629E+04  0.50400001928E-02 0. -1.
       -1   -1    0    0    0  501  0.00000000000E+00  0.00000000000E+00 -0.22763320822E+03  0.22763320827E+03  0.50400001928E-02 0.  1.
    10030    2    1    2    0    0  0.00000000000E+00  0.00000000000E+00  0.10979599547E+04  0.15532263712E+04  0.10986337415E+04 0.  0.
        5    1    3    3  502    0 -0.45996628719E+03 -0.28863889228E+03  0.66595298259E+03  0.85930021559E+03  0.46999998093E+01 0. -1.
       -5    1    3    3    0  502  0.45996628719E+03  0.28863889228E+03  0.43200697208E+03  0.69392615559E+03  0.46999998093E+01 0.  1.
</event>
<event>
 5   0  0.3744875E-03  0.1110443E+04  0.7818609E-02  0.9195073E-01
       -2   -1    0    0    0  501  0.00000000000E+00  0.00000000000E+00  0.13497987593E+03  0.13497987595E+03  0.25500000920E-02 0.  1.
        2   -1    0    0  501    0  0.00000000000E+00  0.00000000000E+00 -0.22838287956E+04  0.22838287956E+04  0.25500000920E-02 0. -1.
    10030    2    1    2    0    0  0.00000000000E+00  0.00000000000E+00 -0.21488489197E+04  0.24188086716E+04  0.11104430242E+04 0.  0.
        2    1    3    3  502    0  0.24493357966E+03  0.34913765682E+03 -0.30005759960E+03  0.52146344545E+03  0.25500000920E-02 0.  1.
       -2    1    3    3    0  502 -0.24493357966E+03 -0.34913765682E+03 -0.18487913201E+04  0.18973452261E+04  0.25500000920E-02 0. -1.
</event>
<event>
 5   0  0.2257667E-03  0.1102910E+04  0.7818609E-02  0.9202360E-01
       -1   -1    0    0    0  501  0.00000000000E+00  0.00000000000E+00  0.39655656993E+03  0.39655656996E+03  0.50400001928E-02 0. -1.
        1   -1    0    0  501    0  0.00000000000E+00  0.00000000000E+00 -0.76685876971E+03  0.76685876973E+03  0.50400001928E-02 0.  1.
    10030    2    1    2    0    0  0.00000000000E+00  0.00000000000E+00 -0.37030219979E+03  0.11634153397E+04  0.11029104830E+04 0.  0.
        4    1    3    3  502    0  0.61084430961E+02 -0.32580899853E+03  0.27972773427E+03  0.43374189266E+03  0.12699999809E+01 0. -1.
       -4    1    3    3    0  502 -0.61084430961E+02  0.32580899853E+03 -0.65002993405E+03  0.72967344703E+03  0.12699999809E+01 0.  1.
</event>
<event>
 5   0  0.2298958E-03  0.1109877E+04  0.7818609E-02  0.9195619E-01
       -1   -1    0    0    0  501  0.00000000000E+00  0.00000000000E+00  0.71378062972E+03  0.71378062974E+03  0.50400001928E-02 0. -1.
        1   -1    0    0  501    0  0.00000000000E+00  0.00000000000E+00 -0.43144425590E+03  0.43144425593E+03  0.50400001928E-02 0.  1.
    10030    2    1    2    0    0  0.00000000000E+00  0.00000000000E+00  0.28233637382E+03  0.11452248857E+04  0.11098766647E+04 0.  0.
        1    1    3    3  502    0 -0.46767716235E+03  0.51485419160E+02 -0.16245474401E+03  0.49775919925E+03  0.50400001928E-02 0. -1.
       -1    1    3    3    0  502  0.46767716235E+03 -0.51485419160E+02  0.44479111783E+03  0.64746568642E+03  0.50400001928E-02 0.  1.
</event>
<event>
 5   0  0.2298958E-03  0.1122228E+04  0.7818609E-02  0.9183794E-01
        1   -1    0    0  501    0  0.00000000000E+00  0.00000000000E+00  0.52039084342E+03  0.52039084345E+03  0.50400001928E-02 0. -1.
       -1   -1    0    0    0  501  0.00000000000E+00  0.00000000000E+00 -0.60502385698E+03  0.60502385700E+03  0.50400001928E-02 0.  1.
    10030    2    1    2    0    0  0.00000000000E+00  0.00000000000E+00 -0.84633013554E+02  0.11254147004E+04  0.11222279185E+04 0.  0.
        1    1    3    3  502    0  0.12087688651E+03  0.36034148900E+03  0.37164092901E+03  0.53157707864E+03  0.50400001928E-02 0. -1.
       -1    1    3    3    0  502 -0.12087688651E+03 -0.36034148900E+03 -0.45627394257E+03  0.59383762181E+03  0.50400001928E-02 0.  1.
</event>
<event>
 5   0  0.1508625E-03  0.1112435E+04  0.7818609E-02  0.9193156E-01
        3   -1    0    0  501    0  0.00000000000E+00  0.00000000000E+00  0.41605279661E+03  0.41605280887E+03  0.10100000352E+00 0.  1.
       -3   -1    0    0    0  501  0.00000000000E+00  0.00000000000E+00 -0.74360222480E+03  0.74360223166E+03  0.10100000352E+00 0. -1.
    10030    2    1    2    0    0  0.00000000000E+00  0.00000000000E+00 -0.32754942819E+03  0.11596550405E+04  0.11124348004E+04 0.  0.
        3    1    3    3  502    0  0.48628718917E+03  0.14148217822E+03 -0.40350446868E+03  0.64754019454E+03  0.10100000352E+00 0. -1.
       -3    1    3    3    0  502 -0.48628718917E+03 -0.14148217822E+03  0.75955040491E+02  0.51211484598E+03  0.10100000352E+00 0.  1.
</event>
<event>
 5   0  0.3713158E-03  0.1090217E+04  0.7818609E-02  0.9214780E-01
        2   -1    0    0  501    0  0.00000000000E+00  0.00000000000E+00  0.47249219725E+03  0.47249219725E+03  0.25500000920E-02 0. -1.
       -2   -1    0    0    0  501  0.00000000000E+00  0.00000000000E+00 -0.62888459163E+03  0.62888459164E+03  0.25500000920E-02 0.  1.
    10030    2    1    2    0    0  0.00000000000E+00  0.00000000000E+00 -0.15639239439E+03  0.11013767889E+04  0.10902166070E+04 0.  0.
        4    1    3    3  502    0  0.24874028515E+03 -0.25585516863E+03  0.33809958591E+03  0.49157556862E+03  0.12699999809E+01 0. -1.
       -4    1    3    3    0  502 -0.24874028515E+03  0.25585516863E+03 -0.49449198029E+03  0.60980122027E+03  0.12699999809E+01 0.  1.
</event>
<event>
 5   0  0.2298958E-03  0.1104623E+04  0.7818609E-02  0.9200698E-01
       -1   -1    0    0    0  501  0.00000000000E+00  0.00000000000E+00  0.11530913138E+04  0.11530913138E+04  0.50400001928E-02 0. -1.
        1   -1    0    0  501    0  0.00000000000E+00  0.00000000000E+00 -0.26454789052E+03  0.26454789057E+03  0.50400001928E-02 0.  1.
    10030    2    1    2    0    0  0.00000000000E+00  0.00000000000E+00  0.88854342324E+03  0.14176392043E+04  0.11046227857E+04 0.  0.
        1    1    3    3  502    0 -0.89337057632E+02  0.49297506676E+03  0.14592667046E+03  0.52182383952E+03  0.50400001928E-02 0.  1.
       -1    1    3    3    0  502  0.89337057632E+02 -0.49297506676E+03  0.74261675278E+03  0.89581536482E+03  0.50400001928E-02 0. -1.
</event>
<event>
 5   0  0.3713158E-03  0.1126431E+04  0.7818609E-02  0.9179807E-01
       -2   -1    0    0    0  501  0.00000000000E+00  0.00000000000E+00  0.44268285572E+03  0.44268285572E+03  0.25500000920E-02 0.  1.
        2   -1    0    0  501    0  0.00000000000E+00  0.00000000000E+00 -0.71656613593E+03  0.71656613594E+03  0.25500000920E-02 0. -1.
    10030    2    1    2    0    0  0.00000000000E+00  0.00000000000E+00 -0.27388328021E+03  0.11592489917E+04  0.11264307229E+04 0.  0.
        4    1    3    3  502    0  0.37962516573E+03 -0.90534379964E+02  0.28096587795E+03  0.48088998522E+03  0.12699999809E+01 0.  1.
       -4    1    3    3    0  502 -0.37962516573E+03  0.90534379964E+02 -0.55484915816E+03  0.67835900644E+03  0.12699999809E+01 0. -1.
</event>
<event>
 5   0  0.3962999E-03  0.1103051E+04  0.7818609E-02  0.9202223E-01
       -2   -1    0    0    0  501  0.00000000000E+00  0.00000000000E+00  0.94909479532E+03  0.94909479533E+03  0.25500000920E-02 0.  1.
        2   -1    0    0  501    0  0.00000000000E+00  0.00000000000E+00 -0.32049517462E+03  0.32049517463E+03  0.25500000920E-02 0. -1.
    10030    2    1    2    0    0  0.00000000000E+00  0.00000000000E+00  0.62859962070E+03  0.12695899700E+04  0.11030508640E+04 0.  0.
        3    1    3    3  502    0  0.36739915036E+03 -0.27777503485E+03  0.66348380487E+03  0.80768302892E+03  0.10100000352E+00 0.  1.
       -3    1    3    3    0  502 -0.36739915036E+03  0.27777503485E+03 -0.34884184172E+02  0.46190694104E+03  0.10100000352E+00 0. -1.
</event>
<event>
 5   0  0.3992414E-03  0.1102426E+04  0.7818609E-02  0.9202831E-01
       -2   -1    0    0    0  501  0.00000000000E+00  0.00000000000E+00  0.20925746127E+03  0.20925746128E+03  0.25500000920E-02 0.  1.
        2   -1    0    0  501    0  0.00000000000E+00  0.00000000000E+00 -0.14519697462E+04  0.14519697462E+04  0.25500000920E-02 0. -1.
    10030    2    1    2    0    0  0.00000000000E+00  0.00000000000E+00 -0.12427122849E+04  0.16612272075E+04  0.11024255130E+04 0.  0.
        1    1    3    3  502    0  0.12241737058E+03  0.51788321294E+03 -0.83787845867E+03  0.99258719838E+03  0.50400001928E-02 0.  1.
       -1    1    3    3    0  502 -0.12241737058E+03 -0.51788321294E+03 -0.40483382626E+03  0.66864000910E+03  0.50400001928E-02 0. -1.
</event>
<event>
 5   0  0.3713158E-03  0.1112692E+04  0.7818609E-02  0.9192909E-01
        2   -1    0    0  501    0  0.00000000000E+00  0.00000000000E+00  0.13607706836E+04  0.13607706836E+04  0.25500000920E-02 0.  1.
       -2   -1    0    0    0  501  0.00000000000E+00  0.00000000000E+00 -0.22746005943E+03  0.22746005945E+03  0.25500000920E-02 0. -1.
    10030    2    1    2    0    0  0.00000000000E+00  0.00000000000E+00  0.11333106242E+04  0.15882307431E+04  0.11126921957E+04 0.  0.
        4    1    3    3  502    0 -0.78785571727E+02 -0.54770705510E+03  0.48429700684E+03  0.73534712093E+03  0.12699999809E+01 0. -1.
       -4    1    3    3    0  502  0.78785571727E+02  0.54770705510E+03  0.64901361736E+03  0.85288362215E+03  0.12699999809E+01 0.  1.
</event>
<event>
 5   0  0.2298958E-03  0.1081957E+04  0.7818609E-02  0.9222958E-01
        1   -1    0    0  501    0  0.00000000000E+00  0.00000000000E+00  0.10289633824E+04  0.10289633824E+04  0.50400001928E-02 0.  1.
       -1   -1    0    0    0  501  0.00000000000E+00  0.00000000000E+00 -0.28442016035E+03  0.28442016040E+03  0.50400001928E-02 0. -1.
    10030    2    1    2    0    0  0.00000000000E+00  0.00000000000E+00  0.74454322204E+03  0.13133835428E+04  0.10819573564E+04 0.  0.
        1    1    3    3  502    0  0.36241736831E+03 -0.38809498611E+03  0.24674126192E+03  0.58552994583E+03  0.50400001928E-02 0.  1.
       -1    1    3    3    0  502 -0.36241736831E+03  0.38809498611E+03  0.49780196013E+03  0.72785359698E+03  0.50400001928E-02 0. -1.
</event>
<event>
 5   0  0.3962999E-03  0.1095525E+04  0.7818609E-02  0.9209565E-01
       -2   -1    0    0    0  501  0.00000000000E+00  0.00000000000E+00  0.31887302048E+03  0.31887302049E+03  0.25500000920E-02 0. -1.
        2   -1    0    0  501    0  0.00000000000E+00  0.00000000000E+00 -0.94095044457E+03  0.94095044458E+03  0.25500000920E-02 0.  1.
    10030    2    1    2    0    0  0.00000000000E+00  0.00000000000E+00 -0.62207742409E+03  0.12598234651E+04  0.10955249160E+04 0.  0.
        3    1    3    3  502    0  0.35135697643E+03  0.24082818334E+03  0.84982415196E+02  0.43436385654E+03  0.10100000352E+00 0. -1.
       -3    1    3    3    0  502 -0.35135697643E+03 -0.24082818334E+03 -0.70705983929E+03  0.82545960853E+03  0.10100000352E+00 0.  1.
</event>
<event>
 5   0  0.2298958E-03  0.1101968E+04  0.7818609E-02  0.9203276E-01
        1   -1    0    0  501    0  0.00000000000E+00  0.00000000000E+00  0.11240709960E+04  0.11240709960E+04  0.50400001928E-02 0.  1.
       -1   -1    0    0    0  501  0.00000000000E+00  0.00000000000E+00 -0.27007473510E+03  0.27007473515E+03  0.50400001928E-02 0. -1.
    10030    2    1    2    0    0  0.00000000000E+00  0.00000000000E+00  0.85399626089E+03  0.13941457311E+04  0.11019676520E+04 0.  0.
        1    1    3    3  502    0 -0.49482013331E+03 -0.63920256972E+02  0.72275582415E+03  0.87824184878E+03  0.50400001928E-02 0.  1.
       -1    1    3    3    0  502  0.49482013331E+03  0.63920256972E+02  0.13124043674E+03  0.51590388237E+03  0.50400001928E-02 0. -1.
</event>
<event>
 5   0  0.3713158E-03  0.1080721E+04  0.7818609E-02  0.9224189E-01
        2   -1    0    0  501    0  0.00000000000E+00  0.00000000000E+00  0.90520433549E+03  0.90520433549E+03  0.25500000920E-02 0. -1.
       -2   -1    0    0    0  501  0.00000000000E+00  0.00000000000E+00 -0.32256754782E+03  0.32256754783E+03  0.25500000920E-02 0.  1.
    10030    2    1    2    0    0  0.00000000000E+00  0.00000000000E+00  0.58263678767E+03  0.12277718833E+04  0.10807211348E+04 0.  0.
        4    1    3    3  502    0 -0.33334263279E+03 -0.21727014017E+03 -0.12402925993E+03  0.41678351079E+03  0.12699999809E+01 0.  1.
       -4    1    3    3    0  502  0.33334263279E+03  0.21727014017E+03  0.70666604760E+03  0.81098837253E+03  0.12699999809E+01 0. -1.
</event>
<event>
 5   0  0.3744875E-03  0.1089835E+04  0.7818609E-02  0.9215157E-01
        2   -1    0    0  501    0  0.00000000000E+00  0.00000000000E+00  0.99632340833E+03  0.99632340834E+03  0.25500000920E-02 0.  1.
       -2   -1    0    0    0  501  0.00000000000E+00  0.00000000000E+00 -0.29803069819E+03  0.29803069820E+03  0.25500000920E-02 0. -1.
    10030    2    1    2    0    0  0.00000000000E+00  0.00000000000E+00  0.69829271015E+03  0.12943541065E+04  0.10898347783E+04 0.  0.
        2    1    3    3  502    0  0.31151670825E+03  0.22519690602E+03  0.80786435997E+03  0.89465140145E+03  0.25500000920E-02 0.  1.
       -2    1    3    3    0  502 -0.31151670825E+03 -0.22519690602E+03 -0.10957164982E+03  0.39970270509E+03  0.25500000920E-02 0. -1.
</event>
<event>
 5   0  0.3992414E-03  0.1097265E+04  0.7818609E-02  0.9207861E-01
       -2   -1    0    0    0  501  0.00000000000E+00  0.00000000000E+00  0.32918781441E+03  0.32918781442E+03  0.25500000920E-02 0. -1.
        2   -1    0    0  501    0  0.00000000000E+00  0.00000000000E+00 -0.91436486176E+03  0.91436486177E+03  0.25500000920E-02 0.  1.
    10030    2    1    2    0    0  0.00000000000E+00  0.00000000000E+00 -0.58517704735E+03  0.12435526762E+04  0.10972652741E+04 0.  0.
        1    1    3    3  502    0  0.51533090261E+03 -0.18789178536E+03 -0.30543600473E+03  0.62782196139E+03  0.50400001928E-02 0.  1.
       -1    1    3    3    0  502 -0.51533090261E+03  0.18789178536E+03 -0.27974104262E+03  0.61573071480E+03  0.50400001928E-02 0. -1.
</event>
<event>
 5   0  0.3992414E-03  0.1097481E+04  0.7818609E-02  0.9207651E-01
       -2   -1    0    0    0  501  0.00000000000E+00  0.00000000000E+00  0.40535956048E+03  0.40535956049E+03  0.25500000920E-02 0. -1.
        2   -1    0    0  501    0  0.00000000000E+00  0.00000000000E+00 -0.74283646754E+03  0.74283646754E+03  0.25500000920E-02 0.  1.
    10030    2    1    2    0    0  0.00000000000E+00  0.00000000000E+00 -0.33747690705E+03  0.11481960280E+04  0.10974805037E+04 0.  0.
        1    1    3    3  502    0 -0.24387954224E+03 -0.48989836278E+03 -0.21108385606E+03  0.58654414266E+03  0.50400001928E-02 0.  1.
       -1    1    3    3    0  502  0.24387954224E+03  0.48989836278E+03 -0.12639305099E+03  0.56165188537E+03  0.50400001928E-02 0. -1.
</event>
<event>
 5   0  0.1508625E-03  0.1109586E+04  0.7818609E-02  0.9195898E-01
       -3   -1    0    0    0  501  0.00000000000E+00  0.00000000000E+00  0.33455083830E+03  0.33455085354E+03  0.10100000352E+00 0.  1.
        3   -1    0    0  501    0  0.00000000000E+00  0.00000000000E+00 -0.92002590655E+03  0.92002591209E+03  0.10100000352E+00 0. -1.
    10030    2    1    2    0    0  0.00000000000E+00  0.00000000000E+00 -0.58547506825E+03  0.12545767656E+04  0.11095863217E+04 0.  0.
        3    1    3    3  502    0  0.22512654636E+03  0.39107759861E+03  0.72193847721E+02  0.45698535191E+03  0.10100000352E+00 0.  1.
       -3    1    3    3    0  502 -0.22512654636E+03 -0.39107759861E+03 -0.65766891597E+03  0.79759141373E+03  0.10100000352E+00 0. -1.
</event>
<event>
 5   0  0.3744875E-03  0.1099514E+04  0.7818609E-02  0.9205666E-01
       -2   -1    0    0    0  501  0.00000000000E+00  0.00000000000E+00  0.25470045359E+03  0.25470045361E+03  0.25500000920E-02 0.  1.
        2   -1    0    0  501    0  0.00000000000E+00  0.00000000000E+00 -0.11866193731E+04  0.11866193731E+04  0.25500000920E-02 0. -1.
    10030    2    1    2    0    0  0.00000000000E+00  0.00000000000E+00 -0.93191891952E+03  0.14413198267E+04  0.10995135153E+04 0.  0.
        2    1    3    3  502    0 -0.37973227552E+03 -0.23283155938E+03 -0.43571525222E+02  0.44755515183E+03  0.25500000920E-02 0.  1.
       -2    1    3    3    0  502  0.37973227552E+03  0.23283155938E+03 -0.88834739430E+03  0.99376467490E+03  0.25500000920E-02 0. -1.
</event>
<event>
 5   0  0.2374100E-03  0.1096079E+04  0.7818609E-02  0.9209022E-01
        1   -1    0    0  501    0  0.00000000000E+00  0.00000000000E+00  0.96743084583E+03  0.96743084584E+03  0.50400001928E-02 0.  1.
       -1   -1    0    0    0  501  0.00000000000E+00  0.00000000000E+00 -0.31045894237E+03  0.31045894242E+03  0.50400001928E-02 0. -1.
    10030    2    1    2    0    0  0.00000000000E+00  0.00000000000E+00  0.65697190345E+03  0.12778897883E+04  0.10960794812E+04 0.  0.
        2    1    3    3  502    0 -0.40426300568E+02  0.53756814557E+03  0.44351080189E+03  0.69807995839E+03  0.25500000920E-02 0. -1.
       -2    1    3    3    0  502  0.40426300568E+02 -0.53756814557E+03  0.21346110156E+03  0.57980982986E+03  0.25500000920E-02 0.  1.
</event>
<event>
 5   0  0.2374100E-03  0.1030795E+04  0.7818609E-02  0.9275400E-01
       -1   -1    0    0    0  501  0.00000000000E+00  0.00000000000E+00  0.38857707177E+03  0.38857707181E+03  0.50400001928E-02 0.  1.
        1   -1    0    0  501    0  0.00000000000E+00  0.00000000000E+00 -0.68360836038E+03  0.68360836040E+03  0.50400001928E-02 0. -1.
    10030    2    1    2    0    0  0.00000000000E+00  0.00000000000E+00 -0.29503128861E+03  0.10721854322E+04  0.10307949067E+04 0.  0.
        2    1    3    3  502    0  0.11449768584E+03 -0.26950984185E+03 -0.58867983735E+03  0.65748705373E+03  0.25500000920E-02 0. -1.
       -2    1    3    3    0  502 -0.11449768584E+03  0.26950984185E+03  0.29364854874E+03  0.41469837847E+03  0.25500000920E-02 0.  1.
</event>
<event>
 5   0  0.2257667E-03  0.1104950E+04  0.7818609E-02  0.9200381E-01
        1   -1    0    0  501    0  0.00000000000E+00  0.00000000000E+00  0.47612169470E+03  0.47612169473E+03  0.50400001928E-02 0.  1.
       -1   -1    0    0    0  501  0.00000000000E+00  0.00000000000E+00 -0.64107216331E+03  0.64107216333E+03  0.50400001928E-02 0. -1.
    10030    2    1    2    0    0  0.00000000000E+00  0.00000000000E+00 -0.16495046861E+03  0.11171938581E+04  0.11049495280E+04 0.  0.
        4    1    3    3  502    0 -0.34334166399E+03  0.36768218528E+03 -0.31337634094E+03  0.59268881511E+03  0.12699999809E+01 0. -1.
       -4    1    3    3    0  502  0.34334166399E+03 -0.36768218528E+03  0.14842587232E+03  0.52450504295E+03  0.12699999809E+01 0.  1.
</event>
<event>
 5   0  0.2300702E-03  0.1092940E+04  0.7818609E-02  0.9212100E-01
        1   -1    0    0  501    0  0.00000000000E+00  0.00000000000E+00  0.26869214251E+03  0.26869214256E+03  0.50400001928E-02 0. -1.
       -1   -1    0    0    0  501  0.00000000000E+00  0.00000000000E+00 -0.11114188691E+04  0.11114188691E+04  0.50400001928E-02 0.  1.
    10030    2    1    2    0    0  0.00000000000E+00  0.00000000000E+00 -0.84272672658E+03  0.13801110117E+04  0.10929401030E+04 0.  0.
        5    1    3    3  502    0  0.32064669210E+03  0.43985877223E+03 -0.36057549691E+03  0.65293707172E+03  0.46999998093E+01 0. -1.
       -5    1    3    3    0  502 -0.32064669210E+03 -0.43985877223E+03 -0.48215122966E+03  0.72717393994E+03  0.46999998093E+01 0.  1.
</event>
<event>
 5   0  0.2300702E-03  0.1102361E+04  0.7818609E-02  0.9202894E-01
       -1   -1    0    0    0  501  0.00000000000E+00  0.00000000000E+00  0.14784659928E+03  0.14784659937E+03  0.50400001928E-02 0.  1.
        1   -1    0    0  501    0  0.00000000000E+00  0.00000000000E+00 -0.20548312107E+04  0.20548312107E+04  0.50400001928E-02 0. -1.
    10030    2    1    2    0    0  0.00000000000E+00  0.00000000000E+00 -0.19069846114E+04  0.22026778101E+04  0.11023607517E+04 0.  0.
        5    1    3    3  502    0  0.14301446927E+03 -0.18801479268E+03 -0.19485109029E+04  0.19627836176E+04  0.46999998093E+01 0. -1.
       -5    1    3    3    0  502 -0.14301446927E+03  0.18801479268E+03  0.41526291531E+02  0.23989419245E+03  0.46999998093E+01 0.  1.
</event>
<event>
 5   0  0.3962999E-03  0.1148460E+04  0.7818609E-02  0.9159205E-01
       -2   -1    0    0    0  501  0.00000000000E+00  0.00000000000E+00  0.29666094491E+03  0.29666094492E+03  0.25500000920E-02 0. -1.
        2   -1    0    0  501    0  0.00000000000E+00  0.00000000000E+00 -0.11115053109E+04  0.11115053109E+04  0.25500000920E-02 0.  1.
    10030    2    1    2    0    0  0.00000000000E+00  0.00000000000E+00 -0.81484436603E+03  0.14081662559E+04  0.11484602141E+04 0.  0.
        3    1    3    3  502    0 -0.20442065360E+03  0.52782435311E+03 -0.52600814424E+03  0.77270364912E+03  0.10100000352E+00 0. -1.
       -3    1    3    3    0  502  0.20442065360E+03 -0.52782435311E+03 -0.28883622179E+03  0.63546260674E+03  0.10100000352E+00 0.  1.
</event>
<event>
 5   0  0.3962999E-03  0.1170676E+04  0.7818609E-02  0.9138918E-01
       -2   -1    0    0    0  501  0.00000000000E+00  0.00000000000E+00  0.22225360813E+03  0.22225360814E+03  0.25500000920E-02 0.  1.
        2   -1    0    0  501    0  0.00000000000E+00  0.00000000000E+00 -0.15415758880E+04  0.15415758880E+04  0.25500000920E-02 0. -1.
    10030    2    1    2    0    0  0.00000000000E+00  0.00000000000E+00 -0.13193222799E+04  0.17638294961E+04  0.11706763914E+04 0.  0.
        3    1    3    3  502    0  0.28177692342E+02 -0.55085534110E+03 -0.36447112225E+03  0.66111632737E+03  0.10100000352E+00 0.  1.
       -3    1    3    3    0  502 -0.28177692342E+02  0.55085534110E+03 -0.95485115762E+03  0.11027131688E+04  0.10100000352E+00 0. -1.
</event>
<event>
 5   0  0.2300702E-03  0.1166627E+04  0.7818609E-02  0.9142580E-01
       -1   -1    0    0    0  501  0.00000000000E+00  0.00000000000E+00  0.50615011122E+03  0.50615011124E+03  0.50400001928E-02 0. -1.
        1   -1    0    0  501    0  0.00000000000E+00  0.00000000000E+00 -0.67224089976E+03  0.67224089978E+03  0.50400001928E-02 0.  1.
    10030    2    1    2    0    0  0.00000000000E+00  0.00000000000E+00 -0.16609078854E+03  0.11783910110E+04  0.11666272862E+04 0.  0.
        5    1    3    3  502    0  0.26919182945E+03  0.10190166107E+02  0.43953461072E+03  0.51553937245E+03  0.46999998093E+01 0. -1.
       -5    1    3    3    0  502 -0.26919182945E+03 -0.10190166107E+02 -0.60562539927E+03  0.66285163857E+03  0.46999998093E+01 0.  1.
</event>
<event>
 5   0  0.3992414E-03  0.1100489E+04  0.7818609E-02  0.9204715E-01
        2   -1    0    0  501    0  0.00000000000E+00  0.00000000000E+00  0.11697111055E+04  0.11697111055E+04  0.25500000920E-02 0.  1.
       -2   -1    0    0    0  501  0.00000000000E+00  0.00000000000E+00 -0.25884092030E+03  0.25884092032E+03  0.25500000920E-02 0. -1.
    10030    2    1    2    0    0  0.00000000000E+00  0.00000000000E+00  0.91087018523E+03  0.14285520259E+04  0.11004891623E+04 0.  0.
        1    1    3    3  502    0 -0.11239903855E+03 -0.56791770214E+02  0.11507528543E+04  0.11576229873E+04  0.50400001928E-02 0.  1.
       -1    1    3    3    0  502  0.11239903855E+03  0.56791770214E+02 -0.23988266902E+03  0.27092903860E+03  0.50400001928E-02 0. -1.
</event>
<event>
 5   0  0.2374100E-03  0.1108929E+04  0.7818609E-02  0.9196533E-01
       -1   -1    0    0    0  501  0.00000000000E+00  0.00000000000E+00  0.55793206212E+03  0.55793206215E+03  0.50400001928E-02 0.  1.
        1   -1    0    0  501    0  0.00000000000E+00  0.00000000000E+00 -0.55101805170E+03  0.55101805172E+03  0.50400001928E-02 0. -1.
    10030    2    1    2    0    0  0.00000000000E+00  0.00000000000E+00  0.69140104259E+01  0.11089501139E+04  0.11089285601E+04 0.  0.
        2    1    3    3  502    0 -0.15663808320E+03 -0.72693334770E+01  0.53529654925E+03  0.55779093572E+03  0.25500000920E-02 0.  1.
       -2    1    3    3    0  502  0.15663808320E+03  0.72693334770E+01 -0.52838253883E+03  0.55115917815E+03  0.25500000920E-02 0. -1.
</event>
<event>
 5   0  0.3962999E-03  0.1102576E+04  0.7818609E-02  0.9202685E-01
        2   -1    0    0  501    0  0.00000000000E+00  0.00000000000E+00  0.61861709223E+03  0.61861709224E+03  0.25500000920E-02 0. -1.
       -2   -1    0    0    0  501  0.00000000000E+00  0.00000000000E+00 -0.49128654362E+03  0.49128654363E+03  0.25500000920E-02 0.  1.
    10030    2    1    2    0    0  0.00000000000E+00  0.00000000000E+00  0.12733054861E+03  0.11099036359E+04  0.11025756266E+04 0.  0.
        3    1    3    3  502    0 -0.36929141407E+02  0.29997965717E+03 -0.40044853201E+03  0.50170767703E+03  0.10100000352E+00 0.  1.
       -3    1    3    3    0  502  0.36929141407E+02 -0.29997965717E+03  0.52777908062E+03  0.60819595883E+03  0.10100000352E+00 0. -1.
</event>
<event>
 5   0  0.3713158E-03  0.1080366E+04  0.7818609E-02  0.9224543E-01
        2   -1    0    0  501    0  0.00000000000E+00  0.00000000000E+00  0.78517220679E+03  0.78517220680E+03  0.25500000920E-02 0.  1.
       -2   -1    0    0    0  501  0.00000000000E+00  0.00000000000E+00 -0.37163524108E+03  0.37163524108E+03  0.25500000920E-02 0. -1.
    10030    2    1    2    0    0  0.00000000000E+00  0.00000000000E+00  0.41353696572E+03  0.11568074479E+04  0.10803659794E+04 0.  0.
        4    1    3    3  502    0 -0.27298488165E+03 -0.16361491963E+02  0.70556987121E+03  0.75671586484E+03  0.12699999809E+01 0.  1.
       -4    1    3    3    0  502  0.27298488165E+03  0.16361491963E+02 -0.29203290550E+03  0.40009158304E+03  0.12699999809E+01 0. -1.
</event>
<event>
 5   0  0.3748901E-03  0.1103518E+04  0.7818609E-02  0.9201770E-01
        2   -1    0    0  501    0  0.00000000000E+00  0.00000000000E+00  0.55924949836E+03  0.55924949837E+03  0.25500000920E-02 0.  1.
       -2   -1    0    0    0  501  0.00000000000E+00  0.00000000000E+00 -0.54436836510E+03  0.54436836511E+03  0.25500000920E-02 0. -1.
    10030    2    1    2    0    0  0.00000000000E+00  0.00000000000E+00  0.14881133262E+02  0.11036178635E+04  0.11035175307E+04 0.  0.
        5    1    3    3  502    0  0.24111457627E+02 -0.12642128581E+03 -0.52912656535E+03  0.54457388485E+03  0.46999998093E+01 0. -1.
       -5    1    3    3    0  502 -0.24111457627E+02  0.12642128581E+03  0.54400769862E+03  0.55904397863E+03  0.46999998093E+01 0.  1.
</event>
<event>
 5   0  0.2298958E-03  0.1095266E+04  0.7818609E-02  0.9209818E-01
       -1   -1    0    0    0  501  0.00000000000E+00  0.00000000000E+00  0.22863038078E+03  0.22863038084E+03  0.50400001928E-02 0.  1.
        1   -1    0    0  501    0  0.00000000000E+00  0.00000000000E+00 -0.13117327296E+04  0.13117327296E+04  0.50400001928E-02 0. -1.
    10030    2    1    2    0    0  0.00000000000E+00  0.00000000000E+00 -0.10831023488E+04  0.15403631104E+04  0.10952660928E+04 0.  0.
        1    1    3    3  502    0  0.50894278843E+02  0.66803314075E+02 -0.13026225199E+04  0.13053269091E+04  0.50400001928E-02 0. -1.
       -1    1    3    3    0  502 -0.50894278843E+02 -0.66803314075E+02  0.21952017107E+03  0.23503620130E+03  0.50400001928E-02 0.  1.
</event>
<event>
 5   0  0.2255788E-03  0.1094147E+04  0.7818609E-02  0.9210916E-01
       -1   -1    0    0    0  501  0.00000000000E+00  0.00000000000E+00  0.36225545191E+03  0.36225545194E+03  0.50400001928E-02 0. -1.
        1   -1    0    0  501    0  0.00000000000E+00  0.00000000000E+00 -0.82618303606E+03  0.82618303608E+03  0.50400001928E-02 0.  1.
    10030    2    1    2    0    0  0.00000000000E+00  0.00000000000E+00 -0.46392758415E+03  0.11884384880E+04  0.10941468075E+04 0.  0.
        3    1    3    3  502    0 -0.14383980965E+03 -0.50790510590E+03 -0.75947557873E+02  0.53331559998E+03  0.10100000352E+00 0. -1.
       -3    1    3    3    0  502  0.14383980965E+03  0.50790510590E+03 -0.38798002628E+03  0.65512288804E+03  0.10100000352E+00 0.  1.
</event>
<event>
 5   0  0.2257667E-03  0.9628298E+03  0.7818609E-02  0.9350279E-01
       -1   -1    0    0    0  501  0.00000000000E+00  0.00000000000E+00  0.11000672053E+03  0.11000672065E+03  0.50400001928E-02 0.  1.
        1   -1    0    0  501    0  0.00000000000E+00  0.00000000000E+00 -0.21067830402E+04  0.21067830402E+04  0.50400001928E-02 0. -1.
    10030    2    1    2    0    0  0.00000000000E+00  0.00000000000E+00 -0.19967763196E+04  0.22167897608E+04  0.96282977365E+03 0.  0.
        4    1    3    3  502    0  0.47206472611E+03 -0.12736608317E+02 -0.12137717488E+04  0.13024019341E+04  0.12699999809E+01 0. -1.
       -4    1    3    3    0  502 -0.47206472611E+03  0.12736608317E+02 -0.78300457078E+03  0.91438782669E+03  0.12699999809E+01 0.  1.
</event>
<event>
 5   0  0.2300702E-03  0.1106074E+04  0.7818609E-02  0.9199292E-01
        1   -1    0    0  501    0  0.00000000000E+00  0.00000000000E+00  0.58672225086E+03  0.58672225088E+03  0.50400001928E-02 0. -1.
       -1   -1    0    0    0  501  0.00000000000E+00  0.00000000000E+00 -0.52128591654E+03  0.52128591656E+03  0.50400001928E-02 0.  1.
    10030    2    1    2    0    0  0.00000000000E+00  0.00000000000E+00  0.65436334323E+02  0.11080081674E+04  0.11060742223E+04 0.  0.
        5    1    3    3  502    0 -0.39374526916E+03  0.10243253430E+03  0.40793976494E+03  0.57616378131E+03  0.46999998093E+01 0. -1.
       -5    1    3    3    0  502  0.39374526916E+03 -0.10243253430E+03 -0.34250343062E+03  0.53184438613E+03  0.46999998093E+01 0.  1.
</event>
<event>
 5   0  0.3962999E-03  0.1097969E+04  0.7818609E-02  0.9207174E-01
        2   -1    0    0  501    0  0.00000000000E+00  0.00000000000E+00  0.12437197845E+04  0.12437197845E+04  0.25500000920E-02 0.  1.
       -2   -1    0    0    0  501  0.00000000000E+00  0.00000000000E+00 -0.24232461471E+03  0.24232461472E+03  0.25500000920E-02 0. -1.
    10030    2    1    2    0    0  0.00000000000E+00  0.00000000000E+00  0.10013951698E+04  0.14860443992E+04  0.10979688841E+04 0.  0.
        3    1    3    3  502    0  0.23827764206E+03  0.23726633946E+03 -0.86631032324E+02  0.34724126556E+03  0.10100000352E+00 0. -1.
       -3    1    3    3    0  502 -0.23827764206E+03 -0.23726633946E+03  0.10880262021E+04  0.11388031337E+04  0.10100000352E+00 0.  1.
</event>
<event>
 5   0  0.2374100E-03  0.1090965E+04  0.7818609E-02  0.9214043E-01
       -1   -1    0    0    0  501  0.00000000000E+00  0.00000000000E+00  0.34791196479E+03  0.34791196483E+03  0.50400001928E-02 0.  1.
        1   -1    0    0  501    0  0.00000000000E+00  0.00000000000E+00 -0.85524788247E+03  0.85524788248E+03  0.50400001928E-02 0. -1.
    10030    2    1    2    0    0  0.00000000000E+00  0.00000000000E+00 -0.50733591768E+03  0.12031598473E+04  0.10909646579E+04 0.  0.
        2    1    3    3  502    0 -0.29289521039E+02 -0.48696881574E+03  0.15466819195E+02  0.48809397256E+03  0.25500000920E-02 0.  1.
       -2    1    3    3    0  502  0.29289521039E+02  0.48696881574E+03 -0.52280273687E+03  0.71506587475E+03  0.25500000920E-02 0. -1.
</event>
<event>
 5   0  0.2257667E-03  0.1100019E+04  0.7818609E-02  0.9205173E-01
        1   -1    0    0  501    0  0.00000000000E+00  0.00000000000E+00  0.67138619823E+03  0.67138619825E+03  0.50400001928E-02 0. -1.
       -1   -1    0    0    0  501  0.00000000000E+00  0.00000000000E+00 -0.45057599433E+03  0.45057599436E+03  0.50400001928E-02 0.  1.
    10030    2    1    2    0    0  0.00000000000E+00  0.00000000000E+00  0.22081020390E+03  0.11219621926E+04  0.11000190978E+04 0.  0.
        4    1    3    3  502    0 -0.10575728567E+03 -0.43400336033E+03  0.43768821023E+03  0.62539275861E+03  0.12699999809E+01 0. -1.
       -4    1    3    3    0  502  0.10575728567E+03  0.43400336033E+03 -0.21687800633E+03  0.49656943400E+03  0.12699999809E+01 0.  1.
</event>
<event>
 5   0  0.2255788E-03  0.1213133E+04  0.7818609E-02  0.9101438E-01
       -1   -1    0    0    0  501  0.00000000000E+00  0.00000000000E+00  0.32512170356E+03  0.32512170360E+03  0.50400001928E-02 0.  1.
        1   -1    0    0  501    0  0.00000000000E+00  0.00000000000E+00 -0.11316464585E+04  0.11316464585E+04  0.50400001928E-02 0. -1.
    10030    2    1    2    0    0  0.00000000000E+00  0.00000000000E+00 -0.80652475493E+03  0.14567681621E+04  0.12131328442E+04 0.  0.
        3    1    3    3  502    0  0.49746475940E+03 -0.31903916141E+03 -0.23920206538E+03  0.63755377157E+03  0.10100000352E+00 0.  1.
       -3    1    3    3    0  502 -0.49746475940E+03  0.31903916141E+03 -0.56732268954E+03  0.81921439052E+03  0.10100000352E+00 0. -1.
</event>
<event>
 5   0  0.2257667E-03  0.1073485E+04  0.7818609E-02  0.9231428E-01
       -1   -1    0    0    0  501  0.00000000000E+00  0.00000000000E+00  0.56746544910E+03  0.56746544912E+03  0.50400001928E-02 0.  1.
        1   -1    0    0  501    0  0.00000000000E+00  0.00000000000E+00 -0.50768253424E+03  0.50768253426E+03  0.50400001928E-02 0. -1.
    10030    2    1    2    0    0  0.00000000000E+00  0.00000000000E+00  0.59782914860E+02  0.10751479834E+04  0.10734846013E+04 0.  0.
        4    1    3    3  502    0 -0.13620813178E+03  0.46560397564E+03 -0.20014021595E+03  0.52478322786E+03  0.12699999809E+01 0. -1.
       -4    1    3    3    0  502  0.13620813178E+03 -0.46560397564E+03  0.25992313081E+03  0.55036475553E+03  0.12699999809E+01 0.  1.
</event>
<event>
 5   0  0.3744875E-03  0.1096605E+04  0.7818609E-02  0.9208507E-01
        2   -1    0    0  501    0  0.00000000000E+00  0.00000000000E+00  0.15571669267E+04  0.15571669267E+04  0.25500000920E-02 0.  1.
       -2   -1    0    0    0  501  0.00000000000E+00  0.00000000000E+00 -0.19306587220E+03  0.19306587221E+03  0.25500000920E-02 0. -1.
    10030    2    1    2    0    0  0.00000000000E+00  0.00000000000E+00  0.13641010545E+04  0.17502327989E+04  0.10966052906E+04 0.  0.
        2    1    3    3  502    0  0.31488123348E+03  0.41370523181E+03  0.96002654044E+03  0.10917660777E+04  0.25500000920E-02 0.  1.
       -2    1    3    3    0  502 -0.31488123348E+03 -0.41370523181E+03  0.40407451401E+03  0.65846672118E+03  0.25500000920E-02 0. -1.
</event>
<event>
 5   0  0.3748901E-03  0.1101127E+04  0.7818609E-02  0.9204094E-01
       -2   -1    0    0    0  501  0.00000000000E+00  0.00000000000E+00  0.23758826476E+03  0.23758826478E+03  0.25500000920E-02 0. -1.
        2   -1    0    0  501    0  0.00000000000E+00  0.00000000000E+00 -0.12758209750E+04  0.12758209750E+04  0.25500000920E-02 0.  1.
    10030    2    1    2    0    0  0.00000000000E+00  0.00000000000E+00 -0.10382327102E+04  0.15134092398E+04  0.11011268621E+04 0.  0.
        5    1    3    3  502    0 -0.69972730009E+00  0.49717021039E+03 -0.19410400567E+03  0.53373885256E+03  0.46999998093E+01 0. -1.
       -5    1    3    3    0  502  0.69972730009E+00 -0.49717021039E+03 -0.84412870455E+03  0.97967038720E+03  0.46999998093E+01 0.  1.
</event>
<event>
 5   0  0.3962999E-03  0.1095257E+04  0.7818609E-02  0.9209828E-01
       -2   -1    0    0    0  501  0.00000000000E+00  0.00000000000E+00  0.12365485625E+03  0.12365485627E+03  0.25500000920E-02 0. -1.
        2   -1    0    0  501    0  0.00000000000E+00  0.00000000000E+00 -0.24252723318E+04  0.24252723318E+04  0.25500000920E-02 0.  1.
    10030    2    1    2    0    0  0.00000000000E+00  0.00000000000E+00 -0.23016174755E+04  0.25489271881E+04  0.10952565025E+04 0.  0.
        3    1    3    3  502    0 -0.16286397120E+03 -0.12500800779E+03  0.30699428540E+02  0.20759128170E+03  0.10100000352E+00 0. -1.
       -3    1    3    3    0  502  0.16286397120E+03  0.12500800779E+03 -0.23323169041E+04  0.23413359064E+04  0.10100000352E+00 0.  1.
</event>
<event>
 5   0  0.3748901E-03  0.1056370E+04  0.7818609E-02  0.9248792E-01
        2   -1    0    0  501    0  0.00000000000E+00  0.00000000000E+00  0.43815123014E+03  0.43815123014E+03  0.25500000920E-02 0. -1.
       -2   -1    0    0    0  501  0.00000000000E+00  0.00000000000E+00 -0.63671923457E+03  0.63671923458E+03  0.25500000920E-02 0.  1.
    10030    2    1    2    0    0  0.00000000000E+00  0.00000000000E+00 -0.19856800444E+03  0.10748704647E+04  0.10563698517E+04 0.  0.
        5    1    3    3  502    0  0.22212638138E+03 -0.41369532791E+03  0.14676342630E+03  0.49198124653E+03  0.46999998093E+01 0. -1.
       -5    1    3    3    0  502 -0.22212638138E+03  0.41369532791E+03 -0.34533143073E+03  0.58288921820E+03  0.46999998093E+01 0.  1.
</event>
<event>
 5   0  0.2257667E-03  0.1066122E+04  0.7818609E-02  0.9238855E-01
        1   -1    0    0  501    0  0.00000000000E+00  0.00000000000E+00  0.58313370535E+03  0.58313370538E+03  0.50400001928E-02 0.  1.
       -1   -1    0    0    0  501  0.00000000000E+00  0.00000000000E+00 -0.48728824948E+03  0.48728824950E+03  0.50400001928E-02 0. -1.
    10030    2    1    2    0    0  0.00000000000E+00  0.00000000000E+00  0.95845455879E+02  0.10704219549E+04  0.10661223242E+04 0.  0.
        4    1    3    3  502    0  0.47182435251E+03 -0.24666264663E+03  0.21512485788E+02  0.53284620746E+03  0.12699999809E+01 0.  1.
       -4    1    3    3    0  502 -0.47182435251E+03  0.24666264663E+03  0.74332970091E+02  0.53757574741E+03  0.12699999809E+01 0. -1.
</event>
<event>
 5   0  0.2255788E-03  0.1068843E+04  0.7818609E-02  0.9236103E-01
        1   -1    0    0  501    0  0.00000000000E+00  0.00000000000E+00  0.24791432854E+04  0.24791432854E+04  0.50400001928E-02 0.  1.
       -1   -1    0    0    0  501  0.00000000000E+00  0.00000000000E+00 -0.11520374148E+03  0.11520374159E+03  0.50400001928E-02 0. -1.
    10030    2    1    2    0    0  0.00000000000E+00  0.00000000000E+00  0.23639395440E+04  0.25943470270E+04  0.10688434540E+04 0.  0.
        3    1    3    3  502    0 -0.38196022247E+03 -0.15165881136E+03  0.20111955109E+04  0.20527545883E+04  0.10100000352E+00 0.  1.
       -3    1    3    3    0  502  0.38196022247E+03  0.15165881136E+03  0.35274403304E+03  0.54159243870E+03  0.10100000352E+00 0. -1.
</event>
<event>
 5   0  0.2255788E-03  0.1095000E+04  0.7818609E-02  0.9210079E-01
       -1   -1    0    0    0  501  0.00000000000E+00  0.00000000000E+00  0.22565423900E+03  0.22565423906E+03  0.50400001928E-02 0.  1.
        1   -1    0    0  501    0  0.00000000000E+00  0.00000000000E+00 -0.13283876822E+04  0.13283876822E+04  0.50400001928E-02 0. -1.
    10030    2    1    2    0    0  0.00000000000E+00  0.00000000000E+00 -0.11027334432E+04  0.15540419213E+04  0.10950001125E+04 0.  0.
        3    1    3    3  502    0  0.31038023613E+03  0.24096230345E+03 -0.10279339795E+02  0.39307047420E+03  0.10100000352E+00 0.  1.
       -3    1    3    3    0  502 -0.31038023613E+03 -0.24096230345E+03 -0.10924541034E+04  0.11609714471E+04  0.10100000352E+00 0. -1.
</event>
<event>
 5   0  0.2300702E-03  0.1102979E+04  0.7818609E-02  0.9202293E-01
       -1   -1    0    0    0  501  0.00000000000E+00  0.00000000000E+00  0.42771266535E+03  0.42771266538E+03  0.50400001928E-02 0.  1.
        1   -1    0    0  501    0  0.00000000000E+00  0.00000000000E+00 -0.71108624867E+03  0.71108624869E+03  0.50400001928E-02 0. -1.
    10030    2    1    2    0    0  0.00000000000E+00  0.00000000000E+00 -0.28337358332E+03  0.11387989141E+04  0.11029788661E+04 0.  0.
        5    1    3    3  502    0 -0.29218230737E+03 -0.44822782103E+03 -0.37833383778E+01  0.53508418397E+03  0.46999998093E+01 0. -1.
       -5    1    3    3    0  502  0.29218230737E+03  0.44822782103E+03 -0.27959024494E+03  0.60371473011E+03  0.46999998093E+01 0.  1.
</event>
<event>
 5   0  0.3744875E-03  0.1047445E+04  0.7818609E-02  0.9257986E-01
        2   -1    0    0  501    0  0.00000000000E+00  0.00000000000E+00  0.10117612115E+04  0.10117612115E+04  0.25500000920E-02 0.  1.
       -2   -1    0    0    0  501  0.00000000000E+00  0.00000000000E+00 -0.27109695653E+03  0.27109695654E+03  0.25500000920E-02 0. -1.
    10030    2    1    2    0    0  0.00000000000E+00  0.00000000000E+00  0.74066425499E+03  0.12828581681E+04  0.10474452448E+04 0.  0.
        2    1    3    3  502    0 -0.18650988880E+03  0.71232089104E+02  0.96332528281E+03  0.98379649808E+03  0.25500000920E-02 0.  1.
       -2    1    3    3    0  502  0.18650988880E+03 -0.71232089104E+02 -0.22266102782E+03  0.29906166998E+03  0.25500000920E-02 0. -1.
</event>
<event>
 5   0  0.3962999E-03  0.1103640E+04  0.7818609E-02  0.9201651E-01
        2   -1    0    0  501    0  0.00000000000E+00  0.00000000000E+00  0.14986658953E+04  0.14986658953E+04  0.25500000920E-02 0. -1.
       -2   -1    0    0    0  501  0.00000000000E+00  0.00000000000E+00 -0.20318426388E+03  0.20318426390E+03  0.25500000920E-02 0.  1.
    10030    2    1    2    0    0  0.00000000000E+00  0.00000000000E+00  0.12954816314E+04  0.17018501592E+04  0.11036400260E+04 0.  0.
        3    1    3    3  502    0 -0.53074830059E+03  0.14915187308E+03  0.68440351469E+03  0.87883344323E+03  0.10100000352E+00 0.  1.
       -3    1    3    3    0  502  0.53074830059E+03 -0.14915187308E+03  0.61107811675E+03  0.82301671598E+03  0.10100000352E+00 0. -1.
</event>
<event>
 5   0  0.3962999E-03  0.1105187E+04  0.7818609E-02  0.9200151E-01
        2   -1    0    0  501    0  0.00000000000E+00  0.00000000000E+00  0.88470357321E+03  0.88470357321E+03  0.25500000920E-02 0.  1.
       -2   -1    0    0    0  501  0.00000000000E+00  0.00000000000E+00 -0.34515461647E+03  0.34515461648E+03  0.25500000920E-02 0. -1.
    10030    2    1    2    0    0  0.00000000000E+00  0.00000000000E+00  0.53954895674E+03  0.12298581897E+04  0.11051869028E+04 0.  0.
        3    1    3    3  502    0  0.24880854200E+02  0.40559551073E+03  0.68649416059E+03  0.79774746503E+03  0.10100000352E+00 0.  1.
       -3    1    3    3    0  502 -0.24880854200E+02 -0.40559551073E+03 -0.14694520386E+03  0.43211072466E+03  0.10100000352E+00 0. -1.
</event>
<event>
 5   0  0.2374100E-03  0.1112180E+04  0.7818609E-02  0.9193401E-01
        1   -1    0    0  501    0  0.00000000000E+00  0.00000000000E+00  0.12120682537E+04  0.12120682537E+04  0.50400001928E-02 0.  1.
       -1   -1    0    0    0  501  0.00000000000E+00  0.00000000000E+00 -0.25513097606E+03  0.25513097611E+03  0.50400001928E-02 0. -1.
    10030    2    1    2    0    0  0.00000000000E+00  0.00000000000E+00  0.95693727764E+03  0.14671992298E+04  0.11121801233E+04 0.  0.
        2    1    3    3  502    0  0.55519884167E+03 -0.31398355108E+02  0.48128142500E+03  0.73543417146E+03  0.25500000920E-02 0.  1.
       -2    1    3    3    0  502 -0.55519884167E+03  0.31398355108E+02  0.47565585264E+03  0.73176505837E+03  0.25500000920E-02 0. -1.
</event>
<event>
 5   0  0.3713158E-03  0.1100553E+04  0.7818609E-02  0.9204653E-01
        2   -1    0    0  501    0  0.00000000000E+00  0.00000000000E+00  0.50735837875E+03  0.50735837875E+03  0.25500000920E-02 0.  1.
       -2   -1    0    0    0  501  0.00000000000E+00  0.00000000000E+00 -0.59682481057E+03  0.59682481057E+03  0.25500000920E-02 0. -1.
    10030    2    1    2    0    0  0.00000000000E+00  0.00000000000E+00 -0.89466431817E+02  0.11041831893E+04  0.11005527126E+04 0.  0.
        4    1    3    3  502    0  0.59760867664E+02 -0.98499766317E+02  0.49512067413E+03  0.50834993865E+03  0.12699999809E+01 0.  1.
       -4    1    3    3    0  502 -0.59760867664E+02  0.98499766317E+02 -0.58458710595E+03  0.59583325068E+03  0.12699999809E+01 0. -1.
</event>
<event>
 5   0  0.3962999E-03  0.1071102E+04  0.7818609E-02  0.9233825E-01
       -2   -1    0    0    0  501  0.00000000000E+00  0.00000000000E+00  0.27863306850E+03  0.27863306852E+03  0.25500000920E-02 0.  1.
        2   -1    0    0  501    0  0.00000000000E+00  0.00000000000E+00 -0.10293639812E+04  0.10293639812E+04  0.25500000920E-02 0. -1.
    10030    2    1    2    0    0  0.00000000000E+00  0.00000000000E+00 -0.75073091274E+03  0.13079970498E+04  0.10711019461E+04 0.  0.
        3    1    3    3  502    0 -0.37715393924E+03  0.24421297215E+03 -0.73124736977E+03  0.85825858321E+03  0.10100000352E+00 0. -1.
       -3    1    3    3    0  502  0.37715393924E+03 -0.24421297215E+03 -0.19483542972E+02  0.44973846656E+03  0.10100000352E+00 0.  1.
</event>
<event>
 5   0  0.3962999E-03  0.1006405E+04  0.7818609E-02  0.9301548E-01
        2   -1    0    0  501    0  0.00000000000E+00  0.00000000000E+00  0.16582159412E+04  0.16582159412E+04  0.25500000920E-02 0. -1.
       -2   -1    0    0    0  501  0.00000000000E+00  0.00000000000E+00 -0.15270183644E+03  0.15270183646E+03  0.25500000920E-02 0.  1.
    10030    2    1    2    0    0  0.00000000000E+00  0.00000000000E+00  0.15055141047E+04  0.18109177776E+04  0.10064047286E+04 0.  0.
        3    1    3    3  502    0 -0.21576588938E+03 -0.37894915432E+03  0.12045990717E+04  0.12810996505E+04  0.10100000352E+00 0. -1.
       -3    1    3    3    0  502  0.21576588938E+03  0.37894915432E+03  0.30091503297E+03  0.52981812714E+03  0.10100000352E+00 0.  1.
</event>
<event>
 5   0  0.1508625E-03  0.1047957E+04  0.7818609E-02  0.9257455E-01
       -3   -1    0    0    0  501  0.00000000000E+00  0.00000000000E+00  0.18740709666E+03  0.18740712388E+03  0.10100000352E+00 0. -1.
        3   -1    0    0  501    0  0.00000000000E+00  0.00000000000E+00 -0.14650120956E+04  0.14650120991E+04  0.10100000352E+00 0.  1.
    10030    2    1    2    0    0  0.00000000000E+00  0.00000000000E+00 -0.12776049989E+04  0.16524192230E+04  0.10479574205E+04 0.  0.
        3    1    3    3  502    0 -0.21898800595E+03 -0.31998043879E+03 -0.83082956285E+02  0.39654257752E+03  0.10100000352E+00 0. -1.
       -3    1    3    3    0  502  0.21898800595E+03  0.31998043879E+03 -0.11945220427E+04  0.12558766454E+04  0.10100000352E+00 0.  1.
</event>
<event>
 5   0  0.3962999E-03  0.1079951E+04  0.7818609E-02  0.9224957E-01
       -2   -1    0    0    0  501  0.00000000000E+00  0.00000000000E+00  0.56037491672E+03  0.56037491673E+03  0.25500000920E-02 0.  1.
        2   -1    0    0  501    0  0.00000000000E+00  0.00000000000E+00 -0.52031820655E+03  0.52031820656E+03  0.25500000920E-02 0. -1.
    10030    2    1    2    0    0  0.00000000000E+00  0.00000000000E+00  0.40056710170E+02  0.10806931233E+04  0.10799505020E+04 0.  0.
        3    1    3    3  502    0  0.89616091797E+02  0.52373392478E+03 -0.76188652233E+02  0.53678020530E+03  0.10100000352E+00 0. -1.
       -3    1    3    3    0  502 -0.89616091797E+02 -0.52373392478E+03  0.11624536240E+03  0.54391291799E+03  0.10100000352E+00 0.  1.
</event>
<event>
 5   0  0.3748901E-03  0.1098981E+04  0.7818609E-02  0.9206185E-01
        2   -1    0    0  501    0  0.00000000000E+00  0.00000000000E+00  0.47037166610E+03  0.47037166611E+03  0.25500000920E-02 0. -1.
       -2   -1    0    0    0  501  0.00000000000E+00  0.00000000000E+00 -0.64191786973E+03  0.64191786973E+03  0.25500000920E-02 0.  1.
    10030    2    1    2    0    0  0.00000000000E+00  0.00000000000E+00 -0.17154620363E+03  0.11122895358E+04  0.10989813063E+04 0.  0.
        5    1    3    3  502    0 -0.17968766508E+03 -0.13161134485E+02 -0.61115159906E+03  0.63717284898E+03  0.46999998093E+01 0.  1.
       -5    1    3    3    0  502  0.17968766508E+03  0.13161134485E+02  0.43960539543E+03  0.47511668686E+03  0.46999998093E+01 0. -1.
</event>
<event>
 5   0  0.2255788E-03  0.1099349E+04  0.7818609E-02  0.9205826E-01
        1   -1    0    0  501    0  0.00000000000E+00  0.00000000000E+00  0.83448964449E+03  0.83448964450E+03  0.50400001928E-02 0. -1.
       -1   -1    0    0    0  501  0.00000000000E+00  0.00000000000E+00 -0.36206814147E+03  0.36206814151E+03  0.50400001928E-02 0.  1.
    10030    2    1    2    0    0  0.00000000000E+00  0.00000000000E+00  0.47242150302E+03  0.11965577860E+04  0.10993491069E+04 0.  0.
        3    1    3    3  502    0  0.51368372409E+03 -0.13712370674E+03  0.38807698752E+03  0.65823828344E+03  0.10100000352E+00 0. -1.
       -3    1    3    3    0  502 -0.51368372409E+03  0.13712370674E+03  0.84344515498E+02  0.53831950257E+03  0.10100000352E+00 0.  1.
</event>
<event>
 5   0  0.1508625E-03  0.1082143E+04  0.7818609E-02  0.9222774E-01
        3   -1    0    0  501    0  0.00000000000E+00  0.00000000000E+00  0.24282255522E+03  0.24282257623E+03  0.10100000352E+00 0. -1.
       -3   -1    0    0    0  501  0.00000000000E+00  0.00000000000E+00 -0.12056464744E+04  0.12056464786E+04  0.10100000352E+00 0.  1.
    10030    2    1    2    0    0  0.00000000000E+00  0.00000000000E+00 -0.96282391916E+03  0.14484690548E+04  0.10821426447E+04 0.  0.
        3    1    3    3  502    0 -0.42851311449E+02 -0.42429401978E+03 -0.35669854522E+02  0.42794158344E+03  0.10100000352E+00 0. -1.
       -3    1    3    3    0  502  0.42851311449E+02  0.42429401978E+03 -0.92715406463E+03  0.10205274714E+04  0.10100000352E+00 0.  1.
</event>
<event>
 5   0  0.2374100E-03  0.1102121E+04  0.7818609E-02  0.9203127E-01
        1   -1    0    0  501    0  0.00000000000E+00  0.00000000000E+00  0.18712359444E+04  0.18712359444E+04  0.50400001928E-02 0.  1.
       -1   -1    0    0    0  501  0.00000000000E+00  0.00000000000E+00 -0.16228187707E+03  0.16228187714E+03  0.50400001928E-02 0. -1.
    10030    2    1    2    0    0  0.00000000000E+00  0.00000000000E+00  0.17089540673E+04  0.20335178215E+04  0.11021210125E+04 0.  0.
        2    1    3    3  502    0  0.11015627750E+02 -0.34093596026E+03  0.16530195295E+04  0.16878484049E+04  0.25500000920E-02 0.  1.
       -2    1    3    3    0  502 -0.11015627750E+02  0.34093596026E+03  0.55934537803E+02  0.34566941661E+03  0.25500000920E-02 0. -1.
</event>
<event>
 5   0  0.2257667E-03  0.1090515E+04  0.7818609E-02  0.9214486E-01
       -1   -1    0    0    0  501  0.00000000000E+00  0.00000000000E+00  0.49763224332E+03  0.49763224335E+03  0.50400001928E-02 0. -1.
        1   -1    0    0  501    0  0.00000000000E+00  0.00000000000E+00 -0.59744073188E+03  0.59744073190E+03  0.50400001928E-02 0.  1.
    10030    2    1    2    0    0  0.00000000000E+00  0.00000000000E+00 -0.99808488564E+02  0.10950729752E+04  0.10905150557E+04 0.  0.
        4    1    3    3  502    0  0.41853988820E+03 -0.34849932989E+03 -0.23781330085E+02  0.54515556084E+03  0.12699999809E+01 0.  1.
       -4    1    3    3    0  502 -0.41853988820E+03  0.34849932989E+03 -0.76027158478E+02  0.54991741441E+03  0.12699999809E+01 0. -1.
</event>
<event>
 5   0  0.3962999E-03  0.1092957E+04  0.7818609E-02  0.9212084E-01
        2   -1    0    0  501    0  0.00000000000E+00  0.00000000000E+00  0.19061899404E+04  0.19061899404E+04  0.25500000920E-02 0. -1.
       -2   -1    0    0    0  501  0.00000000000E+00  0.00000000000E+00 -0.15666786778E+03  0.15666786780E+03  0.25500000920E-02 0.  1.
    10030    2    1    2    0    0  0.00000000000E+00  0.00000000000E+00  0.17495220727E+04  0.20628578082E+04  0.10929569316E+04 0.  0.
        3    1    3    3  502    0 -0.75792633198E+02 -0.49852143260E+03  0.12723311283E+04  0.13686104823E+04  0.10100000352E+00 0. -1.
       -3    1    3    3    0  502  0.75792633198E+02  0.49852143260E+03  0.47719094441E+03  0.69424732598E+03  0.10100000352E+00 0.  1.
</event>
<event>
 5   0  0.3962999E-03  0.1084361E+04  0.7818609E-02  0.9220571E-01
       -2   -1    0    0    0  501  0.00000000000E+00  0.00000000000E+00  0.61338402754E+03  0.61338402755E+03  0.25500000920E-02 0. -1.
        2   -1    0    0  501    0  0.00000000000E+00  0.00000000000E+00 -0.47924212863E+03  0.47924212864E+03  0.25500000920E-02 0.  1.
    10030    2    1    2    0    0  0.00000000000E+00  0.00000000000E+00  0.13414189891E+03  0.10926261562E+04  0.10843605803E+04 0.  0.
        3    1    3    3  502    0  0.12024828462E+03  0.22238366012E+03 -0.41621544348E+03  0.48697992549E+03  0.10100000352E+00 0.  1.
       -3    1    3    3    0  502 -0.12024828462E+03 -0.22238366012E+03  0.55035734239E+03  0.60564623070E+03  0.10100000352E+00 0. -1.
</event>
<event>
 5   0  0.3992414E-03  0.1068208E+04  0.7818609E-02  0.9236745E-01
        2   -1    0    0  501    0  0.00000000000E+00  0.00000000000E+00  0.11234385550E+04  0.11234385550E+04  0.25500000920E-02 0.  1.
       -2   -1    0    0    0  501  0.00000000000E+00  0.00000000000E+00 -0.25392295109E+03  0.25392295110E+03  0.25500000920E-02 0. -1.
    10030    2    1    2    0    0  0.00000000000E+00  0.00000000000E+00  0.86951560392E+03  0.13773615061E+04  0.10682075328E+04 0.  0.
        1    1    3    3  502    0 -0.19829935189E+03  0.18256508549E+03  0.10293078631E+04  0.10640147182E+04  0.50400001928E-02 0.  1.
       -1    1    3    3    0  502  0.19829935189E+03 -0.18256508549E+03 -0.15979225918E+03  0.31334678795E+03  0.50400001928E-02 0. -1.
</event>
<event>
 5   0  0.2298958E-03  0.1102735E+04  0.7818609E-02  0.9202530E-01
        1   -1    0    0  501    0  0.00000000000E+00  0.00000000000E+00  0.88341740110E+03  0.88341740111E+03  0.50400001928E-02 0.  1.
       -1   -1    0    0    0  501  0.00000000000E+00  0.00000000000E+00 -0.34412498172E+03  0.34412498176E+03  0.50400001928E-02 0. -1.
    10030    2    1    2    0    0  0.00000000000E+00  0.00000000000E+00  0.53929241937E+03  0.12275423829E+04  0.11027347769E+04 0.  0.
        1    1    3    3  502    0 -0.51984310163E+03 -0.16516501583E+03  0.35932227382E+03  0.65316830086E+03  0.50400001928E-02 0.  1.
       -1    1    3    3    0  502  0.51984310163E+03  0.16516501583E+03  0.17997014555E+03  0.57437408201E+03  0.50400001928E-02 0. -1.
</event>
<event>
 5   0  0.3744875E-03  0.1078927E+04  0.7818609E-02  0.9225978E-01
       -2   -1    0    0    0  501  0.00000000000E+00  0.00000000000E+00  0.33007351041E+03  0.33007351042E+03  0.25500000920E-02 0. -1.
        2   -1    0    0  501    0  0.00000000000E+00  0.00000000000E+00 -0.88168531905E+03  0.88168531906E+03  0.25500000920E-02 0.  1.
    10030    2    1    2    0    0  0.00000000000E+00  0.00000000000E+00 -0.55161180865E+03  0.12117588295E+04  0.10789271863E+04 0.  0.
        2    1    3    3  502    0  0.62572577497E+02 -0.40665919463E+03  0.11605315922E+03  0.42749896351E+03  0.25500000920E-02 0. -1.
       -2    1    3    3    0  502 -0.62572577497E+02  0.40665919463E+03 -0.66766496787E+03  0.78425986596E+03  0.25500000920E-02 0.  1.
</event>
<event>
 5   0  0.3962999E-03  0.1050083E+04  0.7818609E-02  0.9255258E-01
        2   -1    0    0  501    0  0.00000000000E+00  0.00000000000E+00  0.42180342369E+03  0.42180342370E+03  0.25500000920E-02 0.  1.
       -2   -1    0    0    0  501  0.00000000000E+00  0.00000000000E+00 -0.65354741135E+03  0.65354741136E+03  0.25500000920E-02 0. -1.
    10030    2    1    2    0    0  0.00000000000E+00  0.00000000000E+00 -0.23174398766E+03  0.10753508351E+04  0.10500829218E+04 0.  0.
        3    1    3    3  502    0 -0.13616804455E+03 -0.43387697812E+03  0.15288851131E+03  0.47975605842E+03  0.10100000352E+00 0.  1.
       -3    1    3    3    0  502  0.13616804455E+03  0.43387697812E+03 -0.38463249897E+03  0.59559477664E+03  0.10100000352E+00 0. -1.
</event>
<event>
 5   0  0.2298958E-03  0.1090369E+04  0.7818609E-02  0.9214630E-01
       -1   -1    0    0    0  501  0.00000000000E+00  0.00000000000E+00  0.27412742727E+03  0.27412742732E+03  0.50400001928E-02 0. -1.
        1   -1    0    0  501    0  0.00000000000E+00  0.00000000000E+00 -0.10842623348E+04  0.10842623348E+04  0.50400001928E-02 0.  1.
    10030    2    1    2    0    0  0.00000000000E+00  0.00000000000E+00 -0.81013490749E+03  0.13583897621E+04  0.10903688263E+04 0.  0.
        1    1    3    3  502    0  0.43896900507E+03 -0.38634120829E+02 -0.80496909368E+03  0.91769364415E+03  0.50400001928E-02 0.  1.
       -1    1    3    3    0  502 -0.43896900507E+03  0.38634120829E+02 -0.51658138128E+01  0.44069611794E+03  0.50400001928E-02 0. -1.
</event>
<event>
 5   0  0.3713158E-03  0.1095437E+04  0.7818609E-02  0.9209651E-01
        2   -1    0    0  501    0  0.00000000000E+00  0.00000000000E+00  0.44435008598E+03  0.44435008599E+03  0.25500000920E-02 0. -1.
       -2   -1    0    0    0  501  0.00000000000E+00  0.00000000000E+00 -0.67513319132E+03  0.67513319133E+03  0.25500000920E-02 0.  1.
    10030    2    1    2    0    0  0.00000000000E+00  0.00000000000E+00 -0.23078310534E+03  0.11194832773E+04  0.10954368838E+04 0.  0.
        4    1    3    3  502    0  0.25364927674E+03 -0.88532929813E+02  0.37238859299E+03  0.45918505240E+03  0.12699999809E+01 0. -1.
       -4    1    3    3    0  502 -0.25364927674E+03  0.88532929813E+02 -0.60317169834E+03  0.66029822492E+03  0.12699999809E+01 0.  1.
</event>
<event>
 5   0  0.2300702E-03  0.1097178E+04  0.7818609E-02  0.9207947E-01
        1   -1    0    0  501    0  0.00000000000E+00  0.00000000000E+00  0.77065759623E+03  0.77065759625E+03  0.50400001928E-02 0.  1.
       -1   -1    0    0    0  501  0.00000000000E+00  0.00000000000E+00 -0.39051019555E+03  0.39051019558E+03  0.50400001928E-02 0. -1.
    10030    2    1    2    0    0  0.00000000000E+00  0.00000000000E+00  0.38014740069E+03  0.11611677918E+04  0.10971775583E+04 0.  0.
        5    1    3    3  502    0 -0.27340304912E+03  0.31061357228E+02  0.69231832528E+03  0.74501059636E+03  0.46999998093E+01 0.  1.
       -5    1    3    3    0  502  0.27340304912E+03 -0.31061357228E+02 -0.31217092459E+03  0.41615719547E+03  0.46999998093E+01 0. -1.
</event>
<event>
 5   0  0.3748901E-03  0.1182801E+04  0.7818609E-02  0.9128046E-01
        2   -1    0    0  501    0  0.00000000000E+00  0.00000000000E+00  0.58095624724E+03  0.58095624724E+03  0.25500000920E-02 0.  1.
       -2   -1    0    0    0  501  0.00000000000E+00  0.00000000000E+00 -0.60203233612E+03  0.60203233613E+03  0.25500000920E-02 0. -1.
    10030    2    1    2    0    0  0.00000000000E+00  0.00000000000E+00 -0.21076088881E+02  0.11829885834E+04  0.11828008230E+04 0.  0.
        5    1    3    3  502    0 -0.39285068083E+03 -0.39594032888E+03 -0.20711937944E+03  0.59499657881E+03  0.46999998093E+01 0. -1.
       -5    1    3    3    0  502  0.39285068083E+03  0.39594032888E+03  0.18604329056E+03  0.58799200456E+03  0.46999998093E+01 0.  1.
</event>
<event>
 5   0  0.3713158E-03  0.1095563E+04  0.7818609E-02  0.9209527E-01
        2   -1    0    0  501    0  0.00000000000E+00  0.00000000000E+00  0.10596549241E+04  0.10596549241E+04  0.25500000920E-02 0.  1.
       -2   -1    0    0    0  501  0.00000000000E+00  0.00000000000E+00 -0.28317195932E+03  0.28317195933E+03  0.25500000920E-02 0. -1.
    10030    2    1    2    0    0  0.00000000000E+00  0.00000000000E+00  0.77648296475E+03  0.13428268834E+04  0.10955629805E+04 0.  0.
        4    1    3    3  502    0  0.32423248349E+02  0.34798643607E+03  0.90524268115E+03  0.97036681281E+03  0.12699999809E+01 0.  1.
       -4    1    3    3    0  502 -0.32423248349E+02 -0.34798643607E+03 -0.12875971640E+03  0.37246007060E+03  0.12699999809E+01 0. -1.
</event>
<event>
 5   0  0.3962999E-03  0.1088516E+04  0.7818609E-02  0.9216458E-01
       -2   -1    0    0    0  501  0.00000000000E+00  0.00000000000E+00  0.36822186919E+03  0.36822186920E+03  0.25500000920E-02 0. -1.
        2   -1    0    0  501    0  0.00000000000E+00  0.00000000000E+00 -0.80445169950E+03  0.80445169951E+03  0.25500000920E-02 0.  1.
    10030    2    1    2    0    0  0.00000000000E+00  0.00000000000E+00 -0.43622983032E+03  0.11726735687E+04  0.10885158859E+04 0.  0.
        3    1    3    3  502    0 -0.32175550734E+03 -0.29782351566E+02 -0.68992821591E+03  0.76184942625E+03  0.10100000352E+00 0.  1.
       -3    1    3    3    0  502  0.32175550734E+03  0.29782351566E+02  0.25369838559E+03  0.41082414245E+03  0.10100000352E+00 0. -1.
</event>
<event>
 5   0  0.3962999E-03  0.1063207E+04  0.7818609E-02  0.9241814E-01
        2   -1    0    0  501    0  0.00000000000E+00  0.00000000000E+00  0.98034496769E+03  0.98034496769E+03  0.25500000920E-02 0.  1.
       -2   -1    0    0    0  501  0.00000000000E+00  0.00000000000E+00 -0.28826795433E+03  0.28826795434E+03  0.25500000920E-02 0. -1.
    10030    2    1    2    0    0  0.00000000000E+00  0.00000000000E+00  0.69207701336E+03  0.12686129220E+04  0.10632065432E+04 0.  0.
        3    1    3    3  502    0  0.57934620655E+02 -0.43279283613E+03 -0.15749544119E+02  0.43693720100E+03  0.10100000352E+00 0. -1.
       -3    1    3    3    0  502 -0.57934620655E+02  0.43279283613E+03  0.70782655748E+03  0.83167572103E+03  0.10100000352E+00 0.  1.
</event>
<event>
 5   0  0.3744875E-03  0.1096148E+04  0.7818609E-02  0.9208954E-01
       -2   -1    0    0    0  501  0.00000000000E+00  0.00000000000E+00  0.31146197217E+03  0.31146197218E+03  0.25500000920E-02 0. -1.
        2   -1    0    0  501    0  0.00000000000E+00  0.00000000000E+00 -0.96443631352E+03  0.96443631353E+03  0.25500000920E-02 0.  1.
    10030    2    1    2    0    0  0.00000000000E+00  0.00000000000E+00 -0.65297434136E+03  0.12758982857E+04  0.10961482313E+04 0.  0.
        2    1    3    3  502    0 -0.16306923155E+03  0.16356790425E+03  0.25204791868E+03  0.34186866907E+03  0.25500000920E-02 0. -1.
       -2    1    3    3    0  502  0.16306923155E+03 -0.16356790425E+03 -0.90502226003E+03  0.93402961663E+03  0.25500000920E-02 0.  1.
</event>
<event>
 5   0  0.3962999E-03  0.1037809E+04  0.7818609E-02  0.9268021E-01
        2   -1    0    0  501    0  0.00000000000E+00  0.00000000000E+00  0.11529649164E+04  0.11529649164E+04  0.25500000920E-02 0. -1.
       -2   -1    0    0    0  501  0.00000000000E+00  0.00000000000E+00 -0.23353879617E+03  0.23353879619E+03  0.25500000920E-02 0.  1.
    10030    2    1    2    0    0  0.00000000000E+00  0.00000000000E+00  0.91942612018E+03  0.13865037125E+04  0.10378093054E+04 0.  0.
        3    1    3    3  502    0 -0.40333363417E+03 -0.30210022391E+03  0.62507107223E+03  0.80290498894E+03  0.10100000352E+00 0. -1.
       -3    1    3    3    0  502  0.40333363417E+03  0.30210022391E+03  0.29435504796E+03  0.58359872361E+03  0.10100000352E+00 0.  1.
</event>
<event>
 5   0  0.1508625E-03  0.1098347E+04  0.7818609E-02  0.9206805E-01
       -3   -1    0    0    0  501  0.00000000000E+00  0.00000000000E+00  0.69528413271E+03  0.69528414005E+03  0.10100000352E+00 0.  1.
        3   -1    0    0  501    0  0.00000000000E+00  0.00000000000E+00 -0.43376723309E+03  0.43376724485E+03  0.10100000352E+00 0. -1.
    10030    2    1    2    0    0  0.00000000000E+00  0.00000000000E+00  0.26151689962E+03  0.11290513849E+04  0.10983469128E+04 0.  0.
        3    1    3    3  502    0  0.49549355513E+02 -0.54184710823E+03  0.20725687954E+03  0.58224466648E+03  0.10100000352E+00 0.  1.
       -3    1    3    3    0  502 -0.49549355513E+02  0.54184710823E+03  0.54260020083E+02  0.54680671842E+03  0.10100000352E+00 0. -1.
</event>
<event>
 5   0  0.2300702E-03  0.1106230E+04  0.7818609E-02  0.9199141E-01
       -1   -1    0    0    0  501  0.00000000000E+00  0.00000000000E+00  0.74735863171E+03  0.74735863173E+03  0.50400001928E-02 0.  1.
        1   -1    0    0  501    0  0.00000000000E+00  0.00000000000E+00 -0.40935670621E+03  0.40935670624E+03  0.50400001928E-02 0. -1.
    10030    2    1    2    0    0  0.00000000000E+00  0.00000000000E+00  0.33800192550E+03  0.11567153380E+04  0.11062301169E+04 0.  0.
        5    1    3    3  502    0 -0.22955101652E+02 -0.55206632363E+03  0.14317530177E+03  0.57081119419E+03  0.46999998093E+01 0.  1.
       -5    1    3    3    0  502  0.22955101652E+02  0.55206632363E+03  0.19482662373E+03  0.58590414378E+03  0.46999998093E+01 0. -1.
</event>
<event>
 5   0  0.3992414E-03  0.1072772E+04  0.7818609E-02  0.9232144E-01
        2   -1    0    0  501    0  0.00000000000E+00  0.00000000000E+00  0.13409518281E+04  0.13409518281E+04  0.25500000920E-02 0.  1.
       -2   -1    0    0    0  501  0.00000000000E+00  0.00000000000E+00 -0.21455647980E+03  0.21455647981E+03  0.25500000920E-02 0. -1.
    10030    2    1    2    0    0  0.00000000000E+00  0.00000000000E+00  0.11263953483E+04  0.15555083080E+04  0.10727719307E+04 0.  0.
        1    1    3    3  502    0 -0.52438605687E+03  0.10315941935E+03  0.62944334664E+03  0.82572485072E+03  0.50400001928E-02 0. -1.
       -1    1    3    3    0  502  0.52438605687E+03 -0.10315941935E+03  0.49695200171E+03  0.72978345724E+03  0.50400001928E-02 0.  1.
</event>
<event>
 5   0  0.2298958E-03  0.1102961E+04  0.7818609E-02  0.9202310E-01
        1   -1    0    0  501    0  0.00000000000E+00  0.00000000000E+00  0.15824366965E+04  0.15824366966E+04  0.50400001928E-02 0.  1.
       -1   -1    0    0    0  501  0.00000000000E+00  0.00000000000E+00 -0.19219155868E+03  0.19219155875E+03  0.50400001928E-02 0. -1.
    10030    2    1    2    0    0  0.00000000000E+00  0.00000000000E+00  0.13902451379E+04  0.17746282553E+04  0.11029614232E+04 0.  0.
        1    1    3    3  502    0  0.29347556141E+03 -0.31288820582E+02  0.14446732977E+04  0.14745127441E+04  0.50400001928E-02 0.  1.
       -1    1    3    3    0  502 -0.29347556141E+03  0.31288820582E+02 -0.54428159855E+02  0.30011551117E+03  0.50400001928E-02 0. -1.
</event>
<event>
 5   0  0.3713158E-03  0.1089203E+04  0.7818609E-02  0.9215780E-01
       -2   -1    0    0    0  501  0.00000000000E+00  0.00000000000E+00  0.30490872776E+03  0.30490872777E+03  0.25500000920E-02 0.  1.
        2   -1    0    0  501    0  0.00000000000E+00  0.00000000000E+00 -0.97271921610E+03  0.97271921611E+03  0.25500000920E-02 0. -1.
    10030    2    1    2    0    0  0.00000000000E+00  0.00000000000E+00 -0.66781048834E+03  0.12776279439E+04  0.10892026050E+04 0.  0.
        4    1    3    3  502    0 -0.33256920432E+03 -0.42698046393E+03 -0.26280233305E+03  0.60164879406E+03  0.12699999809E+01 0.  1.
       -4    1    3    3    0  502  0.33256920432E+03  0.42698046393E+03 -0.40500815529E+03  0.67597914982E+03  0.12699999809E+01 0. -1.
</event>
<event>
 5   0  0.3713158E-03  0.1100828E+04  0.7818609E-02  0.9204385E-01
        2   -1    0    0  501    0  0.00000000000E+00  0.00000000000E+00  0.74520874297E+03  0.74520874298E+03  0.25500000920E-02 0. -1.
       -2   -1    0    0    0  501  0.00000000000E+00  0.00000000000E+00 -0.40653822764E+03  0.40653822765E+03  0.25500000920E-02 0.  1.
    10030    2    1    2    0    0  0.00000000000E+00  0.00000000000E+00  0.33867051533E+03  0.11517469706E+04  0.11008284909E+04 0.  0.
        4    1    3    3  502    0  0.23948036649E+03  0.44829090604E+03  0.39038648243E+03  0.64087346718E+03  0.12699999809E+01 0. -1.
       -4    1    3    3    0  502 -0.23948036649E+03 -0.44829090604E+03 -0.51715967098E+02  0.51087350344E+03  0.12699999809E+01 0.  1.
</event>
<event>
 5   0  0.1508625E-03  0.1121440E+04  0.7818609E-02  0.9184544E-01
        3   -1    0    0  501    0  0.00000000000E+00  0.00000000000E+00  0.35162619740E+03  0.35162621191E+03  0.10100000352E+00 0.  1.
       -3   -1    0    0    0  501  0.00000000000E+00  0.00000000000E+00 -0.89415054501E+03  0.89415055071E+03  0.10100000352E+00 0. -1.
    10030    2    1    2    0    0  0.00000000000E+00  0.00000000000E+00 -0.54252434760E+03  0.12457767626E+04  0.11214397329E+04 0.  0.
        2    1    3    3  502    0  0.29587712370E+03  0.45106085235E+03 -0.44122062519E+03  0.69690372718E+03  0.25500000920E-02 0. -1.
       -2    1    3    3    0  502 -0.29587712370E+03 -0.45106085235E+03 -0.10130372242E+03  0.54887303544E+03  0.25500000920E-02 0.  1.
</event>
<event>
 5   0  0.3713158E-03  0.1087438E+04  0.7818609E-02  0.9217523E-01
       -2   -1    0    0    0  501  0.00000000000E+00  0.00000000000E+00  0.74727766010E+03  0.74727766010E+03  0.25500000920E-02 0.  1.
        2   -1    0    0  501    0  0.00000000000E+00  0.00000000000E+00 -0.39560980807E+03  0.39560980807E+03  0.25500000920E-02 0. -1.
    10030    2    1    2    0    0  0.00000000000E+00  0.00000000000E+00  0.35166785203E+03  0.11428874682E+04  0.10874380381E+04 0.  0.
        4    1    3    3  502    0 -0.40726422726E+03 -0.32590264135E+03  0.14541657355E+02  0.52181390854E+03  0.12699999809E+01 0. -1.
       -4    1    3    3    0  502  0.40726422726E+03  0.32590264135E+03  0.33712619468E+03  0.62107355964E+03  0.12699999809E+01 0.  1.
</event>
<event>
 5   0  0.3992414E-03  0.1104898E+04  0.7818609E-02  0.9200431E-01
        2   -1    0    0  501    0  0.00000000000E+00  0.00000000000E+00  0.59589972292E+03  0.59589972292E+03  0.25500000920E-02 0.  1.
       -2   -1    0    0    0  501  0.00000000000E+00  0.00000000000E+00 -0.51216665343E+03  0.51216665344E+03  0.25500000920E-02 0. -1.
    10030    2    1    2    0    0  0.00000000000E+00  0.00000000000E+00  0.83733069484E+02  0.11080663764E+04  0.11048981254E+04 0.  0.
        1    1    3    3  502    0 -0.21742149580E+03 -0.48835845272E+02 -0.46509553435E+03  0.51572366895E+03  0.50400001928E-02 0. -1.
       -1    1    3    3    0  502  0.21742149580E+03  0.48835845272E+02  0.54882860383E+03  0.59234270742E+03  0.50400001928E-02 0.  1.
</event>
<event>
 5   0  0.2257667E-03  0.1092922E+04  0.7818609E-02  0.9212118E-01
        1   -1    0    0  501    0  0.00000000000E+00  0.00000000000E+00  0.85021207180E+03  0.85021207181E+03  0.50400001928E-02 0.  1.
       -1   -1    0    0    0  501  0.00000000000E+00  0.00000000000E+00 -0.35122956179E+03  0.35122956183E+03  0.50400001928E-02 0. -1.
    10030    2    1    2    0    0  0.00000000000E+00  0.00000000000E+00  0.49898251000E+03  0.12014416336E+04  0.10929219797E+04 0.  0.
        4    1    3    3  502    0  0.33334735910E+03 -0.10103359772E+03  0.71235730993E+03  0.79295825842E+03  0.12699999809E+01 0.  1.
       -4    1    3    3    0  502 -0.33334735910E+03  0.10103359772E+03 -0.21337479992E+03  0.40848337522E+03  0.12699999809E+01 0. -1.
</event>
<event>
 5   0  0.1508625E-03  0.1106875E+04  0.7818609E-02  0.9198517E-01
       -3   -1    0    0    0  501  0.00000000000E+00  0.00000000000E+00  0.17859586956E+03  0.17859589812E+03  0.10100000352E+00 0.  1.
        3   -1    0    0  501    0  0.00000000000E+00  0.00000000000E+00 -0.17150066600E+04  0.17150066630E+04  0.10100000352E+00 0. -1.
    10030    2    1    2    0    0  0.00000000000E+00  0.00000000000E+00 -0.15364107905E+04  0.18936025611E+04  0.11068751251E+04 0.  0.
        4    1    3    3  502    0 -0.18989633911E+03 -0.22141336375E+02  0.12030684711E+03  0.22588981549E+03  0.12699999809E+01 0.  1.
       -4    1    3    3    0  502  0.18989633911E+03  0.22141336375E+02 -0.16567176376E+04  0.16677127456E+04  0.12699999809E+01 0. -1.
</event>
<event>
 5   0  0.2255788E-03  0.1093444E+04  0.7818609E-02  0.9211605E-01
        1   -1    0    0  501    0  0.00000000000E+00  0.00000000000E+00  0.15455908048E+04  0.15455908048E+04  0.50400001928E-02 0.  1.
       -1   -1    0    0    0  501  0.00000000000E+00  0.00000000000E+00 -0.19339209686E+03  0.19339209693E+03  0.50400001928E-02 0. -1.
    10030    2    1    2    0    0  0.00000000000E+00  0.00000000000E+00  0.13521987079E+04  0.17389829017E+04  0.10934441855E+04 0.  0.
        3    1    3    3  502    0  0.10455692434E+03  0.43198064352E+03  0.11824414217E+04  0.12632130275E+04  0.10100000352E+00 0.  1.
       -3    1    3    3    0  502 -0.10455692434E+03 -0.43198064352E+03  0.16975728618E+03  0.47576987422E+03  0.10100000352E+00 0. -1.
</event>
<event>
 5   0  0.3713158E-03  0.1101682E+04  0.7818609E-02  0.9203554E-01
        2   -1    0    0  501    0  0.00000000000E+00  0.00000000000E+00  0.71226287400E+03  0.71226287400E+03  0.25500000920E-02 0. -1.
       -2   -1    0    0    0  501  0.00000000000E+00  0.00000000000E+00 -0.42600261996E+03  0.42600261997E+03  0.25500000920E-02 0.  1.
    10030    2    1    2    0    0  0.00000000000E+00  0.00000000000E+00  0.28626025404E+03  0.11382654940E+04  0.11016820783E+04 0.  0.
        4    1    3    3  502    0  0.87206832068E+02 -0.11744445058E+02 -0.41869246153E+03  0.42784103800E+03  0.12699999809E+01 0.  1.
       -4    1    3    3    0  502 -0.87206832068E+02  0.11744445058E+02  0.70495271558E+03  0.71042445597E+03  0.12699999809E+01 0. -1.
</event>
<event>
 5   0  0.3992414E-03  0.1097028E+04  0.7818609E-02  0.9208094E-01
       -2   -1    0    0    0  501  0.00000000000E+00  0.00000000000E+00  0.29194930915E+03  0.29194930916E+03  0.25500000920E-02 0. -1.
        2   -1    0    0  501    0  0.00000000000E+00  0.00000000000E+00 -0.10305471348E+04  0.10305471348E+04  0.25500000920E-02 0.  1.
    10030    2    1    2    0    0  0.00000000000E+00  0.00000000000E+00 -0.73859782562E+03  0.13224964439E+04  0.10970278466E+04 0.  0.
        1    1    3    3  502    0  0.80648310422E+01  0.47463616667E+03 -0.70059511261E+03  0.84627303162E+03  0.50400001928E-02 0.  1.
       -1    1    3    3    0  502 -0.80648310422E+01 -0.47463616667E+03 -0.38002713012E+02  0.47622341231E+03  0.50400001928E-02 0. -1.
</event>
<event>
 5   0  0.3744875E-03  0.1090744E+04  0.7818609E-02  0.9214261E-01
       -2   -1    0    0    0  501  0.00000000000E+00  0.00000000000E+00  0.23284408975E+03  0.23284408976E+03  0.25500000920E-02 0. -1.
        2   -1    0    0  501    0  0.00000000000E+00  0.00000000000E+00 -0.12773798902E+04  0.12773798902E+04  0.25500000920E-02 0.  1.
    10030    2    1    2    0    0  0.00000000000E+00  0.00000000000E+00 -0.10445358005E+04  0.15102239800E+04  0.10907435222E+04 0.  0.
        2    1    3    3  502    0  0.30029650722E+03  0.36777570215E+03 -0.89377323707E+03  0.10120610449E+04  0.25500000920E-02 0.  1.
       -2    1    3    3    0  502 -0.30029650722E+03 -0.36777570215E+03 -0.15076256341E+03  0.49816293506E+03  0.25500000920E-02 0. -1.
</event>
<event>
 5   0  0.3748901E-03  0.1103356E+04  0.7818609E-02  0.9201927E-01
       -2   -1    0    0    0  501  0.00000000000E+00  0.00000000000E+00  0.24508772220E+03  0.24508772222E+03  0.25500000920E-02 0. -1.
        2   -1    0    0  501    0  0.00000000000E+00  0.00000000000E+00 -0.12417945914E+04  0.12417945914E+04  0.25500000920E-02 0.  1.
    10030    2    1    2    0    0  0.00000000000E+00  0.00000000000E+00 -0.99670686915E+03  0.14868823136E+04  0.11033559858E+04 0.  0.
        5    1    3    3  502    0 -0.14872063997E+02 -0.27324072127E+03 -0.11438591548E+04  0.11761451977E+04  0.46999998093E+01 0.  1.
       -5    1    3    3    0  502  0.14872063997E+02  0.27324072127E+03  0.14715228562E+03  0.31073711591E+03  0.46999998093E+01 0. -1.
</event>
<event>
 5   0  0.3744875E-03  0.1085837E+04  0.7818609E-02  0.9219107E-01
       -2   -1    0    0    0  501  0.00000000000E+00  0.00000000000E+00  0.81912913503E+03  0.81912913503E+03  0.25500000920E-02 0.  1.
        2   -1    0    0  501    0  0.00000000000E+00  0.00000000000E+00 -0.35984632436E+03  0.35984632436E+03  0.25500000920E-02 0. -1.
    10030    2    1    2    0    0  0.00000000000E+00  0.00000000000E+00  0.45928281067E+03  0.11789754594E+04  0.10858372040E+04 0.  0.
        2    1    3    3  502    0  0.35470683575E+03 -0.28253574018E+03 -0.94489822095E+02  0.46321885788E+03  0.25500000920E-02 0. -1.
       -2    1    3    3    0  502 -0.35470683575E+03  0.28253574018E+03  0.55377263277E+03  0.71575660152E+03  0.25500000920E-02 0.  1.
</event>
<event>
 5   0  0.2255788E-03  0.1070506E+04  0.7818609E-02  0.9234426E-01
       -1   -1    0    0    0  501  0.00000000000E+00  0.00000000000E+00  0.43381612793E+03  0.43381612796E+03  0.50400001928E-02 0. -1.
        1   -1    0    0  501    0  0.00000000000E+00  0.00000000000E+00 -0.66040779761E+03  0.66040779763E+03  0.50400001928E-02 0.  1.
    10030    2    1    2    0    0  0.00000000000E+00  0.00000000000E+00 -0.22659166969E+03  0.10942239256E+04  0.10705055883E+04 0.  0.
        3    1    3    3  502    0  0.41211065161E+03 -0.18362252789E+01 -0.46241415334E+03  0.61940731373E+03  0.10100000352E+00 0.  1.
       -3    1    3    3    0  502 -0.41211065161E+03  0.18362252789E+01  0.23582248366E+03  0.47481661186E+03  0.10100000352E+00 0. -1.
</event>
<event>
 5   0  0.3992414E-03  0.1091695E+04  0.7818609E-02  0.9213324E-01
       -2   -1    0    0    0  501  0.00000000000E+00  0.00000000000E+00  0.70430174937E+03  0.70430174938E+03  0.25500000920E-02 0. -1.
        2   -1    0    0  501    0  0.00000000000E+00  0.00000000000E+00 -0.42304241267E+03  0.42304241268E+03  0.25500000920E-02 0.  1.
    10030    2    1    2    0    0  0.00000000000E+00  0.00000000000E+00  0.28125933670E+03  0.11273441621E+04  0.10916950331E+04 0.  0.
        1    1    3    3  502    0 -0.39716703549E+03 -0.31831260373E+03  0.34426161922E+03  0.61447589885E+03  0.50400001928E-02 0. -1.
       -1    1    3    3    0  502  0.39716703549E+03  0.31831260373E+03 -0.63002282518E+02  0.51286826320E+03  0.50400001928E-02 0.  1.
</event>
<event>
 5   0  0.2374100E-03  0.1170355E+04  0.7818609E-02  0.9139208E-01
        1   -1    0    0  501    0  0.00000000000E+00  0.00000000000E+00  0.56292088897E+03  0.56292088899E+03  0.50400001928E-02 0. -1.
       -1   -1    0    0    0  501  0.00000000000E+00  0.00000000000E+00 -0.60831406297E+03  0.60831406299E+03  0.50400001928E-02 0.  1.
    10030    2    1    2    0    0  0.00000000000E+00  0.00000000000E+00 -0.45393173997E+02  0.11712349520E+04  0.11703549771E+04 0.  0.
        2    1    3    3  502    0 -0.32433495035E+03  0.30483022634E+03  0.35748122612E+03  0.57088304752E+03  0.25500000920E-02 0. -1.
       -2    1    3    3    0  502  0.32433495035E+03 -0.30483022634E+03 -0.40287440012E+03  0.60035190446E+03  0.25500000920E-02 0.  1.
</event>
<event>
 5   0  0.2257667E-03  0.1106408E+04  0.7818609E-02  0.9198968E-01
        1   -1    0    0  501    0  0.00000000000E+00  0.00000000000E+00  0.61355246707E+03  0.61355246709E+03  0.50400001928E-02 0. -1.
       -1   -1    0    0    0  501  0.00000000000E+00  0.00000000000E+00 -0.49879178417E+03  0.49879178419E+03  0.50400001928E-02 0.  1.
    10030    2    1    2    0    0  0.00000000000E+00  0.00000000000E+00  0.11476068290E+03  0.11123442513E+04  0.11064084775E+04 0.  0.
        4    1    3    3  502    0 -0.20635605284E+03 -0.27385028203E+03  0.49382512067E+03  0.60120018314E+03  0.12699999809E+01 0. -1.
       -4    1    3    3    0  502  0.20635605284E+03  0.27385028203E+03 -0.37906443777E+03  0.51114406814E+03  0.12699999809E+01 0.  1.
</event>
<event>
 5   0  0.3962999E-03  0.1097280E+04  0.7818609E-02  0.9207847E-01
       -2   -1    0    0    0  501  0.00000000000E+00  0.00000000000E+00  0.18224527473E+03  0.18224527475E+03  0.25500000920E-02 0.  1.
        2   -1    0    0  501    0  0.00000000000E+00  0.00000000000E+00 -0.16516523362E+04  0.16516523362E+04  0.25500000920E-02 0. -1.
    10030    2    1    2    0    0  0.00000000000E+00  0.00000000000E+00 -0.14694070614E+04  0.18338976109E+04  0.10972799712E+04 0.  0.
        3    1    3    3  502    0 -0.53433099947E+03  0.47273860659E+02 -0.54223836641E+03  0.76273644931E+03  0.10100000352E+00 0.  1.
       -3    1    3    3    0  502  0.53433099947E+03 -0.47273860659E+02 -0.92716869503E+03  0.10711611616E+04  0.10100000352E+00 0. -1.
</event>
<event>
 5   0  0.3748901E-03  0.1115276E+04  0.7818609E-02  0.9190429E-01
       -2   -1    0    0    0  501  0.00000000000E+00  0.00000000000E+00  0.24695376680E+03  0.24695376681E+03  0.25500000920E-02 0. -1.
        2   -1    0    0  501    0  0.00000000000E+00  0.00000000000E+00 -0.12591843762E+04  0.12591843762E+04  0.25500000920E-02 0.  1.
    10030    2    1    2    0    0  0.00000000000E+00  0.00000000000E+00 -0.10122306094E+04  0.15061381430E+04  0.11152763331E+04 0.  0.
        5    1    3    3  502    0 -0.26995260050E+03 -0.35745083322E+03 -0.57622206165E+02  0.45165021126E+03  0.46999998093E+01 0. -1.
       -5    1    3    3    0  502  0.26995260050E+03  0.35745083322E+03 -0.95460840324E+03  0.10544879318E+04  0.46999998093E+01 0.  1.
</event>
<event>
 5   0  0.1508625E-03  0.1102899E+04  0.7818609E-02  0.9202371E-01
       -3   -1    0    0    0  501  0.00000000000E+00  0.00000000000E+00  0.99859809558E+03  0.99859810068E+03  0.10100000352E+00 0. -1.
        3   -1    0    0  501    0  0.00000000000E+00  0.00000000000E+00 -0.30452337177E+03  0.30452338852E+03  0.10100000352E+00 0.  1.
    10030    2    1    2    0    0  0.00000000000E+00  0.00000000000E+00  0.69407472381E+03  0.13031214892E+04  0.11028988591E+04 0.  0.
        3    1    3    3  502    0  0.28494309706E+03 -0.18852886211E+03 -0.16439539638E+03  0.37915901276E+03  0.10100000352E+00 0.  1.
       -3    1    3    3    0  502 -0.28494309706E+03  0.18852886211E+03  0.85847012019E+03  0.92396247644E+03  0.10100000352E+00 0. -1.
</event>
<event>
 5   0  0.1508625E-03  0.1092413E+04  0.7818609E-02  0.9212619E-01
       -3   -1    0    0    0  501  0.00000000000E+00  0.00000000000E+00  0.66012097264E+03  0.66012098037E+03  0.10100000352E+00 0.  1.
        3   -1    0    0  501    0  0.00000000000E+00  0.00000000000E+00 -0.45194962562E+03  0.45194963690E+03  0.10100000352E+00 0. -1.
    10030    2    1    2    0    0  0.00000000000E+00  0.00000000000E+00  0.20817134702E+03  0.11120706173E+04  0.10924128103E+04 0.  0.
        2    1    3    3  502    0 -0.42280242472E+02 -0.52665543544E+03  0.24509861449E+03  0.58243188221E+03  0.25500000920E-02 0. -1.
       -2    1    3    3    0  502  0.42280242472E+02  0.52665543544E+03 -0.36927267461E+02  0.52963873506E+03  0.25500000920E-02 0.  1.
</event>
<event>
 5   0  0.3748901E-03  0.1102989E+04  0.7818609E-02  0.9202284E-01
        2   -1    0    0  501    0  0.00000000000E+00  0.00000000000E+00  0.11346886254E+04  0.11346886254E+04  0.25500000920E-02 0. -1.
       -2   -1    0    0    0  501  0.00000000000E+00  0.00000000000E+00 -0.26804372376E+03  0.26804372377E+03  0.25500000920E-02 0.  1.
    10030    2    1    2    0    0  0.00000000000E+00  0.00000000000E+00  0.86664490165E+03  0.14027323492E+04  0.11029889654E+04 0.  0.
        5    1    3    3  502    0  0.20254487101E+03 -0.50751862424E+03  0.52784816490E+03  0.75976664438E+03  0.46999998093E+01 0. -1.
       -5    1    3    3    0  502 -0.20254487101E+03  0.50751862424E+03  0.33879673675E+03  0.64296570480E+03  0.46999998093E+01 0.  1.
</event>
<event>
 5   0  0.3992414E-03  0.1101164E+04  0.7818609E-02  0.9204058E-01
       -2   -1    0    0    0  501  0.00000000000E+00  0.00000000000E+00  0.30192660472E+03  0.30192660474E+03  0.25500000920E-02 0.  1.
        2   -1    0    0  501    0  0.00000000000E+00  0.00000000000E+00 -0.10040202178E+04  0.10040202178E+04  0.25500000920E-02 0. -1.
    10030    2    1    2    0    0  0.00000000000E+00  0.00000000000E+00 -0.70209361308E+03  0.13059468225E+04  0.11011637761E+04 0.  0.
        1    1    3    3  502    0 -0.16199031073E+03  0.48961212863E+03 -0.57972536990E+03  0.77591391391E+03  0.50400001928E-02 0. -1.
       -1    1    3    3    0  502  0.16199031073E+03 -0.48961212863E+03 -0.12236824318E+03  0.53003290864E+03  0.50400001928E-02 0.  1.
</event>
<event>
 5   0  0.2257667E-03  0.1090396E+04  0.7818609E-02  0.9214604E-01
        1   -1    0    0  501    0  0.00000000000E+00  0.00000000000E+00  0.98106866176E+03  0.98106866177E+03  0.50400001928E-02 0. -1.
       -1   -1    0    0    0  501  0.00000000000E+00  0.00000000000E+00 -0.30297634459E+03  0.30297634463E+03  0.50400001928E-02 0.  1.
    10030    2    1    2    0    0  0.00000000000E+00  0.00000000000E+00  0.67809231717E+03  0.12840450064E+04  0.10903955190E+04 0.  0.
        4    1    3    3  502    0 -0.44768871145E+03  0.18482979966E+03  0.63380224420E+03  0.79768047165E+03  0.12699999809E+01 0. -1.
       -4    1    3    3    0  502  0.44768871145E+03 -0.18482979966E+03  0.44290072974E+02  0.48636453475E+03  0.12699999809E+01 0.  1.
</event>
<event>
 5   0  0.2300702E-03  0.1097428E+04  0.7818609E-02  0.9207702E-01
       -1   -1    0    0    0  501  0.00000000000E+00  0.00000000000E+00  0.47646827666E+03  0.47646827669E+03  0.50400001928E-02 0.  1.
        1   -1    0    0  501    0  0.00000000000E+00  0.00000000000E+00 -0.63191458342E+03  0.63191458344E+03  0.50400001928E-02 0. -1.
    10030    2    1    2    0    0  0.00000000000E+00  0.00000000000E+00 -0.15544630676E+03  0.11083828601E+04  0.10974283623E+04 0.  0.
        5    1    3    3  502    0  0.12619411132E+03  0.53072572999E+03 -0.18224941639E+02  0.54584704149E+03  0.46999998093E+01 0. -1.
       -5    1    3    3    0  502 -0.12619411132E+03 -0.53072572999E+03 -0.13722136512E+03  0.56253581864E+03  0.46999998093E+01 0.  1.
</event>
<event>
 5   0  0.3748901E-03  0.1121804E+04  0.7818609E-02  0.9184197E-01
        2   -1    0    0  501    0  0.00000000000E+00  0.00000000000E+00  0.48487995569E+03  0.48487995569E+03  0.25500000920E-02 0.  1.
       -2   -1    0    0    0  501  0.00000000000E+00  0.00000000000E+00 -0.64884355411E+03  0.64884355411E+03  0.25500000920E-02 0. -1.
    10030    2    1    2    0    0  0.00000000000E+00  0.00000000000E+00 -0.16396359842E+03  0.11337235098E+04  0.11218043212E+04 0.  0.
        5    1    3    3  502    0 -0.18472583133E+03  0.50971896971E+03  0.63253429898E+02  0.54585725903E+03  0.46999998093E+01 0.  1.
       -5    1    3    3    0  502  0.18472583133E+03 -0.50971896971E+03 -0.22721702832E+03  0.58786625077E+03  0.46999998093E+01 0. -1.
</event>
<event>
 5   0  0.3744875E-03  0.1092244E+04  0.7818609E-02  0.9212785E-01
        2   -1    0    0  501    0  0.00000000000E+00  0.00000000000E+00  0.21429978736E+04  0.21429978736E+04  0.25500000920E-02 0.  1.
       -2   -1    0    0    0  501  0.00000000000E+00  0.00000000000E+00 -0.13917375073E+03  0.13917375075E+03  0.25500000920E-02 0. -1.
    10030    2    1    2    0    0  0.00000000000E+00  0.00000000000E+00  0.20038241229E+04  0.22821716244E+04  0.10922436576E+04 0.  0.
        2    1    3    3  502    0 -0.44675302017E+02 -0.40144497569E+01  0.21391424583E+04  0.21396126881E+04  0.25500000920E-02 0.  1.
       -2    1    3    3    0  502  0.44675302017E+02  0.40144497569E+01 -0.13531833536E+03  0.14255893626E+03  0.25500000920E-02 0. -1.
</event>
<event>
 5   0  0.3962999E-03  0.1171581E+04  0.7818609E-02  0.9138102E-01
        2   -1    0    0  501    0  0.00000000000E+00  0.00000000000E+00  0.12511587835E+04  0.12511587835E+04  0.25500000920E-02 0. -1.
       -2   -1    0    0    0  501  0.00000000000E+00  0.00000000000E+00 -0.27426608418E+03  0.27426608419E+03  0.25500000920E-02 0.  1.
    10030    2    1    2    0    0  0.00000000000E+00  0.00000000000E+00  0.97689269932E+03  0.15254248677E+04  0.11715808470E+04 0.  0.
        3    1    3    3  502    0  0.15991173852E+03 -0.25622437358E+03  0.11419628145E+04  0.11812289252E+04  0.10100000352E+00 0. -1.
       -3    1    3    3    0  502 -0.15991173852E+03  0.25622437358E+03 -0.16507011517E+03  0.34419594254E+03  0.10100000352E+00 0.  1.
</event>
<event>
 5   0  0.2298958E-03  0.9984383E+03  0.7818609E-02  0.9310259E-01
        1   -1    0    0  501    0  0.00000000000E+00  0.00000000000E+00  0.13652332442E+04  0.13652332442E+04  0.50400001928E-02 0. -1.
       -1   -1    0    0    0  501  0.00000000000E+00  0.00000000000E+00 -0.18254737149E+03  0.18254737156E+03  0.50400001928E-02 0.  1.
    10030    2    1    2    0    0  0.00000000000E+00  0.00000000000E+00  0.11826858727E+04  0.15477806158E+04  0.99843826101E+03 0.  0.
        1    1    3    3  502    0  0.13109911304E+03 -0.45121041363E+03  0.32990555503E+03  0.57412149418E+03  0.50400001928E-02 0.  1.
       -1    1    3    3    0  502 -0.13109911304E+03  0.45121041363E+03  0.85278031770E+03  0.97365912161E+03  0.50400001928E-02 0. -1.
</event>
<event>
 5   0  0.3962999E-03  0.1097397E+04  0.7818609E-02  0.9207733E-01
       -2   -1    0    0    0  501  0.00000000000E+00  0.00000000000E+00  0.13023761737E+03  0.13023761739E+03  0.25500000920E-02 0.  1.
        2   -1    0    0  501    0  0.00000000000E+00  0.00000000000E+00 -0.23116969864E+04  0.23116969864E+04  0.25500000920E-02 0. -1.
    10030    2    1    2    0    0  0.00000000000E+00  0.00000000000E+00 -0.21814593690E+04  0.24419346038E+04  0.10973967516E+04 0.  0.
        3    1    3    3  502    0  0.24583626660E+03  0.38910400393E+03 -0.17554391956E+04  0.18147738635E+04  0.10100000352E+00 0. -1.
       -3    1    3    3    0  502 -0.24583626660E+03 -0.38910400393E+03 -0.42602017343E+03  0.62716074033E+03  0.10100000352E+00 0.  1.
</event>
<event>
 5   0  0.3748901E-03  0.1104622E+04  0.7818609E-02  0.9200699E-01
       -2   -1    0    0    0  501  0.00000000000E+00  0.00000000000E+00  0.15050189531E+03  0.15050189533E+03  0.25500000920E-02 0.  1.
        2   -1    0    0  501    0  0.00000000000E+00  0.00000000000E+00 -0.20268671133E+04  0.20268671133E+04  0.25500000920E-02 0. -1.
    10030    2    1    2    0    0  0.00000000000E+00  0.00000000000E+00 -0.18763652180E+04  0.21773690086E+04  0.11046218215E+04 0.  0.
        5    1    3    3  502    0  0.49660569582E+03  0.81376403093E+02 -0.13867464378E+04  0.14752379838E+04  0.46999998093E+01 0.  1.
       -5    1    3    3    0  502 -0.49660569582E+03 -0.81376403093E+02 -0.48961878016E+03  0.70213102480E+03  0.46999998093E+01 0. -1.
</event>
<event>
 5   0  0.2298958E-03  0.1089254E+04  0.7818609E-02  0.9215729E-01
       -1   -1    0    0    0  501  0.00000000000E+00  0.00000000000E+00  0.19160316567E+03  0.19160316573E+03  0.50400001928E-02 0. -1.
        1   -1    0    0  501    0  0.00000000000E+00  0.00000000000E+00 -0.15480889010E+04  0.15480889010E+04  0.50400001928E-02 0.  1.
    10030    2    1    2    0    0  0.00000000000E+00  0.00000000000E+00 -0.13564857353E+04  0.17396920667E+04  0.10892543031E+04 0.  0.
        1    1    3    3  502    0 -0.52125546836E+03 -0.14866401130E+03 -0.59357208926E+03  0.80382589951E+03  0.50400001928E-02 0.  1.
       -1    1    3    3    0  502  0.52125546836E+03  0.14866401130E+03 -0.76291364603E+03  0.93586616718E+03  0.50400001928E-02 0. -1.
</event>
<event>
 5   0  0.2374100E-03  0.1097586E+04  0.7818609E-02  0.9207548E-01
        1   -1    0    0  501    0  0.00000000000E+00  0.00000000000E+00  0.10408527622E+04  0.10408527622E+04  0.50400001928E-02 0.  1.
       -1   -1    0    0    0  501  0.00000000000E+00  0.00000000000E+00 -0.28935309717E+03  0.28935309721E+03  0.50400001928E-02 0. -1.
    10030    2    1    2    0    0  0.00000000000E+00  0.00000000000E+00  0.75149966502E+03  0.13302058594E+04  0.10975863893E+04 0.  0.
        2    1    3    3  502    0 -0.41514735696E+03  0.17222275589E+03  0.75739649119E+03  0.88071417073E+03  0.25500000920E-02 0.  1.
       -2    1    3    3    0  502  0.41514735696E+03 -0.17222275589E+03 -0.58968261701E+01  0.44949168869E+03  0.25500000920E-02 0. -1.
</event>
<event>
 5   0  0.3713158E-03  0.1064996E+04  0.7818609E-02  0.9239997E-01
       -2   -1    0    0    0  501  0.00000000000E+00  0.00000000000E+00  0.14792406065E+03  0.14792406067E+03  0.25500000920E-02 0. -1.
        2   -1    0    0  501    0  0.00000000000E+00  0.00000000000E+00 -0.19168903240E+04  0.19168903240E+04  0.25500000920E-02 0.  1.
    10030    2    1    2    0    0  0.00000000000E+00  0.00000000000E+00 -0.17689662634E+04  0.20648143847E+04  0.10649961513E+04 0.  0.
        4    1    3    3  502    0  0.47502520119E+03 -0.10412008067E+02 -0.41838324275E+03  0.63309043777E+03  0.12699999809E+01 0. -1.
       -4    1    3    3    0  502 -0.47502520119E+03  0.10412008067E+02 -0.13505830206E+04  0.14317239469E+04  0.12699999809E+01 0.  1.
</event>
<event>
 5   0  0.3713158E-03  0.1155067E+04  0.7818609E-02  0.9153122E-01
        2   -1    0    0  501    0  0.00000000000E+00  0.00000000000E+00  0.91930011942E+03  0.91930011942E+03  0.25500000920E-02 0.  1.
       -2   -1    0    0    0  501  0.00000000000E+00  0.00000000000E+00 -0.36282465660E+03  0.36282465661E+03  0.25500000920E-02 0. -1.
    10030    2    1    2    0    0  0.00000000000E+00  0.00000000000E+00  0.55647546282E+03  0.12821247760E+04  0.11550666650E+04 0.  0.
        4    1    3    3  502    0 -0.54515749682E+03 -0.47818221475E+02  0.48309183243E+03  0.72997439003E+03  0.12699999809E+01 0.  1.
       -4    1    3    3    0  502  0.54515749682E+03  0.47818221475E+02  0.73383630395E+02  0.55215038600E+03  0.12699999809E+01 0. -1.
</event>
<event>
 5   0  0.3744875E-03  0.1100358E+04  0.7818609E-02  0.9204843E-01
        2   -1    0    0  501    0  0.00000000000E+00  0.00000000000E+00  0.11130231822E+04  0.11130231822E+04  0.25500000920E-02 0. -1.
       -2   -1    0    0    0  501  0.00000000000E+00  0.00000000000E+00 -0.27195928688E+03  0.27195928689E+03  0.25500000920E-02 0.  1.
    10030    2    1    2    0    0  0.00000000000E+00  0.00000000000E+00  0.84106389531E+03  0.13849824691E+04  0.11003581070E+04 0.  0.
        2    1    3    3  502    0  0.48537101061E+03 -0.60450069508E+02  0.10346380785E+03  0.49994398525E+03  0.25500000920E-02 0. -1.
       -2    1    3    3    0  502 -0.48537101061E+03  0.60450069508E+02  0.73760008746E+03  0.88503848384E+03  0.25500000920E-02 0.  1.
</event>
<event>
 5   0  0.3992414E-03  0.1104318E+04  0.7818609E-02  0.9200993E-01
        2   -1    0    0  501    0  0.00000000000E+00  0.00000000000E+00  0.14272121330E+04  0.14272121330E+04  0.25500000920E-02 0. -1.
       -2   -1    0    0    0  501  0.00000000000E+00  0.00000000000E+00 -0.21361911161E+03  0.21361911163E+03  0.25500000920E-02 0.  1.
    10030    2    1    2    0    0  0.00000000000E+00  0.00000000000E+00  0.12135930213E+04  0.16408312446E+04  0.11043184105E+04 0.  0.
        1    1    3    3  502    0  0.37115213637E+03 -0.12539589722E+03  0.11849392158E+04  0.12480220288E+04  0.50400001928E-02 0. -1.
       -1    1    3    3    0  502 -0.37115213637E+03  0.12539589722E+03  0.28653805571E+02  0.39280921574E+03  0.50400001928E-02 0.  1.
</event>
<event>
 5   0  0.3713158E-03  0.1092362E+04  0.7818609E-02  0.9212669E-01
       -2   -1    0    0    0  501  0.00000000000E+00  0.00000000000E+00  0.84310787240E+03  0.84310787241E+03  0.25500000920E-02 0.  1.
        2   -1    0    0  501    0  0.00000000000E+00  0.00000000000E+00 -0.35382597245E+03  0.35382597246E+03  0.25500000920E-02 0. -1.
    10030    2    1    2    0    0  0.00000000000E+00  0.00000000000E+00  0.48928189995E+03  0.11969338449E+04  0.10923615937E+04 0.  0.
        4    1    3    3  502    0 -0.42667206470E+03 -0.34093367909E+02 -0.12710155371E+03  0.44650624451E+03  0.12699999809E+01 0. -1.
       -4    1    3    3    0  502  0.42667206470E+03  0.34093367909E+02  0.61638345366E+03  0.75042760036E+03  0.12699999809E+01 0.  1.
</event>
<event>
 5   0  0.3962999E-03  0.1087823E+04  0.7818609E-02  0.9217142E-01
        2   -1    0    0  501    0  0.00000000000E+00  0.00000000000E+00  0.82249899962E+03  0.82249899963E+03  0.25500000920E-02 0.  1.
       -2   -1    0    0    0  501  0.00000000000E+00  0.00000000000E+00 -0.35968423987E+03  0.35968423987E+03  0.25500000920E-02 0. -1.
    10030    2    1    2    0    0  0.00000000000E+00  0.00000000000E+00  0.46281475976E+03  0.11821832395E+04  0.10878233818E+04 0.  0.
        3    1    3    3  502    0 -0.12300391474E+03 -0.45119537890E+03  0.53322572339E+03  0.70925095366E+03  0.10100000352E+00 0.  1.
       -3    1    3    3    0  502  0.12300391474E+03  0.45119537890E+03 -0.70410963635E+02  0.47293228584E+03  0.10100000352E+00 0. -1.
</event>
<event>
 5   0  0.2298958E-03  0.1103936E+04  0.7818609E-02  0.9201364E-01
        1   -1    0    0  501    0  0.00000000000E+00  0.00000000000E+00  0.47647210653E+03  0.47647210655E+03  0.50400001928E-02 0. -1.
       -1   -1    0    0    0  501  0.00000000000E+00  0.00000000000E+00 -0.63942625654E+03  0.63942625656E+03  0.50400001928E-02 0.  1.
    10030    2    1    2    0    0  0.00000000000E+00  0.00000000000E+00 -0.16295415001E+03  0.11158983631E+04  0.11039361856E+04 0.  0.
        1    1    3    3  502    0  0.22351920204E+03 -0.39310098080E+03  0.23846417162E+03  0.51122830121E+03  0.50400001928E-02 0. -1.
       -1    1    3    3    0  502 -0.22351920204E+03  0.39310098080E+03 -0.40141832163E+03  0.60467006190E+03  0.50400001928E-02 0.  1.
</event>
<event>
 5   0  0.2298958E-03  0.1106343E+04  0.7818609E-02  0.9199032E-01
        1   -1    0    0  501    0  0.00000000000E+00  0.00000000000E+00  0.14670941926E+04  0.14670941926E+04  0.50400001928E-02 0.  1.
       -1   -1    0    0    0  501  0.00000000000E+00  0.00000000000E+00 -0.20857453831E+03  0.20857453837E+03  0.50400001928E-02 0. -1.
    10030    2    1    2    0    0  0.00000000000E+00  0.00000000000E+00  0.12585196543E+04  0.16756687309E+04  0.11063426123E+04 0.  0.
        1    1    3    3  502    0  0.19915609875E+03  0.30908633536E+03  0.12552156790E+04  0.13079617407E+04  0.50400001928E-02 0.  1.
       -1    1    3    3    0  502 -0.19915609875E+03 -0.30908633536E+03  0.33039752567E+01  0.36770699021E+03  0.50400001928E-02 0. -1.
</event>
<event>
 5   0  0.2257667E-03  0.1106499E+04  0.7818609E-02  0.9198881E-01
        1   -1    0    0  501    0  0.00000000000E+00  0.00000000000E+00  0.16078420362E+04  0.16078420362E+04  0.50400001928E-02 0. -1.
       -1   -1    0    0    0  501  0.00000000000E+00  0.00000000000E+00 -0.19036991903E+03  0.19036991909E+03  0.50400001928E-02 0.  1.
    10030    2    1    2    0    0  0.00000000000E+00  0.00000000000E+00  0.14174721172E+04  0.17982119553E+04  0.11064985464E+04 0.  0.
        4    1    3    3  502    0  0.38116225337E+02  0.13641731063E+03 -0.16040186850E+03  0.21399276061E+03  0.12699999809E+01 0.  1.
       -4    1    3    3    0  502 -0.38116225337E+02 -0.13641731063E+03  0.15778739857E+04  0.15842191947E+04  0.12699999809E+01 0. -1.
</event>
<event>
 5   0  0.2298958E-03  0.1089622E+04  0.7818609E-02  0.9215366E-01
       -1   -1    0    0    0  501  0.00000000000E+00  0.00000000000E+00  0.14109027407E+03  0.14109027416E+03  0.50400001928E-02 0. -1.
        1   -1    0    0  501    0  0.00000000000E+00  0.00000000000E+00 -0.21037538379E+04  0.21037538379E+04  0.50400001928E-02 0.  1.
    10030    2    1    2    0    0  0.00000000000E+00  0.00000000000E+00 -0.19626635639E+04  0.22448441121E+04  0.10896223303E+04 0.  0.
        1    1    3    3  502    0 -0.37768129749E+03 -0.24692792685E+03 -0.16102936334E+04  0.16723223820E+04  0.50400001928E-02 0.  1.
       -1    1    3    3    0  502  0.37768129749E+03  0.24692792685E+03 -0.35236993051E+03  0.57252173014E+03  0.50400001928E-02 0. -1.
</event>
<event>
 5   0  0.3992414E-03  0.1125595E+04  0.7818609E-02  0.9180598E-01
       -2   -1    0    0    0  501  0.00000000000E+00  0.00000000000E+00  0.25383483799E+03  0.25383483801E+03  0.25500000920E-02 0. -1.
        2   -1    0    0  501    0  0.00000000000E+00  0.00000000000E+00 -0.12478234391E+04  0.12478234391E+04  0.25500000920E-02 0.  1.
    10030    2    1    2    0    0  0.00000000000E+00  0.00000000000E+00 -0.99398860112E+03  0.15016582771E+04  0.11255950613E+04 0.  0.
        1    1    3    3  502    0  0.18612310057E+03 -0.52372564277E+03 -0.37908881844E+03  0.67278428173E+03  0.50400001928E-02 0. -1.
       -1    1    3    3    0  502 -0.18612310057E+03  0.52372564277E+03 -0.61489978268E+03  0.82887399539E+03  0.50400001928E-02 0.  1.
</event>
<event>
 5   0  0.3713158E-03  0.1103254E+04  0.7818609E-02  0.9202026E-01
       -2   -1    0    0    0  501  0.00000000000E+00  0.00000000000E+00  0.30414875561E+03  0.30414875562E+03  0.25500000920E-02 0. -1.
        2   -1    0    0  501    0  0.00000000000E+00  0.00000000000E+00 -0.10004719901E+04  0.10004719901E+04  0.25500000920E-02 0.  1.
    10030    2    1    2    0    0  0.00000000000E+00  0.00000000000E+00 -0.69632323453E+03  0.13046207458E+04  0.11032539342E+04 0.  0.
        4    1    3    3  502    0  0.42472786326E+03 -0.21451587035E+03 -0.18155920939E+02  0.47617440799E+03  0.12699999809E+01 0. -1.
       -4    1    3    3    0  502 -0.42472786326E+03  0.21451587035E+03 -0.67816731359E+03  0.82844633778E+03  0.12699999809E+01 0.  1.
</event>
<event>
 5   0  0.3744875E-03  0.1098614E+04  0.7818609E-02  0.9206543E-01
       -2   -1    0    0    0  501  0.00000000000E+00  0.00000000000E+00  0.22682911947E+03  0.22682911949E+03  0.25500000920E-02 0.  1.
        2   -1    0    0  501    0  0.00000000000E+00  0.00000000000E+00 -0.13302452854E+04  0.13302452854E+04  0.25500000920E-02 0. -1.
    10030    2    1    2    0    0  0.00000000000E+00  0.00000000000E+00 -0.11034161659E+04  0.15570744049E+04  0.10986143396E+04 0.  0.
        2    1    3    3  502    0  0.18526087193E+03  0.37246032728E+03 -0.43271678119E+02  0.41823524983E+03  0.25500000920E-02 0.  1.
       -2    1    3    3    0  502 -0.18526087193E+03 -0.37246032728E+03 -0.10601444878E+04  0.11388391551E+04  0.25500000920E-02 0. -1.
</event>
<event>
 5   0  0.2300702E-03  0.1095356E+04  0.7818609E-02  0.9209730E-01
        1   -1    0    0  501    0  0.00000000000E+00  0.00000000000E+00  0.75955710473E+03  0.75955710474E+03  0.50400001928E-02 0. -1.
       -1   -1    0    0    0  501  0.00000000000E+00  0.00000000000E+00 -0.39490258922E+03  0.39490258925E+03  0.50400001928E-02 0.  1.
    10030    2    1    2    0    0  0.00000000000E+00  0.00000000000E+00  0.36465451551E+03  0.11544596940E+04  0.10953557730E+04 0.  0.
        5    1    3    3  502    0  0.32416811198E+02  0.49525184948E+03  0.42634482450E+03  0.65430668913E+03  0.46999998093E+01 0. -1.
       -5    1    3    3    0  502 -0.32416811198E+02 -0.49525184948E+03 -0.61690308992E+02  0.50015300487E+03  0.46999998093E+01 0.  1.
</event>
<event>
 5   0  0.2255788E-03  0.1090954E+04  0.7818609E-02  0.9214053E-01
       -1   -1    0    0    0  501  0.00000000000E+00  0.00000000000E+00  0.37490966441E+03  0.37490966444E+03  0.50400001928E-02 0. -1.
        1   -1    0    0  501    0  0.00000000000E+00  0.00000000000E+00 -0.79364546185E+03  0.79364546186E+03  0.50400001928E-02 0.  1.
    10030    2    1    2    0    0  0.00000000000E+00  0.00000000000E+00 -0.41873579744E+03  0.11685551263E+04  0.10909543598E+04 0.  0.
        3    1    3    3  502    0 -0.10679382718E+03  0.17411482799E+03  0.33240047147E+03  0.39014225416E+03  0.10100000352E+00 0. -1.
       -3    1    3    3    0  502  0.10679382718E+03 -0.17411482799E+03 -0.75113626891E+03  0.77841287214E+03  0.10100000352E+00 0.  1.
</event>
<event>
 5   0  0.3992414E-03  0.1100604E+04  0.7818609E-02  0.9204603E-01
        2   -1    0    0  501    0  0.00000000000E+00  0.00000000000E+00  0.17271832839E+04  0.17271832839E+04  0.25500000920E-02 0.  1.
       -2   -1    0    0    0  501  0.00000000000E+00  0.00000000000E+00 -0.17533315584E+03  0.17533315586E+03  0.25500000920E-02 0. -1.
    10030    2    1    2    0    0  0.00000000000E+00  0.00000000000E+00  0.15518501280E+04  0.19025164397E+04  0.11006043720E+04 0.  0.
        1    1    3    3  502    0 -0.18420062329E+03 -0.31318784043E+03  0.14903579908E+04  0.15340089419E+04  0.50400001928E-02 0.  1.
       -1    1    3    3    0  502  0.18420062329E+03  0.31318784043E+03  0.61492137247E+02  0.36850749786E+03  0.50400001928E-02 0. -1.
</event>
<event>
 5   0  0.2257667E-03  0.1114098E+04  0.7818609E-02  0.9191559E-01
       -1   -1    0    0    0  501  0.00000000000E+00  0.00000000000E+00  0.22886168249E+03  0.22886168255E+03  0.50400001928E-02 0. -1.
        1   -1    0    0  501    0  0.00000000000E+00  0.00000000000E+00 -0.13558565816E+04  0.13558565816E+04  0.50400001928E-02 0.  1.
    10030    2    1    2    0    0  0.00000000000E+00  0.00000000000E+00 -0.11269948991E+04  0.15847182642E+04  0.11140980541E+04 0.  0.
        4    1    3    3  502    0 -0.40104258267E+03 -0.33393709824E+03 -0.28638825149E+03  0.59528899048E+03  0.12699999809E+01 0. -1.
       -4    1    3    3    0  502  0.40104258267E+03  0.33393709824E+03 -0.84060664762E+03  0.98942927368E+03  0.12699999809E+01 0.  1.
</event>
<event>
 5   0  0.2255788E-03  0.1055459E+04  0.7818609E-02  0.9249727E-01
        1   -1    0    0  501    0  0.00000000000E+00  0.00000000000E+00  0.28008142907E+03  0.28008142912E+03  0.50400001928E-02 0. -1.
       -1   -1    0    0    0  501  0.00000000000E+00  0.00000000000E+00 -0.99434715807E+03  0.99434715809E+03  0.50400001928E-02 0.  1.
    10030    2    1    2    0    0  0.00000000000E+00  0.00000000000E+00 -0.71426572900E+03  0.12744285872E+04  0.10554585223E+04 0.  0.
        3    1    3    3  502    0 -0.20438857431E+03  0.22077169422E+03 -0.88065374255E+03  0.93062659254E+03  0.10100000352E+00 0.  1.
       -3    1    3    3    0  502  0.20438857431E+03 -0.22077169422E+03  0.16638801355E+03  0.34380199466E+03  0.10100000352E+00 0. -1.
</event>
<event>
 5   0  0.2298958E-03  0.1091323E+04  0.7818609E-02  0.9213691E-01
        1   -1    0    0  501    0  0.00000000000E+00  0.00000000000E+00  0.81410216980E+03  0.81410216982E+03  0.50400001928E-02 0.  1.
       -1   -1    0    0    0  501  0.00000000000E+00  0.00000000000E+00 -0.36573598974E+03  0.36573598978E+03  0.50400001928E-02 0. -1.
    10030    2    1    2    0    0  0.00000000000E+00  0.00000000000E+00  0.44836618006E+03  0.11798381596E+04  0.10913229822E+04 0.  0.
        1    1    3    3  502    0  0.63287144311E+01  0.36278699019E+03 -0.21641591058E+03  0.42248112296E+03  0.50400001928E-02 0. -1.
       -1    1    3    3    0  502 -0.63287144311E+01 -0.36278699019E+03  0.66478209064E+03  0.75735703663E+03  0.50400001928E-02 0.  1.
</event>
<event>
 5   0  0.1508625E-03  0.1102119E+04  0.7818609E-02  0.9203129E-01
       -3   -1    0    0    0  501  0.00000000000E+00  0.00000000000E+00  0.31171360628E+03  0.31171362264E+03  0.10100000352E+00 0.  1.
        3   -1    0    0  501    0  0.00000000000E+00  0.00000000000E+00 -0.97418415735E+03  0.97418416258E+03  0.10100000352E+00 0. -1.
    10030    2    1    2    0    0  0.00000000000E+00  0.00000000000E+00 -0.66247055107E+03  0.12858977852E+04  0.11021188153E+04 0.  0.
        3    1    3    3  502    0 -0.13331756503E+03  0.37925726191E+03  0.10851798769E+03  0.41639621481E+03  0.10100000352E+00 0.  1.
       -3    1    3    3    0  502  0.13331756503E+03 -0.37925726191E+03 -0.77098853876E+03  0.86950157041E+03  0.10100000352E+00 0. -1.
</event>
<event>
 5   0  0.2300702E-03  0.1082723E+04  0.7818609E-02  0.9222197E-01
        1   -1    0    0  501    0  0.00000000000E+00  0.00000000000E+00  0.13910857918E+04  0.13910857918E+04  0.50400001928E-02 0.  1.
       -1   -1    0    0    0  501  0.00000000000E+00  0.00000000000E+00 -0.21067864228E+03  0.21067864234E+03  0.50400001928E-02 0. -1.
    10030    2    1    2    0    0  0.00000000000E+00  0.00000000000E+00  0.11804071495E+04  0.16017644342E+04  0.10827226163E+04 0.  0.
        5    1    3    3  502    0  0.29521623041E+03 -0.72179993867E+02 -0.72533845394E+02  0.31248331625E+03  0.46999998093E+01 0. -1.
       -5    1    3    3    0  502 -0.29521623041E+03  0.72179993867E+02  0.12529409949E+04  0.12892811179E+04  0.46999998093E+01 0.  1.
</event>
<event>
 5   0  0.2255788E-03  0.1087744E+04  0.7818609E-02  0.9217221E-01
       -1   -1    0    0    0  501  0.00000000000E+00  0.00000000000E+00  0.54714082670E+03  0.54714082672E+03  0.50400001928E-02 0. -1.
        1   -1    0    0  501    0  0.00000000000E+00  0.00000000000E+00 -0.54062238030E+03  0.54062238032E+03  0.50400001928E-02 0.  1.
    10030    2    1    2    0    0  0.00000000000E+00  0.00000000000E+00  0.65184464019E+01  0.10877632070E+04  0.10877436759E+04 0.  0.
        3    1    3    3  502    0 -0.15002626910E+03  0.18385968931E+03 -0.48612089430E+03  0.54094898175E+03  0.10100000352E+00 0.  1.
       -3    1    3    3    0  502  0.15002626910E+03 -0.18385968931E+03  0.49263934071E+03  0.54681422530E+03  0.10100000352E+00 0. -1.
</event>
<event>
 5   0  0.3713158E-03  0.1134830E+04  0.7818609E-02  0.9171894E-01
        2   -1    0    0  501    0  0.00000000000E+00  0.00000000000E+00  0.69504460867E+03  0.69504460867E+03  0.25500000920E-02 0.  1.
       -2   -1    0    0    0  501  0.00000000000E+00  0.00000000000E+00 -0.46322167351E+03  0.46322167351E+03  0.25500000920E-02 0. -1.
    10030    2    1    2    0    0  0.00000000000E+00  0.00000000000E+00  0.23182293516E+03  0.11582662822E+04  0.11348299023E+04 0.  0.
        4    1    3    3  502    0 -0.34430656833E+03  0.82851500227E+02 -0.33658016673E+03  0.48856852705E+03  0.12699999809E+01 0. -1.
       -4    1    3    3    0  502  0.34430656833E+03 -0.82851500227E+02  0.56840310189E+03  0.66969775513E+03  0.12699999809E+01 0.  1.
</event>
<event>
 5   0  0.3992414E-03  0.1092673E+04  0.7818609E-02  0.9212362E-01
        2   -1    0    0  501    0  0.00000000000E+00  0.00000000000E+00  0.10977849454E+04  0.10977849454E+04  0.25500000920E-02 0. -1.
       -2   -1    0    0    0  501  0.00000000000E+00  0.00000000000E+00 -0.27189637277E+03  0.27189637278E+03  0.25500000920E-02 0.  1.
    10030    2    1    2    0    0  0.00000000000E+00  0.00000000000E+00  0.82588857259E+03  0.13696813181E+04  0.10926733176E+04 0.  0.
        1    1    3    3  502    0 -0.35114151514E+03  0.41794626761E+03  0.44109393694E+03  0.70181429702E+03  0.50400001928E-02 0. -1.
       -1    1    3    3    0  502  0.35114151514E+03 -0.41794626761E+03  0.38479463564E+03  0.66786702113E+03  0.50400001928E-02 0.  1.
</event>
<event>
 5   0  0.2257667E-03  0.1101338E+04  0.7818609E-02  0.9203889E-01
        1   -1    0    0  501    0  0.00000000000E+00  0.00000000000E+00  0.10091606927E+04  0.10091606927E+04  0.50400001928E-02 0.  1.
       -1   -1    0    0    0  501  0.00000000000E+00  0.00000000000E+00 -0.30048344784E+03  0.30048344789E+03  0.50400001928E-02 0. -1.
    10030    2    1    2    0    0  0.00000000000E+00  0.00000000000E+00  0.70867724485E+03  0.13096441406E+04  0.11013375221E+04 0.  0.
        4    1    3    3  502    0  0.61782021390E+02 -0.25677874987E+03  0.92893077317E+03  0.96574651892E+03  0.12699999809E+01 0.  1.
       -4    1    3    3    0  502 -0.61782021390E+02  0.25677874987E+03 -0.22025352833E+03  0.34389762167E+03  0.12699999809E+01 0. -1.
</event>
<event>
 5   0  0.3748901E-03  0.1102138E+04  0.7818609E-02  0.9203110E-01
       -2   -1    0    0    0  501  0.00000000000E+00  0.00000000000E+00  0.42807488045E+03  0.42807488046E+03  0.25500000920E-02 0. -1.
        2   -1    0    0  501    0  0.00000000000E+00  0.00000000000E+00 -0.70940201959E+03  0.70940201959E+03  0.25500000920E-02 0.  1.
    10030    2    1    2    0    0  0.00000000000E+00  0.00000000000E+00 -0.28132713914E+03  0.11374769001E+04  0.11021382576E+04 0.  0.
        5    1    3    3  502    0 -0.20022979218E+03  0.30993024328E+03 -0.56306187823E+03  0.67320835860E+03  0.46999998093E+01 0.  1.
       -5    1    3    3    0  502  0.20022979218E+03 -0.30993024328E+03  0.28173473910E+03  0.46426854146E+03  0.46999998093E+01 0. -1.
</event>
<event>
 5   0  0.2257667E-03  0.1091233E+04  0.7818609E-02  0.9213780E-01
       -1   -1    0    0    0  501  0.00000000000E+00  0.00000000000E+00  0.44263261019E+03  0.44263261022E+03  0.50400001928E-02 0. -1.
        1   -1    0    0  501    0  0.00000000000E+00  0.00000000000E+00 -0.67256031263E+03  0.67256031265E+03  0.50400001928E-02 0.  1.
    10030    2    1    2    0    0  0.00000000000E+00  0.00000000000E+00 -0.22992770244E+03  0.11151929229E+04  0.10912325632E+04 0.  0.
        4    1    3    3  502    0  0.39061954382E+03  0.71044263517E+02 -0.49743341258E+03  0.63645308408E+03  0.12699999809E+01 0.  1.
       -4    1    3    3    0  502 -0.39061954382E+03 -0.71044263517E+02  0.26750571014E+03  0.47873983879E+03  0.12699999809E+01 0. -1.
</event>
<event>
 5   0  0.2298958E-03  0.1048908E+04  0.7818609E-02  0.9256473E-01
       -1   -1    0    0    0  501  0.00000000000E+00  0.00000000000E+00  0.56563314108E+03  0.56563314110E+03  0.50400001928E-02 0. -1.
        1   -1    0    0  501    0  0.00000000000E+00  0.00000000000E+00 -0.48627238615E+03  0.48627238618E+03  0.50400001928E-02 0.  1.
    10030    2    1    2    0    0  0.00000000000E+00  0.00000000000E+00  0.79360754926E+02  0.10519055273E+04  0.10489075788E+04 0.  0.
        1    1    3    3  502    0  0.13901205381E+03  0.43620996716E+03  0.29624021263E+03  0.54530885758E+03  0.50400001928E-02 0. -1.
       -1    1    3    3    0  502 -0.13901205381E+03 -0.43620996716E+03 -0.21687945770E+03  0.50659666970E+03  0.50400001928E-02 0.  1.
</event>
<event>
 5   0  0.2298958E-03  0.1095057E+04  0.7818609E-02  0.9210024E-01
       -1   -1    0    0    0  501  0.00000000000E+00  0.00000000000E+00  0.73747005320E+03  0.73747005322E+03  0.50400001928E-02 0.  1.
        1   -1    0    0  501    0  0.00000000000E+00  0.00000000000E+00 -0.40650764846E+03  0.40650764849E+03  0.50400001928E-02 0. -1.
    10030    2    1    2    0    0  0.00000000000E+00  0.00000000000E+00  0.33096240475E+03  0.11439777017E+04  0.10950565596E+04 0.  0.
        1    1    3    3  502    0 -0.45741787342E+03  0.44804761013E+02  0.47634629329E+03  0.66192474548E+03  0.50400001928E-02 0.  1.
       -1    1    3    3    0  502  0.45741787342E+03 -0.44804761013E+02 -0.14538388854E+03  0.48205295622E+03  0.50400001928E-02 0. -1.
</event>
<event>
 5   0  0.2255788E-03  0.1092380E+04  0.7818609E-02  0.9212651E-01
        1   -1    0    0  501    0  0.00000000000E+00  0.00000000000E+00  0.16449311130E+04  0.16449311130E+04  0.50400001928E-02 0.  1.
       -1   -1    0    0    0  501  0.00000000000E+00  0.00000000000E+00 -0.18135923574E+03  0.18135923581E+03  0.50400001928E-02 0. -1.
    10030    2    1    2    0    0  0.00000000000E+00  0.00000000000E+00  0.14635718773E+04  0.18262903488E+04  0.10923798782E+04 0.  0.
        3    1    3    3  502    0  0.14357238234E+03  0.49263168558E+03  0.41890314005E+03  0.66240384779E+03  0.10100000352E+00 0. -1.
       -3    1    3    3    0  502 -0.14357238234E+03 -0.49263168558E+03  0.10446687372E+04  0.11638865011E+04  0.10100000352E+00 0.  1.
</event>
<event>
 5   0  0.3748901E-03  0.1099214E+04  0.7818609E-02  0.9205958E-01
        2   -1    0    0  501    0  0.00000000000E+00  0.00000000000E+00  0.64196587361E+03  0.64196587361E+03  0.25500000920E-02 0.  1.
       -2   -1    0    0    0  501  0.00000000000E+00  0.00000000000E+00 -0.47053589755E+03  0.47053589756E+03  0.25500000920E-02 0. -1.
    10030    2    1    2    0    0  0.00000000000E+00  0.00000000000E+00  0.17142997606E+03  0.11125017712E+04  0.10992142440E+04 0.  0.
        5    1    3    3  502    0 -0.19872801516E+03 -0.14702921305E+03 -0.41107032453E+03  0.47969919241E+03  0.46999998093E+01 0. -1.
       -5    1    3    3    0  502  0.19872801516E+03  0.14702921305E+03  0.58250030059E+03  0.63280257875E+03  0.46999998093E+01 0.  1.
</event>
<event>
 5   0  0.3992414E-03  0.1100367E+04  0.7818609E-02  0.9204834E-01
        2   -1    0    0  501    0  0.00000000000E+00  0.00000000000E+00  0.64154614286E+03  0.64154614287E+03  0.25500000920E-02 0.  1.
       -2   -1    0    0    0  501  0.00000000000E+00  0.00000000000E+00 -0.47183189583E+03  0.47183189584E+03  0.25500000920E-02 0. -1.
    10030    2    1    2    0    0  0.00000000000E+00  0.00000000000E+00  0.16971424703E+03  0.11133780387E+04  0.11003670894E+04 0.  0.
        1    1    3    3  502    0  0.16652053259E+02 -0.35778592161E+03  0.50742412041E+03  0.62110167813E+03  0.50400001928E-02 0.  1.
       -1    1    3    3    0  502 -0.16652053259E+02  0.35778592161E+03 -0.33770987338E+03  0.49227636057E+03  0.50400001928E-02 0. -1.
</event>
<event>
 5   0  0.2257667E-03  0.1096335E+04  0.7818609E-02  0.9208771E-01
        1   -1    0    0  501    0  0.00000000000E+00  0.00000000000E+00  0.38727581018E+03  0.38727581022E+03  0.50400001928E-02 0.  1.
       -1   -1    0    0    0  501  0.00000000000E+00  0.00000000000E+00 -0.77590110120E+03  0.77590110122E+03  0.50400001928E-02 0. -1.
    10030    2    1    2    0    0  0.00000000000E+00  0.00000000000E+00 -0.38862529102E+03  0.11631769114E+04  0.10963352181E+04 0.  0.
        4    1    3    3  502    0  0.18734169751E+03 -0.34807832147E+01 -0.74086795696E+03  0.76419629025E+03  0.12699999809E+01 0. -1.
       -4    1    3    3    0  502 -0.18734169751E+03  0.34807832147E+01  0.35224266594E+03  0.39898062119E+03  0.12699999809E+01 0.  1.
</event>
<event>
 5   0  0.2255788E-03  0.9471997E+03  0.7818609E-02  0.9368430E-01
        1   -1    0    0  501    0  0.00000000000E+00  0.00000000000E+00  0.66626343697E+03  0.66626343699E+03  0.50400001928E-02 0. -1.
       -1   -1    0    0    0  501  0.00000000000E+00  0.00000000000E+00 -0.33664886169E+03  0.33664886173E+03  0.50400001928E-02 0.  1.
    10030    2    1    2    0    0  0.00000000000E+00  0.00000000000E+00  0.32961457528E+03  0.10029122987E+04  0.94719972059E+03 0.  0.
        3    1    3    3  502    0  0.41217793962E+03  0.11308806712E+03 -0.51194874935E+02  0.43046543445E+03  0.10100000352E+00 0.  1.
       -3    1    3    3    0  502 -0.41217793962E+03 -0.11308806712E+03  0.38080945022E+03  0.57244686427E+03  0.10100000352E+00 0. -1.
</event>
<event>
 5   0  0.3748901E-03  0.1096356E+04  0.7818609E-02  0.9208751E-01
        2   -1    0    0  501    0  0.00000000000E+00  0.00000000000E+00  0.22888461630E+04  0.22888461630E+04  0.25500000920E-02 0.  1.
       -2   -1    0    0    0  501  0.00000000000E+00  0.00000000000E+00 -0.13128854212E+03  0.13128854214E+03  0.25500000920E-02 0. -1.
    10030    2    1    2    0    0  0.00000000000E+00  0.00000000000E+00  0.21575576209E+04  0.24201347052E+04  0.10963562850E+04 0.  0.
        5    1    3    3  502    0 -0.12160199415E+03  0.75035676883E+02 -0.89410443613E+02  0.16862299728E+03  0.46999998093E+01 0. -1.
       -5    1    3    3    0  502  0.12160199415E+03 -0.75035676883E+02  0.22469680645E+04  0.22515117079E+04  0.46999998093E+01 0.  1.
</event>
<event>
 5   0  0.2255788E-03  0.1088459E+04  0.7818609E-02  0.9216514E-01
        1   -1    0    0  501    0  0.00000000000E+00  0.00000000000E+00  0.14320452568E+04  0.14320452568E+04  0.50400001928E-02 0.  1.
       -1   -1    0    0    0  501  0.00000000000E+00  0.00000000000E+00 -0.20682718243E+03  0.20682718249E+03  0.50400001928E-02 0. -1.
    10030    2    1    2    0    0  0.00000000000E+00  0.00000000000E+00  0.12252180744E+04  0.16388724393E+04  0.10884592517E+04 0.  0.
        3    1    3    3  502    0 -0.44967724497E+03  0.24584389227E+03  0.33687188522E+03  0.61329562306E+03  0.10100000352E+00 0. -1.
       -3    1    3    3    0  502  0.44967724497E+03 -0.24584389227E+03  0.88834618916E+03  0.10255768162E+04  0.10100000352E+00 0.  1.
</event>
<event>
 5   0  0.2298958E-03  0.1105405E+04  0.7818609E-02  0.9199940E-01
        1   -1    0    0  501    0  0.00000000000E+00  0.00000000000E+00  0.10735873850E+04  0.10735873850E+04  0.50400001928E-02 0.  1.
       -1   -1    0    0    0  501  0.00000000000E+00  0.00000000000E+00 -0.28454134314E+03  0.28454134319E+03  0.50400001928E-02 0. -1.
    10030    2    1    2    0    0  0.00000000000E+00  0.00000000000E+00  0.78904604181E+03  0.13581287282E+04  0.11054048969E+04 0.  0.
        1    1    3    3  502    0 -0.31551280359E+03 -0.37587366734E+03  0.70691941422E+03  0.86056051574E+03  0.50400001928E-02 0.  1.
       -1    1    3    3    0  502  0.31551280359E+03  0.37587366734E+03  0.82126627596E+02  0.49756821242E+03  0.50400001928E-02 0. -1.
</event>
<event>
 5   0  0.3713158E-03  0.1095660E+04  0.7818609E-02  0.9209432E-01
        2   -1    0    0  501    0  0.00000000000E+00  0.00000000000E+00  0.16610239280E+04  0.16610239280E+04  0.25500000920E-02 0. -1.
       -2   -1    0    0    0  501  0.00000000000E+00  0.00000000000E+00 -0.18068232758E+03  0.18068232760E+03  0.25500000920E-02 0.  1.
    10030    2    1    2    0    0  0.00000000000E+00  0.00000000000E+00  0.14803416004E+04  0.18417062556E+04  0.10956599281E+04 0.  0.
        4    1    3    3  502    0 -0.33648199037E+03  0.18497904873E+03  0.13969717630E+04  0.14487819359E+04  0.12699999809E+01 0. -1.
       -4    1    3    3    0  502  0.33648199037E+03 -0.18497904873E+03  0.83369837436E+02  0.39292431970E+03  0.12699999809E+01 0.  1.
</event>
<event>
 5   0  0.3744875E-03  0.1104337E+04  0.7818609E-02  0.9200975E-01
       -2   -1    0    0    0  501  0.00000000000E+00  0.00000000000E+00  0.29220629606E+03  0.29220629607E+03  0.25500000920E-02 0. -1.
        2   -1    0    0  501    0  0.00000000000E+00  0.00000000000E+00 -0.10434067017E+04  0.10434067017E+04  0.25500000920E-02 0.  1.
    10030    2    1    2    0    0  0.00000000000E+00  0.00000000000E+00 -0.75120040565E+03  0.13356129978E+04  0.11043369189E+04 0.  0.
        2    1    3    3  502    0  0.35857991115E+03 -0.37842843200E+03 -0.59564374849E+03  0.79156749930E+03  0.25500000920E-02 0.  1.
       -2    1    3    3    0  502 -0.35857991115E+03  0.37842843200E+03 -0.15555665716E+03  0.54404549848E+03  0.25500000920E-02 0. -1.
</event>
<event>
 5   0  0.2374100E-03  0.1109936E+04  0.7818609E-02  0.9195561E-01
        1   -1    0    0  501    0  0.00000000000E+00  0.00000000000E+00  0.30162737856E+03  0.30162737860E+03  0.50400001928E-02 0.  1.
       -1   -1    0    0    0  501  0.00000000000E+00  0.00000000000E+00 -0.10210925161E+04  0.10210925161E+04  0.50400001928E-02 0. -1.
    10030    2    1    2    0    0  0.00000000000E+00  0.00000000000E+00 -0.71946513750E+03  0.13227198947E+04  0.11099359602E+04 0.  0.
        2    1    3    3  502    0 -0.44978983152E+03 -0.27396314978E+03 -0.15119124716E+03  0.54792836502E+03  0.25500000920E-02 0.  1.
       -2    1    3    3    0  502  0.44978983152E+03  0.27396314978E+03 -0.56827389034E+03  0.77479152965E+03  0.25500000920E-02 0. -1.
</event>
<event>
 5   0  0.3744875E-03  0.1084025E+04  0.7818609E-02  0.9220904E-01
       -2   -1    0    0    0  501  0.00000000000E+00  0.00000000000E+00  0.13742529884E+03  0.13742529886E+03  0.25500000920E-02 0.  1.
        2   -1    0    0  501    0  0.00000000000E+00  0.00000000000E+00 -0.21377243699E+04  0.21377243699E+04  0.25500000920E-02 0. -1.
    10030    2    1    2    0    0  0.00000000000E+00  0.00000000000E+00 -0.20002990711E+04  0.22751496688E+04  0.10840247422E+04 0.  0.
        2    1    3    3  502    0 -0.22011541818E+03 -0.41314065367E+03 -0.42674555431E+03  0.63344120893E+03  0.25500000920E-02 0.  1.
       -2    1    3    3    0  502  0.22011541818E+03  0.41314065367E+03 -0.15735535168E+04  0.16417084599E+04  0.25500000920E-02 0. -1.
</event>
<event>
 5   0  0.2374100E-03  0.1113752E+04  0.7818609E-02  0.9191891E-01
       -1   -1    0    0    0  501  0.00000000000E+00  0.00000000000E+00  0.17915412571E+03  0.17915412578E+03  0.50400001928E-02 0.  1.
        1   -1    0    0  501    0  0.00000000000E+00  0.00000000000E+00 -0.17309733134E+04  0.17309733134E+04  0.50400001928E-02 0. -1.
    10030    2    1    2    0    0  0.00000000000E+00  0.00000000000E+00 -0.15518191876E+04  0.19101274391E+04  0.11137522357E+04 0.  0.
        2    1    3    3  502    0  0.20260532441E+03  0.28296580936E+02  0.11237646296E+03  0.23340540569E+03  0.25500000920E-02 0.  1.
       -2    1    3    3    0  502 -0.20260532441E+03 -0.28296580936E+02 -0.16641956506E+04  0.16767220335E+04  0.25500000920E-02 0. -1.
</event>
<event>
 5   0  0.1508625E-03  0.1154116E+04  0.7818609E-02  0.9153995E-01
       -3   -1    0    0    0  501  0.00000000000E+00  0.00000000000E+00  0.76152117454E+03  0.76152118123E+03  0.10100000352E+00 0. -1.
        3   -1    0    0  501    0  0.00000000000E+00  0.00000000000E+00 -0.43727736705E+03  0.43727737871E+03  0.10100000352E+00 0.  1.
    10030    2    1    2    0    0  0.00000000000E+00  0.00000000000E+00  0.32424380749E+03  0.11987985599E+04  0.11541160863E+04 0.  0.
        2    1    3    3  502    0 -0.44208835121E+03 -0.28727714190E+03  0.40577928920E+03  0.66530226069E+03  0.25500000920E-02 0.  1.
       -2    1    3    3    0  502  0.44208835121E+03  0.28727714190E+03 -0.81535481709E+02  0.53349629925E+03  0.25500000920E-02 0. -1.
</event>
<event>
 5   0  0.2298958E-03  0.1085462E+04  0.7818609E-02  0.9219479E-01
       -1   -1    0    0    0  501  0.00000000000E+00  0.00000000000E+00  0.37854622557E+03  0.37854622560E+03  0.50400001928E-02 0.  1.
        1   -1    0    0  501    0  0.00000000000E+00  0.00000000000E+00 -0.77812611744E+03  0.77812611746E+03  0.50400001928E-02 0. -1.
    10030    2    1    2    0    0  0.00000000000E+00  0.00000000000E+00 -0.39957989187E+03  0.11566723431E+04  0.10854615697E+04 0.  0.
        1    1    3    3  502    0 -0.94730984467E+02  0.51582011566E+03 -0.34864059358E+03  0.62975758404E+03  0.50400001928E-02 0.  1.
       -1    1    3    3    0  502  0.94730984467E+02 -0.51582011566E+03 -0.50939298298E+02  0.52691475902E+03  0.50400001928E-02 0. -1.
</event>
<event>
 5   0  0.3744875E-03  0.1110840E+04  0.7818609E-02  0.9194690E-01
        2   -1    0    0  501    0  0.00000000000E+00  0.00000000000E+00  0.95346572060E+03  0.95346572061E+03  0.25500000920E-02 0. -1.
       -2   -1    0    0    0  501  0.00000000000E+00  0.00000000000E+00 -0.32354744547E+03  0.32354744548E+03  0.25500000920E-02 0.  1.
    10030    2    1    2    0    0  0.00000000000E+00  0.00000000000E+00  0.62991827514E+03  0.12770131661E+04  0.11108400393E+04 0.  0.
        2    1    3    3  502    0  0.10556808965E+03  0.15623272597E+02  0.94156887828E+03  0.94759730938E+03  0.25500000920E-02 0. -1.
       -2    1    3    3    0  502 -0.10556808965E+03 -0.15623272597E+02 -0.31165060314E+03  0.32941585670E+03  0.25500000920E-02 0.  1.
</event>
<event>
 5   0  0.3713158E-03  0.1094820E+04  0.7818609E-02  0.9210255E-01
        2   -1    0    0  501    0  0.00000000000E+00  0.00000000000E+00  0.11559051296E+04  0.11559051296E+04  0.25500000920E-02 0. -1.
       -2   -1    0    0    0  501  0.00000000000E+00  0.00000000000E+00 -0.25924072055E+03  0.25924072056E+03  0.25500000920E-02 0.  1.
    10030    2    1    2    0    0  0.00000000000E+00  0.00000000000E+00  0.89666440904E+03  0.14151458501E+04  0.10948199463E+04 0.  0.
        4    1    3    3  502    0 -0.36697318808E+03 -0.20756130469E+03 -0.29719683883E+01  0.42161767215E+03  0.12699999809E+01 0.  1.
       -4    1    3    3    0  502  0.36697318808E+03  0.20756130469E+03  0.89963637743E+03  0.99352817799E+03  0.12699999809E+01 0. -1.
</event>
<event>
 5   0  0.3992414E-03  0.1126394E+04  0.7818609E-02  0.9179842E-01
        2   -1    0    0  501    0  0.00000000000E+00  0.00000000000E+00  0.17119607822E+04  0.17119607822E+04  0.25500000920E-02 0.  1.
       -2   -1    0    0    0  501  0.00000000000E+00  0.00000000000E+00 -0.18527918452E+03  0.18527918454E+03  0.25500000920E-02 0. -1.
    10030    2    1    2    0    0  0.00000000000E+00  0.00000000000E+00  0.15266815977E+04  0.18972399667E+04  0.11263937103E+04 0.  0.
        1    1    3    3  502    0  0.12069281051E+03 -0.35682677839E+03  0.58126249531E+02  0.38114402159E+03  0.50400001928E-02 0. -1.
       -1    1    3    3    0  502 -0.12069281051E+03  0.35682677839E+03  0.14685553481E+04  0.15160959451E+04  0.50400001928E-02 0.  1.
</event>
<event>
 5   0  0.3992414E-03  0.1111003E+04  0.7818609E-02  0.9194534E-01
       -2   -1    0    0    0  501  0.00000000000E+00  0.00000000000E+00  0.16133743866E+03  0.16133743868E+03  0.25500000920E-02 0.  1.
        2   -1    0    0  501    0  0.00000000000E+00  0.00000000000E+00 -0.19126476027E+04  0.19126476027E+04  0.25500000920E-02 0. -1.
    10030    2    1    2    0    0  0.00000000000E+00  0.00000000000E+00 -0.17513101640E+04  0.20739850414E+04  0.11110025478E+04 0.  0.
        1    1    3    3  502    0  0.50875730477E+03 -0.12725851630E+03 -0.53371039841E+03  0.74824829738E+03  0.50400001928E-02 0. -1.
       -1    1    3    3    0  502 -0.50875730477E+03  0.12725851630E+03 -0.12175997656E+04  0.13257367440E+04  0.50400001928E-02 0.  1.
</event>
<event>
 5   0  0.2374100E-03  0.1105011E+04  0.7818609E-02  0.9200321E-01
        1   -1    0    0  501    0  0.00000000000E+00  0.00000000000E+00  0.86552695658E+03  0.86552695660E+03  0.50400001928E-02 0. -1.
       -1   -1    0    0    0  501  0.00000000000E+00  0.00000000000E+00 -0.35268979915E+03  0.35268979918E+03  0.50400001928E-02 0.  1.
    10030    2    1    2    0    0  0.00000000000E+00  0.00000000000E+00  0.51283715744E+03  0.12182167558E+04  0.11050113638E+04 0.  0.
        2    1    3    3  502    0 -0.23927470725E+03  0.39418374712E+02 -0.29088440663E+03  0.37870824103E+03  0.25500000920E-02 0.  1.
       -2    1    3    3    0  502  0.23927470725E+03 -0.39418374712E+02  0.80372156407E+03  0.83950851476E+03  0.25500000920E-02 0. -1.
</event>
<event>
 5   0  0.3748901E-03  0.1118109E+04  0.7818609E-02  0.9187719E-01
       -2   -1    0    0    0  501  0.00000000000E+00  0.00000000000E+00  0.61778941693E+03  0.61778941693E+03  0.25500000920E-02 0.  1.
        2   -1    0    0  501    0  0.00000000000E+00  0.00000000000E+00 -0.50590372306E+03  0.50590372307E+03  0.25500000920E-02 0. -1.
    10030    2    1    2    0    0  0.00000000000E+00  0.00000000000E+00  0.11188569386E+03  0.11236931400E+04  0.11181090575E+04 0.  0.
        5    1    3    3  502    0 -0.13007521838E+03 -0.32098791735E+03  0.49695908046E+03  0.60575838679E+03  0.46999998093E+01 0.  1.
       -5    1    3    3    0  502  0.13007521838E+03  0.32098791735E+03 -0.38507338659E+03  0.51793475321E+03  0.46999998093E+01 0. -1.
</event>
<event>
 5   0  0.3992414E-03  0.1077120E+04  0.7818609E-02  0.9227784E-01
       -2   -1    0    0    0  501  0.00000000000E+00  0.00000000000E+00  0.20293896629E+03  0.20293896630E+03  0.25500000920E-02 0. -1.
        2   -1    0    0  501    0  0.00000000000E+00  0.00000000000E+00 -0.14292310466E+04  0.14292310466E+04  0.25500000920E-02 0.  1.
    10030    2    1    2    0    0  0.00000000000E+00  0.00000000000E+00 -0.12262920803E+04  0.16321700129E+04  0.10771196242E+04 0.  0.
        1    1    3    3  502    0  0.31641563805E+03 -0.19174343787E+03 -0.12061769800E+04  0.12616446841E+04  0.50400001928E-02 0.  1.
       -1    1    3    3    0  502 -0.31641563805E+03  0.19174343787E+03 -0.20115100342E+02  0.37052532877E+03  0.50400001928E-02 0. -1.
</event>
<event>
 5   0  0.3748901E-03  0.1116174E+04  0.7818609E-02  0.9189569E-01
       -2   -1    0    0    0  501  0.00000000000E+00  0.00000000000E+00  0.27403588767E+03  0.27403588768E+03  0.25500000920E-02 0. -1.
        2   -1    0    0  501    0  0.00000000000E+00  0.00000000000E+00 -0.11365711008E+04  0.11365711008E+04  0.25500000920E-02 0.  1.
    10030    2    1    2    0    0  0.00000000000E+00  0.00000000000E+00 -0.86253521310E+03  0.14106069885E+04  0.11161743063E+04 0.  0.
        5    1    3    3  502    0 -0.19467717382E+03 -0.99399482363E+02 -0.10801946964E+04  0.11020989662E+04  0.46999998093E+01 0.  1.
       -5    1    3    3    0  502  0.19467717382E+03  0.99399482363E+02  0.21765948334E+03  0.30850802224E+03  0.46999998093E+01 0. -1.
</event>
<event>
 5   0  0.3713158E-03  0.1101350E+04  0.7818609E-02  0.9203877E-01
        2   -1    0    0  501    0  0.00000000000E+00  0.00000000000E+00  0.41072114225E+03  0.41072114226E+03  0.25500000920E-02 0.  1.
       -2   -1    0    0    0  501  0.00000000000E+00  0.00000000000E+00 -0.73831857915E+03  0.73831857915E+03  0.25500000920E-02 0. -1.
    10030    2    1    2    0    0  0.00000000000E+00  0.00000000000E+00 -0.32759743690E+03  0.11490397214E+04  0.11013501717E+04 0.  0.
        4    1    3    3  502    0 -0.33773755200E+03  0.26492802915E+03 -0.52368149255E+03  0.67712438532E+03  0.12699999809E+01 0. -1.
       -4    1    3    3    0  502  0.33773755200E+03 -0.26492802915E+03  0.19608405565E+03  0.47191533609E+03  0.12699999809E+01 0.  1.
</event>
<event>
 5   0  0.2298958E-03  0.1104010E+04  0.7818609E-02  0.9201292E-01
        1   -1    0    0  501    0  0.00000000000E+00  0.00000000000E+00  0.83533302694E+03  0.83533302696E+03  0.50400001928E-02 0.  1.
       -1   -1    0    0    0  501  0.00000000000E+00  0.00000000000E+00 -0.36477608631E+03  0.36477608634E+03  0.50400001928E-02 0. -1.
    10030    2    1    2    0    0  0.00000000000E+00  0.00000000000E+00  0.47055694064E+03  0.12001091133E+04  0.11040099861E+04 0.  0.
        1    1    3    3  502    0  0.13115929349E+03  0.36991805846E+03  0.65722493560E+03  0.76549771146E+03  0.50400001928E-02 0.  1.
       -1    1    3    3    0  502 -0.13115929349E+03 -0.36991805846E+03 -0.18666799496E+03  0.43461140184E+03  0.50400001928E-02 0. -1.
</event>
<event>
 5   0  0.3962999E-03  0.1096703E+04  0.7818609E-02  0.9208412E-01
       -2   -1    0    0    0  501  0.00000000000E+00  0.00000000000E+00  0.23005662035E+03  0.23005662036E+03  0.25500000920E-02 0. -1.
        2   -1    0    0  501    0  0.00000000000E+00  0.00000000000E+00 -0.13070228178E+04  0.13070228178E+04  0.25500000920E-02 0.  1.
    10030    2    1    2    0    0  0.00000000000E+00  0.00000000000E+00 -0.10769661974E+04  0.15370794382E+04  0.10967027896E+04 0.  0.
        3    1    3    3  502    0 -0.38032010204E+03 -0.24632335011E+03 -0.10565566495E+03  0.46527594238E+03  0.10100000352E+00 0. -1.
       -3    1    3    3    0  502  0.38032010204E+03  0.24632335011E+03 -0.97131053250E+03  0.10718034958E+04  0.10100000352E+00 0.  1.
</event>
<event>
 5   0  0.3992414E-03  0.1098996E+04  0.7818609E-02  0.9206171E-01
        2   -1    0    0  501    0  0.00000000000E+00  0.00000000000E+00  0.29131281923E+04  0.29131281923E+04  0.25500000920E-02 0. -1.
       -2   -1    0    0    0  501  0.00000000000E+00  0.00000000000E+00 -0.10365084669E+03  0.10365084672E+03  0.25500000920E-02 0.  1.
    10030    2    1    2    0    0  0.00000000000E+00  0.00000000000E+00  0.28094773456E+04  0.30167790390E+04  0.10989962760E+04 0.  0.
        1    1    3    3  502    0  0.23391706266E+02  0.35958975547E+03  0.25435006856E+04  0.25689000957E+04  0.50400001928E-02 0. -1.
       -1    1    3    3    0  502 -0.23391706266E+02 -0.35958975547E+03  0.26597666005E+03  0.44787894333E+03  0.50400001928E-02 0.  1.
</event>
<event>
 5   0  0.2257667E-03  0.1097001E+04  0.7818609E-02  0.9208120E-01
        1   -1    0    0  501    0  0.00000000000E+00  0.00000000000E+00  0.12238599892E+04  0.12238599892E+04  0.50400001928E-02 0.  1.
       -1   -1    0    0    0  501  0.00000000000E+00  0.00000000000E+00 -0.24582282892E+03  0.24582282897E+03  0.50400001928E-02 0. -1.
    10030    2    1    2    0    0  0.00000000000E+00  0.00000000000E+00  0.97803716030E+03  0.14696828182E+04  0.10970008656E+04 0.  0.
        4    1    3    3  502    0  0.46655012699E+03 -0.68866782811E+00  0.10262462372E+03  0.47770589441E+03  0.12699999809E+01 0. -1.
       -4    1    3    3    0  502 -0.46655012699E+03  0.68866782811E+00  0.87541253658E+03  0.99197692380E+03  0.12699999809E+01 0.  1.
</event>
<event>
 5   0  0.3962999E-03  0.1102764E+04  0.7818609E-02  0.9202503E-01
       -2   -1    0    0    0  501  0.00000000000E+00  0.00000000000E+00  0.92475829828E+03  0.92475829829E+03  0.25500000920E-02 0. -1.
        2   -1    0    0  501    0  0.00000000000E+00  0.00000000000E+00 -0.32875817684E+03  0.32875817685E+03  0.25500000920E-02 0.  1.
    10030    2    1    2    0    0  0.00000000000E+00  0.00000000000E+00  0.59600012144E+03  0.12535164751E+04  0.11027635325E+04 0.  0.
        3    1    3    3  502    0  0.51916876576E+03  0.13273005520E+03  0.44563330787E+03  0.69695231557E+03  0.10100000352E+00 0.  1.
       -3    1    3    3    0  502 -0.51916876576E+03 -0.13273005520E+03  0.15036681357E+03  0.55656415957E+03  0.10100000352E+00 0. -1.
</event>
<event>
 5   0  0.3992414E-03  0.1119929E+04  0.7818609E-02  0.9185982E-01
       -2   -1    0    0    0  501  0.00000000000E+00  0.00000000000E+00  0.20875425913E+03  0.20875425914E+03  0.25500000920E-02 0. -1.
        2   -1    0    0  501    0  0.00000000000E+00  0.00000000000E+00 -0.15020553021E+04  0.15020553021E+04  0.25500000920E-02 0.  1.
    10030    2    1    2    0    0  0.00000000000E+00  0.00000000000E+00 -0.12933010430E+04  0.17108095612E+04  0.11199293581E+04 0.  0.
        1    1    3    3  502    0 -0.11625993604E+03 -0.39510072842E+03 -0.67087044645E+02  0.41727883952E+03  0.50400001928E-02 0. -1.
       -1    1    3    3    0  502  0.11625993604E+03  0.39510072842E+03 -0.12262139983E+04  0.12935307217E+04  0.50400001928E-02 0.  1.
</event>
<event>
 5   0  0.2374100E-03  0.1095201E+04  0.7818609E-02  0.9209882E-01
       -1   -1    0    0    0  501  0.00000000000E+00  0.00000000000E+00  0.97710876853E+03  0.97710876854E+03  0.50400001928E-02 0.  1.
        1   -1    0    0  501    0  0.00000000000E+00  0.00000000000E+00 -0.30689132847E+03  0.30689132851E+03  0.50400001928E-02 0. -1.
    10030    2    1    2    0    0  0.00000000000E+00  0.00000000000E+00  0.67021744006E+03  0.12840000971E+04  0.10952008182E+04 0.  0.
        2    1    3    3  502    0 -0.30098982584E+03  0.26374304504E+03 -0.10310553678E+03  0.41326265351E+03  0.25500000920E-02 0. -1.
       -2    1    3    3    0  502  0.30098982584E+03 -0.26374304504E+03  0.77332297684E+03  0.87073744354E+03  0.25500000920E-02 0.  1.
</event>
<event>
 5   0  0.3748901E-03  0.1103597E+04  0.7818609E-02  0.9201693E-01
       -2   -1    0    0    0  501  0.00000000000E+00  0.00000000000E+00  0.28275452542E+03  0.28275452543E+03  0.25500000920E-02 0. -1.
        2   -1    0    0  501    0  0.00000000000E+00  0.00000000000E+00 -0.10768404437E+04  0.10768404437E+04  0.25500000920E-02 0.  1.
    10030    2    1    2    0    0  0.00000000000E+00  0.00000000000E+00 -0.79408591827E+03  0.13595949691E+04  0.11035968623E+04 0.  0.
        5    1    3    3  502    0  0.64648656801E+02 -0.35393795508E+03 -0.91242337413E+03  0.98081090355E+03  0.46999998093E+01 0.  1.
       -5    1    3    3    0  502 -0.64648656801E+02  0.35393795508E+03  0.11833745586E+03  0.37878406557E+03  0.46999998093E+01 0. -1.
</event>
<event>
 5   0  0.2298958E-03  0.1095587E+04  0.7818609E-02  0.9209504E-01
       -1   -1    0    0    0  501  0.00000000000E+00  0.00000000000E+00  0.19603799535E+03  0.19603799542E+03  0.50400001928E-02 0.  1.
        1   -1    0    0  501    0  0.00000000000E+00  0.00000000000E+00 -0.15307121845E+04  0.15307121845E+04  0.50400001928E-02 0. -1.
    10030    2    1    2    0    0  0.00000000000E+00  0.00000000000E+00 -0.13346741891E+04  0.17267501799E+04  0.10955870539E+04 0.  0.
        1    1    3    3  502    0 -0.30062959078E+03 -0.38815234972E+03 -0.28438358995E+03  0.56737502915E+03  0.50400001928E-02 0.  1.
       -1    1    3    3    0  502  0.30062959078E+03  0.38815234972E+03 -0.10502905992E+04  0.11593751507E+04  0.50400001928E-02 0. -1.
</event>
<event>
 5   0  0.3992414E-03  0.1103242E+04  0.7818609E-02  0.9202038E-01
       -2   -1    0    0    0  501  0.00000000000E+00  0.00000000000E+00  0.45799440059E+03  0.45799440060E+03  0.25500000920E-02 0.  1.
        2   -1    0    0  501    0  0.00000000000E+00  0.00000000000E+00 -0.66438741346E+03  0.66438741346E+03  0.25500000920E-02 0. -1.
    10030    2    1    2    0    0  0.00000000000E+00  0.00000000000E+00 -0.20639301287E+03  0.11223818141E+04  0.11032419774E+04 0.  0.
        1    1    3    3  502    0  0.16495721140E+03 -0.50846397437E+03 -0.24171749308E+03  0.58666331172E+03  0.50400001928E-02 0. -1.
       -1    1    3    3    0  502 -0.16495721140E+03  0.50846397437E+03  0.35324480213E+02  0.53571850234E+03  0.50400001928E-02 0.  1.
</event>
<event>
 5   0  0.3744875E-03  0.1111419E+04  0.7818609E-02  0.9194133E-01
       -2   -1    0    0    0  501  0.00000000000E+00  0.00000000000E+00  0.27845821423E+03  0.27845821424E+03  0.25500000920E-02 0. -1.
        2   -1    0    0  501    0  0.00000000000E+00  0.00000000000E+00 -0.11090105338E+04  0.11090105338E+04  0.25500000920E-02 0.  1.
    10030    2    1    2    0    0  0.00000000000E+00  0.00000000000E+00 -0.83055231957E+03  0.13874687480E+04  0.11114190799E+04 0.  0.
        2    1    3    3  502    0  0.13224059639E+03 -0.42088198177E+03 -0.83711615171E+03  0.94625190588E+03  0.25500000920E-02 0.  1.
       -2    1    3    3    0  502 -0.13224059639E+03  0.42088198177E+03  0.65638321395E+01  0.44121684216E+03  0.25500000920E-02 0. -1.
</event>
<event>
 5   0  0.2300702E-03  0.1100154E+04  0.7818609E-02  0.9205042E-01
        1   -1    0    0  501    0  0.00000000000E+00  0.00000000000E+00  0.94054206437E+03  0.94054206439E+03  0.50400001928E-02 0.  1.
       -1   -1    0    0    0  501  0.00000000000E+00  0.00000000000E+00 -0.32171293301E+03  0.32171293305E+03  0.50400001928E-02 0. -1.
    10030    2    1    2    0    0  0.00000000000E+00  0.00000000000E+00  0.61882913136E+03  0.12622549974E+04  0.11001537096E+04 0.  0.
        5    1    3    3  502    0 -0.17775654393E+03  0.42453640869E+03  0.65501838433E+03  0.80056213065E+03  0.46999998093E+01 0.  1.
       -5    1    3    3    0  502  0.17775654393E+03 -0.42453640869E+03 -0.36189252974E+02  0.46169286679E+03  0.46999998093E+01 0. -1.
</event>
<event>
 5   0  0.2255788E-03  0.1097626E+04  0.7818609E-02  0.9207509E-01
        1   -1    0    0  501    0  0.00000000000E+00  0.00000000000E+00  0.65474976422E+03  0.65474976424E+03  0.50400001928E-02 0. -1.
       -1   -1    0    0    0  501  0.00000000000E+00  0.00000000000E+00 -0.46001618489E+03  0.46001618492E+03  0.50400001928E-02 0.  1.
    10030    2    1    2    0    0  0.00000000000E+00  0.00000000000E+00  0.19473357933E+03  0.11147659492E+04  0.10976255985E+04 0.  0.
        3    1    3    3  502    0 -0.32874166952E+03  0.11053824571E+03  0.52933877289E+03  0.63284226765E+03  0.10100000352E+00 0. -1.
       -3    1    3    3    0  502  0.32874166952E+03 -0.11053824571E+03 -0.33460519356E+03  0.48192368151E+03  0.10100000352E+00 0.  1.
</event>
<event>
 5   0  0.3992414E-03  0.1106978E+04  0.7818609E-02  0.9198417E-01
        2   -1    0    0  501    0  0.00000000000E+00  0.00000000000E+00  0.68212484230E+03  0.68212484230E+03  0.25500000920E-02 0.  1.
       -2   -1    0    0    0  501  0.00000000000E+00  0.00000000000E+00 -0.44911138444E+03  0.44911138445E+03  0.25500000920E-02 0. -1.
    10030    2    1    2    0    0  0.00000000000E+00  0.00000000000E+00  0.23301345785E+03  0.11312362267E+04  0.11069779262E+04 0.  0.
        1    1    3    3  502    0 -0.99063899475E+02  0.26284196576E+02 -0.43932948692E+03  0.45112627198E+03  0.50400001928E-02 0. -1.
       -1    1    3    3    0  502  0.99063899475E+02 -0.26284196576E+02  0.67234294477E+03  0.68010995477E+03  0.50400001928E-02 0.  1.
</event>
<event>
 5   0  0.3748901E-03  0.1080228E+04  0.7818609E-02  0.9224680E-01
       -2   -1    0    0    0  501  0.00000000000E+00  0.00000000000E+00  0.10992427468E+03  0.10992427471E+03  0.25500000920E-02 0. -1.
        2   -1    0    0  501    0  0.00000000000E+00  0.00000000000E+00 -0.26538543225E+04  0.26538543225E+04  0.25500000920E-02 0.  1.
    10030    2    1    2    0    0  0.00000000000E+00  0.00000000000E+00 -0.25439300479E+04  0.27637785973E+04  0.10802277751E+04 0.  0.
        5    1    3    3  502    0 -0.10249798699E+02 -0.49176723723E+03 -0.18426964597E+04  0.19072211216E+04  0.46999998093E+01 0. -1.
       -5    1    3    3    0  502  0.10249798699E+02  0.49176723723E+03 -0.70123358819E+03  0.85655747570E+03  0.46999998093E+01 0.  1.
</event>
<event>
 5   0  0.2300702E-03  0.1105468E+04  0.7818609E-02  0.9199879E-01
        1   -1    0    0  501    0  0.00000000000E+00  0.00000000000E+00  0.14053421546E+04  0.14053421546E+04  0.50400001928E-02 0. -1.
       -1   -1    0    0    0  501  0.00000000000E+00  0.00000000000E+00 -0.21739519477E+03  0.21739519483E+03  0.50400001928E-02 0.  1.
    10030    2    1    2    0    0  0.00000000000E+00  0.00000000000E+00  0.11879469598E+04  0.16227373494E+04  0.11054675599E+04 0.  0.
        5    1    3    3  502    0 -0.24981682856E+03 -0.39824885121E+03  0.10206356957E+04  0.11237125560E+04  0.46999998093E+01 0. -1.
       -5    1    3    3    0  502  0.24981682856E+03  0.39824885121E+03  0.16731126417E+03  0.49902479341E+03  0.46999998093E+01 0.  1.
</event>
<event>
 5   0  0.3992414E-03  0.1219323E+04  0.7818609E-02  0.9096109E-01
        2   -1    0    0  501    0  0.00000000000E+00  0.00000000000E+00  0.10457022147E+04  0.10457022147E+04  0.25500000920E-02 0. -1.
       -2   -1    0    0    0  501  0.00000000000E+00  0.00000000000E+00 -0.35544267983E+03  0.35544267984E+03  0.25500000920E-02 0.  1.
    10030    2    1    2    0    0  0.00000000000E+00  0.00000000000E+00  0.69025953487E+03  0.14011448945E+04  0.12193230868E+04 0.  0.
        1    1    3    3  502    0 -0.21180970947E+03  0.37218194256E+03  0.84377829271E+03  0.94622648381E+03  0.50400001928E-02 0. -1.
       -1    1    3    3    0  502  0.21180970947E+03 -0.37218194256E+03 -0.15351875784E+03  0.45491841074E+03  0.50400001928E-02 0.  1.
</event>
<event>
 5   0  0.2257667E-03  0.1110829E+04  0.7818609E-02  0.9194701E-01
        1   -1    0    0  501    0  0.00000000000E+00  0.00000000000E+00  0.69369120887E+03  0.69369120889E+03  0.50400001928E-02 0.  1.
       -1   -1    0    0    0  501  0.00000000000E+00  0.00000000000E+00 -0.44470091021E+03  0.44470091024E+03  0.50400001928E-02 0. -1.
    10030    2    1    2    0    0  0.00000000000E+00  0.00000000000E+00  0.24899029866E+03  0.11383921191E+04  0.11108287213E+04 0.  0.
        4    1    3    3  502    0 -0.26351650272E+03  0.12422651744E+02  0.62538491288E+03  0.67875118537E+03  0.12699999809E+01 0.  1.
       -4    1    3    3    0  502  0.26351650272E+03 -0.12422651744E+02 -0.37639461421E+03  0.45964093376E+03  0.12699999809E+01 0. -1.
</event>
<event>
 5   0  0.3962999E-03  0.1092176E+04  0.7818609E-02  0.9212852E-01
       -2   -1    0    0    0  501  0.00000000000E+00  0.00000000000E+00  0.23381674050E+03  0.23381674051E+03  0.25500000920E-02 0. -1.
        2   -1    0    0  501    0  0.00000000000E+00  0.00000000000E+00 -0.12754092359E+04  0.12754092359E+04  0.25500000920E-02 0.  1.
    10030    2    1    2    0    0  0.00000000000E+00  0.00000000000E+00 -0.10415924954E+04  0.15092259764E+04  0.10921758656E+04 0.  0.
        3    1    3    3  502    0 -0.41389813784E+03 -0.10641632642E+03 -0.99057716361E+03  0.10788323458E+04  0.10100000352E+00 0.  1.
       -3    1    3    3    0  502  0.41389813784E+03  0.10641632642E+03 -0.51015331822E+02  0.43039363066E+03  0.10100000352E+00 0. -1.
</event>
<event>
 5   0  0.3713158E-03  0.1094607E+04  0.7818609E-02  0.9210464E-01
        2   -1    0    0  501    0  0.00000000000E+00  0.00000000000E+00  0.12321111445E+04  0.12321111445E+04  0.25500000920E-02 0.  1.
       -2   -1    0    0    0  501  0.00000000000E+00  0.00000000000E+00 -0.24311229872E+03  0.24311229874E+03  0.25500000920E-02 0. -1.
    10030    2    1    2    0    0  0.00000000000E+00  0.00000000000E+00  0.98899884579E+03  0.14752234433E+04  0.10946074596E+04 0.  0.
        4    1    3    3  502    0  0.31757083781E+03 -0.44113608918E+03  0.58066362657E+03  0.79537673233E+03  0.12699999809E+01 0.  1.
       -4    1    3    3    0  502 -0.31757083781E+03  0.44113608918E+03  0.40833521922E+03  0.67984671093E+03  0.12699999809E+01 0. -1.
</event>
<event>
 5   0  0.3744875E-03  0.1099851E+04  0.7818609E-02  0.9205337E-01
        2   -1    0    0  501    0  0.00000000000E+00  0.00000000000E+00  0.80259231787E+03  0.80259231787E+03  0.25500000920E-02 0.  1.
       -2   -1    0    0    0  501  0.00000000000E+00  0.00000000000E+00 -0.37680148935E+03  0.37680148936E+03  0.25500000920E-02 0. -1.
    10030    2    1    2    0    0  0.00000000000E+00  0.00000000000E+00  0.42579082852E+03  0.11793938072E+04  0.10998508639E+04 0.  0.
        2    1    3    3  502    0 -0.21255373909E+03  0.13130808892E+03 -0.31242952222E+03  0.40004138857E+03  0.25500000920E-02 0. -1.
       -2    1    3    3    0  502  0.21255373909E+03 -0.13130808892E+03  0.73822035074E+03  0.77935241866E+03  0.25500000920E-02 0.  1.
</event>
<event>
 5   0  0.3744875E-03  0.1068801E+04  0.7818609E-02  0.9236146E-01
        2   -1    0    0  501    0  0.00000000000E+00  0.00000000000E+00  0.15973327673E+04  0.15973327673E+04  0.25500000920E-02 0. -1.
       -2   -1    0    0    0  501  0.00000000000E+00  0.00000000000E+00 -0.17878791561E+03  0.17878791563E+03  0.25500000920E-02 0.  1.
    10030    2    1    2    0    0  0.00000000000E+00  0.00000000000E+00  0.14185448517E+04  0.17761206829E+04  0.10688008159E+04 0.  0.
        2    1    3    3  502    0  0.14532329897E+03  0.50598355813E+03  0.86199044165E+03  0.10100325459E+04  0.25500000920E-02 0.  1.
       -2    1    3    3    0  502 -0.14532329897E+03 -0.50598355813E+03  0.55655441003E+03  0.76608813700E+03  0.25500000920E-02 0. -1.
</event>
<event>
 5   0  0.3992414E-03  0.1086457E+04  0.7818609E-02  0.9218494E-01
       -2   -1    0    0    0  501  0.00000000000E+00  0.00000000000E+00  0.17568281637E+03  0.17568281639E+03  0.25500000920E-02 0.  1.
        2   -1    0    0  501    0  0.00000000000E+00  0.00000000000E+00 -0.16797148521E+04  0.16797148521E+04  0.25500000920E-02 0. -1.
    10030    2    1    2    0    0  0.00000000000E+00  0.00000000000E+00 -0.15040320357E+04  0.18553976685E+04  0.10864566920E+04 0.  0.
        1    1    3    3  502    0 -0.26198622250E+03  0.45545928132E+03 -0.51651287272E+03  0.73679405904E+03  0.50400001928E-02 0.  1.
       -1    1    3    3    0  502  0.26198622250E+03 -0.45545928132E+03 -0.98751916298E+03  0.11186036094E+04  0.50400001928E-02 0. -1.
</event>
<event>
 5   0  0.2300702E-03  0.1101031E+04  0.7818609E-02  0.9204188E-01
       -1   -1    0    0    0  501  0.00000000000E+00  0.00000000000E+00  0.17228242696E+03  0.17228242703E+03  0.50400001928E-02 0.  1.
        1   -1    0    0  501    0  0.00000000000E+00  0.00000000000E+00 -0.17591304825E+04  0.17591304825E+04  0.50400001928E-02 0. -1.
    10030    2    1    2    0    0  0.00000000000E+00  0.00000000000E+00 -0.15868480555E+04  0.19314129095E+04  0.11010309150E+04 0.  0.
        5    1    3    3  502    0  0.28307084445E+03 -0.28245092724E+03 -0.14570943626E+04  0.15109777301E+04  0.46999998093E+01 0. -1.
       -5    1    3    3    0  502 -0.28307084445E+03  0.28245092724E+03 -0.12975369291E+03  0.42043517943E+03  0.46999998093E+01 0.  1.
</event>
<event>
 5   0  0.2298958E-03  0.1104304E+04  0.7818609E-02  0.9201007E-01
        1   -1    0    0  501    0  0.00000000000E+00  0.00000000000E+00  0.63669558579E+03  0.63669558581E+03  0.50400001928E-02 0. -1.
       -1   -1    0    0    0  501  0.00000000000E+00  0.00000000000E+00 -0.47883448126E+03  0.47883448129E+03  0.50400001928E-02 0.  1.
    10030    2    1    2    0    0  0.00000000000E+00  0.00000000000E+00  0.15786110453E+03  0.11155300671E+04  0.11043039447E+04 0.  0.
        1    1    3    3  502    0 -0.70122936081E+02  0.53902011147E+03 -0.19070596411E+02  0.54389667623E+03  0.50400001928E-02 0.  1.
       -1    1    3    3    0  502  0.70122936081E+02 -0.53902011147E+03  0.17693170094E+03  0.57163339087E+03  0.50400001928E-02 0. -1.
</event>
<event>
 5   0  0.3992414E-03  0.1094427E+04  0.7818609E-02  0.9210641E-01
        2   -1    0    0  501    0  0.00000000000E+00  0.00000000000E+00  0.12705446446E+04  0.12705446446E+04  0.25500000920E-02 0.  1.
       -2   -1    0    0    0  501  0.00000000000E+00  0.00000000000E+00 -0.23568056612E+03  0.23568056614E+03  0.25500000920E-02 0. -1.
    10030    2    1    2    0    0  0.00000000000E+00  0.00000000000E+00  0.10348640785E+04  0.15062252108E+04  0.10944271216E+04 0.  0.
        1    1    3    3  502    0  0.12668764323E+03  0.72700838547E+02 -0.20835536002E+03  0.25445456755E+03  0.50400001928E-02 0. -1.
       -1    1    3    3    0  502 -0.12668764323E+03 -0.72700838547E+02  0.12432194385E+04  0.12517706432E+04  0.50400001928E-02 0.  1.
</event>
<event>
 5   0  0.2374100E-03  0.1118299E+04  0.7818609E-02  0.9187538E-01
        1   -1    0    0  501    0  0.00000000000E+00  0.00000000000E+00  0.40756978529E+03  0.40756978532E+03  0.50400001928E-02 0. -1.
       -1   -1    0    0    0  501  0.00000000000E+00  0.00000000000E+00 -0.76710284433E+03  0.76710284435E+03  0.50400001928E-02 0.  1.
    10030    2    1    2    0    0  0.00000000000E+00  0.00000000000E+00 -0.35953305905E+03  0.11746726297E+04  0.11182986034E+04 0.  0.
        2    1    3    3  502    0 -0.25445282375E+03  0.47969234222E+03 -0.31989680174E+03  0.63022610741E+03  0.25500000920E-02 0.  1.
       -2    1    3    3    0  502  0.25445282375E+03 -0.47969234222E+03 -0.39636257308E+02  0.54444652225E+03  0.25500000920E-02 0. -1.
</event>
<event>
 5   0  0.2255788E-03  0.1103692E+04  0.7818609E-02  0.9201601E-01
        1   -1    0    0  501    0  0.00000000000E+00  0.00000000000E+00  0.12063691032E+04  0.12063691033E+04  0.50400001928E-02 0.  1.
       -1   -1    0    0    0  501  0.00000000000E+00  0.00000000000E+00 -0.25243828917E+03  0.25243828922E+03  0.50400001928E-02 0. -1.
    10030    2    1    2    0    0  0.00000000000E+00  0.00000000000E+00  0.95393081407E+03  0.14588073925E+04  0.11036915377E+04 0.  0.
        3    1    3    3  502    0  0.13609845799E+03 -0.53081344871E+03  0.56311322352E+03  0.78573673728E+03  0.10100000352E+00 0.  1.
       -3    1    3    3    0  502 -0.13609845799E+03  0.53081344871E+03  0.39081759055E+03  0.67307065519E+03  0.10100000352E+00 0. -1.
</event>
<event>
 5   0  0.2257667E-03  0.1154814E+04  0.7818609E-02  0.9153354E-01
       -1   -1    0    0    0  501  0.00000000000E+00  0.00000000000E+00  0.44950756548E+03  0.44950756551E+03  0.50400001928E-02 0. -1.
        1   -1    0    0  501    0  0.00000000000E+00  0.00000000000E+00 -0.74169834099E+03  0.74169834101E+03  0.50400001928E-02 0.  1.
    10030    2    1    2    0    0  0.00000000000E+00  0.00000000000E+00 -0.29219077551E+03  0.11912059065E+04  0.11548142978E+04 0.  0.
        4    1    3    3  502    0  0.18741294180E+03 -0.50949560841E+03 -0.34898645225E+03  0.64537008181E+03  0.12699999809E+01 0.  1.
       -4    1    3    3    0  502 -0.18741294180E+03  0.50949560841E+03  0.56795676733E+02  0.54583582471E+03  0.12699999809E+01 0. -1.
</event>
<event>
 5   0  0.3992414E-03  0.1110093E+04  0.7818609E-02  0.9195410E-01
        2   -1    0    0  501    0  0.00000000000E+00  0.00000000000E+00  0.10089307445E+04  0.10089307445E+04  0.25500000920E-02 0. -1.
       -2   -1    0    0    0  501  0.00000000000E+00  0.00000000000E+00 -0.30534980399E+03  0.30534980400E+03  0.25500000920E-02 0.  1.
    10030    2    1    2    0    0  0.00000000000E+00  0.00000000000E+00  0.70358094046E+03  0.13142805485E+04  0.11100933385E+04 0.  0.
        1    1    3    3  502    0  0.32659852869E+03 -0.14777592410E+03 -0.14991458484E+03  0.38855978364E+03  0.50400001928E-02 0.  1.
       -1    1    3    3    0  502 -0.32659852869E+03  0.14777592410E+03  0.85349552530E+03  0.92572076482E+03  0.50400001928E-02 0. -1.
</event>
<event>
 5   0  0.2374100E-03  0.9165842E+03  0.7818609E-02  0.9405085E-01
        1   -1    0    0  501    0  0.00000000000E+00  0.00000000000E+00  0.20330460462E+03  0.20330460468E+03  0.50400001928E-02 0. -1.
       -1   -1    0    0    0  501  0.00000000000E+00  0.00000000000E+00 -0.10330883943E+04  0.10330883943E+04  0.50400001928E-02 0.  1.
    10030    2    1    2    0    0  0.00000000000E+00  0.00000000000E+00 -0.82978378971E+03  0.12363929990E+04  0.91658415345E+03 0.  0.
        2    1    3    3  502    0  0.16670960101E+03 -0.42518884685E+03 -0.46632746549E+03  0.65271659365E+03  0.25500000920E-02 0.  1.
       -2    1    3    3    0  502 -0.16670960101E+03  0.42518884685E+03 -0.36345632422E+03  0.58367640536E+03  0.25500000920E-02 0. -1.
</event>
<event>
 5   0  0.2255788E-03  0.1096840E+04  0.7818609E-02  0.9208278E-01
       -1   -1    0    0    0  501  0.00000000000E+00  0.00000000000E+00  0.44911995124E+03  0.44911995126E+03  0.50400001928E-02 0. -1.
        1   -1    0    0  501    0  0.00000000000E+00  0.00000000000E+00 -0.66967476303E+03  0.66967476305E+03  0.50400001928E-02 0.  1.
    10030    2    1    2    0    0  0.00000000000E+00  0.00000000000E+00 -0.22055481179E+03  0.11187947143E+04  0.10968396363E+04 0.  0.
        3    1    3    3  502    0  0.16645641039E+03  0.44075416942E+03 -0.39659576258E+03  0.61584103754E+03  0.10100000352E+00 0.  1.
       -3    1    3    3    0  502 -0.16645641039E+03 -0.44075416942E+03  0.17604095079E+03  0.50295367677E+03  0.10100000352E+00 0. -1.
</event>
<event>
 5   0  0.2300702E-03  0.1083511E+04  0.7818609E-02  0.9221414E-01
        1   -1    0    0  501    0  0.00000000000E+00  0.00000000000E+00  0.45690312490E+03  0.45690312492E+03  0.50400001928E-02 0.  1.
       -1   -1    0    0    0  501  0.00000000000E+00  0.00000000000E+00 -0.64236552333E+03  0.64236552335E+03  0.50400001928E-02 0. -1.
    10030    2    1    2    0    0  0.00000000000E+00  0.00000000000E+00 -0.18546239843E+03  0.10992686483E+04  0.10835106182E+04 0.  0.
        5    1    3    3  502    0  0.35160051326E+03  0.16525544678E+03 -0.47577268496E+03  0.61425892046E+03  0.46999998093E+01 0. -1.
       -5    1    3    3    0  502 -0.35160051326E+03 -0.16525544678E+03  0.29031028652E+03  0.48500972781E+03  0.46999998093E+01 0.  1.
</event>
<event>
 5   0  0.3992414E-03  0.1096971E+04  0.7818609E-02  0.9208149E-01
        2   -1    0    0  501    0  0.00000000000E+00  0.00000000000E+00  0.20039379730E+04  0.20039379730E+04  0.25500000920E-02 0.  1.
       -2   -1    0    0    0  501  0.00000000000E+00  0.00000000000E+00 -0.15012264694E+03  0.15012264696E+03  0.25500000920E-02 0. -1.
    10030    2    1    2    0    0  0.00000000000E+00  0.00000000000E+00  0.18538153260E+04  0.21540606199E+04  0.10969712354E+04 0.  0.
        1    1    3    3  502    0  0.33533369912E+03  0.39697633127E+03  0.58230316226E+03  0.78045875622E+03  0.50400001928E-02 0. -1.
       -1    1    3    3    0  502 -0.33533369912E+03 -0.39697633127E+03  0.12715121638E+04  0.13736018637E+04  0.50400001928E-02 0.  1.
</event>
<event>
 5   0  0.1508625E-03  0.1127498E+04  0.7818609E-02  0.9178798E-01
       -3   -1    0    0    0  501  0.00000000000E+00  0.00000000000E+00  0.65978840281E+03  0.65978841054E+03  0.10100000352E+00 0.  1.
        3   -1    0    0  501    0  0.00000000000E+00  0.00000000000E+00 -0.48168888037E+03  0.48168889096E+03  0.10100000352E+00 0. -1.
    10030    2    1    2    0    0  0.00000000000E+00  0.00000000000E+00  0.17809952244E+03  0.11414773015E+04  0.11274976674E+04 0.  0.
        1    1    3    3  502    0 -0.36744621277E+03  0.37248373447E+03  0.30153752653E+03  0.60389215234E+03  0.50400001928E-02 0. -1.
       -1    1    3    3    0  502  0.36744621277E+03 -0.37248373447E+03 -0.12343800409E+03  0.53758514916E+03  0.50400001928E-02 0.  1.
</event>
<event>
 5   0  0.2300702E-03  0.1071062E+04  0.7818609E-02  0.9233864E-01
        1   -1    0    0  501    0  0.00000000000E+00  0.00000000000E+00  0.78843034009E+03  0.78843034010E+03  0.50400001928E-02 0.  1.
       -1   -1    0    0    0  501  0.00000000000E+00  0.00000000000E+00 -0.36375276299E+03  0.36375276303E+03  0.50400001928E-02 0. -1.
    10030    2    1    2    0    0  0.00000000000E+00  0.00000000000E+00  0.42467757709E+03  0.11521831031E+04  0.10710624905E+04 0.  0.
        5    1    3    3  502    0  0.21966453543E+03 -0.11483348901E+03  0.72298310175E+03  0.76430746022E+03  0.46999998093E+01 0.  1.
       -5    1    3    3    0  502 -0.21966453543E+03  0.11483348901E+03 -0.29830552466E+03  0.38787564292E+03  0.46999998093E+01 0. -1.
</event>
<event>
 5   0  0.3744875E-03  0.1097526E+04  0.7818609E-02  0.9207607E-01
        2   -1    0    0  501    0  0.00000000000E+00  0.00000000000E+00  0.28598132728E+04  0.28598132728E+04  0.25500000920E-02 0. -1.
       -2   -1    0    0    0  501  0.00000000000E+00  0.00000000000E+00 -0.10530085400E+03  0.10530085403E+03  0.25500000920E-02 0.  1.
    10030    2    1    2    0    0  0.00000000000E+00  0.00000000000E+00  0.27545124188E+04  0.29651141268E+04  0.10975259085E+04 0.  0.
        2    1    3    3  502    0 -0.41078577894E+03 -0.28784469558E+03  0.19785824208E+04  0.20411731727E+04  0.25500000920E-02 0. -1.
       -2    1    3    3    0  502  0.41078577894E+03  0.28784469558E+03  0.77592999801E+03  0.92394095416E+03  0.25500000920E-02 0.  1.
</event>
<event>
 5   0  0.2374100E-03  0.1074263E+04  0.7818609E-02  0.9230647E-01
        1   -1    0    0  501    0  0.00000000000E+00  0.00000000000E+00  0.19684240097E+04  0.19684240097E+04  0.50400001928E-02 0.  1.
       -1   -1    0    0    0  501  0.00000000000E+00  0.00000000000E+00 -0.14656902201E+03  0.14656902210E+03  0.50400001928E-02 0. -1.
    10030    2    1    2    0    0  0.00000000000E+00  0.00000000000E+00  0.18218549877E+04  0.21149930318E+04  0.10742625044E+04 0.  0.
        2    1    3    3  502    0 -0.23122544459E+03 -0.29049900897E+03  0.14675668325E+03  0.39923978324E+03  0.25500000920E-02 0. -1.
       -2    1    3    3    0  502  0.23122544459E+03  0.29049900897E+03  0.16750983045E+04  0.17157532486E+04  0.25500000920E-02 0.  1.
</event>
<event>
 5   0  0.3748901E-03  0.1106374E+04  0.7818609E-02  0.9199002E-01
        2   -1    0    0  501    0  0.00000000000E+00  0.00000000000E+00  0.99583365991E+03  0.99583365991E+03  0.25500000920E-02 0. -1.
       -2   -1    0    0    0  501  0.00000000000E+00  0.00000000000E+00 -0.30729614301E+03  0.30729614302E+03  0.25500000920E-02 0.  1.
    10030    2    1    2    0    0  0.00000000000E+00  0.00000000000E+00  0.68853751690E+03  0.13031298029E+04  0.11063739743E+04 0.  0.
        5    1    3    3  502    0 -0.22825522952E+03 -0.48143153635E+03  0.51943428011E+03  0.74411748760E+03  0.46999998093E+01 0. -1.
       -5    1    3    3    0  502  0.22825522952E+03  0.48143153635E+03  0.16910323679E+03  0.55901231533E+03  0.46999998093E+01 0.  1.
</event>
<event>
 5   0  0.3713158E-03  0.1042775E+04  0.7818609E-02  0.9262836E-01
        2   -1    0    0  501    0  0.00000000000E+00  0.00000000000E+00  0.22403147486E+03  0.22403147487E+03  0.25500000920E-02 0. -1.
       -2   -1    0    0    0  501  0.00000000000E+00  0.00000000000E+00 -0.12134223453E+04  0.12134223453E+04  0.25500000920E-02 0.  1.
    10030    2    1    2    0    0  0.00000000000E+00  0.00000000000E+00 -0.98939087044E+03  0.14374538202E+04  0.10427747555E+04 0.  0.
        4    1    3    3  502    0 -0.29944802094E+03  0.37573575215E+03 -0.77380704817E+03  0.91083776458E+03  0.12699999809E+01 0.  1.
       -4    1    3    3    0  502  0.29944802094E+03 -0.37573575215E+03 -0.21558382227E+03  0.52661605560E+03  0.12699999809E+01 0. -1.
</event>
<event>
 5   0  0.3713158E-03  0.9908731E+03  0.7818609E-02  0.9318612E-01
        2   -1    0    0  501    0  0.00000000000E+00  0.00000000000E+00  0.55075551464E+03  0.55075551465E+03  0.25500000920E-02 0.  1.
       -2   -1    0    0    0  501  0.00000000000E+00  0.00000000000E+00 -0.44567393867E+03  0.44567393868E+03  0.25500000920E-02 0. -1.
    10030    2    1    2    0    0  0.00000000000E+00  0.00000000000E+00  0.10508157597E+03  0.99642945332E+03  0.99087310885E+03 0.  0.
        4    1    3    3  502    0 -0.47579222653E+03  0.38667327553E+01 -0.86300701380E+02  0.48357276434E+03  0.12699999809E+01 0. -1.
       -4    1    3    3    0  502  0.47579222653E+03 -0.38667327553E+01  0.19138227735E+03  0.51285668898E+03  0.12699999809E+01 0.  1.
</event>
<event>
 5   0  0.2300702E-03  0.1120119E+04  0.7818609E-02  0.9185801E-01
        1   -1    0    0  501    0  0.00000000000E+00  0.00000000000E+00  0.75995822467E+03  0.75995822469E+03  0.50400001928E-02 0. -1.
       -1   -1    0    0    0  501  0.00000000000E+00  0.00000000000E+00 -0.41274196748E+03  0.41274196751E+03  0.50400001928E-02 0.  1.
    10030    2    1    2    0    0  0.00000000000E+00  0.00000000000E+00  0.34721625719E+03  0.11727001922E+04  0.11201190167E+04 0.  0.
        5    1    3    3  502    0  0.43657305420E+03 -0.33495335136E+03  0.64531071612E+02  0.55405426489E+03  0.46999998093E+01 0. -1.
       -5    1    3    3    0  502 -0.43657305420E+03  0.33495335136E+03  0.28268518558E+03  0.61864592731E+03  0.46999998093E+01 0.  1.
</event>
<event>
 5   0  0.2300702E-03  0.1114448E+04  0.7818609E-02  0.9191223E-01
       -1   -1    0    0    0  501  0.00000000000E+00  0.00000000000E+00  0.54616166327E+03  0.54616166329E+03  0.50400001928E-02 0. -1.
        1   -1    0    0  501    0  0.00000000000E+00  0.00000000000E+00 -0.56851059920E+03  0.56851059922E+03  0.50400001928E-02 0.  1.
    10030    2    1    2    0    0  0.00000000000E+00  0.00000000000E+00 -0.22348935931E+02  0.11146722625E+04  0.11144481943E+04 0.  0.
        5    1    3    3  502    0  0.28242713593E+03  0.31206710299E+03 -0.37638571947E+03  0.56465853726E+03  0.46999998093E+01 0. -1.
       -5    1    3    3    0  502 -0.28242713593E+03 -0.31206710299E+03  0.35403678354E+03  0.55001372526E+03  0.46999998093E+01 0.  1.
</event>
<event>
 5   0  0.2300702E-03  0.1107754E+04  0.7818609E-02  0.9197667E-01
        1   -1    0    0  501    0  0.00000000000E+00  0.00000000000E+00  0.90778111196E+03  0.90778111198E+03  0.50400001928E-02 0. -1.
       -1   -1    0    0    0  501  0.00000000000E+00  0.00000000000E+00 -0.33794473981E+03  0.33794473985E+03  0.50400001928E-02 0.  1.
    10030    2    1    2    0    0  0.00000000000E+00  0.00000000000E+00  0.56983637215E+03  0.12457258518E+04  0.11077542177E+04 0.  0.
        5    1    3    3  502    0  0.38394170253E+03  0.92242525309E+02  0.72166950765E+03  0.82264748385E+03  0.46999998093E+01 0. -1.
       -5    1    3    3    0  502 -0.38394170253E+03 -0.92242525309E+02 -0.15183313550E+03  0.42307836798E+03  0.46999998093E+01 0.  1.
</event>
<event>
 5   0  0.3713158E-03  0.1097966E+04  0.7818609E-02  0.9207176E-01
        2   -1    0    0  501    0  0.00000000000E+00  0.00000000000E+00  0.34204693718E+03  0.34204693719E+03  0.25500000920E-02 0. -1.
       -2   -1    0    0    0  501  0.00000000000E+00  0.00000000000E+00 -0.88111444166E+03  0.88111444166E+03  0.25500000920E-02 0.  1.
    10030    2    1    2    0    0  0.00000000000E+00  0.00000000000E+00 -0.53906750448E+03  0.12231613789E+04  0.10979662947E+04 0.  0.
        4    1    3    3  502    0 -0.14774298934E+03  0.28883658371E+03  0.22382483461E+03  0.39414937838E+03  0.12699999809E+01 0. -1.
       -4    1    3    3    0  502  0.14774298934E+03 -0.28883658371E+03 -0.76289233909E+03  0.82901200048E+03  0.12699999809E+01 0.  1.
</event>
<event>
 5   0  0.3748901E-03  0.1123324E+04  0.7818609E-02  0.9182752E-01
        2   -1    0    0  501    0  0.00000000000E+00  0.00000000000E+00  0.89148392685E+03  0.89148392685E+03  0.25500000920E-02 0. -1.
       -2   -1    0    0    0  501  0.00000000000E+00  0.00000000000E+00 -0.35386417661E+03  0.35386417662E+03  0.25500000920E-02 0.  1.
    10030    2    1    2    0    0  0.00000000000E+00  0.00000000000E+00  0.53761975024E+03  0.12453481035E+04  0.11233240418E+04 0.  0.
        5    1    3    3  502    0  0.29552269881E+03  0.37449663626E+03  0.59742166227E+03  0.76453654500E+03  0.46999998093E+01 0. -1.
       -5    1    3    3    0  502 -0.29552269881E+03 -0.37449663626E+03 -0.59801912030E+02  0.48081155848E+03  0.46999998093E+01 0.  1.
</event>
<event>
 5   0  0.2255788E-03  0.1112377E+04  0.7818609E-02  0.9193211E-01
        1   -1    0    0  501    0  0.00000000000E+00  0.00000000000E+00  0.69892941805E+03  0.69892941806E+03  0.50400001928E-02 0.  1.
       -1   -1    0    0    0  501  0.00000000000E+00  0.00000000000E+00 -0.44259944570E+03  0.44259944572E+03  0.50400001928E-02 0. -1.
    10030    2    1    2    0    0  0.00000000000E+00  0.00000000000E+00  0.25632997235E+03  0.11415288638E+04  0.11123772256E+04 0.  0.
        3    1    3    3  502    0 -0.52252823652E+03  0.17705023468E+03  0.55868608212E+02  0.55453030138E+03  0.10100000352E+00 0. -1.
       -3    1    3    3    0  502  0.52252823652E+03 -0.17705023468E+03  0.20046136414E+03  0.58699856241E+03  0.10100000352E+00 0.  1.
</event>
<event>
 5   0  0.3713158E-03  0.1103526E+04  0.7818609E-02  0.9201762E-01
        2   -1    0    0  501    0  0.00000000000E+00  0.00000000000E+00  0.18167493402E+04  0.18167493402E+04  0.25500000920E-02 0. -1.
       -2   -1    0    0    0  501  0.00000000000E+00  0.00000000000E+00 -0.16757538761E+03  0.16757538763E+03  0.25500000920E-02 0.  1.
    10030    2    1    2    0    0  0.00000000000E+00  0.00000000000E+00  0.16491739526E+04  0.19843247279E+04  0.11035261210E+04 0.  0.
        4    1    3    3  502    0 -0.26723298741E+03  0.18342867056E+03  0.16275071228E+04  0.16594699739E+04  0.12699999809E+01 0. -1.
       -4    1    3    3    0  502  0.26723298741E+03 -0.18342867056E+03  0.21666829834E+02  0.32485475394E+03  0.12699999809E+01 0.  1.
</event>
<event>
 5   0  0.3992414E-03  0.1097497E+04  0.7818609E-02  0.9207635E-01
        2   -1    0    0  501    0  0.00000000000E+00  0.00000000000E+00  0.15552222541E+04  0.15552222541E+04  0.25500000920E-02 0. -1.
       -2   -1    0    0    0  501  0.00000000000E+00  0.00000000000E+00 -0.19362168285E+03  0.19362168287E+03  0.25500000920E-02 0.  1.
    10030    2    1    2    0    0  0.00000000000E+00  0.00000000000E+00  0.13616005713E+04  0.17488439370E+04  0.10974966972E+04 0.  0.
        1    1    3    3  502    0 -0.17468703528E+03 -0.14283492238E+03 -0.11627232658E+03  0.25384371038E+03  0.50400001928E-02 0.  1.
       -1    1    3    3    0  502  0.17468703528E+03  0.14283492238E+03  0.14778728978E+04  0.14950002266E+04  0.50400001928E-02 0. -1.
</event>
<event>
 5   0  0.2298958E-03  0.1101230E+04  0.7818609E-02  0.9203994E-01
       -1   -1    0    0    0  501  0.00000000000E+00  0.00000000000E+00  0.83842367667E+03  0.83842367668E+03  0.50400001928E-02 0. -1.
        1   -1    0    0  501    0  0.00000000000E+00  0.00000000000E+00 -0.36160362584E+03  0.36160362587E+03  0.50400001928E-02 0.  1.
    10030    2    1    2    0    0  0.00000000000E+00  0.00000000000E+00  0.47682005083E+03  0.12000273026E+04  0.11012302965E+04 0.  0.
        1    1    3    3  502    0  0.10815223183E+03  0.22680117465E+03 -0.29548517723E+03  0.38787519650E+03  0.50400001928E-02 0.  1.
       -1    1    3    3    0  502 -0.10815223183E+03 -0.22680117465E+03  0.77230522806E+03  0.81215210606E+03  0.50400001928E-02 0. -1.
</event>
<event>
 5   0  0.3962999E-03  0.1097050E+04  0.7818609E-02  0.9208072E-01
        2   -1    0    0  501    0  0.00000000000E+00  0.00000000000E+00  0.14666089173E+04  0.14666089173E+04  0.25500000920E-02 0. -1.
       -2   -1    0    0    0  501  0.00000000000E+00  0.00000000000E+00 -0.20515319894E+03  0.20515319895E+03  0.25500000920E-02 0.  1.
    10030    2    1    2    0    0  0.00000000000E+00  0.00000000000E+00  0.12614557183E+04  0.16717621162E+04  0.10970496998E+04 0.  0.
        3    1    3    3  502    0 -0.25883012789E+03 -0.41485229216E+03  0.25194847569E+03  0.55006681778E+03  0.10100000352E+00 0.  1.
       -3    1    3    3    0  502  0.25883012789E+03  0.41485229216E+03  0.10095072427E+04  0.11216952985E+04  0.10100000352E+00 0. -1.
</event>
<event>
 5   0  0.2255788E-03  0.1092611E+04  0.7818609E-02  0.9212423E-01
       -1   -1    0    0    0  501  0.00000000000E+00  0.00000000000E+00  0.37806189295E+03  0.37806189299E+03  0.50400001928E-02 0.  1.
        1   -1    0    0  501    0  0.00000000000E+00  0.00000000000E+00 -0.78942061200E+03  0.78942061202E+03  0.50400001928E-02 0. -1.
    10030    2    1    2    0    0  0.00000000000E+00  0.00000000000E+00 -0.41135871905E+03  0.11674825050E+04  0.10926112775E+04 0.  0.
        3    1    3    3  502    0 -0.11225945840E+02  0.28925602432E+03  0.28937737815E+03  0.40930959756E+03  0.10100000352E+00 0.  1.
       -3    1    3    3    0  502  0.11225945840E+02 -0.28925602432E+03 -0.70073609720E+03  0.75817290744E+03  0.10100000352E+00 0. -1.
</event>
<event>
 5   0  0.2300702E-03  0.1107555E+04  0.7818609E-02  0.9197859E-01
        1   -1    0    0  501    0  0.00000000000E+00  0.00000000000E+00  0.22452053968E+03  0.22452053974E+03  0.50400001928E-02 0. -1.
       -1   -1    0    0    0  501  0.00000000000E+00  0.00000000000E+00 -0.13658860421E+04  0.13658860421E+04  0.50400001928E-02 0.  1.
    10030    2    1    2    0    0  0.00000000000E+00  0.00000000000E+00 -0.11413655024E+04  0.15904065818E+04  0.11075549131E+04 0.  0.
        5    1    3    3  502    0  0.60951172195E+02  0.54965918441E+03 -0.52988735685E+03  0.76592621403E+03  0.46999998093E+01 0. -1.
       -5    1    3    3    0  502 -0.60951172195E+02 -0.54965918441E+03 -0.61147814554E+03  0.82448036779E+03  0.46999998093E+01 0.  1.
</event>
<event>
 5   0  0.2298958E-03  0.1097303E+04  0.7818609E-02  0.9207825E-01
       -1   -1    0    0    0  501  0.00000000000E+00  0.00000000000E+00  0.28393297401E+03  0.28393297406E+03  0.50400001928E-02 0. -1.
        1   -1    0    0  501    0  0.00000000000E+00  0.00000000000E+00 -0.10601737274E+04  0.10601737274E+04  0.50400001928E-02 0.  1.
    10030    2    1    2    0    0  0.00000000000E+00  0.00000000000E+00 -0.77624075335E+03  0.13441067014E+04  0.10973026555E+04 0.  0.
        1    1    3    3  502    0  0.87538010983E+02  0.92706188845E+02 -0.10417737760E+04  0.10495474935E+04  0.50400001928E-02 0.  1.
       -1    1    3    3    0  502 -0.87538010983E+02 -0.92706188845E+02  0.26553302264E+03  0.29455920789E+03  0.50400001928E-02 0. -1.
</event>
<event>
 5   0  0.2298958E-03  0.1095683E+04  0.7818609E-02  0.9209410E-01
        1   -1    0    0  501    0  0.00000000000E+00  0.00000000000E+00  0.10824726898E+04  0.10824726898E+04  0.50400001928E-02 0.  1.
       -1   -1    0    0    0  501  0.00000000000E+00  0.00000000000E+00 -0.27726363714E+03  0.27726363719E+03  0.50400001928E-02 0. -1.
    10030    2    1    2    0    0  0.00000000000E+00  0.00000000000E+00  0.80520905263E+03  0.13597363270E+04  0.10956830109E+04 0.  0.
        1    1    3    3  502    0 -0.26805487017E+02 -0.47693204986E+03  0.73547703624E+03  0.87698870300E+03  0.50400001928E-02 0.  1.
       -1    1    3    3    0  502  0.26805487017E+02  0.47693204986E+03  0.69732016390E+02  0.48274762398E+03  0.50400001928E-02 0. -1.
</event>
<event>
 5   0  0.3962999E-03  0.1101980E+04  0.7818609E-02  0.9203264E-01
       -2   -1    0    0    0  501  0.00000000000E+00  0.00000000000E+00  0.46947108277E+03  0.46947108278E+03  0.25500000920E-02 0. -1.
        2   -1    0    0  501    0  0.00000000000E+00  0.00000000000E+00 -0.64666366285E+03  0.64666366285E+03  0.25500000920E-02 0.  1.
    10030    2    1    2    0    0  0.00000000000E+00  0.00000000000E+00 -0.17719258008E+03  0.11161347456E+04  0.11019798365E+04 0.  0.
        3    1    3    3  502    0 -0.40340537578E+03  0.33455061975E+03  0.83676301355E+02  0.53071814364E+03  0.10100000352E+00 0. -1.
       -3    1    3    3    0  502  0.40340537578E+03 -0.33455061975E+03 -0.26086888143E+03  0.58541660199E+03  0.10100000352E+00 0.  1.
</event>
<event>
 5   0  0.2298958E-03  0.1096201E+04  0.7818609E-02  0.9208903E-01
        1   -1    0    0  501    0  0.00000000000E+00  0.00000000000E+00  0.10628650951E+04  0.10628650951E+04  0.50400001928E-02 0. -1.
       -1   -1    0    0    0  501  0.00000000000E+00  0.00000000000E+00 -0.28264560016E+03  0.28264560021E+03  0.50400001928E-02 0.  1.
    10030    2    1    2    0    0  0.00000000000E+00  0.00000000000E+00  0.78021949496E+03  0.13455106953E+04  0.10962009720E+04 0.  0.
        1    1    3    3  502    0  0.50530869254E+03  0.14247287903E+03  0.58332287904E+03  0.78479358894E+03  0.50400001928E-02 0. -1.
       -1    1    3    3    0  502 -0.50530869254E+03 -0.14247287903E+03  0.19689661592E+03  0.56071710639E+03  0.50400001928E-02 0.  1.
</event>
<event>
 5   0  0.2374100E-03  0.1156826E+04  0.7818609E-02  0.9151509E-01
       -1   -1    0    0    0  501  0.00000000000E+00  0.00000000000E+00  0.41949037717E+03  0.41949037720E+03  0.50400001928E-02 0. -1.
        1   -1    0    0  501    0  0.00000000000E+00  0.00000000000E+00 -0.79754286898E+03  0.79754286900E+03  0.50400001928E-02 0.  1.
    10030    2    1    2    0    0  0.00000000000E+00  0.00000000000E+00 -0.37805249181E+03  0.12170332462E+04  0.11568259315E+04 0.  0.
        2    1    3    3  502    0  0.42928112870E+03  0.17434959835E+03  0.17523292209E+03  0.49536516520E+03  0.25500000920E-02 0. -1.
       -2    1    3    3    0  502 -0.42928112870E+03 -0.17434959835E+03 -0.55328541390E+03  0.72166808101E+03  0.25500000920E-02 0.  1.
</event>
<event>
 5   0  0.2300702E-03  0.1090107E+04  0.7818609E-02  0.9214889E-01
        1   -1    0    0  501    0  0.00000000000E+00  0.00000000000E+00  0.11580451920E+04  0.11580451920E+04  0.50400001928E-02 0.  1.
       -1   -1    0    0    0  501  0.00000000000E+00  0.00000000000E+00 -0.25653840383E+03  0.25653840388E+03  0.50400001928E-02 0. -1.
    10030    2    1    2    0    0  0.00000000000E+00  0.00000000000E+00  0.90150678818E+03  0.14145835959E+04  0.10901065364E+04 0.  0.
        5    1    3    3  502    0 -0.23827504188E+03 -0.34056167305E+03 -0.67578246276E+01  0.41572227139E+03  0.46999998093E+01 0. -1.
       -5    1    3    3    0  502  0.23827504188E+03  0.34056167305E+03  0.90826461281E+03  0.99886132451E+03  0.46999998093E+01 0.  1.
</event>
<event>
 5   0  0.3713158E-03  0.1095310E+04  0.7818609E-02  0.9209775E-01
        2   -1    0    0  501    0  0.00000000000E+00  0.00000000000E+00  0.93249745992E+03  0.93249745992E+03  0.25500000920E-02 0. -1.
       -2   -1    0    0    0  501  0.00000000000E+00  0.00000000000E+00 -0.32163726450E+03  0.32163726451E+03  0.25500000920E-02 0.  1.
    10030    2    1    2    0    0  0.00000000000E+00  0.00000000000E+00  0.61086019542E+03  0.12541347244E+04  0.10953098779E+04 0.  0.
        4    1    3    3  502    0  0.67759233869E+02  0.26257269957E+03 -0.23936657806E+03  0.36170942471E+03  0.12699999809E+01 0.  1.
       -4    1    3    3    0  502 -0.67759233869E+02 -0.26257269957E+03  0.85022677348E+03  0.89242529972E+03  0.12699999809E+01 0. -1.
</event>
<event>
 5   0  0.3962999E-03  0.1097241E+04  0.7818609E-02  0.9207885E-01
       -2   -1    0    0    0  501  0.00000000000E+00  0.00000000000E+00  0.22635783002E+03  0.22635783003E+03  0.25500000920E-02 0. -1.
        2   -1    0    0  501    0  0.00000000000E+00  0.00000000000E+00 -0.13296846455E+04  0.13296846455E+04  0.25500000920E-02 0.  1.
    10030    2    1    2    0    0  0.00000000000E+00  0.00000000000E+00 -0.11033268155E+04  0.15560424755E+04  0.10972411421E+04 0.  0.
        3    1    3    3  502    0 -0.15861776466E+02  0.13650342302E+03  0.20155462259E+03  0.24394478173E+03  0.10100000352E+00 0. -1.
       -3    1    3    3    0  502  0.15861776466E+02 -0.13650342302E+03 -0.13048814381E+04  0.13120976938E+04  0.10100000352E+00 0.  1.
</event>
<event>
 5   0  0.2257667E-03  0.1094932E+04  0.7818609E-02  0.9210145E-01
        1   -1    0    0  501    0  0.00000000000E+00  0.00000000000E+00  0.54484910063E+03  0.54484910065E+03  0.50400001928E-02 0. -1.
       -1   -1    0    0    0  501  0.00000000000E+00  0.00000000000E+00 -0.55009560700E+03  0.55009560703E+03  0.50400001928E-02 0.  1.
    10030    2    1    2    0    0  0.00000000000E+00  0.00000000000E+00 -0.52465063748E+01  0.10949447077E+04  0.10949321381E+04 0.  0.
        4    1    3    3  502    0 -0.32496295846E+03 -0.23020065244E+03 -0.37829260152E+03  0.54927240056E+03  0.12699999809E+01 0.  1.
       -4    1    3    3    0  502  0.32496295846E+03  0.23020065244E+03  0.37304609514E+03  0.54567230712E+03  0.12699999809E+01 0. -1.
</event>
<event>
 5   0  0.2374100E-03  0.1100817E+04  0.7818609E-02  0.9204396E-01
       -1   -1    0    0    0  501  0.00000000000E+00  0.00000000000E+00  0.22042159472E+03  0.22042159478E+03  0.50400001928E-02 0.  1.
        1   -1    0    0  501    0  0.00000000000E+00  0.00000000000E+00 -0.13744084763E+04  0.13744084763E+04  0.50400001928E-02 0. -1.
    10030    2    1    2    0    0  0.00000000000E+00  0.00000000000E+00 -0.11539868816E+04  0.15948300711E+04  0.11008166209E+04 0.  0.
        2    1    3    3  502    0 -0.59743911327E+01 -0.44602424170E+03 -0.10441537864E+04  0.11354428419E+04  0.25500000920E-02 0. -1.
       -2    1    3    3    0  502  0.59743911327E+01  0.44602424170E+03 -0.10983309517E+03  0.45938722918E+03  0.25500000920E-02 0.  1.
</event>
<event>
 5   0  0.2257667E-03  0.1097800E+04  0.7818609E-02  0.9207339E-01
       -1   -1    0    0    0  501  0.00000000000E+00  0.00000000000E+00  0.29416061962E+03  0.29416061967E+03  0.50400001928E-02 0.  1.
        1   -1    0    0  501    0  0.00000000000E+00  0.00000000000E+00 -0.10242404973E+04  0.10242404973E+04  0.50400001928E-02 0. -1.
    10030    2    1    2    0    0  0.00000000000E+00  0.00000000000E+00 -0.73007987765E+03  0.13184011170E+04  0.10978000170E+04 0.  0.
        4    1    3    3  502    0 -0.33382816461E+03 -0.16861391706E+03 -0.84754282990E+03  0.92639211888E+03  0.12699999809E+01 0. -1.
       -4    1    3    3    0  502  0.33382816461E+03  0.16861391706E+03  0.11746295225E+03  0.39200899807E+03  0.12699999809E+01 0.  1.
</event>
<event>
 5   0  0.2298958E-03  0.1081744E+04  0.7818609E-02  0.9223170E-01
       -1   -1    0    0    0  501  0.00000000000E+00  0.00000000000E+00  0.44823890020E+03  0.44823890023E+03  0.50400001928E-02 0.  1.
        1   -1    0    0  501    0  0.00000000000E+00  0.00000000000E+00 -0.65264888448E+03  0.65264888450E+03  0.50400001928E-02 0. -1.
    10030    2    1    2    0    0  0.00000000000E+00  0.00000000000E+00 -0.20440998428E+03  0.11008877847E+04  0.10817441809E+04 0.  0.
        1    1    3    3  502    0  0.24637855406E+03  0.47822620768E+03 -0.45178347748E+02  0.53985533316E+03  0.50400001928E-02 0. -1.
       -1    1    3    3    0  502 -0.24637855406E+03 -0.47822620768E+03 -0.15923163653E+03  0.56103245157E+03  0.50400001928E-02 0.  1.
</event>
<event>
 5   0  0.1508625E-03  0.1095056E+04  0.7818609E-02  0.9210024E-01
        3   -1    0    0  501    0  0.00000000000E+00  0.00000000000E+00  0.60015419725E+03  0.60015420575E+03  0.10100000352E+00 0. -1.
       -3   -1    0    0    0  501  0.00000000000E+00  0.00000000000E+00 -0.49951624447E+03  0.49951625468E+03  0.10100000352E+00 0.  1.
    10030    2    1    2    0    0  0.00000000000E+00  0.00000000000E+00  0.10063795278E+03  0.10996704604E+04  0.10950557630E+04 0.  0.
        2    1    3    3  502    0 -0.43302932069E+03 -0.30766321248E+03 -0.82964625853E+02  0.53763758614E+03  0.25500000920E-02 0.  1.
       -2    1    3    3    0  502  0.43302932069E+03  0.30766321248E+03  0.18360257863E+03  0.56203287428E+03  0.25500000920E-02 0. -1.
</event>
<event>
 5   0  0.2257667E-03  0.1104614E+04  0.7818609E-02  0.9200707E-01
       -1   -1    0    0    0  501  0.00000000000E+00  0.00000000000E+00  0.50940279452E+03  0.50940279455E+03  0.50400001928E-02 0. -1.
        1   -1    0    0  501    0  0.00000000000E+00  0.00000000000E+00 -0.59882462789E+03  0.59882462791E+03  0.50400001928E-02 0.  1.
    10030    2    1    2    0    0  0.00000000000E+00  0.00000000000E+00 -0.89421833370E+02  0.11082274225E+04  0.11046138491E+04 0.  0.
        4    1    3    3  502    0 -0.31526509085E+03  0.25610146214E+03  0.33076100792E+03  0.52381723309E+03  0.12699999809E+01 0. -1.
       -4    1    3    3    0  502  0.31526509085E+03 -0.25610146214E+03 -0.42018284129E+03  0.58441018937E+03  0.12699999809E+01 0.  1.
</event>
<event>
 5   0  0.3713158E-03  0.1100396E+04  0.7818609E-02  0.9204806E-01
        2   -1    0    0  501    0  0.00000000000E+00  0.00000000000E+00  0.77520202373E+03  0.77520202373E+03  0.25500000920E-02 0.  1.
       -2   -1    0    0    0  501  0.00000000000E+00  0.00000000000E+00 -0.39050191027E+03  0.39050191027E+03  0.25500000920E-02 0. -1.
    10030    2    1    2    0    0  0.00000000000E+00  0.00000000000E+00  0.38470011346E+03  0.11657039340E+04  0.11003960580E+04 0.  0.
        4    1    3    3  502    0  0.21614033429E+02  0.36414140581E+03 -0.24398120758E+03  0.43885598141E+03  0.12699999809E+01 0.  1.
       -4    1    3    3    0  502 -0.21614033429E+02 -0.36414140581E+03  0.62868132104E+03  0.72684795260E+03  0.12699999809E+01 0. -1.
</event>
<event>
 5   0  0.1508625E-03  0.1101936E+04  0.7818609E-02  0.9203307E-01
       -3   -1    0    0    0  501  0.00000000000E+00  0.00000000000E+00  0.53823854061E+03  0.53823855009E+03  0.10100000352E+00 0. -1.
        3   -1    0    0  501    0  0.00000000000E+00  0.00000000000E+00 -0.56399807716E+03  0.56399808620E+03  0.10100000352E+00 0.  1.
    10030    2    1    2    0    0  0.00000000000E+00  0.00000000000E+00 -0.25759536545E+02  0.11022366363E+04  0.11019355919E+04 0.  0.
        3    1    3    3  502    0 -0.28937993656E+02  0.49536817911E+03  0.22664015818E+03  0.54552067958E+03  0.10100000352E+00 0. -1.
       -3    1    3    3    0  502  0.28937993656E+02 -0.49536817911E+03 -0.25239969472E+03  0.55671595671E+03  0.10100000352E+00 0.  1.
</event>
<event>
 5   0  0.3713158E-03  0.1105596E+04  0.7818609E-02  0.9199755E-01
       -2   -1    0    0    0  501  0.00000000000E+00  0.00000000000E+00  0.65845900275E+03  0.65845900276E+03  0.25500000920E-02 0. -1.
        2   -1    0    0  501    0  0.00000000000E+00  0.00000000000E+00 -0.46409199875E+03  0.46409199875E+03  0.25500000920E-02 0.  1.
    10030    2    1    2    0    0  0.00000000000E+00  0.00000000000E+00  0.19436700401E+03  0.11225510015E+04  0.11055958659E+04 0.  0.
        4    1    3    3  502    0 -0.51246477785E+03  0.15054112990E+03  0.24185071609E+03  0.58632428067E+03  0.12699999809E+01 0. -1.
       -4    1    3    3    0  502  0.51246477785E+03 -0.15054112990E+03 -0.47483712082E+02  0.53622672084E+03  0.12699999809E+01 0.  1.
</event>
<event>
 5   0  0.2298958E-03  0.1108156E+04  0.7818609E-02  0.9197279E-01
        1   -1    0    0  501    0  0.00000000000E+00  0.00000000000E+00  0.44256483915E+03  0.44256483918E+03  0.50400001928E-02 0.  1.
       -1   -1    0    0    0  501  0.00000000000E+00  0.00000000000E+00 -0.69368913878E+03  0.69368913880E+03  0.50400001928E-02 0. -1.
    10030    2    1    2    0    0  0.00000000000E+00  0.00000000000E+00 -0.25112429963E+03  0.11362539780E+04  0.11081559857E+04 0.  0.
        1    1    3    3  502    0  0.44553366387E+03  0.11776056391E+02 -0.46309499005E+03  0.64272536202E+03  0.50400001928E-02 0. -1.
       -1    1    3    3    0  502 -0.44553366387E+03 -0.11776056391E+02  0.21197069041E+03  0.49352861596E+03  0.50400001928E-02 0.  1.
</event>
<event>
 5   0  0.2257667E-03  0.1100585E+04  0.7818609E-02  0.9204622E-01
        1   -1    0    0  501    0  0.00000000000E+00  0.00000000000E+00  0.32167639756E+03  0.32167639760E+03  0.50400001928E-02 0.  1.
       -1   -1    0    0    0  501  0.00000000000E+00  0.00000000000E+00 -0.94138683737E+03  0.94138683738E+03  0.50400001928E-02 0. -1.
    10030    2    1    2    0    0  0.00000000000E+00  0.00000000000E+00 -0.61971043981E+03  0.12630632350E+04  0.11005851654E+04 0.  0.
        4    1    3    3  502    0  0.14366313207E+03 -0.44002449259E+01  0.29975268634E+03  0.33243306626E+03  0.12699999809E+01 0.  1.
       -4    1    3    3    0  502 -0.14366313207E+03  0.44002449259E+01 -0.91946312615E+03  0.93063016872E+03  0.12699999809E+01 0. -1.
</event>
<event>
 5   0  0.3713158E-03  0.1102092E+04  0.7818609E-02  0.9203155E-01
       -2   -1    0    0    0  501  0.00000000000E+00  0.00000000000E+00  0.38302554312E+03  0.38302554313E+03  0.25500000920E-02 0.  1.
        2   -1    0    0  501    0  0.00000000000E+00  0.00000000000E+00 -0.79277146120E+03  0.79277146120E+03  0.25500000920E-02 0. -1.
    10030    2    1    2    0    0  0.00000000000E+00  0.00000000000E+00 -0.40974591808E+03  0.11757970043E+04  0.11020920461E+04 0.  0.
        4    1    3    3  502    0  0.26473264179E+03  0.28828009702E+03  0.20896175300E+03  0.44368391122E+03  0.12699999809E+01 0.  1.
       -4    1    3    3    0  502 -0.26473264179E+03 -0.28828009702E+03 -0.61870767107E+03  0.73211309311E+03  0.12699999809E+01 0. -1.
</event>
<event>
 5   0  0.3713158E-03  0.1096787E+04  0.7818609E-02  0.9208330E-01
        2   -1    0    0  501    0  0.00000000000E+00  0.00000000000E+00  0.14820988539E+04  0.14820988539E+04  0.25500000920E-02 0.  1.
       -2   -1    0    0    0  501  0.00000000000E+00  0.00000000000E+00 -0.20291168314E+03  0.20291168316E+03  0.25500000920E-02 0. -1.
    10030    2    1    2    0    0  0.00000000000E+00  0.00000000000E+00  0.12791871708E+04  0.16850105371E+04  0.10967865299E+04 0.  0.
        4    1    3    3  502    0  0.10253151850E+03 -0.24881723667E+03  0.13736742245E+04  0.13997875616E+04  0.12699999809E+01 0.  1.
       -4    1    3    3    0  502 -0.10253151850E+03  0.24881723667E+03 -0.94487053713E+02  0.28522297553E+03  0.12699999809E+01 0. -1.
</event>
<event>
 5   0  0.3748901E-03  0.1101813E+04  0.7818609E-02  0.9203426E-01
       -2   -1    0    0    0  501  0.00000000000E+00  0.00000000000E+00  0.15903415202E+03  0.15903415204E+03  0.25500000920E-02 0. -1.
        2   -1    0    0  501    0  0.00000000000E+00  0.00000000000E+00 -0.19083838419E+04  0.19083838419E+04  0.25500000920E-02 0.  1.
    10030    2    1    2    0    0  0.00000000000E+00  0.00000000000E+00 -0.17493496899E+04  0.20674179939E+04  0.11018134253E+04 0.  0.
        5    1    3    3  502    0  0.30382767352E+03 -0.58708815201E+02 -0.19495032512E+02  0.31009696301E+03  0.46999998093E+01 0. -1.
       -5    1    3    3    0  502 -0.30382767352E+03  0.58708815201E+02 -0.17298546573E+04  0.17573210309E+04  0.46999998093E+01 0.  1.
</event>
<event>
 5   0  0.3992414E-03  0.1092914E+04  0.7818609E-02  0.9212126E-01
        2   -1    0    0  501    0  0.00000000000E+00  0.00000000000E+00  0.86920395074E+03  0.86920395075E+03  0.25500000920E-02 0.  1.
       -2   -1    0    0    0  501  0.00000000000E+00  0.00000000000E+00 -0.34355007682E+03  0.34355007683E+03  0.25500000920E-02 0. -1.
    10030    2    1    2    0    0  0.00000000000E+00  0.00000000000E+00  0.52565387393E+03  0.12127540276E+04  0.10929136911E+04 0.  0.
        1    1    3    3  502    0 -0.34626440283E+03  0.11379098385E+03 -0.18896321681E+03  0.41055392095E+03  0.50400001928E-02 0. -1.
       -1    1    3    3    0  502  0.34626440283E+03 -0.11379098385E+03  0.71461709074E+03  0.80220010663E+03  0.50400001928E-02 0.  1.
</event>
<event>
 5   0  0.2300702E-03  0.1103382E+04  0.7818609E-02  0.9201902E-01
       -1   -1    0    0    0  501  0.00000000000E+00  0.00000000000E+00  0.54904593209E+03  0.54904593211E+03  0.50400001928E-02 0. -1.
        1   -1    0    0  501    0  0.00000000000E+00  0.00000000000E+00 -0.55434833138E+03  0.55434833140E+03  0.50400001928E-02 0.  1.
    10030    2    1    2    0    0  0.00000000000E+00  0.00000000000E+00 -0.53023992951E+01  0.11033942635E+04  0.11033815230E+04 0.  0.
        5    1    3    3  502    0 -0.28301977607E+03 -0.46995219019E+03  0.55533246730E+02  0.55141752439E+03  0.46999998093E+01 0.  1.
       -5    1    3    3    0  502  0.28301977607E+03  0.46995219019E+03 -0.60835646026E+02  0.55197673913E+03  0.46999998093E+01 0. -1.
</event>
<event>
 5   0  0.3748901E-03  0.1115143E+04  0.7818609E-02  0.9190557E-01
        2   -1    0    0  501    0  0.00000000000E+00  0.00000000000E+00  0.82795873048E+03  0.82795873048E+03  0.25500000920E-02 0.  1.
       -2   -1    0    0    0  501  0.00000000000E+00  0.00000000000E+00 -0.37548469973E+03  0.37548469974E+03  0.25500000920E-02 0. -1.
    10030    2    1    2    0    0  0.00000000000E+00  0.00000000000E+00  0.45247403074E+03  0.12034434302E+04  0.11151427448E+04 0.  0.
        5    1    3    3  502    0 -0.50690318656E+03  0.94863856744E+02  0.45494687774E+03  0.68771268959E+03  0.46999998093E+01 0.  1.
       -5    1    3    3    0  502  0.50690318656E+03 -0.94863856744E+02 -0.24728469929E+01  0.51573074063E+03  0.46999998093E+01 0. -1.
</event>
<event>
 5   0  0.1508625E-03  0.1095028E+04  0.7818609E-02  0.9210051E-01
       -4   -1    0    0    0  501  0.00000000000E+00  0.00000000000E+00  0.35521136598E+03  0.35521363631E+03  0.12699999809E+01 0. -1.
        4   -1    0    0  501    0  0.00000000000E+00  0.00000000000E+00 -0.84391960087E+03  0.84392055647E+03  0.12699999809E+01 0.  1.
    10030    2    1    2    0    0  0.00000000000E+00  0.00000000000E+00 -0.48870823489E+03  0.11991341928E+04  0.10950283437E+04 0.  0.
        4    1    3    3  502    0  0.18161836286E+02  0.29423072261E+02 -0.84272278669E+03  0.84343279376E+03  0.12699999809E+01 0.  1.
       -4    1    3    3    0  502 -0.18161836286E+02 -0.29423072261E+02  0.35401455180E+03  0.35570139902E+03  0.12699999809E+01 0. -1.
</event>
<event>
 5   0  0.3748901E-03  0.1105178E+04  0.7818609E-02  0.9200159E-01
        2   -1    0    0  501    0  0.00000000000E+00  0.00000000000E+00  0.75382586664E+03  0.75382586665E+03  0.25500000920E-02 0.  1.
       -2   -1    0    0    0  501  0.00000000000E+00  0.00000000000E+00 -0.40507333952E+03  0.40507333952E+03  0.25500000920E-02 0. -1.
    10030    2    1    2    0    0  0.00000000000E+00  0.00000000000E+00  0.34875252713E+03  0.11588992062E+04  0.11051782865E+04 0.  0.
        5    1    3    3  502    0 -0.18346795538E+03 -0.23478223197E+03 -0.31359236077E+03  0.43260310428E+03  0.46999998093E+01 0. -1.
       -5    1    3    3    0  502  0.18346795538E+03  0.23478223197E+03  0.66234488790E+03  0.72629610189E+03  0.46999998093E+01 0.  1.
</event>
<event>
 5   0  0.2255788E-03  0.1093183E+04  0.7818609E-02  0.9211861E-01
        1   -1    0    0  501    0  0.00000000000E+00  0.00000000000E+00  0.50782523100E+03  0.50782523103E+03  0.50400001928E-02 0.  1.
       -1   -1    0    0    0  501  0.00000000000E+00  0.00000000000E+00 -0.58831757980E+03  0.58831757982E+03  0.50400001928E-02 0. -1.
    10030    2    1    2    0    0  0.00000000000E+00  0.00000000000E+00 -0.80492348797E+02  0.10961428108E+04  0.10931834446E+04 0.  0.
        3    1    3    3  502    0  0.43582442146E+03  0.25454863318E+03 -0.25063450318E+03  0.56352071602E+03  0.10100000352E+00 0.  1.
       -3    1    3    3    0  502 -0.43582442146E+03 -0.25454863318E+03  0.17014215439E+03  0.53262209483E+03  0.10100000352E+00 0. -1.
</event>
<event>
 5   0  0.2374100E-03  0.1094712E+04  0.7818609E-02  0.9210362E-01
       -1   -1    0    0    0  501  0.00000000000E+00  0.00000000000E+00  0.45393554279E+03  0.45393554281E+03  0.50400001928E-02 0.  1.
        1   -1    0    0  501    0  0.00000000000E+00  0.00000000000E+00 -0.66000200160E+03  0.66000200162E+03  0.50400001928E-02 0. -1.
    10030    2    1    2    0    0  0.00000000000E+00  0.00000000000E+00 -0.20606645882E+03  0.11139375444E+04  0.10947115910E+04 0.  0.
        2    1    3    3  502    0 -0.25687400216E+03 -0.42204411565E+03 -0.34273969644E+03  0.60131188918E+03  0.25500000920E-02 0. -1.
       -2    1    3    3    0  502  0.25687400216E+03  0.42204411565E+03  0.13667323762E+03  0.51262565526E+03  0.25500000920E-02 0.  1.
</event>
<event>
 5   0  0.2255788E-03  0.1055063E+04  0.7818609E-02  0.9250132E-01
       -1   -1    0    0    0  501  0.00000000000E+00  0.00000000000E+00  0.49957716505E+03  0.49957716508E+03  0.50400001928E-02 0.  1.
        1   -1    0    0  501    0  0.00000000000E+00  0.00000000000E+00 -0.55705047113E+03  0.55705047115E+03  0.50400001928E-02 0. -1.
    10030    2    1    2    0    0  0.00000000000E+00  0.00000000000E+00 -0.57473306076E+02  0.10566276362E+04  0.10550634013E+04 0.  0.
        3    1    3    3  502    0 -0.34392965400E+03 -0.17739536823E+03  0.33030981941E+03  0.50878414929E+03  0.10100000352E+00 0.  1.
       -3    1    3    3    0  502  0.34392965400E+03  0.17739536823E+03 -0.38778312549E+03  0.54784348694E+03  0.10100000352E+00 0. -1.
</event>
<event>
 5   0  0.2255788E-03  0.8913431E+03  0.7818609E-02  0.9436468E-01
        1   -1    0    0  501    0  0.00000000000E+00  0.00000000000E+00  0.12305236583E+04  0.12305236583E+04  0.50400001928E-02 0. -1.
       -1   -1    0    0    0  501  0.00000000000E+00  0.00000000000E+00 -0.16141349831E+03  0.16141349839E+03  0.50400001928E-02 0.  1.
    10030    2    1    2    0    0  0.00000000000E+00  0.00000000000E+00  0.10691101600E+04  0.13919371567E+04  0.89134309557E+03 0.  0.
        3    1    3    3  502    0  0.22418081247E+03 -0.16828658860E+03  0.10756183313E+04  0.11115449687E+04  0.10100000352E+00 0. -1.
       -3    1    3    3    0  502 -0.22418081247E+03  0.16828658860E+03 -0.65081713536E+01  0.28039218798E+03  0.10100000352E+00 0.  1.
</event>
<event>
 5   0  0.3744875E-03  0.1106739E+04  0.7818609E-02  0.9198649E-01
       -2   -1    0    0    0  501  0.00000000000E+00  0.00000000000E+00  0.23356051061E+03  0.23356051062E+03  0.25500000920E-02 0. -1.
        2   -1    0    0  501    0  0.00000000000E+00  0.00000000000E+00 -0.13110850127E+04  0.13110850128E+04  0.25500000920E-02 0.  1.
    10030    2    1    2    0    0  0.00000000000E+00  0.00000000000E+00 -0.10775245021E+04  0.15446455234E+04  0.11067387859E+04 0.  0.
        2    1    3    3  502    0 -0.25589495895E+03 -0.27319927936E+03 -0.11075698505E+04  0.11691154990E+04  0.25500000920E-02 0.  1.
       -2    1    3    3    0  502  0.25589495895E+03  0.27319927936E+03  0.30045348340E+02  0.37553002440E+03  0.25500000920E-02 0. -1.
</event>
<event>
 5   0  0.2300702E-03  0.1118362E+04  0.7818609E-02  0.9187478E-01
       -1   -1    0    0    0  501  0.00000000000E+00  0.00000000000E+00  0.46878682112E+03  0.46878682115E+03  0.50400001928E-02 0.  1.
        1   -1    0    0  501    0  0.00000000000E+00  0.00000000000E+00 -0.66700511039E+03  0.66700511041E+03  0.50400001928E-02 0. -1.
    10030    2    1    2    0    0  0.00000000000E+00  0.00000000000E+00 -0.19821828927E+03  0.11357919316E+04  0.11183616685E+04 0.  0.
        5    1    3    3  502    0 -0.33896451516E+03 -0.41124903854E+03  0.72757219711E+02  0.53790186583E+03  0.46999998093E+01 0.  1.
       -5    1    3    3    0  502  0.33896451516E+03  0.41124903854E+03 -0.27097550898E+03  0.59789006573E+03  0.46999998093E+01 0. -1.
</event>
<event>
 5   0  0.2374100E-03  0.1113138E+04  0.7818609E-02  0.9192481E-01
        1   -1    0    0  501    0  0.00000000000E+00  0.00000000000E+00  0.78160957050E+03  0.78160957052E+03  0.50400001928E-02 0. -1.
       -1   -1    0    0    0  501  0.00000000000E+00  0.00000000000E+00 -0.39632183805E+03  0.39632183809E+03  0.50400001928E-02 0.  1.
    10030    2    1    2    0    0  0.00000000000E+00  0.00000000000E+00  0.38528773245E+03  0.11779314086E+04  0.11131378022E+04 0.  0.
        2    1    3    3  502    0  0.15986398559E+03  0.23661857775E+03 -0.31289182036E+03  0.42361083140E+03  0.25500000920E-02 0.  1.
       -2    1    3    3    0  502 -0.15986398559E+03 -0.23661857775E+03  0.69817955281E+03  0.75432057721E+03  0.25500000920E-02 0. -1.
</event>
<event>
 5   0  0.2255788E-03  0.1092104E+04  0.7818609E-02  0.9212922E-01
        1   -1    0    0  501    0  0.00000000000E+00  0.00000000000E+00  0.72543309391E+03  0.72543309392E+03  0.50400001928E-02 0. -1.
       -1   -1    0    0    0  501  0.00000000000E+00  0.00000000000E+00 -0.41102744911E+03  0.41102744914E+03  0.50400001928E-02 0.  1.
    10030    2    1    2    0    0  0.00000000000E+00  0.00000000000E+00  0.31440564480E+03  0.11364605431E+04  0.10921042333E+04 0.  0.
        3    1    3    3  502    0 -0.50165010306E+03 -0.84514159080E+02  0.36369993465E+03  0.62535839456E+03  0.10100000352E+00 0. -1.
       -3    1    3    3    0  502  0.50165010306E+03  0.84514159080E+02 -0.49294289853E+02  0.51110214850E+03  0.10100000352E+00 0.  1.
</event>
<event>
 5   0  0.3992414E-03  0.1105236E+04  0.7818609E-02  0.9200104E-01
        2   -1    0    0  501    0  0.00000000000E+00  0.00000000000E+00  0.91531108564E+03  0.91531108564E+03  0.25500000920E-02 0. -1.
       -2   -1    0    0    0  501  0.00000000000E+00  0.00000000000E+00 -0.33364240552E+03  0.33364240553E+03  0.25500000920E-02 0.  1.
    10030    2    1    2    0    0  0.00000000000E+00  0.00000000000E+00  0.58166868012E+03  0.12489534912E+04  0.11052358887E+04 0.  0.
        1    1    3    3  502    0 -0.51093027122E+03  0.15640565095E+03  0.13152718905E+03  0.55028344622E+03  0.50400001928E-02 0.  1.
       -1    1    3    3    0  502  0.51093027122E+03 -0.15640565095E+03  0.45014149107E+03  0.69867004495E+03  0.50400001928E-02 0. -1.
</event>
<event>
 5   0  0.3744875E-03  0.1093006E+04  0.7818609E-02  0.9212036E-01
        2   -1    0    0  501    0  0.00000000000E+00  0.00000000000E+00  0.79178029304E+03  0.79178029304E+03  0.25500000920E-02 0. -1.
       -2   -1    0    0    0  501  0.00000000000E+00  0.00000000000E+00 -0.37720725145E+03  0.37720725146E+03  0.25500000920E-02 0.  1.
    10030    2    1    2    0    0  0.00000000000E+00  0.00000000000E+00  0.41457304158E+03  0.11689875445E+04  0.10930055226E+04 0.  0.
        2    1    3    3  502    0  0.25977496026E+02  0.19113025037E+03  0.75416379684E+03  0.77843987268E+03  0.25500000920E-02 0. -1.
       -2    1    3    3    0  502 -0.25977496026E+02 -0.19113025037E+03 -0.33959075526E+03  0.39054767182E+03  0.25500000920E-02 0.  1.
</event>
<event>
 5   0  0.2255788E-03  0.1113827E+04  0.7818609E-02  0.9191819E-01
       -1   -1    0    0    0  501  0.00000000000E+00  0.00000000000E+00  0.49700934176E+03  0.49700934178E+03  0.50400001928E-02 0. -1.
        1   -1    0    0  501    0  0.00000000000E+00  0.00000000000E+00 -0.62403770086E+03  0.62403770088E+03  0.50400001928E-02 0.  1.
    10030    2    1    2    0    0  0.00000000000E+00  0.00000000000E+00 -0.12702835911E+03  0.11210470427E+04  0.11138268572E+04 0.  0.
        3    1    3    3  502    0  0.46690363760E+03  0.14723495069E+03 -0.33070712392E+03  0.59079975417E+03  0.10100000352E+00 0.  1.
       -3    1    3    3    0  502 -0.46690363760E+03 -0.14723495069E+03  0.20367876482E+03  0.53024728849E+03  0.10100000352E+00 0. -1.
</event>
<event>
 5   0  0.3992414E-03  0.1103047E+04  0.7818609E-02  0.9202227E-01
       -2   -1    0    0    0  501  0.00000000000E+00  0.00000000000E+00  0.55909023413E+03  0.55909023414E+03  0.25500000920E-02 0.  1.
        2   -1    0    0  501    0  0.00000000000E+00  0.00000000000E+00 -0.54405926187E+03  0.54405926188E+03  0.25500000920E-02 0. -1.
    10030    2    1    2    0    0  0.00000000000E+00  0.00000000000E+00  0.15030972256E+02  0.11031494960E+04  0.11030470889E+04 0.  0.
        1    1    3    3  502    0 -0.20919721117E+03 -0.40691771644E+03 -0.30046231884E+03  0.54737839397E+03  0.50400001928E-02 0. -1.
       -1    1    3    3    0  502  0.20919721117E+03  0.40691771644E+03  0.31549329110E+03  0.55577110205E+03  0.50400001928E-02 0.  1.
</event>
<event>
 5   0  0.2298958E-03  0.1096954E+04  0.7818609E-02  0.9208166E-01
        1   -1    0    0  501    0  0.00000000000E+00  0.00000000000E+00  0.11481378023E+04  0.11481378023E+04  0.50400001928E-02 0. -1.
       -1   -1    0    0    0  501  0.00000000000E+00  0.00000000000E+00 -0.26201302377E+03  0.26201302381E+03  0.50400001928E-02 0.  1.
    10030    2    1    2    0    0  0.00000000000E+00  0.00000000000E+00  0.88612477856E+03  0.14101508261E+04  0.10969540689E+04 0.  0.
        1    1    3    3  502    0  0.35367154002E+03 -0.27610178657E+03  0.84858336971E+03  0.95990077099E+03  0.50400001928E-02 0. -1.
       -1    1    3    3    0  502 -0.35367154002E+03  0.27610178657E+03  0.37541408842E+02  0.45025005516E+03  0.50400001928E-02 0.  1.
</event>
<event>
 5   0  0.2255788E-03  0.1099646E+04  0.7818609E-02  0.9205537E-01
       -1   -1    0    0    0  501  0.00000000000E+00  0.00000000000E+00  0.29900640425E+03  0.29900640430E+03  0.50400001928E-02 0. -1.
        1   -1    0    0  501    0  0.00000000000E+00  0.00000000000E+00 -0.10110335079E+04  0.10110335079E+04  0.50400001928E-02 0.  1.
    10030    2    1    2    0    0  0.00000000000E+00  0.00000000000E+00 -0.71202710361E+03  0.13100399122E+04  0.10996462955E+04 0.  0.
        3    1    3    3  502    0  0.55799102229E+02  0.10546778891E+02 -0.10075304925E+04  0.10091295644E+04  0.10100000352E+00 0.  1.
       -3    1    3    3    0  502 -0.55799102229E+02 -0.10546778891E+02  0.29550338885E+03  0.30091034775E+03  0.10100000352E+00 0. -1.
</event>
<event>
 5   0  0.3713158E-03  0.1112649E+04  0.7818609E-02  0.9192950E-01
        2   -1    0    0  501    0  0.00000000000E+00  0.00000000000E+00  0.37972902093E+03  0.37972902094E+03  0.25500000920E-02 0.  1.
       -2   -1    0    0    0  501  0.00000000000E+00  0.00000000000E+00 -0.81504653627E+03  0.81504653628E+03  0.25500000920E-02 0. -1.
    10030    2    1    2    0    0  0.00000000000E+00  0.00000000000E+00 -0.43531751534E+03  0.11947755572E+04  0.11126487734E+04 0.  0.
        4    1    3    3  502    0 -0.52617854991E+03 -0.15272725926E+03 -0.11407219587E+03  0.55964592456E+03  0.12699999809E+01 0. -1.
       -4    1    3    3    0  502  0.52617854991E+03  0.15272725926E+03 -0.32124531947E+03  0.63512963266E+03  0.12699999809E+01 0.  1.
</event>
<event>
 5   0  0.3748901E-03  0.1102727E+04  0.7818609E-02  0.9202538E-01
        2   -1    0    0  501    0  0.00000000000E+00  0.00000000000E+00  0.82207769139E+03  0.82207769139E+03  0.25500000920E-02 0.  1.
       -2   -1    0    0    0  501  0.00000000000E+00  0.00000000000E+00 -0.36979710210E+03  0.36979710210E+03  0.25500000920E-02 0. -1.
    10030    2    1    2    0    0  0.00000000000E+00  0.00000000000E+00  0.45228058930E+03  0.11918747935E+04  0.11027274332E+04 0.  0.
        5    1    3    3  502    0 -0.12223420049E+03 -0.45689014243E+03  0.53240245139E+03  0.71215466176E+03  0.46999998093E+01 0.  1.
       -5    1    3    3    0  502  0.12223420049E+03  0.45689014243E+03 -0.80121862094E+02  0.47972013174E+03  0.46999998093E+01 0. -1.
</event>
<event>
 5   0  0.1508625E-03  0.1088171E+04  0.7818609E-02  0.9216798E-01
        3   -1    0    0  501    0  0.00000000000E+00  0.00000000000E+00  0.35320229553E+03  0.35320230997E+03  0.10100000352E+00 0. -1.
       -3   -1    0    0    0  501  0.00000000000E+00  0.00000000000E+00 -0.83812938693E+03  0.83812939302E+03  0.10100000352E+00 0.  1.
    10030    2    1    2    0    0  0.00000000000E+00  0.00000000000E+00 -0.48492709141E+03  0.11913317030E+04  0.10881713755E+04 0.  0.
        4    1    3    3  502    0  0.12790471421E+03  0.82624187146E+02  0.32939737249E+03  0.36289201441E+03  0.12699999809E+01 0. -1.
       -4    1    3    3    0  502 -0.12790471421E+03 -0.82624187146E+02 -0.81432446389E+03  0.82843968858E+03  0.12699999809E+01 0.  1.
</event>
<event>
 5   0  0.3992414E-03  0.1024097E+04  0.7818609E-02  0.9282504E-01
       -2   -1    0    0    0  501  0.00000000000E+00  0.00000000000E+00  0.19373038092E+03  0.19373038093E+03  0.25500000920E-02 0.  1.
        2   -1    0    0  501    0  0.00000000000E+00  0.00000000000E+00 -0.13533940401E+04  0.13533940401E+04  0.25500000920E-02 0. -1.
    10030    2    1    2    0    0  0.00000000000E+00  0.00000000000E+00 -0.11596636591E+04  0.15471244210E+04  0.10240967590E+04 0.  0.
        1    1    3    3  502    0 -0.13111202187E+03  0.13434747308E+01  0.16793898591E+03  0.21306259695E+03  0.50400001928E-02 0.  1.
       -1    1    3    3    0  502  0.13111202187E+03 -0.13434747308E+01 -0.13276026450E+04  0.13340618240E+04  0.50400001928E-02 0. -1.
</event>
<event>
 5   0  0.3748901E-03  0.1112801E+04  0.7818609E-02  0.9192804E-01
       -2   -1    0    0    0  501  0.00000000000E+00  0.00000000000E+00  0.15887912797E+03  0.15887912799E+03  0.25500000920E-02 0.  1.
        2   -1    0    0  501    0  0.00000000000E+00  0.00000000000E+00 -0.19485349222E+04  0.19485349222E+04  0.25500000920E-02 0. -1.
    10030    2    1    2    0    0  0.00000000000E+00  0.00000000000E+00 -0.17896557942E+04  0.21074140502E+04  0.11128010231E+04 0.  0.
        5    1    3    3  502    0 -0.45327945401E+03 -0.15498550628E+03 -0.14307298672E+04  0.15088050946E+04  0.46999998093E+01 0. -1.
       -5    1    3    3    0  502  0.45327945401E+03  0.15498550628E+03 -0.35892592696E+03  0.59860895552E+03  0.46999998093E+01 0.  1.
</event>
<event>
 5   0  0.3713158E-03  0.1096565E+04  0.7818609E-02  0.9208546E-01
       -2   -1    0    0    0  501  0.00000000000E+00  0.00000000000E+00  0.41274813936E+03  0.41274813936E+03  0.25500000920E-02 0.  1.
        2   -1    0    0  501    0  0.00000000000E+00  0.00000000000E+00 -0.72832278726E+03  0.72832278726E+03  0.25500000920E-02 0. -1.
    10030    2    1    2    0    0  0.00000000000E+00  0.00000000000E+00 -0.31557464790E+03  0.11410709266E+04  0.10965653201E+04 0.  0.
        4    1    3    3  502    0  0.22763377997E+03  0.28458833517E+03 -0.58405271140E+03  0.68842344592E+03  0.12699999809E+01 0. -1.
       -4    1    3    3    0  502 -0.22763377997E+03 -0.28458833517E+03  0.26847806350E+03  0.45264748070E+03  0.12699999809E+01 0.  1.
</event>
<event>
 5   0  0.2255788E-03  0.1108747E+04  0.7818609E-02  0.9196708E-01
       -1   -1    0    0    0  501  0.00000000000E+00  0.00000000000E+00  0.29253753027E+03  0.29253753031E+03  0.50400001928E-02 0. -1.
        1   -1    0    0  501    0  0.00000000000E+00  0.00000000000E+00 -0.10505667953E+04  0.10505667953E+04  0.50400001928E-02 0.  1.
    10030    2    1    2    0    0  0.00000000000E+00  0.00000000000E+00 -0.75802926505E+03  0.13431043256E+04  0.11087474297E+04 0.  0.
        3    1    3    3  502    0  0.21050958800E+03 -0.48588002150E+03 -0.18020020623E+03  0.55934408593E+03  0.10100000352E+00 0. -1.
       -3    1    3    3    0  502 -0.21050958800E+03  0.48588002150E+03 -0.57782905881E+03  0.78376023971E+03  0.10100000352E+00 0.  1.
</event>
<event>
 5   0  0.2255788E-03  0.1116096E+04  0.7818609E-02  0.9189644E-01
        1   -1    0    0  501    0  0.00000000000E+00  0.00000000000E+00  0.13846355277E+04  0.13846355278E+04  0.50400001928E-02 0.  1.
       -1   -1    0    0    0  501  0.00000000000E+00  0.00000000000E+00 -0.22490952612E+03  0.22490952618E+03  0.50400001928E-02 0. -1.
    10030    2    1    2    0    0  0.00000000000E+00  0.00000000000E+00  0.11597260016E+04  0.16095450539E+04  0.11160962691E+04 0.  0.
        3    1    3    3  502    0 -0.34738218560E+03 -0.25742144826E+03  0.10886628271E+04  0.11713782251E+04  0.10100000352E+00 0.  1.
       -3    1    3    3    0  502  0.34738218560E+03  0.25742144826E+03  0.71063174486E+02  0.43816682881E+03  0.10100000352E+00 0. -1.
</event>
<event>
 5   0  0.3962999E-03  0.1091603E+04  0.7818609E-02  0.9213415E-01
       -2   -1    0    0    0  501  0.00000000000E+00  0.00000000000E+00  0.31919702053E+03  0.31919702054E+03  0.25500000920E-02 0.  1.
        2   -1    0    0  501    0  0.00000000000E+00  0.00000000000E+00 -0.93327767545E+03  0.93327767545E+03  0.25500000920E-02 0. -1.
    10030    2    1    2    0    0  0.00000000000E+00  0.00000000000E+00 -0.61408065492E+03  0.12524746960E+04  0.10916033223E+04 0.  0.
        3    1    3    3  502    0  0.15997635191E+03  0.40058197214E+03  0.76671171422E+02  0.43810595557E+03  0.10100000352E+00 0.  1.
       -3    1    3    3    0  502 -0.15997635191E+03 -0.40058197214E+03 -0.69075182635E+03  0.81436874042E+03  0.10100000352E+00 0. -1.
</event>
<event>
 5   0  0.3713158E-03  0.9351839E+03  0.7818609E-02  0.9382638E-01
       -2   -1    0    0    0  501  0.00000000000E+00  0.00000000000E+00  0.13626034494E+03  0.13626034496E+03  0.25500000920E-02 0.  1.
        2   -1    0    0  501    0  0.00000000000E+00  0.00000000000E+00 -0.16045918627E+04  0.16045918627E+04  0.25500000920E-02 0. -1.
    10030    2    1    2    0    0  0.00000000000E+00  0.00000000000E+00 -0.14683315178E+04  0.17408522077E+04  0.93518391927E+03 0.  0.
        4    1    3    3  502    0 -0.16036523592E+03  0.25360585231E+03 -0.14017381113E+04  0.14334937331E+04  0.12699999809E+01 0. -1.
       -4    1    3    3    0  502  0.16036523592E+03 -0.25360585231E+03 -0.66593406486E+02  0.30735847460E+03  0.12699999809E+01 0.  1.
</event>
<event>
 5   0  0.2374100E-03  0.1100735E+04  0.7818609E-02  0.9204475E-01
        1   -1    0    0  501    0  0.00000000000E+00  0.00000000000E+00  0.67137993759E+03  0.67137993761E+03  0.50400001928E-02 0.  1.
       -1   -1    0    0    0  501  0.00000000000E+00  0.00000000000E+00 -0.45116716354E+03  0.45116716357E+03  0.50400001928E-02 0. -1.
    10030    2    1    2    0    0  0.00000000000E+00  0.00000000000E+00  0.22021277405E+03  0.11225471012E+04  0.11007353581E+04 0.  0.
        2    1    3    3  502    0 -0.47575520205E+03 -0.11350273087E+03  0.36745317355E+03  0.61175789080E+03  0.25500000920E-02 0.  1.
       -2    1    3    3    0  502  0.47575520205E+03  0.11350273087E+03 -0.14724039950E+03  0.51078921038E+03  0.25500000920E-02 0. -1.
</event>
<event>
 5   0  0.2298958E-03  0.1100602E+04  0.7818609E-02  0.9204605E-01
        1   -1    0    0  501    0  0.00000000000E+00  0.00000000000E+00  0.10657604521E+04  0.10657604522E+04  0.50400001928E-02 0.  1.
       -1   -1    0    0    0  501  0.00000000000E+00  0.00000000000E+00 -0.28414575568E+03  0.28414575572E+03  0.50400001928E-02 0. -1.
    10030    2    1    2    0    0  0.00000000000E+00  0.00000000000E+00  0.78161469647E+03  0.13499062079E+04  0.11006022153E+04 0.  0.
        1    1    3    3  502    0  0.33724635054E+03 -0.40697912491E+03  0.20292927929E+03  0.56616905733E+03  0.50400001928E-02 0.  1.
       -1    1    3    3    0  502 -0.33724635054E+03  0.40697912491E+03  0.57868541718E+03  0.78373715055E+03  0.50400001928E-02 0. -1.
</event>
<event>
 5   0  0.2374100E-03  0.1098666E+04  0.7818609E-02  0.9206493E-01
        1   -1    0    0  501    0  0.00000000000E+00  0.00000000000E+00  0.10513146832E+04  0.10513146833E+04  0.50400001928E-02 0. -1.
       -1   -1    0    0    0  501  0.00000000000E+00  0.00000000000E+00 -0.28703730385E+03  0.28703730389E+03  0.50400001928E-02 0.  1.
    10030    2    1    2    0    0  0.00000000000E+00  0.00000000000E+00  0.76427737939E+03  0.13383519871E+04  0.10986656128E+04 0.  0.
        2    1    3    3  502    0  0.15836304401E+03  0.51758857680E+03  0.26793163770E+03  0.60395707714E+03  0.25500000920E-02 0. -1.
       -2    1    3    3    0  502 -0.15836304401E+03 -0.51758857680E+03  0.49634574169E+03  0.73439491001E+03  0.25500000920E-02 0.  1.
</event>
<event>
 5   0  0.1508625E-03  0.1091275E+04  0.7818609E-02  0.9213738E-01
        3   -1    0    0  501    0  0.00000000000E+00  0.00000000000E+00  0.80212938853E+03  0.80212939489E+03  0.10100000352E+00 0. -1.
       -3   -1    0    0    0  501  0.00000000000E+00  0.00000000000E+00 -0.37116253573E+03  0.37116254948E+03  0.10100000352E+00 0.  1.
    10030    2    1    2    0    0  0.00000000000E+00  0.00000000000E+00  0.43096685280E+03  0.11732919444E+04  0.10912751983E+04 0.  0.
        1    1    3    3  502    0  0.40103488327E+02  0.38070658675E+03 -0.20255019293E+03  0.43309626603E+03  0.50400001928E-02 0.  1.
       -1    1    3    3    0  502 -0.40103488327E+02 -0.38070658675E+03  0.63351704573E+03  0.74019567834E+03  0.50400001928E-02 0. -1.
</event>
<event>
 5   0  0.3713158E-03  0.1089525E+04  0.7818609E-02  0.9215462E-01
       -2   -1    0    0    0  501  0.00000000000E+00  0.00000000000E+00  0.26094939613E+03  0.26094939615E+03  0.25500000920E-02 0. -1.
        2   -1    0    0  501    0  0.00000000000E+00  0.00000000000E+00 -0.11372566080E+04  0.11372566080E+04  0.25500000920E-02 0.  1.
    10030    2    1    2    0    0  0.00000000000E+00  0.00000000000E+00 -0.87630721191E+03  0.13982060042E+04  0.10895254474E+04 0.  0.
        4    1    3    3  502    0 -0.33281884093E+03 -0.34196650844E+03 -0.77538842887E+03  0.91046048915E+03  0.12699999809E+01 0.  1.
       -4    1    3    3    0  502  0.33281884093E+03  0.34196650844E+03 -0.10091878303E+03  0.48774551504E+03  0.12699999809E+01 0. -1.
</event>
<event>
 5   0  0.3713158E-03  0.1118775E+04  0.7818609E-02  0.9187083E-01
       -2   -1    0    0    0  501  0.00000000000E+00  0.00000000000E+00  0.64078271112E+03  0.64078271112E+03  0.25500000920E-02 0.  1.
        2   -1    0    0  501    0  0.00000000000E+00  0.00000000000E+00 -0.48833159958E+03  0.48833159959E+03  0.25500000920E-02 0. -1.
    10030    2    1    2    0    0  0.00000000000E+00  0.00000000000E+00  0.15245111153E+03  0.11291143107E+04  0.11187751272E+04 0.  0.
        4    1    3    3  502    0  0.14912406176E+03 -0.24671976571E+03  0.56003472481E+03  0.62988025408E+03  0.12699999809E+01 0.  1.
       -4    1    3    3    0  502 -0.14912406176E+03  0.24671976571E+03 -0.40758361327E+03  0.49923405663E+03  0.12699999809E+01 0. -1.
</event>
<event>
 5   0  0.3748901E-03  0.1096855E+04  0.7818609E-02  0.9208263E-01
       -2   -1    0    0    0  501  0.00000000000E+00  0.00000000000E+00  0.51582160975E+03  0.51582160976E+03  0.25500000920E-02 0.  1.
        2   -1    0    0  501    0  0.00000000000E+00  0.00000000000E+00 -0.58309408955E+03  0.58309408955E+03  0.25500000920E-02 0. -1.
    10030    2    1    2    0    0  0.00000000000E+00  0.00000000000E+00 -0.67272479792E+02  0.10989156993E+04  0.10968546520E+04 0.  0.
        5    1    3    3  502    0  0.14171603339E+03  0.32991280582E+03  0.38165990705E+03  0.52403460593E+03  0.46999998093E+01 0.  1.
       -5    1    3    3    0  502 -0.14171603339E+03 -0.32991280582E+03 -0.44893238685E+03  0.57488109338E+03  0.46999998093E+01 0. -1.
</event>
<event>
 5   0  0.2255788E-03  0.1119844E+04  0.7818609E-02  0.9186064E-01
       -1   -1    0    0    0  501  0.00000000000E+00  0.00000000000E+00  0.22779304047E+03  0.22779304052E+03  0.50400001928E-02 0.  1.
        1   -1    0    0  501    0  0.00000000000E+00  0.00000000000E+00 -0.13763042392E+04  0.13763042392E+04  0.50400001928E-02 0. -1.
    10030    2    1    2    0    0  0.00000000000E+00  0.00000000000E+00 -0.11485111988E+04  0.16040972798E+04  0.11198437879E+04 0.  0.
        3    1    3    3  502    0  0.70397101347E+02 -0.19343292104E+02 -0.13694573293E+04  0.13714019476E+04  0.10100000352E+00 0. -1.
       -3    1    3    3    0  502 -0.70397101347E+02  0.19343292104E+02  0.22094613053E+03  0.23269533220E+03  0.10100000352E+00 0.  1.
</event>
<event>
 5   0  0.2374100E-03  0.1120299E+04  0.7818609E-02  0.9185630E-01
        1   -1    0    0  501    0  0.00000000000E+00  0.00000000000E+00  0.12465790268E+04  0.12465790268E+04  0.50400001928E-02 0.  1.
       -1   -1    0    0    0  501  0.00000000000E+00  0.00000000000E+00 -0.25170274015E+03  0.25170274020E+03  0.50400001928E-02 0. -1.
    10030    2    1    2    0    0  0.00000000000E+00  0.00000000000E+00  0.99487628664E+03  0.14982817670E+04  0.11202988118E+04 0.  0.
        2    1    3    3  502    0  0.49071821779E+03  0.60704326903E+02  0.84944992807E+03  0.98288074805E+03  0.25500000920E-02 0.  1.
       -2    1    3    3    0  502 -0.49071821779E+03 -0.60704326903E+02  0.14542635857E+03  0.51540101897E+03  0.25500000920E-02 0. -1.
</event>
<event>
 5   0  0.3992414E-03  0.1097484E+04  0.7818609E-02  0.9207647E-01
        2   -1    0    0  501    0  0.00000000000E+00  0.00000000000E+00  0.15883230184E+04  0.15883230184E+04  0.25500000920E-02 0. -1.
       -2   -1    0    0    0  501  0.00000000000E+00  0.00000000000E+00 -0.18958226197E+03  0.18958226198E+03  0.25500000920E-02 0.  1.
    10030    2    1    2    0    0  0.00000000000E+00  0.00000000000E+00  0.13987407564E+04  0.17779052803E+04  0.10974841604E+04 0.  0.
        1    1    3    3  502    0 -0.31149810431E+03  0.28208660410E+03  0.12773465275E+03  0.43922666443E+03  0.50400001928E-02 0.  1.
       -1    1    3    3    0  502  0.31149810431E+03 -0.28208660410E+03  0.12710061036E+04  0.13386786159E+04  0.50400001928E-02 0. -1.
</event>
<event>
 5   0  0.2257667E-03  0.1099050E+04  0.7818609E-02  0.9206118E-01
       -1   -1    0    0    0  501  0.00000000000E+00  0.00000000000E+00  0.39797296248E+03  0.39797296251E+03  0.50400001928E-02 0.  1.
        1   -1    0    0  501    0  0.00000000000E+00  0.00000000000E+00 -0.75879020137E+03  0.75879020138E+03  0.50400001928E-02 0. -1.
    10030    2    1    2    0    0  0.00000000000E+00  0.00000000000E+00 -0.36081723889E+03  0.11567631639E+04  0.10990504708E+04 0.  0.
        4    1    3    3  502    0 -0.54526441738E+03 -0.66347995572E+02 -0.19741344178E+03  0.58368572132E+03  0.12699999809E+01 0.  1.
       -4    1    3    3    0  502  0.54526441738E+03  0.66347995572E+02 -0.16340379711E+03  0.57307744257E+03  0.12699999809E+01 0. -1.
</event>
<event>
 5   0  0.3713158E-03  0.1103574E+04  0.7818609E-02  0.9201715E-01
        2   -1    0    0  501    0  0.00000000000E+00  0.00000000000E+00  0.12639740006E+04  0.12639740006E+04  0.25500000920E-02 0.  1.
       -2   -1    0    0    0  501  0.00000000000E+00  0.00000000000E+00 -0.24088236663E+03  0.24088236664E+03  0.25500000920E-02 0. -1.
    10030    2    1    2    0    0  0.00000000000E+00  0.00000000000E+00  0.10230916340E+04  0.15048563672E+04  0.11035742814E+04 0.  0.
        4    1    3    3  502    0  0.40156145495E+03  0.37698044810E+03  0.46628727176E+03  0.72165870954E+03  0.12699999809E+01 0. -1.
       -4    1    3    3    0  502 -0.40156145495E+03 -0.37698044810E+03  0.55680436220E+03  0.78319765769E+03  0.12699999809E+01 0.  1.
</event>
<event>
 5   0  0.1508625E-03  0.1097222E+04  0.7818609E-02  0.9207903E-01
       -3   -1    0    0    0  501  0.00000000000E+00  0.00000000000E+00  0.33203292541E+03  0.33203294077E+03  0.10100000352E+00 0.  1.
        3   -1    0    0  501    0  0.00000000000E+00  0.00000000000E+00 -0.90645890778E+03  0.90645891340E+03  0.10100000352E+00 0. -1.
    10030    2    1    2    0    0  0.00000000000E+00  0.00000000000E+00 -0.57442598237E+03  0.12384918542E+04  0.10972223401E+04 0.  0.
        4    1    3    3  502    0 -0.34068205427E+03  0.22004627525E+03 -0.70422226414E+03  0.81265936010E+03  0.12699999809E+01 0. -1.
       -4    1    3    3    0  502  0.34068205427E+03 -0.22004627525E+03  0.12979628177E+03  0.42583249408E+03  0.12699999809E+01 0.  1.
</event>
<event>
 5   0  0.3744875E-03  0.1097381E+04  0.7818609E-02  0.9207748E-01
        2   -1    0    0  501    0  0.00000000000E+00  0.00000000000E+00  0.32453927995E+03  0.32453927996E+03  0.25500000920E-02 0. -1.
       -2   -1    0    0    0  501  0.00000000000E+00  0.00000000000E+00 -0.92765732766E+03  0.92765732766E+03  0.25500000920E-02 0.  1.
    10030    2    1    2    0    0  0.00000000000E+00  0.00000000000E+00 -0.60311804770E+03  0.12521966076E+04  0.10973809569E+04 0.  0.
        2    1    3    3  502    0  0.24373936785E+03  0.17276077429E+02 -0.86214504352E+03  0.89610346410E+03  0.25500000920E-02 0.  1.
       -2    1    3    3    0  502 -0.24373936785E+03 -0.17276077429E+02  0.25902699582E+03  0.35609314352E+03  0.25500000920E-02 0. -1.
</event>
<event>
 5   0  0.2257667E-03  0.1095424E+04  0.7818609E-02  0.9209663E-01
        1   -1    0    0  501    0  0.00000000000E+00  0.00000000000E+00  0.39365921626E+03  0.39365921629E+03  0.50400001928E-02 0. -1.
       -1   -1    0    0    0  501  0.00000000000E+00  0.00000000000E+00 -0.76205110058E+03  0.76205110059E+03  0.50400001928E-02 0.  1.
    10030    2    1    2    0    0  0.00000000000E+00  0.00000000000E+00 -0.36839188432E+03  0.11557103169E+04  0.10954240075E+04 0.  0.
        4    1    3    3  502    0 -0.41965761354E+03  0.29000708160E+03  0.26204019573E+02  0.51078849197E+03  0.12699999809E+01 0. -1.
       -4    1    3    3    0  502  0.41965761354E+03 -0.29000708160E+03 -0.39459590390E+03  0.64492182492E+03  0.12699999809E+01 0.  1.
</event>
<event>
 5   0  0.3713158E-03  0.1115840E+04  0.7818609E-02  0.9189889E-01
       -2   -1    0    0    0  501  0.00000000000E+00  0.00000000000E+00  0.44557161690E+03  0.44557161690E+03  0.25500000920E-02 0. -1.
        2   -1    0    0  501    0  0.00000000000E+00  0.00000000000E+00 -0.69859626879E+03  0.69859626879E+03  0.25500000920E-02 0.  1.
    10030    2    1    2    0    0  0.00000000000E+00  0.00000000000E+00 -0.25302465189E+03  0.11441678857E+04  0.11158398972E+04 0.  0.
        4    1    3    3  502    0 -0.35890523807E+03  0.19685076016E+03  0.26220254722E+03  0.48612239236E+03  0.12699999809E+01 0. -1.
       -4    1    3    3    0  502  0.35890523807E+03 -0.19685076016E+03 -0.51522719911E+03  0.65804549333E+03  0.12699999809E+01 0.  1.
</event>
<event>
 5   0  0.2255788E-03  0.1110097E+04  0.7818609E-02  0.9195406E-01
        1   -1    0    0  501    0  0.00000000000E+00  0.00000000000E+00  0.12236159186E+04  0.12236159186E+04  0.50400001928E-02 0. -1.
       -1   -1    0    0    0  501  0.00000000000E+00  0.00000000000E+00 -0.25177734082E+03  0.25177734087E+03  0.50400001928E-02 0.  1.
    10030    2    1    2    0    0  0.00000000000E+00  0.00000000000E+00  0.97183857775E+03  0.14753932594E+04  0.11100968646E+04 0.  0.
        3    1    3    3  502    0 -0.19148235910E+03 -0.50022666775E+03  0.67937293862E+03  0.86512416040E+03  0.10100000352E+00 0. -1.
       -3    1    3    3    0  502  0.19148235910E+03  0.50022666775E+03  0.29246563913E+03  0.61026909905E+03  0.10100000352E+00 0.  1.
</event>
<event>
 5   0  0.3748901E-03  0.1107649E+04  0.7818609E-02  0.9197769E-01
        2   -1    0    0  501    0  0.00000000000E+00  0.00000000000E+00  0.74908365941E+03  0.74908365942E+03  0.25500000920E-02 0.  1.
       -2   -1    0    0    0  501  0.00000000000E+00  0.00000000000E+00 -0.40946207990E+03  0.40946207991E+03  0.25500000920E-02 0. -1.
    10030    2    1    2    0    0  0.00000000000E+00  0.00000000000E+00  0.33962157951E+03  0.11585457393E+04  0.11076485963E+04 0.  0.
        5    1    3    3  502    0 -0.64112254892E+02 -0.16434651486E+03 -0.37926756744E+03  0.41831344215E+03  0.46999998093E+01 0. -1.
       -5    1    3    3    0  502  0.64112254892E+02  0.16434651486E+03  0.71888914695E+03  0.74023229717E+03  0.46999998093E+01 0.  1.
</event>
<event>
 5   0  0.3748901E-03  0.1098102E+04  0.7818609E-02  0.9207044E-01
       -2   -1    0    0    0  501  0.00000000000E+00  0.00000000000E+00  0.52220108514E+03  0.52220108514E+03  0.25500000920E-02 0. -1.
        2   -1    0    0  501    0  0.00000000000E+00  0.00000000000E+00 -0.57728141335E+03  0.57728141336E+03  0.25500000920E-02 0.  1.
    10030    2    1    2    0    0  0.00000000000E+00  0.00000000000E+00 -0.55080328215E+02  0.10994824985E+04  0.10981019634E+04 0.  0.
        5    1    3    3  502    0 -0.43661807540E+03  0.33284591212E+03 -0.23909932594E+02  0.54955938702E+03  0.46999998093E+01 0.  1.
       -5    1    3    3    0  502  0.43661807540E+03 -0.33284591212E+03 -0.31170395621E+02  0.54992311149E+03  0.46999998093E+01 0. -1.
</event>
<event>
 5   0  0.3992414E-03  0.1067673E+04  0.7818609E-02  0.9237286E-01
       -2   -1    0    0    0  501  0.00000000000E+00  0.00000000000E+00  0.35816977333E+03  0.35816977334E+03  0.25500000920E-02 0. -1.
        2   -1    0    0  501    0  0.00000000000E+00  0.00000000000E+00 -0.79565943643E+03  0.79565943644E+03  0.25500000920E-02 0.  1.
    10030    2    1    2    0    0  0.00000000000E+00  0.00000000000E+00 -0.43748966310E+03  0.11538292098E+04  0.10676725341E+04 0.  0.
        1    1    3    3  502    0 -0.18191692020E+03 -0.36757070630E+03 -0.58805065048E+03  0.71694180903E+03  0.50400001928E-02 0.  1.
       -1    1    3    3    0  502  0.18191692020E+03  0.36757070630E+03  0.15056098737E+03  0.43688740074E+03  0.50400001928E-02 0. -1.
</event>
<event>
 5   0  0.2374100E-03  0.1100995E+04  0.7818609E-02  0.9204223E-01
       -1   -1    0    0    0  501  0.00000000000E+00  0.00000000000E+00  0.22580113696E+03  0.22580113701E+03  0.50400001928E-02 0. -1.
        1   -1    0    0  501    0  0.00000000000E+00  0.00000000000E+00 -0.13420985276E+04  0.13420985276E+04  0.50400001928E-02 0.  1.
    10030    2    1    2    0    0  0.00000000000E+00  0.00000000000E+00 -0.11162973906E+04  0.15678996646E+04  0.11009947747E+04 0.  0.
        2    1    3    3  502    0  0.26365166803E+03  0.19093032028E+03  0.74052263629E+02  0.33384176943E+03  0.25500000920E-02 0. -1.
       -2    1    3    3    0  502 -0.26365166803E+03 -0.19093032028E+03 -0.11903496542E+04  0.12340578952E+04  0.25500000920E-02 0.  1.
</event>
<event>
 5   0  0.2255788E-03  0.1092571E+04  0.7818609E-02  0.9212463E-01
       -1   -1    0    0    0  501  0.00000000000E+00  0.00000000000E+00  0.44869809448E+03  0.44869809451E+03  0.50400001928E-02 0.  1.
        1   -1    0    0  501    0  0.00000000000E+00  0.00000000000E+00 -0.66509740992E+03  0.66509740994E+03  0.50400001928E-02 0. -1.
    10030    2    1    2    0    0  0.00000000000E+00  0.00000000000E+00 -0.21639931544E+03  0.11137955044E+04  0.10925711702E+04 0.  0.
        3    1    3    3  502    0  0.38422344331E+03  0.18744709650E+03 -0.45490023801E+03  0.62425820388E+03  0.10100000352E+00 0. -1.
       -3    1    3    3    0  502 -0.38422344331E+03 -0.18744709650E+03  0.23850092257E+03  0.48953730056E+03  0.10100000352E+00 0.  1.
</event>
<event>
 5   0  0.2298958E-03  0.1048128E+04  0.7818609E-02  0.9257279E-01
       -1   -1    0    0    0  501  0.00000000000E+00  0.00000000000E+00  0.15102068460E+03  0.15102068468E+03  0.50400001928E-02 0.  1.
        1   -1    0    0  501    0  0.00000000000E+00  0.00000000000E+00 -0.18185776112E+04  0.18185776112E+04  0.50400001928E-02 0. -1.
    10030    2    1    2    0    0  0.00000000000E+00  0.00000000000E+00 -0.16675569266E+04  0.19695982959E+04  0.10481275417E+04 0.  0.
        1    1    3    3  502    0  0.50439138057E+03  0.13606563567E+02 -0.56771295718E+03  0.75953525602E+03  0.50400001928E-02 0.  1.
       -1    1    3    3    0  502 -0.50439138057E+03 -0.13606563567E+02 -0.10998439694E+04  0.12100630399E+04  0.50400001928E-02 0. -1.
</event>
<event>
 5   0  0.3713158E-03  0.1103911E+04  0.7818609E-02  0.9201389E-01
        2   -1    0    0  501    0  0.00000000000E+00  0.00000000000E+00  0.28010406933E+04  0.28010406933E+04  0.25500000920E-02 0. -1.
       -2   -1    0    0    0  501  0.00000000000E+00  0.00000000000E+00 -0.10876478875E+03  0.10876478878E+03  0.25500000920E-02 0.  1.
    10030    2    1    2    0    0  0.00000000000E+00  0.00000000000E+00  0.26922759046E+04  0.29098054821E+04  0.11039105024E+04 0.  0.
        4    1    3    3  502    0  0.41725586436E+03  0.20937854677E+03  0.56994878689E+03  0.73673948229E+03  0.12699999809E+01 0.  1.
       -4    1    3    3    0  502 -0.41725586436E+03 -0.20937854677E+03  0.21223271177E+04  0.21730659998E+04  0.12699999809E+01 0. -1.
</event>
<event>
 5   0  0.2300702E-03  0.1093133E+04  0.7818609E-02  0.9211911E-01
        1   -1    0    0  501    0  0.00000000000E+00  0.00000000000E+00  0.13768237187E+04  0.13768237188E+04  0.50400001928E-02 0.  1.
       -1   -1    0    0    0  501  0.00000000000E+00  0.00000000000E+00 -0.21697408610E+03  0.21697408615E+03  0.50400001928E-02 0. -1.
    10030    2    1    2    0    0  0.00000000000E+00  0.00000000000E+00  0.11598496326E+04  0.15937978049E+04  0.10931332364E+04 0.  0.
        5    1    3    3  502    0 -0.28684500053E+03  0.12383216208E+03  0.12337543921E+04  0.12727083125E+04  0.46999998093E+01 0.  1.
       -5    1    3    3    0  502  0.28684500053E+03 -0.12383216208E+03 -0.73904759410E+02  0.32108949244E+03  0.46999998093E+01 0. -1.
</event>
<event>
 5   0  0.2257667E-03  0.1022709E+04  0.7818609E-02  0.9283982E-01
        1   -1    0    0  501    0  0.00000000000E+00  0.00000000000E+00  0.28810491433E+03  0.28810491437E+03  0.50400001928E-02 0.  1.
       -1   -1    0    0    0  501  0.00000000000E+00  0.00000000000E+00 -0.90759842957E+03  0.90759842958E+03  0.50400001928E-02 0. -1.
    10030    2    1    2    0    0  0.00000000000E+00  0.00000000000E+00 -0.61949351524E+03  0.11957033440E+04  0.10227092800E+04 0.  0.
        4    1    3    3  502    0  0.27423661061E+02 -0.48872169600E+03 -0.13680301782E+03  0.50824957640E+03  0.12699999809E+01 0.  1.
       -4    1    3    3    0  502 -0.27423661061E+02  0.48872169600E+03 -0.48269049742E+03  0.68745376756E+03  0.12699999809E+01 0. -1.
</event>
<event>
 5   0  0.2374100E-03  0.1091544E+04  0.7818609E-02  0.9213473E-01
       -1   -1    0    0    0  501  0.00000000000E+00  0.00000000000E+00  0.20546322878E+03  0.20546322884E+03  0.50400001928E-02 0.  1.
        1   -1    0    0  501    0  0.00000000000E+00  0.00000000000E+00 -0.14497350388E+04  0.14497350388E+04  0.50400001928E-02 0. -1.
    10030    2    1    2    0    0  0.00000000000E+00  0.00000000000E+00 -0.12442718100E+04  0.16551982676E+04  0.10915443042E+04 0.  0.
        2    1    3    3  502    0 -0.27377692480E+03  0.45098923409E+03 -0.41026444578E+03  0.66832777086E+03  0.25500000920E-02 0.  1.
       -2    1    3    3    0  502  0.27377692480E+03 -0.45098923409E+03 -0.83400736422E+03  0.98687049677E+03  0.25500000920E-02 0. -1.
</event>
<event>
 5   0  0.3962999E-03  0.1073095E+04  0.7818609E-02  0.9231820E-01
        2   -1    0    0  501    0  0.00000000000E+00  0.00000000000E+00  0.76854966347E+03  0.76854966347E+03  0.25500000920E-02 0. -1.
       -2   -1    0    0    0  501  0.00000000000E+00  0.00000000000E+00 -0.37457957124E+03  0.37457957125E+03  0.25500000920E-02 0.  1.
    10030    2    1    2    0    0  0.00000000000E+00  0.00000000000E+00  0.39397009223E+03  0.11431292347E+04  0.10730945968E+04 0.  0.
        3    1    3    3  502    0 -0.48337726284E+03 -0.33290535086E+02  0.44250742268E+03  0.65618188582E+03  0.10100000352E+00 0.  1.
       -3    1    3    3    0  502  0.48337726284E+03  0.33290535086E+02 -0.48537330459E+02  0.48694734890E+03  0.10100000352E+00 0. -1.
</event>
<event>
 5   0  0.3713158E-03  0.1094868E+04  0.7818609E-02  0.9210209E-01
        2   -1    0    0  501    0  0.00000000000E+00  0.00000000000E+00  0.46918965780E+03  0.46918965781E+03  0.25500000920E-02 0. -1.
       -2   -1    0    0    0  501  0.00000000000E+00  0.00000000000E+00 -0.63872623054E+03  0.63872623054E+03  0.25500000920E-02 0.  1.
    10030    2    1    2    0    0  0.00000000000E+00  0.00000000000E+00 -0.16953657274E+03  0.11079158883E+04  0.10948675564E+04 0.  0.
        4    1    3    3  502    0  0.14229882311E+03  0.29216661313E+02 -0.61886490447E+03  0.63568699156E+03  0.12699999809E+01 0.  1.
       -4    1    3    3    0  502 -0.14229882311E+03 -0.29216661313E+02  0.44932833173E+03  0.47222889678E+03  0.12699999809E+01 0. -1.
</event>
<event>
 5   0  0.3992414E-03  0.1096034E+04  0.7818609E-02  0.9209066E-01
        2   -1    0    0  501    0  0.00000000000E+00  0.00000000000E+00  0.76435410170E+03  0.76435410170E+03  0.25500000920E-02 0.  1.
       -2   -1    0    0    0  501  0.00000000000E+00  0.00000000000E+00 -0.39291037239E+03  0.39291037240E+03  0.25500000920E-02 0. -1.
    10030    2    1    2    0    0  0.00000000000E+00  0.00000000000E+00  0.37144372931E+03  0.11572644741E+04  0.10960340410E+04 0.  0.
        1    1    3    3  502    0 -0.18930680523E+03 -0.48403327076E+03  0.22399692689E+01  0.51974059992E+03  0.50400001928E-02 0.  1.
       -1    1    3    3    0  502  0.18930680523E+03  0.48403327076E+03  0.36920376004E+03  0.63752387419E+03  0.50400001928E-02 0. -1.
</event>
<event>
 5   0  0.3962999E-03  0.1077949E+04  0.7818609E-02  0.9226955E-01
        2   -1    0    0  501    0  0.00000000000E+00  0.00000000000E+00  0.47859775704E+03  0.47859775704E+03  0.25500000920E-02 0.  1.
       -2   -1    0    0    0  501  0.00000000000E+00  0.00000000000E+00 -0.60696782824E+03  0.60696782825E+03  0.25500000920E-02 0. -1.
    10030    2    1    2    0    0  0.00000000000E+00  0.00000000000E+00 -0.12837007121E+03  0.10855655853E+04  0.10779488693E+04 0.  0.
        3    1    3    3  502    0  0.12205813656E+03  0.44769785599E+03 -0.34027886458E+03  0.57543138152E+03  0.10100000352E+00 0. -1.
       -3    1    3    3    0  502 -0.12205813656E+03 -0.44769785599E+03  0.21190879337E+03  0.51013420378E+03  0.10100000352E+00 0.  1.
</event>
<event>
 5   0  0.2300702E-03  0.1103214E+04  0.7818609E-02  0.9202065E-01
       -1   -1    0    0    0  501  0.00000000000E+00  0.00000000000E+00  0.74727248934E+03  0.74727248935E+03  0.50400001928E-02 0.  1.
        1   -1    0    0  501    0  0.00000000000E+00  0.00000000000E+00 -0.40717413101E+03  0.40717413104E+03  0.50400001928E-02 0. -1.
    10030    2    1    2    0    0  0.00000000000E+00  0.00000000000E+00  0.34009835832E+03  0.11544466204E+04  0.11032135360E+04 0.  0.
        5    1    3    3  502    0  0.31155972806E+03  0.19116814907E+03  0.60231018209E+03  0.70456679656E+03  0.46999998093E+01 0.  1.
       -5    1    3    3    0  502 -0.31155972806E+03 -0.19116814907E+03 -0.26221182377E+03  0.44987982383E+03  0.46999998093E+01 0. -1.
</event>
<event>
 5   0  0.2257667E-03  0.1097080E+04  0.7818609E-02  0.9208043E-01
        1   -1    0    0  501    0  0.00000000000E+00  0.00000000000E+00  0.63345276695E+03  0.63345276697E+03  0.50400001928E-02 0.  1.
       -1   -1    0    0    0  501  0.00000000000E+00  0.00000000000E+00 -0.47500958664E+03  0.47500958667E+03  0.50400001928E-02 0. -1.
    10030    2    1    2    0    0  0.00000000000E+00  0.00000000000E+00  0.15844318030E+03  0.11084623536E+04  0.10970800099E+04 0.  0.
        4    1    3    3  502    0  0.10674209396E+03 -0.12638292497E+03  0.60764682088E+03  0.62976407501E+03  0.12699999809E+01 0.  1.
       -4    1    3    3    0  502 -0.10674209396E+03  0.12638292497E+03 -0.44920364058E+03  0.47869827862E+03  0.12699999809E+01 0. -1.
</event>
<event>
 5   0  0.2300702E-03  0.1097915E+04  0.7818609E-02  0.9207226E-01
       -1   -1    0    0    0  501  0.00000000000E+00  0.00000000000E+00  0.26169442731E+03  0.26169442736E+03  0.50400001928E-02 0.  1.
        1   -1    0    0  501    0  0.00000000000E+00  0.00000000000E+00 -0.11515510503E+04  0.11515510503E+04  0.50400001928E-02 0. -1.
    10030    2    1    2    0    0  0.00000000000E+00  0.00000000000E+00 -0.88985662300E+03  0.14132454777E+04  0.10979152839E+04 0.  0.
        5    1    3    3  502    0  0.31707812892E+03  0.19970714761E+03  0.71418536001E+02  0.38150253201E+03  0.46999998093E+01 0.  1.
       -5    1    3    3    0  502 -0.31707812892E+03 -0.19970714761E+03 -0.96127515900E+03  0.10317429457E+04  0.46999998093E+01 0. -1.
</event>
<event>
 5   0  0.2298958E-03  0.1111431E+04  0.7818609E-02  0.9194121E-01
        1   -1    0    0  501    0  0.00000000000E+00  0.00000000000E+00  0.78608508592E+03  0.78608508594E+03  0.50400001928E-02 0.  1.
       -1   -1    0    0    0  501  0.00000000000E+00  0.00000000000E+00 -0.39285800984E+03  0.39285800988E+03  0.50400001928E-02 0. -1.
    10030    2    1    2    0    0  0.00000000000E+00  0.00000000000E+00  0.39322707608E+03  0.11789430958E+04  0.11114311899E+04 0.  0.
        1    1    3    3  502    0  0.53881695955E+03 -0.99450848785E+02  0.29501504044E+03  0.62229258499E+03  0.50400001928E-02 0.  1.
       -1    1    3    3    0  502 -0.53881695955E+03  0.99450848785E+02  0.98212035635E+02  0.55665051082E+03  0.50400001928E-02 0. -1.
</event>
<event>
 5   0  0.3713158E-03  0.1099214E+04  0.7818609E-02  0.9205958E-01
       -2   -1    0    0    0  501  0.00000000000E+00  0.00000000000E+00  0.22223598935E+03  0.22223598936E+03  0.25500000920E-02 0. -1.
        2   -1    0    0  501    0  0.00000000000E+00  0.00000000000E+00 -0.13592218604E+04  0.13592218604E+04  0.25500000920E-02 0.  1.
    10030    2    1    2    0    0  0.00000000000E+00  0.00000000000E+00 -0.11369858710E+04  0.15814578497E+04  0.10992142919E+04 0.  0.
        4    1    3    3  502    0 -0.18517808864E+03 -0.33473524051E+03 -0.74139183051E+00  0.38254511932E+03  0.12699999809E+01 0. -1.
       -4    1    3    3    0  502  0.18517808864E+03  0.33473524051E+03 -0.11362444792E+04  0.11989127304E+04  0.12699999809E+01 0.  1.
</event>
<event>
 5   0  0.3992414E-03  0.1096802E+04  0.7818609E-02  0.9208314E-01
        2   -1    0    0  501    0  0.00000000000E+00  0.00000000000E+00  0.82004933897E+03  0.82004933897E+03  0.25500000920E-02 0. -1.
       -2   -1    0    0    0  501  0.00000000000E+00  0.00000000000E+00 -0.36673863838E+03  0.36673863839E+03  0.25500000920E-02 0.  1.
    10030    2    1    2    0    0  0.00000000000E+00  0.00000000000E+00  0.45331070059E+03  0.11867879774E+04  0.10968022210E+04 0.  0.
        1    1    3    3  502    0  0.26778866092E+03  0.41183928210E+03  0.49041983480E+03  0.69414261906E+03  0.50400001928E-02 0. -1.
       -1    1    3    3    0  502 -0.26778866092E+03 -0.41183928210E+03 -0.37109134215E+02  0.49264535831E+03  0.50400001928E-02 0.  1.
</event>
<event>
 5   0  0.3744875E-03  0.1092086E+04  0.7818609E-02  0.9212940E-01
        2   -1    0    0  501    0  0.00000000000E+00  0.00000000000E+00  0.71943794689E+03  0.71943794690E+03  0.25500000920E-02 0. -1.
       -2   -1    0    0    0  501  0.00000000000E+00  0.00000000000E+00 -0.41443898328E+03  0.41443898328E+03  0.25500000920E-02 0.  1.
    10030    2    1    2    0    0  0.00000000000E+00  0.00000000000E+00  0.30499896362E+03  0.11338769302E+04  0.10920863176E+04 0.  0.
        2    1    3    3  502    0  0.53380381627E+03 -0.10116567722E+03  0.20919800013E+03  0.58218966993E+03  0.25500000920E-02 0. -1.
       -2    1    3    3    0  502 -0.53380381627E+03  0.10116567722E+03  0.95800963481E+02  0.55168726025E+03  0.25500000920E-02 0.  1.
</event>
<event>
 5   0  0.2255788E-03  0.1101961E+04  0.7818609E-02  0.9203282E-01
       -1   -1    0    0    0  501  0.00000000000E+00  0.00000000000E+00  0.47626530179E+03  0.47626530182E+03  0.50400001928E-02 0.  1.
        1   -1    0    0  501    0  0.00000000000E+00  0.00000000000E+00 -0.63741733121E+03  0.63741733123E+03  0.50400001928E-02 0. -1.
    10030    2    1    2    0    0  0.00000000000E+00  0.00000000000E+00 -0.16115202942E+03  0.11136826330E+04  0.11019614470E+04 0.  0.
        3    1    3    3  502    0 -0.50725484735E+03 -0.14797516237E+02  0.13630694344E+03  0.52545793331E+03  0.10100000352E+00 0.  1.
       -3    1    3    3    0  502  0.50725484735E+03  0.14797516237E+02 -0.29745897285E+03  0.58822469974E+03  0.10100000352E+00 0. -1.
</event>
<event>
 5   0  0.3962999E-03  0.1102243E+04  0.7818609E-02  0.9203009E-01
       -2   -1    0    0    0  501  0.00000000000E+00  0.00000000000E+00  0.70035196578E+03  0.70035196579E+03  0.25500000920E-02 0.  1.
        2   -1    0    0  501    0  0.00000000000E+00  0.00000000000E+00 -0.43368873843E+03  0.43368873844E+03  0.25500000920E-02 0. -1.
    10030    2    1    2    0    0  0.00000000000E+00  0.00000000000E+00  0.26666322735E+03  0.11340407042E+04  0.11022427328E+04 0.  0.
        3    1    3    3  502    0  0.47561754333E+02 -0.99952419986E+02 -0.42213425229E+03  0.43640571020E+03  0.10100000352E+00 0. -1.
       -3    1    3    3    0  502 -0.47561754333E+02  0.99952419986E+02  0.68879747964E+03  0.69763499403E+03  0.10100000352E+00 0.  1.
</event>
<event>
 5   0  0.3748901E-03  0.1106725E+04  0.7818609E-02  0.9198662E-01
       -2   -1    0    0    0  501  0.00000000000E+00  0.00000000000E+00  0.36433926845E+03  0.36433926846E+03  0.25500000920E-02 0.  1.
        2   -1    0    0  501    0  0.00000000000E+00  0.00000000000E+00 -0.84045367674E+03  0.84045367674E+03  0.25500000920E-02 0. -1.
    10030    2    1    2    0    0  0.00000000000E+00  0.00000000000E+00 -0.47611440829E+03  0.12047929452E+04  0.11067254000E+04 0.  0.
        5    1    3    3  502    0  0.13629980749E+03 -0.92901509011E+02 -0.81304544677E+03  0.82962239387E+03  0.46999998093E+01 0. -1.
       -5    1    3    3    0  502 -0.13629980749E+03  0.92901509011E+02  0.33693103848E+03  0.37517055133E+03  0.46999998093E+01 0.  1.
</event>
<event>
 5   0  0.3992414E-03  0.1047581E+04  0.7818609E-02  0.9257845E-01
       -2   -1    0    0    0  501  0.00000000000E+00  0.00000000000E+00  0.13930387105E+04  0.13930387105E+04  0.25500000920E-02 0.  1.
        2   -1    0    0  501    0  0.00000000000E+00  0.00000000000E+00 -0.19694809057E+03  0.19694809058E+03  0.25500000920E-02 0. -1.
    10030    2    1    2    0    0  0.00000000000E+00  0.00000000000E+00  0.11960906200E+04  0.15899868011E+04  0.10475806683E+04 0.  0.
        1    1    3    3  502    0 -0.29166149905E+03  0.40535748199E+03  0.83790678233E+03  0.97543267022E+03  0.50400001928E-02 0.  1.
       -1    1    3    3    0  502  0.29166149905E+03 -0.40535748199E+03  0.35818383763E+03  0.61455413089E+03  0.50400001928E-02 0. -1.
</event>
<event>
 5   0  0.2255788E-03  0.1104743E+04  0.7818609E-02  0.9200581E-01
       -1   -1    0    0    0  501  0.00000000000E+00  0.00000000000E+00  0.33696317439E+03  0.33696317443E+03  0.50400001928E-02 0.  1.
        1   -1    0    0  501    0  0.00000000000E+00  0.00000000000E+00 -0.90548310674E+03  0.90548310676E+03  0.50400001928E-02 0. -1.
    10030    2    1    2    0    0  0.00000000000E+00  0.00000000000E+00 -0.56851993235E+03  0.12424462812E+04  0.11047433404E+04 0.  0.
        3    1    3    3  502    0 -0.45656488834E+03  0.18373143003E+03 -0.21871179174E+01  0.49215193724E+03  0.10100000352E+00 0. -1.
       -3    1    3    3    0  502  0.45656488834E+03 -0.18373143003E+03 -0.56633281443E+03  0.75029434394E+03  0.10100000352E+00 0.  1.
</event>
<event>
 5   0  0.2257667E-03  0.1095811E+04  0.7818609E-02  0.9209284E-01
       -1   -1    0    0    0  501  0.00000000000E+00  0.00000000000E+00  0.28810889251E+03  0.28810889255E+03  0.50400001928E-02 0. -1.
        1   -1    0    0  501    0  0.00000000000E+00  0.00000000000E+00 -0.10419685563E+04  0.10419685563E+04  0.50400001928E-02 0.  1.
    10030    2    1    2    0    0  0.00000000000E+00  0.00000000000E+00 -0.75385966380E+03  0.13300774489E+04  0.10958109451E+04 0.  0.
        4    1    3    3  502    0  0.11676620866E+03  0.49716333679E+03 -0.61783780383E+03  0.80158024905E+03  0.12699999809E+01 0. -1.
       -4    1    3    3    0  502 -0.11676620866E+03 -0.49716333679E+03 -0.13602185997E+03  0.52849719982E+03  0.12699999809E+01 0.  1.
</event>
<event>
 5   0  0.2255788E-03  0.1092054E+04  0.7818609E-02  0.9212971E-01
        1   -1    0    0  501    0  0.00000000000E+00  0.00000000000E+00  0.97351636026E+03  0.97351636028E+03  0.50400001928E-02 0. -1.
       -1   -1    0    0    0  501  0.00000000000E+00  0.00000000000E+00 -0.30625639576E+03  0.30625639580E+03  0.50400001928E-02 0.  1.
    10030    2    1    2    0    0  0.00000000000E+00  0.00000000000E+00  0.66725996450E+03  0.12797727561E+04  0.10920542326E+04 0.  0.
        3    1    3    3  502    0  0.29468726273E+03 -0.12176288240E+03 -0.18582333484E+03  0.36904891860E+03  0.10100000352E+00 0.  1.
       -3    1    3    3    0  502 -0.29468726273E+03  0.12176288240E+03  0.85308329934E+03  0.91072383748E+03  0.10100000352E+00 0. -1.
</event>
<event>
 5   0  0.3713158E-03  0.1080332E+04  0.7818609E-02  0.9224577E-01
        2   -1    0    0  501    0  0.00000000000E+00  0.00000000000E+00  0.58253742183E+03  0.58253742183E+03  0.25500000920E-02 0. -1.
       -2   -1    0    0    0  501  0.00000000000E+00  0.00000000000E+00 -0.50087635910E+03  0.50087635911E+03  0.25500000920E-02 0.  1.
    10030    2    1    2    0    0  0.00000000000E+00  0.00000000000E+00  0.81661062729E+02  0.10834137809E+04  0.10803318433E+04 0.  0.
        4    1    3    3  502    0 -0.13791208693E+03 -0.99103328101E+01 -0.48282731571E+03  0.50223678491E+03  0.12699999809E+01 0.  1.
       -4    1    3    3    0  502  0.13791208693E+03  0.99103328101E+01  0.56448837844E+03  0.58117699603E+03  0.12699999809E+01 0. -1.
</event>
<event>
 5   0  0.3748901E-03  0.1107235E+04  0.7818609E-02  0.9198168E-01
        2   -1    0    0  501    0  0.00000000000E+00  0.00000000000E+00  0.85442606058E+03  0.85442606058E+03  0.25500000920E-02 0.  1.
       -2   -1    0    0    0  501  0.00000000000E+00  0.00000000000E+00 -0.35871153392E+03  0.35871153393E+03  0.25500000920E-02 0. -1.
    10030    2    1    2    0    0  0.00000000000E+00  0.00000000000E+00  0.49571452665E+03  0.12131375945E+04  0.11072352646E+04 0.  0.
        5    1    3    3  502    0  0.22890040544E+03 -0.16743201595E+03  0.76876913964E+03  0.81942477119E+03  0.46999998093E+01 0.  1.
       -5    1    3    3    0  502 -0.22890040544E+03  0.16743201595E+03 -0.27305461299E+03  0.39371282332E+03  0.46999998093E+01 0. -1.
</event>
<event>
 5   0  0.3744875E-03  0.1187256E+04  0.7818609E-02  0.9124085E-01
       -2   -1    0    0    0  501  0.00000000000E+00  0.00000000000E+00  0.66068067580E+03  0.66068067581E+03  0.25500000920E-02 0. -1.
        2   -1    0    0  501    0  0.00000000000E+00  0.00000000000E+00 -0.53338086587E+03  0.53338086588E+03  0.25500000920E-02 0.  1.
    10030    2    1    2    0    0  0.00000000000E+00  0.00000000000E+00  0.12729980993E+03  0.11940615417E+04  0.11872563850E+04 0.  0.
        2    1    3    3  502    0 -0.73258439003E+02  0.52605511467E+01  0.65609336334E+03  0.66019161893E+03  0.25500000920E-02 0. -1.
       -2    1    3    3    0  502  0.73258439003E+02 -0.52605511467E+01 -0.52879355341E+03  0.53386992275E+03  0.25500000920E-02 0.  1.
</event>
<event>
 5   0  0.3962999E-03  0.1102591E+04  0.7818609E-02  0.9202671E-01
       -2   -1    0    0    0  501  0.00000000000E+00  0.00000000000E+00  0.34027561179E+03  0.34027561180E+03  0.25500000920E-02 0. -1.
        2   -1    0    0  501    0  0.00000000000E+00  0.00000000000E+00 -0.89317734406E+03  0.89317734406E+03  0.25500000920E-02 0.  1.
    10030    2    1    2    0    0  0.00000000000E+00  0.00000000000E+00 -0.55290173227E+03  0.12334529559E+04  0.11025905263E+04 0.  0.
        3    1    3    3  502    0 -0.12637646417E+03 -0.50764214095E+03 -0.47103445808E+03  0.70394958972E+03  0.10100000352E+00 0.  1.
       -3    1    3    3    0  502  0.12637646417E+03  0.50764214095E+03 -0.81867274188E+02  0.52950336614E+03  0.10100000352E+00 0. -1.
</event>
<event>
 5   0  0.3744875E-03  0.1099637E+04  0.7818609E-02  0.9205545E-01
        2   -1    0    0  501    0  0.00000000000E+00  0.00000000000E+00  0.71633045400E+03  0.71633045400E+03  0.25500000920E-02 0.  1.
       -2   -1    0    0    0  501  0.00000000000E+00  0.00000000000E+00 -0.42201268292E+03  0.42201268293E+03  0.25500000920E-02 0. -1.
    10030    2    1    2    0    0  0.00000000000E+00  0.00000000000E+00  0.29431777108E+03  0.11383431369E+04  0.10996372798E+04 0.  0.
        2    1    3    3  502    0  0.26605086046E+03  0.38402422586E+03 -0.15294676804E+03  0.49157947502E+03  0.25500000920E-02 0. -1.
       -2    1    3    3    0  502 -0.26605086046E+03 -0.38402422586E+03  0.44726453912E+03  0.64676366191E+03  0.25500000920E-02 0.  1.
</event>
<event>
 5   0  0.3962999E-03  0.1104611E+04  0.7818609E-02  0.9200710E-01
        2   -1    0    0  501    0  0.00000000000E+00  0.00000000000E+00  0.93142654640E+03  0.93142654641E+03  0.25500000920E-02 0.  1.
       -2   -1    0    0    0  501  0.00000000000E+00  0.00000000000E+00 -0.32749888269E+03  0.32749888270E+03  0.25500000920E-02 0. -1.
    10030    2    1    2    0    0  0.00000000000E+00  0.00000000000E+00  0.60392766372E+03  0.12589254291E+04  0.11046106160E+04 0.  0.
        3    1    3    3  502    0  0.28718734054E+03 -0.15673136947E+03  0.80909841369E+03  0.87274368745E+03  0.10100000352E+00 0.  1.
       -3    1    3    3    0  502 -0.28718734054E+03  0.15673136947E+03 -0.20517074997E+03  0.38618174165E+03  0.10100000352E+00 0. -1.
</event>
<event>
 5   0  0.3962999E-03  0.1176472E+04  0.7818609E-02  0.9133703E-01
       -2   -1    0    0    0  501  0.00000000000E+00  0.00000000000E+00  0.31947647791E+03  0.31947647792E+03  0.25500000920E-02 0. -1.
        2   -1    0    0  501    0  0.00000000000E+00  0.00000000000E+00 -0.10830896649E+04  0.10830896649E+04  0.25500000920E-02 0.  1.
    10030    2    1    2    0    0  0.00000000000E+00  0.00000000000E+00 -0.76361318694E+03  0.14025661428E+04  0.11764721355E+04 0.  0.
        3    1    3    3  502    0  0.51854655495E+03  0.24711916308E+03 -0.23070869450E+03  0.61901932306E+03  0.10100000352E+00 0. -1.
       -3    1    3    3    0  502 -0.51854655495E+03 -0.24711916308E+03 -0.53290449245E+03  0.78354681971E+03  0.10100000352E+00 0.  1.
</event>
<event>
 5   0  0.3744875E-03  0.1114519E+04  0.7818609E-02  0.9191155E-01
       -2   -1    0    0    0  501  0.00000000000E+00  0.00000000000E+00  0.17263205595E+03  0.17263205597E+03  0.25500000920E-02 0.  1.
        2   -1    0    0  501    0  0.00000000000E+00  0.00000000000E+00 -0.17988443475E+04  0.17988443475E+04  0.25500000920E-02 0. -1.
    10030    2    1    2    0    0  0.00000000000E+00  0.00000000000E+00 -0.16262122915E+04  0.19714764035E+04  0.11145190856E+04 0.  0.
        2    1    3    3  502    0 -0.41737923058E+03 -0.32747451685E+03 -0.51138903198E+03  0.73686072181E+03  0.25500000920E-02 0.  1.
       -2    1    3    3    0  502  0.41737923058E+03  0.32747451685E+03 -0.11148232596E+04  0.12346156816E+04  0.25500000920E-02 0. -1.
</event>
<event>
 5   0  0.2255788E-03  0.1094146E+04  0.7818609E-02  0.9210917E-01
       -1   -1    0    0    0  501  0.00000000000E+00  0.00000000000E+00  0.70185042660E+03  0.70185042661E+03  0.50400001928E-02 0. -1.
        1   -1    0    0  501    0  0.00000000000E+00  0.00000000000E+00 -0.42642811869E+03  0.42642811872E+03  0.50400001928E-02 0.  1.
    10030    2    1    2    0    0  0.00000000000E+00  0.00000000000E+00  0.27542230791E+03  0.11282785453E+04  0.10941457984E+04 0.  0.
        3    1    3    3  502    0  0.51331466103E+02 -0.38661621215E+03  0.53332190692E+03  0.66071119373E+03  0.10100000352E+00 0.  1.
       -3    1    3    3    0  502 -0.51331466103E+02  0.38661621215E+03 -0.25789959902E+03  0.46756735161E+03  0.10100000352E+00 0. -1.
</event>
<event>
 5   0  0.2374100E-03  0.1106361E+04  0.7818609E-02  0.9199014E-01
       -1   -1    0    0    0  501  0.00000000000E+00  0.00000000000E+00  0.69006681595E+03  0.69006681597E+03  0.50400001928E-02 0. -1.
        1   -1    0    0  501    0  0.00000000000E+00  0.00000000000E+00 -0.44344763497E+03  0.44344763500E+03  0.50400001928E-02 0.  1.
    10030    2    1    2    0    0  0.00000000000E+00  0.00000000000E+00  0.24661918098E+03  0.11335144510E+04  0.11063606962E+04 0.  0.
        2    1    3    3  502    0  0.70572522267E+02  0.42037331872E+02 -0.43716418417E+03  0.44481472784E+03  0.25500000920E-02 0.  1.
       -2    1    3    3    0  502 -0.70572522267E+02 -0.42037331872E+02  0.68378336515E+03  0.68869972313E+03  0.25500000920E-02 0. -1.
</event>
<event>
 5   0  0.2374100E-03  0.1101481E+04  0.7818609E-02  0.9203750E-01
        1   -1    0    0  501    0  0.00000000000E+00  0.00000000000E+00  0.43375740380E+03  0.43375740383E+03  0.50400001928E-02 0.  1.
       -1   -1    0    0    0  501  0.00000000000E+00  0.00000000000E+00 -0.69927305627E+03  0.69927305629E+03  0.50400001928E-02 0. -1.
    10030    2    1    2    0    0  0.00000000000E+00  0.00000000000E+00 -0.26551565247E+03  0.11330304601E+04  0.11014805772E+04 0.  0.
        2    1    3    3  502    0  0.43262513340E+03  0.10895652875E+03 -0.46492967662E+03  0.64435676097E+03  0.25500000920E-02 0.  1.
       -2    1    3    3    0  502 -0.43262513340E+03 -0.10895652875E+03  0.19941402415E+03  0.48867369915E+03  0.25500000920E-02 0. -1.
</event>
<event>
 5   0  0.2255788E-03  0.1102107E+04  0.7818609E-02  0.9203141E-01
       -1   -1    0    0    0  501  0.00000000000E+00  0.00000000000E+00  0.14647347980E+03  0.14647347988E+03  0.50400001928E-02 0.  1.
        1   -1    0    0  501    0  0.00000000000E+00  0.00000000000E+00 -0.20731384910E+04  0.20731384910E+04  0.50400001928E-02 0. -1.
    10030    2    1    2    0    0  0.00000000000E+00  0.00000000000E+00 -0.19266650112E+04  0.22196119709E+04  0.11021067262E+04 0.  0.
        3    1    3    3  502    0 -0.37090015672E+03  0.25101668576E+03 -0.31671423020E+03  0.54852913924E+03  0.10100000352E+00 0.  1.
       -3    1    3    3    0  502  0.37090015672E+03 -0.25101668576E+03 -0.16099507810E+04  0.16710828317E+04  0.10100000352E+00 0. -1.
</event>
<event>
 5   0  0.3992414E-03  0.1103146E+04  0.7818609E-02  0.9202131E-01
       -2   -1    0    0    0  501  0.00000000000E+00  0.00000000000E+00  0.73822221462E+03  0.73822221463E+03  0.25500000920E-02 0.  1.
        2   -1    0    0  501    0  0.00000000000E+00  0.00000000000E+00 -0.41211507429E+03  0.41211507430E+03  0.25500000920E-02 0. -1.
    10030    2    1    2    0    0  0.00000000000E+00  0.00000000000E+00  0.32610714033E+03  0.11503372889E+04  0.11031455078E+04 0.  0.
        1    1    3    3  502    0  0.19360377592E+03 -0.19908410871E+03 -0.33390007278E+03  0.43428811061E+03  0.50400001928E-02 0. -1.
       -1    1    3    3    0  502 -0.19360377592E+03  0.19908410871E+03  0.66000721311E+03  0.71604917832E+03  0.50400001928E-02 0.  1.
</event>
<event>
 5   0  0.2255788E-03  0.1106845E+04  0.7818609E-02  0.9198545E-01
        1   -1    0    0  501    0  0.00000000000E+00  0.00000000000E+00  0.10415725882E+04  0.10415725882E+04  0.50400001928E-02 0.  1.
       -1   -1    0    0    0  501  0.00000000000E+00  0.00000000000E+00 -0.29405221655E+03  0.29405221659E+03  0.50400001928E-02 0. -1.
    10030    2    1    2    0    0  0.00000000000E+00  0.00000000000E+00  0.74752037165E+03  0.13356248048E+04  0.11068454785E+04 0.  0.
        3    1    3    3  502    0  0.21402165618E+03 -0.31180162846E+03  0.86131748540E+03  0.94068769827E+03  0.10100000352E+00 0.  1.
       -3    1    3    3    0  502 -0.21402165618E+03  0.31180162846E+03 -0.11379711374E+03  0.39493710654E+03  0.10100000352E+00 0. -1.
</event>
<event>
 5   0  0.3962999E-03  0.1069863E+04  0.7818609E-02  0.9235074E-01
       -2   -1    0    0    0  501  0.00000000000E+00  0.00000000000E+00  0.10409467210E+04  0.10409467210E+04  0.25500000920E-02 0. -1.
        2   -1    0    0  501    0  0.00000000000E+00  0.00000000000E+00 -0.27489551476E+03  0.27489551477E+03  0.25500000920E-02 0.  1.
    10030    2    1    2    0    0  0.00000000000E+00  0.00000000000E+00  0.76605120622E+03  0.13158422358E+04  0.10698627664E+04 0.  0.
        3    1    3    3  502    0  0.34985839891E+03  0.12237220236E+03  0.85742243298E+03  0.93410336365E+03  0.10100000352E+00 0. -1.
       -3    1    3    3    0  502 -0.34985839891E+03 -0.12237220236E+03 -0.91371226761E+02  0.38173887211E+03  0.10100000352E+00 0.  1.
</event>
<event>
 5   0  0.2298958E-03  0.9640996E+03  0.7818609E-02  0.9348820E-01
       -1   -1    0    0    0  501  0.00000000000E+00  0.00000000000E+00  0.24656029824E+03  0.24656029829E+03  0.50400001928E-02 0.  1.
        1   -1    0    0  501    0  0.00000000000E+00  0.00000000000E+00 -0.94245517586E+03  0.94245517588E+03  0.50400001928E-02 0. -1.
    10030    2    1    2    0    0  0.00000000000E+00  0.00000000000E+00 -0.69589487763E+03  0.11890154742E+04  0.96409964065E+03 0.  0.
        1    1    3    3  502    0  0.29889937536E+03  0.16898552957E+02  0.11801080410E+03  0.32179643813E+03  0.50400001928E-02 0.  1.
       -1    1    3    3    0  502 -0.29889937536E+03 -0.16898552957E+02 -0.81390568173E+03  0.86721903603E+03  0.50400001928E-02 0. -1.
</event>
<event>
 5   0  0.3713158E-03  0.1099440E+04  0.7818609E-02  0.9205738E-01
       -2   -1    0    0    0  501  0.00000000000E+00  0.00000000000E+00  0.91368505780E+03  0.91368505780E+03  0.25500000920E-02 0. -1.
        2   -1    0    0  501    0  0.00000000000E+00  0.00000000000E+00 -0.33073998793E+03  0.33073998794E+03  0.25500000920E-02 0.  1.
    10030    2    1    2    0    0  0.00000000000E+00  0.00000000000E+00  0.58294506987E+03  0.12444250457E+04  0.10994401939E+04 0.  0.
        4    1    3    3  502    0 -0.43351203783E+03  0.12394774519E+03 -0.64473330640E+02  0.45547135337E+03  0.12699999809E+01 0.  1.
       -4    1    3    3    0  502  0.43351203783E+03 -0.12394774519E+03  0.64741840051E+03  0.78895369237E+03  0.12699999809E+01 0. -1.
</event>
<event>
 5   0  0.3713158E-03  0.1107969E+04  0.7818609E-02  0.9197459E-01
        2   -1    0    0  501    0  0.00000000000E+00  0.00000000000E+00  0.11394647772E+04  0.11394647772E+04  0.25500000920E-02 0. -1.
       -2   -1    0    0    0  501  0.00000000000E+00  0.00000000000E+00 -0.26933604283E+03  0.26933604285E+03  0.25500000920E-02 0.  1.
    10030    2    1    2    0    0  0.00000000000E+00  0.00000000000E+00  0.87012873440E+03  0.14088008201E+04  0.11079691946E+04 0.  0.
        4    1    3    3  502    0  0.11340475614E+03  0.45449010351E+03  0.81113112747E+03  0.93667348194E+03  0.12699999809E+01 0. -1.
       -4    1    3    3    0  502 -0.11340475614E+03 -0.45449010351E+03  0.58997606925E+02  0.47212733815E+03  0.12699999809E+01 0.  1.
</event>
<event>
 5   0  0.2300702E-03  0.1102090E+04  0.7818609E-02  0.9203157E-01
        1   -1    0    0  501    0  0.00000000000E+00  0.00000000000E+00  0.10659333663E+04  0.10659333663E+04  0.50400001928E-02 0.  1.
       -1   -1    0    0    0  501  0.00000000000E+00  0.00000000000E+00 -0.28486824303E+03  0.28486824308E+03  0.50400001928E-02 0. -1.
    10030    2    1    2    0    0  0.00000000000E+00  0.00000000000E+00  0.78106512324E+03  0.13508016094E+04  0.11020899515E+04 0.  0.
        5    1    3    3  502    0 -0.33641415447E+03  0.11229909141E+03  0.90741621764E+03  0.97427503884E+03  0.46999998093E+01 0.  1.
       -5    1    3    3    0  502  0.33641415447E+03 -0.11229909141E+03 -0.12635109440E+03  0.37652657053E+03  0.46999998093E+01 0. -1.
</event>
<event>
 5   0  0.2255788E-03  0.1096321E+04  0.7818609E-02  0.9208785E-01
        1   -1    0    0  501    0  0.00000000000E+00  0.00000000000E+00  0.11205986156E+04  0.11205986156E+04  0.50400001928E-02 0.  1.
       -1   -1    0    0    0  501  0.00000000000E+00  0.00000000000E+00 -0.26814215290E+03  0.26814215295E+03  0.50400001928E-02 0. -1.
    10030    2    1    2    0    0  0.00000000000E+00  0.00000000000E+00  0.85245646268E+03  0.13887407685E+04  0.10963206198E+04 0.  0.
        3    1    3    3  502    0 -0.74284860013E+02  0.31705938725E+03 -0.13233278720E+03  0.35150657496E+03  0.10100000352E+00 0. -1.
       -3    1    3    3    0  502  0.74284860013E+02 -0.31705938725E+03  0.98478924987E+03  0.10372341936E+04  0.10100000352E+00 0.  1.
</event>
<event>
 5   0  0.2374100E-03  0.1080002E+04  0.7818609E-02  0.9224905E-01
       -1   -1    0    0    0  501  0.00000000000E+00  0.00000000000E+00  0.12906172049E+03  0.12906172059E+03  0.50400001928E-02 0.  1.
        1   -1    0    0  501    0  0.00000000000E+00  0.00000000000E+00 -0.22593935576E+04  0.22593935577E+04  0.50400001928E-02 0. -1.
    10030    2    1    2    0    0  0.00000000000E+00  0.00000000000E+00 -0.21303318372E+04  0.23884552782E+04  0.10800022592E+04 0.  0.
        2    1    3    3  502    0  0.27992334273E+03  0.31831475188E+03 -0.18050199264E+04  0.18541246705E+04  0.25500000920E-02 0. -1.
       -2    1    3    3    0  502 -0.27992334273E+03 -0.31831475188E+03 -0.32531191072E+03  0.53433060771E+03  0.25500000920E-02 0.  1.
</event>
<event>
 5   0  0.3713158E-03  0.1093568E+04  0.7818609E-02  0.9211483E-01
       -2   -1    0    0    0  501  0.00000000000E+00  0.00000000000E+00  0.25286192221E+03  0.25286192222E+03  0.25500000920E-02 0. -1.
        2   -1    0    0  501    0  0.00000000000E+00  0.00000000000E+00 -0.11823564908E+04  0.11823564908E+04  0.25500000920E-02 0.  1.
    10030    2    1    2    0    0  0.00000000000E+00  0.00000000000E+00 -0.92949456857E+03  0.14352184130E+04  0.10935683518E+04 0.  0.
        4    1    3    3  502    0  0.38206097056E+03 -0.19635747230E+03 -0.20761066079E+02  0.43006915364E+03  0.12699999809E+01 0. -1.
       -4    1    3    3    0  502 -0.38206097056E+03  0.19635747230E+03 -0.90873350249E+03  0.10051492594E+04  0.12699999809E+01 0.  1.
</event>
<event>
 5   0  0.2255788E-03  0.1109731E+04  0.7818609E-02  0.9195759E-01
        1   -1    0    0  501    0  0.00000000000E+00  0.00000000000E+00  0.44696297741E+03  0.44696297744E+03  0.50400001928E-02 0. -1.
       -1   -1    0    0    0  501  0.00000000000E+00  0.00000000000E+00 -0.68881724014E+03  0.68881724016E+03  0.50400001928E-02 0.  1.
    10030    2    1    2    0    0  0.00000000000E+00  0.00000000000E+00 -0.24185426273E+03  0.11357802176E+04  0.11097311469E+04 0.  0.
        3    1    3    3  502    0  0.28457494112E+03  0.35385283085E+03 -0.44728687349E+03  0.63738550377E+03  0.10100000352E+00 0.  1.
       -3    1    3    3    0  502 -0.28457494112E+03 -0.35385283085E+03  0.20543261075E+03  0.49839471383E+03  0.10100000352E+00 0. -1.
</event>
<event>
 5   0  0.3744875E-03  0.1065949E+04  0.7818609E-02  0.9239031E-01
        2   -1    0    0  501    0  0.00000000000E+00  0.00000000000E+00  0.77476761195E+03  0.77476761196E+03  0.25500000920E-02 0. -1.
       -2   -1    0    0    0  501  0.00000000000E+00  0.00000000000E+00 -0.36664122049E+03  0.36664122050E+03  0.25500000920E-02 0.  1.
    10030    2    1    2    0    0  0.00000000000E+00  0.00000000000E+00  0.40812639146E+03  0.11414088325E+04  0.10659488597E+04 0.  0.
        2    1    3    3  502    0 -0.11422548636E+03 -0.52026163858E+03  0.22386874140E+03  0.57778616087E+03  0.25500000920E-02 0.  1.
       -2    1    3    3    0  502  0.11422548636E+03  0.52026163858E+03  0.18425765006E+03  0.56362267159E+03  0.25500000920E-02 0. -1.
</event>
<event>
 5   0  0.3713158E-03  0.1105158E+04  0.7818609E-02  0.9200179E-01
       -2   -1    0    0    0  501  0.00000000000E+00  0.00000000000E+00  0.20408297018E+03  0.20408297020E+03  0.25500000920E-02 0. -1.
        2   -1    0    0  501    0  0.00000000000E+00  0.00000000000E+00 -0.14961743324E+04  0.14961743324E+04  0.25500000920E-02 0.  1.
    10030    2    1    2    0    0  0.00000000000E+00  0.00000000000E+00 -0.12920913622E+04  0.17002573026E+04  0.11051582722E+04 0.  0.
        4    1    3    3  502    0 -0.44509848448E+03 -0.32128400797E+03 -0.74342044272E+03  0.92412750322E+03  0.12699999809E+01 0. -1.
       -4    1    3    3    0  502  0.44509848448E+03  0.32128400797E+03 -0.54867091949E+03  0.77612979936E+03  0.12699999809E+01 0.  1.
</event>
<event>
 5   0  0.2300702E-03  0.1099437E+04  0.7818609E-02  0.9205741E-01
        1   -1    0    0  501    0  0.00000000000E+00  0.00000000000E+00  0.58193987589E+03  0.58193987591E+03  0.50400001928E-02 0. -1.
       -1   -1    0    0    0  501  0.00000000000E+00  0.00000000000E+00 -0.51928091739E+03  0.51928091742E+03  0.50400001928E-02 0.  1.
    10030    2    1    2    0    0  0.00000000000E+00  0.00000000000E+00  0.62658958496E+02  0.11012207933E+04  0.10994367151E+04 0.  0.
        5    1    3    3  502    0 -0.76003683713E+02 -0.17237654011E+02 -0.51369916468E+03  0.51959851659E+03  0.46999998093E+01 0.  1.
       -5    1    3    3    0  502  0.76003683713E+02  0.17237654011E+02  0.57635812317E+03  0.58162227674E+03  0.46999998093E+01 0. -1.
</event>
<event>
 5   0  0.1508625E-03  0.1096367E+04  0.7818609E-02  0.9208740E-01
        4   -1    0    0  501    0  0.00000000000E+00  0.00000000000E+00  0.91380255680E+03  0.91380343932E+03  0.12699999809E+01 0.  1.
       -4   -1    0    0    0  501  0.00000000000E+00  0.00000000000E+00 -0.32884925330E+03  0.32885170563E+03  0.12699999809E+01 0. -1.
    10030    2    1    2    0    0  0.00000000000E+00  0.00000000000E+00  0.58495330350E+03  0.12426551450E+04  0.10963673846E+04 0.  0.
        2    1    3    3  502    0 -0.21921835373E+03 -0.46211332797E+03  0.51602373825E+03  0.72655757717E+03  0.25500000920E-02 0.  1.
       -2    1    3    3    0  502  0.21921835373E+03  0.46211332797E+03  0.68929565254E+02  0.51609756779E+03  0.25500000920E-02 0. -1.
</event>
<event>
 5   0  0.3744875E-03  0.1095890E+04  0.7818609E-02  0.9209207E-01
        2   -1    0    0  501    0  0.00000000000E+00  0.00000000000E+00  0.30447797251E+03  0.30447797252E+03  0.25500000920E-02 0.  1.
       -2   -1    0    0    0  501  0.00000000000E+00  0.00000000000E+00 -0.98609390919E+03  0.98609390920E+03  0.25500000920E-02 0. -1.
    10030    2    1    2    0    0  0.00000000000E+00  0.00000000000E+00 -0.68161593669E+03  0.12905718817E+04  0.10958902759E+04 0.  0.
        2    1    3    3  502    0  0.32048541910E+03 -0.44426089643E+03 -0.32567045245E+03  0.63729105718E+03  0.25500000920E-02 0.  1.
       -2    1    3    3    0  502 -0.32048541910E+03  0.44426089643E+03 -0.35594548423E+03  0.65328082453E+03  0.25500000920E-02 0. -1.
</event>
<event>
 5   0  0.3962999E-03  0.1129679E+04  0.7818609E-02  0.9176737E-01
       -2   -1    0    0    0  501  0.00000000000E+00  0.00000000000E+00  0.53325842742E+03  0.53325842742E+03  0.25500000920E-02 0.  1.
        2   -1    0    0  501    0  0.00000000000E+00  0.00000000000E+00 -0.59829141594E+03  0.59829141595E+03  0.25500000920E-02 0. -1.
    10030    2    1    2    0    0  0.00000000000E+00  0.00000000000E+00 -0.65032988527E+02  0.11315498434E+04  0.11296794937E+04 0.  0.
        3    1    3    3  502    0 -0.52511230122E+03 -0.17273574777E+03 -0.14874032999E+03  0.57245459507E+03  0.10100000352E+00 0.  1.
       -3    1    3    3    0  502  0.52511230122E+03  0.17273574777E+03  0.83707341463E+02  0.55909524830E+03  0.10100000352E+00 0. -1.
</event>
<event>
 5   0  0.3748901E-03  0.1098378E+04  0.7818609E-02  0.9206774E-01
       -2   -1    0    0    0  501  0.00000000000E+00  0.00000000000E+00  0.14602600832E+03  0.14602600834E+03  0.25500000920E-02 0.  1.
        2   -1    0    0  501    0  0.00000000000E+00  0.00000000000E+00 -0.20654442874E+04  0.20654442874E+04  0.25500000920E-02 0. -1.
    10030    2    1    2    0    0  0.00000000000E+00  0.00000000000E+00 -0.19194182791E+04  0.22114702957E+04  0.10983780491E+04 0.  0.
        5    1    3    3  502    0 -0.39844718436E+03  0.37324531422E+03 -0.10790658702E+04  0.12093293453E+04  0.46999998093E+01 0. -1.
       -5    1    3    3    0  502  0.39844718436E+03 -0.37324531422E+03 -0.84035240889E+03  0.10021409504E+04  0.46999998093E+01 0.  1.
</event>
<event>
 5   0  0.2374100E-03  0.1086033E+04  0.7818609E-02  0.9218913E-01
       -1   -1    0    0    0  501  0.00000000000E+00  0.00000000000E+00  0.87734386038E+03  0.87734386039E+03  0.50400001928E-02 0.  1.
        1   -1    0    0  501    0  0.00000000000E+00  0.00000000000E+00 -0.33609061882E+03  0.33609061885E+03  0.50400001928E-02 0. -1.
    10030    2    1    2    0    0  0.00000000000E+00  0.00000000000E+00  0.54125324156E+03  0.12134344792E+04  0.10860332241E+04 0.  0.
        2    1    3    3  502    0 -0.86156349324E+02  0.81708770657E+02 -0.32140768115E+03  0.34263995278E+03  0.25500000920E-02 0. -1.
       -2    1    3    3    0  502  0.86156349324E+02 -0.81708770657E+02  0.86266092272E+03  0.87079452646E+03  0.25500000920E-02 0.  1.
</event>
<event>
 5   0  0.3744875E-03  0.1090736E+04  0.7818609E-02  0.9214268E-01
        2   -1    0    0  501    0  0.00000000000E+00  0.00000000000E+00  0.63953459306E+03  0.63953459307E+03  0.25500000920E-02 0.  1.
       -2   -1    0    0    0  501  0.00000000000E+00  0.00000000000E+00 -0.46506691208E+03  0.46506691208E+03  0.25500000920E-02 0. -1.
    10030    2    1    2    0    0  0.00000000000E+00  0.00000000000E+00  0.17446768099E+03  0.11046015052E+04  0.10907362254E+04 0.  0.
        2    1    3    3  502    0  0.22104972017E+03 -0.48598681208E+03  0.19991467134E+03  0.57009826884E+03  0.25500000920E-02 0.  1.
       -2    1    3    3    0  502 -0.22104972017E+03  0.48598681208E+03 -0.25446990349E+02  0.53450323632E+03  0.25500000920E-02 0. -1.
</event>
<event>
 5   0  0.1508625E-03  0.1104160E+04  0.7818609E-02  0.9201147E-01
        4   -1    0    0  501    0  0.00000000000E+00  0.00000000000E+00  0.11054036272E+04  0.11054043567E+04  0.12699999809E+01 0.  1.
       -4   -1    0    0    0  501  0.00000000000E+00  0.00000000000E+00 -0.27572707932E+03  0.27573000411E+03  0.12699999809E+01 0. -1.
    10030    2    1    2    0    0  0.00000000000E+00  0.00000000000E+00  0.82967654785E+03  0.13811343608E+04  0.11041598383E+04 0.  0.
        3    1    3    3  502    0  0.29613555988E+03 -0.44105596204E+03  0.22693801317E+03  0.57769152971E+03  0.10100000352E+00 0.  1.
       -3    1    3    3    0  502 -0.29613555988E+03  0.44105596204E+03  0.60273853469E+03  0.80344283112E+03  0.10100000352E+00 0. -1.
</event>
<event>
 5   0  0.3748901E-03  0.1088338E+04  0.7818609E-02  0.9216633E-01
        2   -1    0    0  501    0  0.00000000000E+00  0.00000000000E+00  0.12380892516E+04  0.12380892516E+04  0.25500000920E-02 0. -1.
       -2   -1    0    0    0  501  0.00000000000E+00  0.00000000000E+00 -0.23917501556E+03  0.23917501557E+03  0.25500000920E-02 0.  1.
    10030    2    1    2    0    0  0.00000000000E+00  0.00000000000E+00  0.99891423604E+03  0.14772642672E+04  0.10883382122E+04 0.  0.
        5    1    3    3  502    0 -0.42379649230E+03 -0.15554888378E+03  0.91183258683E+03  0.10174771145E+04  0.46999998093E+01 0. -1.
       -5    1    3    3    0  502  0.42379649230E+03  0.15554888378E+03  0.87081649210E+02  0.45978715267E+03  0.46999998093E+01 0.  1.
</event>
<event>
 5   0  0.2257667E-03  0.1093366E+04  0.7818609E-02  0.9211682E-01
       -1   -1    0    0    0  501  0.00000000000E+00  0.00000000000E+00  0.39886454574E+03  0.39886454577E+03  0.50400001928E-02 0. -1.
        1   -1    0    0  501    0  0.00000000000E+00  0.00000000000E+00 -0.74928329082E+03  0.74928329084E+03  0.50400001928E-02 0.  1.
    10030    2    1    2    0    0  0.00000000000E+00  0.00000000000E+00 -0.35041874508E+03  0.11481478366E+04  0.10933664335E+04 0.  0.
        4    1    3    3  502    0 -0.21714992434E+03  0.38388328366E+03  0.16399266435E+03  0.47054826742E+03  0.12699999809E+01 0. -1.
       -4    1    3    3    0  502  0.21714992434E+03 -0.38388328366E+03 -0.51441140943E+03  0.67759956919E+03  0.12699999809E+01 0.  1.
</event>
<event>
 5   0  0.2374100E-03  0.1098054E+04  0.7818609E-02  0.9207091E-01
        1   -1    0    0  501    0  0.00000000000E+00  0.00000000000E+00  0.17378504121E+04  0.17378504121E+04  0.50400001928E-02 0.  1.
       -1   -1    0    0    0  501  0.00000000000E+00  0.00000000000E+00 -0.17345030733E+03  0.17345030740E+03  0.50400001928E-02 0. -1.
    10030    2    1    2    0    0  0.00000000000E+00  0.00000000000E+00  0.15644001048E+04  0.19113007195E+04  0.10980540754E+04 0.  0.
        2    1    3    3  502    0 -0.18936567320E+02  0.32754561030E+03  0.15484429432E+04  0.15828203527E+04  0.25500000920E-02 0.  1.
       -2    1    3    3    0  502  0.18936567320E+02 -0.32754561030E+03  0.15957161580E+02  0.32848036687E+03  0.25500000920E-02 0. -1.
</event>
<event>
 5   0  0.2298958E-03  0.1108236E+04  0.7818609E-02  0.9197202E-01
       -1   -1    0    0    0  501  0.00000000000E+00  0.00000000000E+00  0.50063057002E+03  0.50063057005E+03  0.50400001928E-02 0. -1.
        1   -1    0    0  501    0  0.00000000000E+00  0.00000000000E+00 -0.61331970964E+03  0.61331970966E+03  0.50400001928E-02 0.  1.
    10030    2    1    2    0    0  0.00000000000E+00  0.00000000000E+00 -0.11268913962E+03  0.11139502797E+04  0.11082357075E+04 0.  0.
        1    1    3    3  502    0 -0.44193099760E+02 -0.24338213624E+02  0.49831713765E+03  0.50086460087E+03  0.50400001928E-02 0. -1.
       -1    1    3    3    0  502  0.44193099760E+02  0.24338213624E+02 -0.61100627727E+03  0.61308567884E+03  0.50400001928E-02 0.  1.
</event>
<event>
 5   0  0.3748901E-03  0.1118941E+04  0.7818609E-02  0.9186925E-01
       -2   -1    0    0    0  501  0.00000000000E+00  0.00000000000E+00  0.17357480701E+03  0.17357480702E+03  0.25500000920E-02 0.  1.
        2   -1    0    0  501    0  0.00000000000E+00  0.00000000000E+00 -0.18032986644E+04  0.18032986644E+04  0.25500000920E-02 0. -1.
    10030    2    1    2    0    0  0.00000000000E+00  0.00000000000E+00 -0.16297238574E+04  0.19768734715E+04  0.11189409594E+04 0.  0.
        5    1    3    3  502    0  0.22258660944E+03  0.42830402147E+02 -0.17185019498E+04  0.17333927089E+04  0.46999998093E+01 0. -1.
       -5    1    3    3    0  502 -0.22258660944E+03 -0.42830402147E+02  0.88778092322E+02  0.24348076254E+03  0.46999998093E+01 0.  1.
</event>
<event>
 5   0  0.2300702E-03  0.1092224E+04  0.7818609E-02  0.9212804E-01
       -1   -1    0    0    0  501  0.00000000000E+00  0.00000000000E+00  0.29788435895E+03  0.29788435899E+03  0.50400001928E-02 0. -1.
        1   -1    0    0  501    0  0.00000000000E+00  0.00000000000E+00 -0.10011885791E+04  0.10011885791E+04  0.50400001928E-02 0.  1.
    10030    2    1    2    0    0  0.00000000000E+00  0.00000000000E+00 -0.70330422011E+03  0.12990729381E+04  0.10922241860E+04 0.  0.
        5    1    3    3  502    0 -0.28591630672E+03 -0.16686504376E+03 -0.86821179732E+03  0.92919636906E+03  0.46999998093E+01 0.  1.
       -5    1    3    3    0  502  0.28591630672E+03  0.16686504376E+03  0.16490757721E+03  0.36987656900E+03  0.46999998093E+01 0. -1.
</event>
<event>
 5   0  0.2255788E-03  0.1102144E+04  0.7818609E-02  0.9203104E-01
       -1   -1    0    0    0  501  0.00000000000E+00  0.00000000000E+00  0.42826250709E+03  0.42826250712E+03  0.50400001928E-02 0. -1.
        1   -1    0    0  501    0  0.00000000000E+00  0.00000000000E+00 -0.70909913644E+03  0.70909913646E+03  0.50400001928E-02 0.  1.
    10030    2    1    2    0    0  0.00000000000E+00  0.00000000000E+00 -0.28083662935E+03  0.11373616436E+04  0.11021444079E+04 0.  0.
        3    1    3    3  502    0  0.10902993601E+03  0.49676578380E+03 -0.35936952599E+03  0.62274411865E+03  0.10100000352E+00 0.  1.
       -3    1    3    3    0  502 -0.10902993601E+03 -0.49676578380E+03  0.78532896642E+02  0.51461752493E+03  0.10100000352E+00 0. -1.
</event>
<event>
 5   0  0.3992414E-03  0.1100717E+04  0.7818609E-02  0.9204493E-01
       -2   -1    0    0    0  501  0.00000000000E+00  0.00000000000E+00  0.58925208563E+03  0.58925208563E+03  0.25500000920E-02 0.  1.
        2   -1    0    0  501    0  0.00000000000E+00  0.00000000000E+00 -0.51403250379E+03  0.51403250380E+03  0.25500000920E-02 0. -1.
    10030    2    1    2    0    0  0.00000000000E+00  0.00000000000E+00  0.75219581838E+02  0.11032845894E+04  0.11007174478E+04 0.  0.
        1    1    3    3  502    0 -0.41708161826E+03 -0.24929898646E+03 -0.22142603194E+03  0.53398178675E+03  0.50400001928E-02 0. -1.
       -1    1    3    3    0  502  0.41708161826E+03  0.24929898646E+03  0.29664561378E+03  0.56930280268E+03  0.50400001928E-02 0.  1.
</event>
<event>
 5   0  0.2298958E-03  0.1102426E+04  0.7818609E-02  0.9202830E-01
        1   -1    0    0  501    0  0.00000000000E+00  0.00000000000E+00  0.54771099438E+03  0.54771099441E+03  0.50400001928E-02 0. -1.
       -1   -1    0    0    0  501  0.00000000000E+00  0.00000000000E+00 -0.55473753751E+03  0.55473753753E+03  0.50400001928E-02 0.  1.
    10030    2    1    2    0    0  0.00000000000E+00  0.00000000000E+00 -0.70265431295E+01  0.11024485319E+04  0.11024261396E+04 0.  0.
        1    1    3    3  502    0  0.26885328883E+03  0.64250001181E+02 -0.48041465939E+03  0.55426383478E+03  0.50400001928E-02 0.  1.
       -1    1    3    3    0  502 -0.26885328883E+03 -0.64250001181E+02  0.47338811626E+03  0.54818469716E+03  0.50400001928E-02 0. -1.
</event>
<event>
 5   0  0.3962999E-03  0.1072193E+04  0.7818609E-02  0.9232726E-01
       -2   -1    0    0    0  501  0.00000000000E+00  0.00000000000E+00  0.45512562925E+03  0.45512562926E+03  0.25500000920E-02 0.  1.
        2   -1    0    0  501    0  0.00000000000E+00  0.00000000000E+00 -0.63147271768E+03  0.63147271769E+03  0.25500000920E-02 0. -1.
    10030    2    1    2    0    0  0.00000000000E+00  0.00000000000E+00 -0.17634708843E+03  0.10865983469E+04  0.10721929267E+04 0.  0.
        3    1    3    3  502    0  0.10925532845E+03  0.44168492939E+03 -0.37549117712E+03  0.58992875667E+03  0.10100000352E+00 0. -1.
       -3    1    3    3    0  502 -0.10925532845E+03 -0.44168492939E+03  0.19914408870E+03  0.49666959028E+03  0.10100000352E+00 0.  1.
</event>
<event>
 5   0  0.2298958E-03  0.1105218E+04  0.7818609E-02  0.9200121E-01
        1   -1    0    0  501    0  0.00000000000E+00  0.00000000000E+00  0.92405122372E+03  0.92405122373E+03  0.50400001928E-02 0.  1.
       -1   -1    0    0    0  501  0.00000000000E+00  0.00000000000E+00 -0.33047602485E+03  0.33047602488E+03  0.50400001928E-02 0. -1.
    10030    2    1    2    0    0  0.00000000000E+00  0.00000000000E+00  0.59357519887E+03  0.12545272486E+04  0.11052181236E+04 0.  0.
        1    1    3    3  502    0  0.46760684439E+03 -0.13266292676E+02 -0.37139863425E+02  0.46926700814E+03  0.50400001928E-02 0. -1.
       -1    1    3    3    0  502 -0.46760684439E+03  0.13266292676E+02  0.63071506229E+03  0.78526024048E+03  0.50400001928E-02 0.  1.
</event>
<event>
 5   0  0.2257667E-03  0.1096482E+04  0.7818609E-02  0.9208628E-01
       -1   -1    0    0    0  501  0.00000000000E+00  0.00000000000E+00  0.28848077138E+03  0.28848077142E+03  0.50400001928E-02 0.  1.
        1   -1    0    0  501    0  0.00000000000E+00  0.00000000000E+00 -0.10418999366E+04  0.10418999366E+04  0.50400001928E-02 0. -1.
    10030    2    1    2    0    0  0.00000000000E+00  0.00000000000E+00 -0.75341916518E+03  0.13303807080E+04  0.10964818237E+04 0.  0.
        4    1    3    3  502    0  0.33841087343E+03  0.39786648165E+03 -0.57881649766E+03  0.77964723263E+03  0.12699999809E+01 0. -1.
       -4    1    3    3    0  502 -0.33841087343E+03 -0.39786648165E+03 -0.17460266752E+03  0.55073347536E+03  0.12699999809E+01 0.  1.
</event>
<event>
 5   0  0.3992414E-03  0.1100609E+04  0.7818609E-02  0.9204598E-01
       -2   -1    0    0    0  501  0.00000000000E+00  0.00000000000E+00  0.22775124706E+03  0.22775124708E+03  0.25500000920E-02 0. -1.
        2   -1    0    0  501    0  0.00000000000E+00  0.00000000000E+00 -0.13296749944E+04  0.13296749944E+04  0.25500000920E-02 0.  1.
    10030    2    1    2    0    0  0.00000000000E+00  0.00000000000E+00 -0.11019237473E+04  0.15574262415E+04  0.11006091735E+04 0.  0.
        1    1    3    3  502    0 -0.16517963336E+03 -0.32776655696E+03 -0.11311701713E+04  0.11892271371E+04  0.50400001928E-02 0.  1.
       -1    1    3    3    0  502  0.16517963336E+03  0.32776655696E+03  0.29246423947E+02  0.36819910440E+03  0.50400001928E-02 0. -1.
</event>
<event>
 5   0  0.2298958E-03  0.1101709E+04  0.7818609E-02  0.9203528E-01
        1   -1    0    0  501    0  0.00000000000E+00  0.00000000000E+00  0.62912139116E+03  0.62912139118E+03  0.50400001928E-02 0. -1.
       -1   -1    0    0    0  501  0.00000000000E+00  0.00000000000E+00 -0.48232467896E+03  0.48232467899E+03  0.50400001928E-02 0.  1.
    10030    2    1    2    0    0  0.00000000000E+00  0.00000000000E+00  0.14679671220E+03  0.11114460702E+04  0.11017091686E+04 0.  0.
        1    1    3    3  502    0  0.31533394012E+03 -0.14264582889E+03 -0.35894192645E+03  0.49862073050E+03  0.50400001928E-02 0.  1.
       -1    1    3    3    0  502 -0.31533394012E+03  0.14264582889E+03  0.50573863865E+03  0.61282533967E+03  0.50400001928E-02 0. -1.
</event>
<event>
 5   0  0.2298958E-03  0.1087222E+04  0.7818609E-02  0.9217736E-01
        1   -1    0    0  501    0  0.00000000000E+00  0.00000000000E+00  0.30537131451E+03  0.30537131456E+03  0.50400001928E-02 0.  1.
       -1   -1    0    0    0  501  0.00000000000E+00  0.00000000000E+00 -0.96771725951E+03  0.96771725952E+03  0.50400001928E-02 0. -1.
    10030    2    1    2    0    0  0.00000000000E+00  0.00000000000E+00 -0.66234594500E+03  0.12730885741E+04  0.10872223170E+04 0.  0.
        1    1    3    3  502    0  0.94681079614E+02  0.43320130551E+03 -0.69939175710E+03  0.82811636130E+03  0.50400001928E-02 0. -1.
       -1    1    3    3    0  502 -0.94681079614E+02 -0.43320130551E+03  0.37045812099E+02  0.44497221278E+03  0.50400001928E-02 0.  1.
</event>
<event>
 5   0  0.3962999E-03  0.1086993E+04  0.7818609E-02  0.9217963E-01
        2   -1    0    0  501    0  0.00000000000E+00  0.00000000000E+00  0.16106082332E+04  0.16106082332E+04  0.25500000920E-02 0.  1.
       -2   -1    0    0    0  501  0.00000000000E+00  0.00000000000E+00 -0.18340185471E+03  0.18340185472E+03  0.25500000920E-02 0. -1.
    10030    2    1    2    0    0  0.00000000000E+00  0.00000000000E+00  0.14272063785E+04  0.17940100880E+04  0.10869931687E+04 0.  0.
        3    1    3    3  502    0 -0.49434367655E+03  0.79610762197E+02  0.10624463911E+04  0.11745236857E+04  0.10100000352E+00 0.  1.
       -3    1    3    3    0  502  0.49434367655E+03 -0.79610762197E+02  0.36475998740E+03  0.61948640228E+03  0.10100000352E+00 0. -1.
</event>
<event>
 5   0  0.3748901E-03  0.1113175E+04  0.7818609E-02  0.9192445E-01
       -2   -1    0    0    0  501  0.00000000000E+00  0.00000000000E+00  0.42968422032E+03  0.42968422033E+03  0.25500000920E-02 0.  1.
        2   -1    0    0  501    0  0.00000000000E+00  0.00000000000E+00 -0.72097009439E+03  0.72097009439E+03  0.25500000920E-02 0. -1.
    10030    2    1    2    0    0  0.00000000000E+00  0.00000000000E+00 -0.29128587407E+03  0.11506543147E+04  0.11131746905E+04 0.  0.
        5    1    3    3  502    0  0.23459880218E+03 -0.47429715628E+03 -0.32400101779E+03  0.62047815430E+03  0.46999998093E+01 0. -1.
       -5    1    3    3    0  502 -0.23459880218E+03  0.47429715628E+03  0.32715143724E+02  0.53017616041E+03  0.46999998093E+01 0.  1.
</event>
<event>
 5   0  0.3744875E-03  0.1074514E+04  0.7818609E-02  0.9230394E-01
       -2   -1    0    0    0  501  0.00000000000E+00  0.00000000000E+00  0.50515555962E+03  0.50515555962E+03  0.25500000920E-02 0. -1.
        2   -1    0    0  501    0  0.00000000000E+00  0.00000000000E+00 -0.57139893073E+03  0.57139893074E+03  0.25500000920E-02 0.  1.
    10030    2    1    2    0    0  0.00000000000E+00  0.00000000000E+00 -0.66243371113E+02  0.10765544904E+04  0.10745144887E+04 0.  0.
        2    1    3    3  502    0  0.48873691349E+03  0.16783245161E+03 -0.18041727718E+03  0.54734074975E+03  0.25500000920E-02 0.  1.
       -2    1    3    3    0  502 -0.48873691349E+03 -0.16783245161E+03  0.11417390607E+03  0.52921374061E+03  0.25500000920E-02 0. -1.
</event>
<event>
 5   0  0.3744875E-03  0.1089686E+04  0.7818609E-02  0.9215303E-01
        2   -1    0    0  501    0  0.00000000000E+00  0.00000000000E+00  0.16033623647E+04  0.16033623648E+04  0.25500000920E-02 0. -1.
       -2   -1    0    0    0  501  0.00000000000E+00  0.00000000000E+00 -0.18514453281E+03  0.18514453283E+03  0.25500000920E-02 0.  1.
    10030    2    1    2    0    0  0.00000000000E+00  0.00000000000E+00  0.14182178319E+04  0.17885068976E+04  0.10896857822E+04 0.  0.
        2    1    3    3  502    0 -0.38361860834E+03  0.38687736448E+03  0.71576463723E+03  0.89953118218E+03  0.25500000920E-02 0. -1.
       -2    1    3    3    0  502  0.38361860834E+03 -0.38687736448E+03  0.70245319471E+03  0.88897571540E+03  0.25500000920E-02 0.  1.
</event>
<event>
 5   0  0.3962999E-03  0.1091986E+04  0.7818609E-02  0.9213038E-01
       -2   -1    0    0    0  501  0.00000000000E+00  0.00000000000E+00  0.27766341147E+03  0.27766341148E+03  0.25500000920E-02 0. -1.
        2   -1    0    0  501    0  0.00000000000E+00  0.00000000000E+00 -0.10736316728E+04  0.10736316728E+04  0.25500000920E-02 0.  1.
    10030    2    1    2    0    0  0.00000000000E+00  0.00000000000E+00 -0.79596826129E+03  0.13512950842E+04  0.10919857745E+04 0.  0.
        3    1    3    3  502    0  0.25809027251E+03  0.25925910167E+03 -0.89955080430E+03  0.97109089702E+03  0.10100000352E+00 0.  1.
       -3    1    3    3    0  502 -0.25809027251E+03 -0.25925910167E+03  0.10358254301E+03  0.38020418722E+03  0.10100000352E+00 0. -1.
</event>
<event>
 5   0  0.2374100E-03  0.1092801E+04  0.7818609E-02  0.9212237E-01
       -1   -1    0    0    0  501  0.00000000000E+00  0.00000000000E+00  0.83821902740E+03  0.83821902742E+03  0.50400001928E-02 0.  1.
        1   -1    0    0  501    0  0.00000000000E+00  0.00000000000E+00 -0.35617620577E+03  0.35617620581E+03  0.50400001928E-02 0. -1.
    10030    2    1    2    0    0  0.00000000000E+00  0.00000000000E+00  0.48204282163E+03  0.11943952332E+04  0.10928013046E+04 0.  0.
        2    1    3    3  502    0  0.92606931780E+02 -0.33455764276E+03  0.70220771078E+03  0.78332657891E+03  0.25500000920E-02 0.  1.
       -2    1    3    3    0  502 -0.92606931780E+02  0.33455764276E+03 -0.22016488915E+03  0.41106865432E+03  0.25500000920E-02 0. -1.
</event>
<event>
 5   0  0.3992414E-03  0.1095726E+04  0.7818609E-02  0.9209368E-01
       -2   -1    0    0    0  501  0.00000000000E+00  0.00000000000E+00  0.22312599426E+03  0.22312599428E+03  0.25500000920E-02 0.  1.
        2   -1    0    0  501    0  0.00000000000E+00  0.00000000000E+00 -0.13452215020E+04  0.13452215020E+04  0.25500000920E-02 0. -1.
    10030    2    1    2    0    0  0.00000000000E+00  0.00000000000E+00 -0.11220955077E+04  0.15683474963E+04  0.10957260336E+04 0.  0.
        1    1    3    3  502    0  0.10245541404E+03 -0.23014522365E+02  0.20858708497E+03  0.23352805430E+03  0.50400001928E-02 0.  1.
       -1    1    3    3    0  502 -0.10245541404E+03  0.23014522365E+02 -0.13306825927E+04  0.13348194420E+04  0.50400001928E-02 0. -1.
</event>
<event>
 5   0  0.2298958E-03  0.1100988E+04  0.7818609E-02  0.9204229E-01
        1   -1    0    0  501    0  0.00000000000E+00  0.00000000000E+00  0.58830992584E+03  0.58830992586E+03  0.50400001928E-02 0. -1.
       -1   -1    0    0    0  501  0.00000000000E+00  0.00000000000E+00 -0.51510888644E+03  0.51510888647E+03  0.50400001928E-02 0.  1.
    10030    2    1    2    0    0  0.00000000000E+00  0.00000000000E+00  0.73201039395E+02  0.11034188123E+04  0.11009880486E+04 0.  0.
        1    1    3    3  502    0 -0.24674154940E+03  0.49140211884E+03  0.62854465568E+02  0.55345109853E+03  0.50400001928E-02 0. -1.
       -1    1    3    3    0  502  0.24674154940E+03 -0.49140211884E+03  0.10346573827E+02  0.54996771379E+03  0.50400001928E-02 0.  1.
</event>
<event>
 5   0  0.2255788E-03  0.1101831E+04  0.7818609E-02  0.9203409E-01
       -1   -1    0    0    0  501  0.00000000000E+00  0.00000000000E+00  0.29716515715E+03  0.29716515719E+03  0.50400001928E-02 0. -1.
        1   -1    0    0  501    0  0.00000000000E+00  0.00000000000E+00 -0.10213433438E+04  0.10213433438E+04  0.50400001928E-02 0.  1.
    10030    2    1    2    0    0  0.00000000000E+00  0.00000000000E+00 -0.72417818665E+03  0.13185085010E+04  0.11018305774E+04 0.  0.
        3    1    3    3  502    0  0.35856697716E+03  0.16233899738E+03  0.99178863125E+02  0.40590723604E+03  0.10100000352E+00 0. -1.
       -3    1    3    3    0  502 -0.35856697716E+03 -0.16233899738E+03 -0.82335704978E+03  0.91260126496E+03  0.10100000352E+00 0.  1.
</event>
<event>
 5   0  0.2257667E-03  0.1093595E+04  0.7818609E-02  0.9211457E-01
        1   -1    0    0  501    0  0.00000000000E+00  0.00000000000E+00  0.54729878868E+03  0.54729878871E+03  0.50400001928E-02 0.  1.
       -1   -1    0    0    0  501  0.00000000000E+00  0.00000000000E+00 -0.54629658510E+03  0.54629658513E+03  0.50400001928E-02 0. -1.
    10030    2    1    2    0    0  0.00000000000E+00  0.00000000000E+00  0.10022035813E+01  0.10935953738E+04  0.10935949146E+04 0.  0.
        4    1    3    3  502    0  0.21939156824E+03 -0.45472897607E+03  0.21044104925E+03  0.54699008218E+03  0.12699999809E+01 0.  1.
       -4    1    3    3    0  502 -0.21939156824E+03  0.45472897607E+03 -0.20943884567E+03  0.54660529166E+03  0.12699999809E+01 0. -1.
</event>
<event>
 5   0  0.3713158E-03  0.1061183E+04  0.7818609E-02  0.9243873E-01
        2   -1    0    0  501    0  0.00000000000E+00  0.00000000000E+00  0.74110498205E+03  0.74110498205E+03  0.25500000920E-02 0. -1.
       -2   -1    0    0    0  501  0.00000000000E+00  0.00000000000E+00 -0.37987544987E+03  0.37987544987E+03  0.25500000920E-02 0.  1.
    10030    2    1    2    0    0  0.00000000000E+00  0.00000000000E+00  0.36122953218E+03  0.11209804319E+04  0.10611834685E+04 0.  0.
        4    1    3    3  502    0 -0.51285491000E+03  0.81591142451E+02  0.29560023220E+03  0.59754362470E+03  0.12699999809E+01 0.  1.
       -4    1    3    3    0  502  0.51285491000E+03 -0.81591142451E+02  0.65629299980E+02  0.52343680723E+03  0.12699999809E+01 0. -1.
</event>
<event>
 5   0  0.2255788E-03  0.1097208E+04  0.7818609E-02  0.9207918E-01
       -1   -1    0    0    0  501  0.00000000000E+00  0.00000000000E+00  0.53649858237E+03  0.53649858239E+03  0.50400001928E-02 0.  1.
        1   -1    0    0  501    0  0.00000000000E+00  0.00000000000E+00 -0.56098209159E+03  0.56098209161E+03  0.50400001928E-02 0. -1.
    10030    2    1    2    0    0  0.00000000000E+00  0.00000000000E+00 -0.24483509214E+02  0.10974806740E+04  0.10972075408E+04 0.  0.
        3    1    3    3  502    0 -0.11565998729E+03 -0.25519133038E+03  0.45953892741E+03  0.53821546221E+03  0.10100000352E+00 0.  1.
       -3    1    3    3    0  502  0.11565998729E+03  0.25519133038E+03 -0.48402243662E+03  0.55926521179E+03  0.10100000352E+00 0. -1.
</event>
<event>
 5   0  0.3748901E-03  0.1115552E+04  0.7818609E-02  0.9190165E-01
        2   -1    0    0  501    0  0.00000000000E+00  0.00000000000E+00  0.14801867543E+04  0.14801867543E+04  0.25500000920E-02 0.  1.
       -2   -1    0    0    0  501  0.00000000000E+00  0.00000000000E+00 -0.21018560386E+03  0.21018560388E+03  0.25500000920E-02 0. -1.
    10030    2    1    2    0    0  0.00000000000E+00  0.00000000000E+00  0.12700011505E+04  0.16903723582E+04  0.11155517860E+04 0.  0.
        5    1    3    3  502    0 -0.13097575478E+03  0.35252587420E+03  0.10855059539E+02  0.37625664465E+03  0.46999998093E+01 0. -1.
       -5    1    3    3    0  502  0.13097575478E+03 -0.35252587420E+03  0.12591460909E+04  0.13141157136E+04  0.46999998093E+01 0.  1.
</event>
<event>
 5   0  0.2255788E-03  0.1109316E+04  0.7818609E-02  0.9196159E-01
        1   -1    0    0  501    0  0.00000000000E+00  0.00000000000E+00  0.17648525044E+04  0.17648525044E+04  0.50400001928E-02 0.  1.
       -1   -1    0    0    0  501  0.00000000000E+00  0.00000000000E+00 -0.17431798509E+03  0.17431798516E+03  0.50400001928E-02 0. -1.
    10030    2    1    2    0    0  0.00000000000E+00  0.00000000000E+00  0.15905345193E+04  0.19391704895E+04  0.11093160643E+04 0.  0.
        3    1    3    3  502    0  0.30525165559E+02 -0.26329631228E+03 -0.56440871443E+02  0.27100242796E+03  0.10100000352E+00 0. -1.
       -3    1    3    3    0  502 -0.30525165559E+02  0.26329631228E+03  0.16469753907E+04  0.16681680616E+04  0.10100000352E+00 0.  1.
</event>
<event>
 5   0  0.3992414E-03  0.1099472E+04  0.7818609E-02  0.9205706E-01
       -2   -1    0    0    0  501  0.00000000000E+00  0.00000000000E+00  0.45933123192E+03  0.45933123193E+03  0.25500000920E-02 0. -1.
        2   -1    0    0  501    0  0.00000000000E+00  0.00000000000E+00 -0.65793430768E+03  0.65793430768E+03  0.25500000920E-02 0.  1.
    10030    2    1    2    0    0  0.00000000000E+00  0.00000000000E+00 -0.19860307576E+03  0.11172655396E+04  0.10994721935E+04 0.  0.
        1    1    3    3  502    0 -0.34515053899E+03  0.35249283952E+03 -0.34577513029E+03  0.60244546411E+03  0.50400001928E-02 0.  1.
       -1    1    3    3    0  502  0.34515053899E+03 -0.35249283952E+03  0.14717205453E+03  0.51482007550E+03  0.50400001928E-02 0. -1.
</event>
<event>
 5   0  0.2255788E-03  0.1312643E+04  0.7818609E-02  0.9019599E-01
       -1   -1    0    0    0  501  0.00000000000E+00  0.00000000000E+00  0.12296986397E+04  0.12296986397E+04  0.50400001928E-02 0. -1.
        1   -1    0    0  501    0  0.00000000000E+00  0.00000000000E+00 -0.35029532818E+03  0.35029532822E+03  0.50400001928E-02 0.  1.
    10030    2    1    2    0    0  0.00000000000E+00  0.00000000000E+00  0.87940331149E+03  0.15799939679E+04  0.13126426606E+04 0.  0.
        3    1    3    3  502    0  0.61308142096E+03 -0.20362539962E+03  0.57916975989E+03  0.86762304780E+03  0.10100000352E+00 0. -1.
       -3    1    3    3    0  502 -0.61308142096E+03  0.20362539962E+03  0.30023355160E+03  0.71237092010E+03  0.10100000352E+00 0.  1.
</event>
<event>
 5   0  0.3748901E-03  0.1083901E+04  0.7818609E-02  0.9221027E-01
       -2   -1    0    0    0  501  0.00000000000E+00  0.00000000000E+00  0.68503481499E+03  0.68503481499E+03  0.25500000920E-02 0. -1.
        2   -1    0    0  501    0  0.00000000000E+00  0.00000000000E+00 -0.42875223168E+03  0.42875223169E+03  0.25500000920E-02 0.  1.
    10030    2    1    2    0    0  0.00000000000E+00  0.00000000000E+00  0.25628258331E+03  0.11137870467E+04  0.10839007440E+04 0.  0.
        5    1    3    3  502    0  0.10976378657E+03  0.22357332302E+02 -0.41670513253E+03  0.43152427119E+03  0.46999998093E+01 0.  1.
       -5    1    3    3    0  502 -0.10976378657E+03 -0.22357332302E+02  0.67298771584E+03  0.68226277549E+03  0.46999998093E+01 0. -1.
</event>
<event>
 5   0  0.3962999E-03  0.1104000E+04  0.7818609E-02  0.9201302E-01
       -2   -1    0    0    0  501  0.00000000000E+00  0.00000000000E+00  0.43226558324E+03  0.43226558325E+03  0.25500000920E-02 0.  1.
        2   -1    0    0  501    0  0.00000000000E+00  0.00000000000E+00 -0.70489943257E+03  0.70489943257E+03  0.25500000920E-02 0. -1.
    10030    2    1    2    0    0  0.00000000000E+00  0.00000000000E+00 -0.27263384933E+03  0.11371650158E+04  0.11039995731E+04 0.  0.
        3    1    3    3  502    0  0.12898789578E+03 -0.30732457366E+03 -0.58955550479E+03  0.67724587430E+03  0.10100000352E+00 0. -1.
       -3    1    3    3    0  502 -0.12898789578E+03  0.30732457366E+03  0.31692165546E+03  0.45991914151E+03  0.10100000352E+00 0.  1.
</event>
<event>
 5   0  0.3962999E-03  0.1091145E+04  0.7818609E-02  0.9213866E-01
       -2   -1    0    0    0  501  0.00000000000E+00  0.00000000000E+00  0.26440976559E+03  0.26440976560E+03  0.25500000920E-02 0. -1.
        2   -1    0    0  501    0  0.00000000000E+00  0.00000000000E+00 -0.11257117460E+04  0.11257117460E+04  0.25500000920E-02 0.  1.
    10030    2    1    2    0    0  0.00000000000E+00  0.00000000000E+00 -0.86130198040E+03  0.13901215116E+04  0.10911446813E+04 0.  0.
        3    1    3    3  502    0  0.48517901310E+02  0.38195292442E+03  0.61792168100E+02  0.38994910624E+03  0.10100000352E+00 0. -1.
       -3    1    3    3    0  502 -0.48517901310E+02 -0.38195292442E+03 -0.92309414850E+03  0.10001724054E+04  0.10100000352E+00 0.  1.
</event>
<event>
 5   0  0.2257667E-03  0.1093597E+04  0.7818609E-02  0.9211455E-01
        1   -1    0    0  501    0  0.00000000000E+00  0.00000000000E+00  0.26607569525E+03  0.26607569529E+03  0.50400001928E-02 0.  1.
       -1   -1    0    0    0  501  0.00000000000E+00  0.00000000000E+00 -0.11236981256E+04  0.11236981256E+04  0.50400001928E-02 0. -1.
    10030    2    1    2    0    0  0.00000000000E+00  0.00000000000E+00 -0.85762243039E+03  0.13897738209E+04  0.10935972935E+04 0.  0.
        4    1    3    3  502    0  0.36723397141E+02 -0.14698045488E+03 -0.10964921883E+04  0.11069094786E+04  0.12699999809E+01 0. -1.
       -4    1    3    3    0  502 -0.36723397141E+02  0.14698045488E+03  0.23886975790E+03  0.28286434231E+03  0.12699999809E+01 0.  1.
</event>
<event>
 5   0  0.2257667E-03  0.1010101E+04  0.7818609E-02  0.9297535E-01
       -1   -1    0    0    0  501  0.00000000000E+00  0.00000000000E+00  0.53831047323E+03  0.53831047325E+03  0.50400001928E-02 0.  1.
        1   -1    0    0  501    0  0.00000000000E+00  0.00000000000E+00 -0.47384598398E+03  0.47384598401E+03  0.50400001928E-02 0. -1.
    10030    2    1    2    0    0  0.00000000000E+00  0.00000000000E+00  0.64464489249E+02  0.10121564573E+04  0.10101014917E+04 0.  0.
        4    1    3    3  502    0 -0.25649752784E+03 -0.88662168139E+02  0.45903619265E+03  0.53326147517E+03  0.12699999809E+01 0.  1.
       -4    1    3    3    0  502  0.25649752784E+03  0.88662168139E+02 -0.39457170340E+03  0.47889498209E+03  0.12699999809E+01 0. -1.
</event>
<event>
 5   0  0.2298958E-03  0.1158972E+04  0.7818609E-02  0.9149546E-01
       -1   -1    0    0    0  501  0.00000000000E+00  0.00000000000E+00  0.45853781572E+03  0.45853781574E+03  0.50400001928E-02 0.  1.
        1   -1    0    0  501    0  0.00000000000E+00  0.00000000000E+00 -0.73233630156E+03  0.73233630158E+03  0.50400001928E-02 0. -1.
    10030    2    1    2    0    0  0.00000000000E+00  0.00000000000E+00 -0.27379848584E+03  0.11908741173E+04  0.11589717652E+04 0.  0.
        1    1    3    3  502    0  0.22686737843E+03  0.51712739446E+03 -0.27053433294E+03  0.62616162037E+03  0.50400001928E-02 0. -1.
       -1    1    3    3    0  502 -0.22686737843E+03 -0.51712739446E+03 -0.32641529034E+01  0.56471249695E+03  0.50400001928E-02 0.  1.
</event>
<event>
 5   0  0.2300702E-03  0.1086403E+04  0.7818609E-02  0.9218546E-01
       -1   -1    0    0    0  501  0.00000000000E+00  0.00000000000E+00  0.23351917314E+03  0.23351917320E+03  0.50400001928E-02 0. -1.
        1   -1    0    0  501    0  0.00000000000E+00  0.00000000000E+00 -0.12635711113E+04  0.12635711114E+04  0.50400001928E-02 0.  1.
    10030    2    1    2    0    0  0.00000000000E+00  0.00000000000E+00 -0.10300519382E+04  0.14970902845E+04  0.10864033895E+04 0.  0.
        5    1    3    3  502    0  0.13613536823E+03  0.64880934229E+02  0.20406458707E+03  0.25378498735E+03  0.46999998093E+01 0. -1.
       -5    1    3    3    0  502 -0.13613536823E+03 -0.64880934229E+02 -0.12341165253E+04  0.12433052972E+04  0.46999998093E+01 0.  1.
</event>
<event>
 5   0  0.2255788E-03  0.1123553E+04  0.7818609E-02  0.9182534E-01
       -1   -1    0    0    0  501  0.00000000000E+00  0.00000000000E+00  0.50650734158E+03  0.50650734160E+03  0.50400001928E-02 0. -1.
        1   -1    0    0  501    0  0.00000000000E+00  0.00000000000E+00 -0.62307689451E+03  0.62307689453E+03  0.50400001928E-02 0.  1.
    10030    2    1    2    0    0  0.00000000000E+00  0.00000000000E+00 -0.11656955293E+03  0.11295842361E+04  0.11235533302E+04 0.  0.
        3    1    3    3  502    0  0.35956168135E+03  0.20956535908E+03  0.32108772585E+03  0.52564206482E+03  0.10100000352E+00 0. -1.
       -3    1    3    3    0  502 -0.35956168135E+03 -0.20956535908E+03 -0.43765727878E+03  0.60394217131E+03  0.10100000352E+00 0.  1.
</event>
<event>
 5   0  0.2374100E-03  0.1098219E+04  0.7818609E-02  0.9206930E-01
        1   -1    0    0  501    0  0.00000000000E+00  0.00000000000E+00  0.54979971794E+03  0.54979971796E+03  0.50400001928E-02 0.  1.
       -1   -1    0    0    0  501  0.00000000000E+00  0.00000000000E+00 -0.54841982255E+03  0.54841982257E+03  0.50400001928E-02 0. -1.
    10030    2    1    2    0    0  0.00000000000E+00  0.00000000000E+00  0.13798953849E+01  0.10982195405E+04  0.10982186736E+04 0.  0.
        2    1    3    3  502    0 -0.35933608883E+03  0.18191568922E+03 -0.37254662739E+03  0.54864080445E+03  0.25500000920E-02 0. -1.
       -2    1    3    3    0  502  0.35933608883E+03 -0.18191568922E+03  0.37392652277E+03  0.54957873609E+03  0.25500000920E-02 0.  1.
</event>
<event>
 5   0  0.2374100E-03  0.1108704E+04  0.7818609E-02  0.9196750E-01
        1   -1    0    0  501    0  0.00000000000E+00  0.00000000000E+00  0.61298905586E+03  0.61298905588E+03  0.50400001928E-02 0. -1.
       -1   -1    0    0    0  501  0.00000000000E+00  0.00000000000E+00 -0.50132368586E+03  0.50132368588E+03  0.50400001928E-02 0.  1.
    10030    2    1    2    0    0  0.00000000000E+00  0.00000000000E+00  0.11166537000E+03  0.11143127418E+04  0.11087036266E+04 0.  0.
        2    1    3    3  502    0 -0.18978174973E+03 -0.31800102069E+03 -0.35876387070E+03  0.51560961649E+03  0.25500000920E-02 0.  1.
       -2    1    3    3    0  502  0.18978174973E+03  0.31800102069E+03  0.47042924070E+03  0.59870312527E+03  0.25500000920E-02 0. -1.
</event>
<event>
 5   0  0.3744875E-03  0.1109289E+04  0.7818609E-02  0.9196185E-01
       -2   -1    0    0    0  501  0.00000000000E+00  0.00000000000E+00  0.14959234659E+03  0.14959234661E+03  0.25500000920E-02 0.  1.
        2   -1    0    0  501    0  0.00000000000E+00  0.00000000000E+00 -0.20564588838E+04  0.20564588838E+04  0.25500000920E-02 0. -1.
    10030    2    1    2    0    0  0.00000000000E+00  0.00000000000E+00 -0.19068665372E+04  0.22060512304E+04  0.11092889797E+04 0.  0.
        2    1    3    3  502    0  0.27940625226E+03  0.22524740135E+03 -0.17944149725E+04  0.18299533708E+04  0.25500000920E-02 0. -1.
       -2    1    3    3    0  502 -0.27940625226E+03 -0.22524740135E+03 -0.11245156470E+03  0.37609785964E+03  0.25500000920E-02 0.  1.
</event>
<event>
 5   0  0.2300702E-03  0.1104187E+04  0.7818609E-02  0.9201121E-01
        1   -1    0    0  501    0  0.00000000000E+00  0.00000000000E+00  0.90189310322E+03  0.90189310323E+03  0.50400001928E-02 0. -1.
       -1   -1    0    0    0  501  0.00000000000E+00  0.00000000000E+00 -0.33796358270E+03  0.33796358274E+03  0.50400001928E-02 0.  1.
    10030    2    1    2    0    0  0.00000000000E+00  0.00000000000E+00  0.56392952051E+03  0.12398566860E+04  0.11041866227E+04 0.  0.
        5    1    3    3  502    0 -0.47314830084E+03 -0.27691980022E+03  0.35500341772E+03  0.65314883980E+03  0.46999998093E+01 0. -1.
       -5    1    3    3    0  502  0.47314830084E+03  0.27691980022E+03  0.20892610279E+03  0.58670784617E+03  0.46999998093E+01 0.  1.
</event>
<event>
 5   0  0.2255788E-03  0.1104780E+04  0.7818609E-02  0.9200545E-01
        1   -1    0    0  501    0  0.00000000000E+00  0.00000000000E+00  0.14567744705E+04  0.14567744705E+04  0.50400001928E-02 0.  1.
       -1   -1    0    0    0  501  0.00000000000E+00  0.00000000000E+00 -0.20945929969E+03  0.20945929975E+03  0.50400001928E-02 0. -1.
    10030    2    1    2    0    0  0.00000000000E+00  0.00000000000E+00  0.12473151708E+04  0.16662337703E+04  0.11047804496E+04 0.  0.
        3    1    3    3  502    0  0.51545554870E+03  0.14813668728E+03  0.42416353375E+03  0.68377892214E+03  0.10100000352E+00 0. -1.
       -3    1    3    3    0  502 -0.51545554870E+03 -0.14813668728E+03  0.82315163709E+03  0.98245484815E+03  0.10100000352E+00 0.  1.
</event>
<event>
 5   0  0.3744875E-03  0.1107700E+04  0.7818609E-02  0.9197719E-01
       -2   -1    0    0    0  501  0.00000000000E+00  0.00000000000E+00  0.39825490100E+03  0.39825490100E+03  0.25500000920E-02 0.  1.
        2   -1    0    0  501    0  0.00000000000E+00  0.00000000000E+00 -0.77023505751E+03  0.77023505752E+03  0.25500000920E-02 0. -1.
    10030    2    1    2    0    0  0.00000000000E+00  0.00000000000E+00 -0.37198015652E+03  0.11684899585E+04  0.11077001157E+04 0.  0.
        2    1    3    3  502    0  0.53431993451E+03  0.14132720422E+03 -0.22371164732E+03  0.59625336244E+03  0.25500000920E-02 0.  1.
       -2    1    3    3    0  502 -0.53431993451E+03 -0.14132720422E+03 -0.14826850920E+03  0.57223659608E+03  0.25500000920E-02 0. -1.
</event>
<event>
 5   0  0.2374100E-03  0.1106870E+04  0.7818609E-02  0.9198522E-01
        1   -1    0    0  501    0  0.00000000000E+00  0.00000000000E+00  0.29783777544E+03  0.29783777548E+03  0.50400001928E-02 0. -1.
       -1   -1    0    0    0  501  0.00000000000E+00  0.00000000000E+00 -0.10283792227E+04  0.10283792227E+04  0.50400001928E-02 0.  1.
    10030    2    1    2    0    0  0.00000000000E+00  0.00000000000E+00 -0.73054144725E+03  0.13262169982E+04  0.11068697846E+04 0.  0.
        2    1    3    3  502    0 -0.81575908348E+02  0.32227526122E+03  0.16487564964E+03  0.37107944253E+03  0.25500000920E-02 0. -1.
       -2    1    3    3    0  502  0.81575908348E+02 -0.32227526122E+03 -0.89541709689E+03  0.95513755566E+03  0.25500000920E-02 0.  1.
</event>
<event>
 5   0  0.2255788E-03  0.1103706E+04  0.7818609E-02  0.9201588E-01
       -1   -1    0    0    0  501  0.00000000000E+00  0.00000000000E+00  0.54845939984E+03  0.54845939987E+03  0.50400001928E-02 0.  1.
        1   -1    0    0  501    0  0.00000000000E+00  0.00000000000E+00 -0.55526720144E+03  0.55526720146E+03  0.50400001928E-02 0. -1.
    10030    2    1    2    0    0  0.00000000000E+00  0.00000000000E+00 -0.68078015958E+01  0.11037266013E+04  0.11037056058E+04 0.  0.
        3    1    3    3  502    0 -0.24240933711E+03 -0.11076838633E+03 -0.48664138674E+03  0.55484391645E+03  0.10100000352E+00 0. -1.
       -3    1    3    3    0  502  0.24240933711E+03  0.11076838633E+03  0.47983358514E+03  0.54888268488E+03  0.10100000352E+00 0.  1.
</event>
<event>
 5   0  0.3992414E-03  0.1116288E+04  0.7818609E-02  0.9189460E-01
       -2   -1    0    0    0  501  0.00000000000E+00  0.00000000000E+00  0.29120452235E+03  0.29120452236E+03  0.25500000920E-02 0. -1.
        2   -1    0    0  501    0  0.00000000000E+00  0.00000000000E+00 -0.10697797616E+04  0.10697797616E+04  0.25500000920E-02 0.  1.
    10030    2    1    2    0    0  0.00000000000E+00  0.00000000000E+00 -0.77857523923E+03  0.13609842840E+04  0.11162879638E+04 0.  0.
        1    1    3    3  502    0 -0.22040525850E+03 -0.26001428586E+03 -0.92814163478E+03  0.98875315477E+03  0.50400001928E-02 0.  1.
       -1    1    3    3    0  502  0.22040525850E+03  0.26001428586E+03  0.14956639555E+03  0.37223112918E+03  0.50400001928E-02 0. -1.
</event>
<event>
 5   0  0.3744875E-03  0.1115447E+04  0.7818609E-02  0.9190266E-01
        2   -1    0    0  501    0  0.00000000000E+00  0.00000000000E+00  0.35390971802E+03  0.35390971803E+03  0.25500000920E-02 0. -1.
       -2   -1    0    0    0  501  0.00000000000E+00  0.00000000000E+00 -0.87891151316E+03  0.87891151317E+03  0.25500000920E-02 0.  1.
    10030    2    1    2    0    0  0.00000000000E+00  0.00000000000E+00 -0.52500179515E+03  0.12328212312E+04  0.11154466833E+04 0.  0.
        2    1    3    3  502    0 -0.28261035454E+03  0.37687730949E+03 -0.59249977784E+03  0.75694194338E+03  0.25500000920E-02 0.  1.
       -2    1    3    3    0  502  0.28261035454E+03 -0.37687730949E+03  0.67497982690E+02  0.47587928782E+03  0.25500000920E-02 0. -1.
</event>
<event>
 5   0  0.3713158E-03  0.1097795E+04  0.7818609E-02  0.9207344E-01
        2   -1    0    0  501    0  0.00000000000E+00  0.00000000000E+00  0.28281590444E+03  0.28281590445E+03  0.25500000920E-02 0.  1.
       -2   -1    0    0    0  501  0.00000000000E+00  0.00000000000E+00 -0.10653158981E+04  0.10653158981E+04  0.25500000920E-02 0. -1.
    10030    2    1    2    0    0  0.00000000000E+00  0.00000000000E+00 -0.78249999362E+03  0.13481318025E+04  0.10977946606E+04 0.  0.
        4    1    3    3  502    0  0.20723078822E+03  0.50825700815E+03 -0.38620451318E+03  0.67113733678E+03  0.12699999809E+01 0.  1.
       -4    1    3    3    0  502 -0.20723078822E+03 -0.50825700815E+03 -0.39629548043E+03  0.67699446573E+03  0.12699999809E+01 0. -1.
</event>
<event>
 5   0  0.3748901E-03  0.1099342E+04  0.7818609E-02  0.9205834E-01
       -2   -1    0    0    0  501  0.00000000000E+00  0.00000000000E+00  0.10448141410E+04  0.10448141410E+04  0.25500000920E-02 0.  1.
        2   -1    0    0  501    0  0.00000000000E+00  0.00000000000E+00 -0.28917865200E+03  0.28917865201E+03  0.25500000920E-02 0. -1.
    10030    2    1    2    0    0  0.00000000000E+00  0.00000000000E+00  0.75563548903E+03  0.13339927930E+04  0.10993415209E+04 0.  0.
        5    1    3    3  502    0  0.76713966142E+02 -0.25235126763E+03 -0.20734774666E+03  0.33553147828E+03  0.46999998093E+01 0. -1.
       -5    1    3    3    0  502 -0.76713966142E+02  0.25235126763E+03  0.96298323568E+03  0.99846131476E+03  0.46999998093E+01 0.  1.
</event>
<event>
 5   0  0.3713158E-03  0.1104635E+04  0.7818609E-02  0.9200686E-01
        2   -1    0    0  501    0  0.00000000000E+00  0.00000000000E+00  0.33470594512E+03  0.33470594513E+03  0.25500000920E-02 0. -1.
       -2   -1    0    0    0  501  0.00000000000E+00  0.00000000000E+00 -0.91141127442E+03  0.91141127442E+03  0.25500000920E-02 0.  1.
    10030    2    1    2    0    0  0.00000000000E+00  0.00000000000E+00 -0.57670532930E+03  0.12461172196E+04  0.11046352738E+04 0.  0.
        4    1    3    3  502    0 -0.40161473182E+03  0.20719579755E+03  0.69852633112E+02  0.45728054254E+03  0.12699999809E+01 0. -1.
       -4    1    3    3    0  502  0.40161473182E+03 -0.20719579755E+03 -0.64655796241E+03  0.78883667701E+03  0.12699999809E+01 0.  1.
</event>
<event>
 5   0  0.3992414E-03  0.1109974E+04  0.7818609E-02  0.9195525E-01
       -2   -1    0    0    0  501  0.00000000000E+00  0.00000000000E+00  0.21917319804E+03  0.21917319805E+03  0.25500000920E-02 0.  1.
        2   -1    0    0  501    0  0.00000000000E+00  0.00000000000E+00 -0.14053284258E+04  0.14053284258E+04  0.25500000920E-02 0. -1.
    10030    2    1    2    0    0  0.00000000000E+00  0.00000000000E+00 -0.11861552278E+04  0.16245016239E+04  0.11099735590E+04 0.  0.
        1    1    3    3  502    0  0.18388429958E+03 -0.30572255841E+03 -0.12152681056E+04  0.12665529152E+04  0.50400001928E-02 0. -1.
       -1    1    3    3    0  502 -0.18388429958E+03  0.30572255841E+03  0.29112877883E+02  0.35794870867E+03  0.50400001928E-02 0.  1.
</event>
<event>
 5   0  0.2374100E-03  0.1112830E+04  0.7818609E-02  0.9192777E-01
        1   -1    0    0  501    0  0.00000000000E+00  0.00000000000E+00  0.10612569060E+04  0.10612569060E+04  0.50400001928E-02 0.  1.
       -1   -1    0    0    0  501  0.00000000000E+00  0.00000000000E+00 -0.29172716331E+03  0.29172716335E+03  0.50400001928E-02 0. -1.
    10030    2    1    2    0    0  0.00000000000E+00  0.00000000000E+00  0.76952974265E+03  0.13529840693E+04  0.11128296667E+04 0.  0.
        2    1    3    3  502    0 -0.22536233981E+03 -0.20672810941E+03 -0.18038548952E+03  0.35505439057E+03  0.25500000920E-02 0. -1.
       -2    1    3    3    0  502  0.22536233981E+03  0.20672810941E+03  0.94991523217E+03  0.99792967875E+03  0.25500000920E-02 0.  1.
</event>
<event>
 5   0  0.3744875E-03  0.1097434E+04  0.7818609E-02  0.9207696E-01
        2   -1    0    0  501    0  0.00000000000E+00  0.00000000000E+00  0.10510440233E+04  0.10510440233E+04  0.25500000920E-02 0. -1.
       -2   -1    0    0    0  501  0.00000000000E+00  0.00000000000E+00 -0.28646793760E+03  0.28646793761E+03  0.25500000920E-02 0.  1.
    10030    2    1    2    0    0  0.00000000000E+00  0.00000000000E+00  0.76457608574E+03  0.13375119610E+04  0.10974341232E+04 0.  0.
        2    1    3    3  502    0 -0.41936970555E+03  0.34752451560E+03  0.30102136959E+03  0.62230065389E+03  0.25500000920E-02 0.  1.
       -2    1    3    3    0  502  0.41936970555E+03 -0.34752451560E+03  0.46355471615E+03  0.71521130706E+03  0.25500000920E-02 0. -1.
</event>
<event>
 5   0  0.3962999E-03  0.1048966E+04  0.7818609E-02  0.9256412E-01
       -2   -1    0    0    0  501  0.00000000000E+00  0.00000000000E+00  0.53146874056E+03  0.53146874057E+03  0.25500000920E-02 0. -1.
        2   -1    0    0  501    0  0.00000000000E+00  0.00000000000E+00 -0.51758938868E+03  0.51758938868E+03  0.25500000920E-02 0.  1.
    10030    2    1    2    0    0  0.00000000000E+00  0.00000000000E+00  0.13879351881E+02  0.10490581293E+04  0.10489663113E+04 0.  0.
        3    1    3    3  502    0  0.17586924859E+02  0.35579154509E+03  0.39192225986E+03  0.52962249901E+03  0.10100000352E+00 0. -1.
       -3    1    3    3    0  502 -0.17586924859E+02 -0.35579154509E+03 -0.37804290798E+03  0.51943563024E+03  0.10100000352E+00 0.  1.
</event>
<event>
 5   0  0.3748901E-03  0.1055177E+04  0.7818609E-02  0.9250016E-01
       -2   -1    0    0    0  501  0.00000000000E+00  0.00000000000E+00  0.41907654613E+03  0.41907654614E+03  0.25500000920E-02 0. -1.
        2   -1    0    0  501    0  0.00000000000E+00  0.00000000000E+00 -0.66419729813E+03  0.66419729814E+03  0.25500000920E-02 0.  1.
    10030    2    1    2    0    0  0.00000000000E+00  0.00000000000E+00 -0.24512075200E+03  0.10832738443E+04  0.10551767807E+04 0.  0.
        5    1    3    3  502    0  0.39762164891E+03 -0.30138850714E+03 -0.29855867803E+03  0.58146141931E+03  0.46999998093E+01 0.  1.
       -5    1    3    3    0  502 -0.39762164891E+03  0.30138850714E+03  0.53437926027E+02  0.50181242497E+03  0.46999998093E+01 0. -1.
</event>
<event>
 5   0  0.3992414E-03  0.1086442E+04  0.7818609E-02  0.9218508E-01
       -2   -1    0    0    0  501  0.00000000000E+00  0.00000000000E+00  0.17747072642E+03  0.17747072643E+03  0.25500000920E-02 0. -1.
        2   -1    0    0  501    0  0.00000000000E+00  0.00000000000E+00 -0.16627481337E+04  0.16627481337E+04  0.25500000920E-02 0.  1.
    10030    2    1    2    0    0  0.00000000000E+00  0.00000000000E+00 -0.14852774073E+04  0.18402188601E+04  0.10864421184E+04 0.  0.
        1    1    3    3  502    0 -0.72091675066E+02  0.90540172509E+02 -0.16416227407E+04  0.16456974069E+04  0.50400001928E-02 0.  1.
       -1    1    3    3    0  502  0.72091675066E+02 -0.90540172509E+02  0.15634533340E+03  0.19452145320E+03  0.50400001928E-02 0. -1.
</event>
<event>
 5   0  0.2298958E-03  0.1090967E+04  0.7818609E-02  0.9214041E-01
       -1   -1    0    0    0  501  0.00000000000E+00  0.00000000000E+00  0.10991585477E+04  0.10991585477E+04  0.50400001928E-02 0.  1.
        1   -1    0    0  501    0  0.00000000000E+00  0.00000000000E+00 -0.27070908443E+03  0.27070908448E+03  0.50400001928E-02 0. -1.
    10030    2    1    2    0    0  0.00000000000E+00  0.00000000000E+00  0.82844946325E+03  0.13698676322E+04  0.10909669181E+04 0.  0.
        1    1    3    3  502    0 -0.41970582877E+03 -0.21803053430E+03  0.75547836356E+03  0.89131243368E+03  0.50400001928E-02 0.  1.
       -1    1    3    3    0  502  0.41970582877E+03  0.21803053430E+03  0.72971099688E+02  0.47855519849E+03  0.50400001928E-02 0. -1.
</event>
<event>
 5   0  0.3744875E-03  0.1099984E+04  0.7818609E-02  0.9205207E-01
        2   -1    0    0  501    0  0.00000000000E+00  0.00000000000E+00  0.63372711545E+03  0.63372711546E+03  0.25500000920E-02 0. -1.
       -2   -1    0    0    0  501  0.00000000000E+00  0.00000000000E+00 -0.47732116942E+03  0.47732116942E+03  0.25500000920E-02 0.  1.
    10030    2    1    2    0    0  0.00000000000E+00  0.00000000000E+00  0.15640594604E+03  0.11110482849E+04  0.10999843051E+04 0.  0.
        2    1    3    3  502    0 -0.27641344447E+02  0.35908754355E+03 -0.34165028536E+03  0.49642000901E+03  0.25500000920E-02 0.  1.
       -2    1    3    3    0  502  0.27641344447E+02 -0.35908754355E+03  0.49805623140E+03  0.61462827587E+03  0.25500000920E-02 0. -1.
</event>
<event>
 5   0  0.2255788E-03  0.1097268E+04  0.7818609E-02  0.9207859E-01
       -1   -1    0    0    0  501  0.00000000000E+00  0.00000000000E+00  0.36705470985E+03  0.36705470988E+03  0.50400001928E-02 0.  1.
        1   -1    0    0  501    0  0.00000000000E+00  0.00000000000E+00 -0.82003928430E+03  0.82003928432E+03  0.50400001928E-02 0. -1.
    10030    2    1    2    0    0  0.00000000000E+00  0.00000000000E+00 -0.45298457445E+03  0.11870939942E+04  0.10972680285E+04 0.  0.
        3    1    3    3  502    0 -0.12180339836E+03  0.23225959053E+03  0.29484761287E+03  0.39460829979E+03  0.10100000352E+00 0.  1.
       -3    1    3    3    0  502  0.12180339836E+03 -0.23225959053E+03 -0.74783218733E+03  0.79248569441E+03  0.10100000352E+00 0. -1.
</event>
<event>
 5   0  0.3748901E-03  0.1105382E+04  0.7818609E-02  0.9199962E-01
        2   -1    0    0  501    0  0.00000000000E+00  0.00000000000E+00  0.89841802459E+03  0.89841802460E+03  0.25500000920E-02 0. -1.
       -2   -1    0    0    0  501  0.00000000000E+00  0.00000000000E+00 -0.34000577976E+03  0.34000577977E+03  0.25500000920E-02 0.  1.
    10030    2    1    2    0    0  0.00000000000E+00  0.00000000000E+00  0.55841224483E+03  0.12384238044E+04  0.11053819630E+04 0.  0.
        5    1    3    3  502    0  0.11629252531E+02  0.46736712731E+03  0.60943247243E+03  0.76811281701E+03  0.46999998093E+01 0. -1.
       -5    1    3    3    0  502 -0.11629252531E+02 -0.46736712731E+03 -0.51020227601E+02  0.47031098736E+03  0.46999998093E+01 0.  1.
</event>
<event>
 5   0  0.2374100E-03  0.1114763E+04  0.7818609E-02  0.9190921E-01
       -1   -1    0    0    0  501  0.00000000000E+00  0.00000000000E+00  0.24679641790E+03  0.24679641796E+03  0.50400001928E-02 0. -1.
        1   -1    0    0  501    0  0.00000000000E+00  0.00000000000E+00 -0.12588271181E+04  0.12588271181E+04  0.50400001928E-02 0.  1.
    10030    2    1    2    0    0  0.00000000000E+00  0.00000000000E+00 -0.10120307002E+04  0.15056235360E+04  0.11147627973E+04 0.  0.
        2    1    3    3  502    0 -0.12609766351E+03  0.53079945838E+03 -0.35187071082E+03  0.64920080322E+03  0.25500000920E-02 0. -1.
       -2    1    3    3    0  502  0.12609766351E+03 -0.53079945838E+03 -0.66015998935E+03  0.85642273283E+03  0.25500000920E-02 0.  1.
</event>
<event>
 5   0  0.3713158E-03  0.1102935E+04  0.7818609E-02  0.9202336E-01
       -2   -1    0    0    0  501  0.00000000000E+00  0.00000000000E+00  0.36633000098E+03  0.36633000099E+03  0.25500000920E-02 0. -1.
        2   -1    0    0  501    0  0.00000000000E+00  0.00000000000E+00 -0.83017007603E+03  0.83017007603E+03  0.25500000920E-02 0.  1.
    10030    2    1    2    0    0  0.00000000000E+00  0.00000000000E+00 -0.46384007505E+03  0.11965000770E+04  0.11029346395E+04 0.  0.
        4    1    3    3  502    0  0.50714781383E+03  0.12847124744E+03 -0.42110083765E+03  0.67158863515E+03  0.12699999809E+01 0. -1.
       -4    1    3    3    0  502 -0.50714781383E+03 -0.12847124744E+03 -0.42739237393E+02  0.52491144187E+03  0.12699999809E+01 0.  1.
</event>
<event>
 5   0  0.2298958E-03  0.1097396E+04  0.7818609E-02  0.9207733E-01
        1   -1    0    0  501    0  0.00000000000E+00  0.00000000000E+00  0.49055300519E+03  0.49055300522E+03  0.50400001928E-02 0. -1.
       -1   -1    0    0    0  501  0.00000000000E+00  0.00000000000E+00 -0.61373534760E+03  0.61373534762E+03  0.50400001928E-02 0.  1.
    10030    2    1    2    0    0  0.00000000000E+00  0.00000000000E+00 -0.12318234241E+03  0.11042883528E+04  0.10973964082E+04 0.  0.
        1    1    3    3  502    0 -0.44484563155E+03 -0.31410347087E+03  0.60701804833E+01  0.54459661534E+03  0.50400001928E-02 0. -1.
       -1    1    3    3    0  502  0.44484563155E+03  0.31410347087E+03 -0.12925252289E+03  0.55969173750E+03  0.50400001928E-02 0.  1.
</event>
<event>
 5   0  0.3992414E-03  0.1119560E+04  0.7818609E-02  0.9186334E-01
       -2   -1    0    0    0  501  0.00000000000E+00  0.00000000000E+00  0.50971417784E+03  0.50971417785E+03  0.25500000920E-02 0. -1.
        2   -1    0    0  501    0  0.00000000000E+00  0.00000000000E+00 -0.61476333571E+03  0.61476333571E+03  0.25500000920E-02 0.  1.
    10030    2    1    2    0    0  0.00000000000E+00  0.00000000000E+00 -0.10504915787E+03  0.11244775136E+04  0.11195598925E+04 0.  0.
        1    1    3    3  502    0  0.40115384857E+03  0.17705219762E+02  0.33920870030E+03  0.52564287060E+03  0.50400001928E-02 0. -1.
       -1    1    3    3    0  502 -0.40115384857E+03 -0.17705219762E+02 -0.44425785817E+03  0.59883464295E+03  0.50400001928E-02 0.  1.
</event>
<event>
 5   0  0.2257667E-03  0.1064584E+04  0.7818609E-02  0.9240415E-01
        1   -1    0    0  501    0  0.00000000000E+00  0.00000000000E+00  0.73504031138E+03  0.73504031140E+03  0.50400001928E-02 0.  1.
       -1   -1    0    0    0  501  0.00000000000E+00  0.00000000000E+00 -0.38546814298E+03  0.38546814301E+03  0.50400001928E-02 0. -1.
    10030    2    1    2    0    0  0.00000000000E+00  0.00000000000E+00  0.34957216840E+03  0.11205084544E+04  0.10645837193E+04 0.  0.
        4    1    3    3  502    0  0.36941635621E+02 -0.36089509803E+03 -0.23519243880E+03  0.43235061281E+03  0.12699999809E+01 0. -1.
       -4    1    3    3    0  502 -0.36941635621E+02  0.36089509803E+03  0.58476460720E+03  0.68815784160E+03  0.12699999809E+01 0.  1.
</event>
<event>
 5   0  0.1508625E-03  0.1103301E+04  0.7818609E-02  0.9201981E-01
       -3   -1    0    0    0  501  0.00000000000E+00  0.00000000000E+00  0.82465339178E+03  0.82465339797E+03  0.10100000352E+00 0.  1.
        3   -1    0    0  501    0  0.00000000000E+00  0.00000000000E+00 -0.36902538202E+03  0.36902539584E+03  0.10100000352E+00 0. -1.
    10030    2    1    2    0    0  0.00000000000E+00  0.00000000000E+00  0.45562800976E+03  0.11936787938E+04  0.11033005844E+04 0.  0.
        1    1    3    3  502    0 -0.19629683396E+03  0.51354683142E+03  0.27686252782E+03  0.61556125156E+03  0.50400001928E-02 0.  1.
       -1    1    3    3    0  502  0.19629683396E+03 -0.51354683142E+03  0.17876548194E+03  0.57811754224E+03  0.50400001928E-02 0. -1.
</event>
<event>
 5   0  0.3962999E-03  0.1273602E+04  0.7818609E-02  0.9050765E-01
        2   -1    0    0  501    0  0.00000000000E+00  0.00000000000E+00  0.11422644450E+04  0.11422644450E+04  0.25500000920E-02 0.  1.
       -2   -1    0    0    0  501  0.00000000000E+00  0.00000000000E+00 -0.35500999629E+03  0.35500999630E+03  0.25500000920E-02 0. -1.
    10030    2    1    2    0    0  0.00000000000E+00  0.00000000000E+00  0.78725444875E+03  0.14972744413E+04  0.12736016589E+04 0.  0.
        3    1    3    3  502    0 -0.20397538254E+03  0.23709720795E+03  0.10457471657E+04  0.10915164623E+04  0.10100000352E+00 0.  1.
       -3    1    3    3    0  502  0.20397538254E+03 -0.23709720795E+03 -0.25849271690E+03  0.40575797909E+03  0.10100000352E+00 0. -1.
</event>
<event>
 5   0  0.2255788E-03  0.1081401E+04  0.7818609E-02  0.9223512E-01
        1   -1    0    0  501    0  0.00000000000E+00  0.00000000000E+00  0.72453443955E+03  0.72453443957E+03  0.50400001928E-02 0. -1.
       -1   -1    0    0    0  501  0.00000000000E+00  0.00000000000E+00 -0.40351031447E+03  0.40351031450E+03  0.50400001928E-02 0.  1.
    10030    2    1    2    0    0  0.00000000000E+00  0.00000000000E+00  0.32102412508E+03  0.11280447541E+04  0.10814011644E+04 0.  0.
        3    1    3    3  502    0 -0.47922061097E+03  0.11565494802E+03  0.39219236171E+03  0.62995501408E+03  0.10100000352E+00 0. -1.
       -3    1    3    3    0  502  0.47922061097E+03 -0.11565494802E+03 -0.71168236628E+02  0.49808973999E+03  0.10100000352E+00 0.  1.
</event>
<event>
 5   0  0.3992414E-03  0.1060895E+04  0.7818609E-02  0.9244168E-01
       -2   -1    0    0    0  501  0.00000000000E+00  0.00000000000E+00  0.27253258058E+03  0.27253258059E+03  0.25500000920E-02 0.  1.
        2   -1    0    0  501    0  0.00000000000E+00  0.00000000000E+00 -0.10324433220E+04  0.10324433220E+04  0.25500000920E-02 0. -1.
    10030    2    1    2    0    0  0.00000000000E+00  0.00000000000E+00 -0.75991074146E+03  0.13049759026E+04  0.10608947975E+04 0.  0.
        1    1    3    3  502    0  0.58798307291E+02  0.21873647652E+03 -0.96996844725E+03  0.99606308826E+03  0.50400001928E-02 0. -1.
       -1    1    3    3    0  502 -0.58798307291E+02 -0.21873647652E+03  0.21005770579E+03  0.30891281438E+03  0.50400001928E-02 0.  1.
</event>
<event>
 5   0  0.2257667E-03  0.1086542E+04  0.7818609E-02  0.9218409E-01
       -1   -1    0    0    0  501  0.00000000000E+00  0.00000000000E+00  0.19485611278E+03  0.19485611284E+03  0.50400001928E-02 0. -1.
        1   -1    0    0  501    0  0.00000000000E+00  0.00000000000E+00 -0.15146741603E+04  0.15146741603E+04  0.50400001928E-02 0.  1.
    10030    2    1    2    0    0  0.00000000000E+00  0.00000000000E+00 -0.13198180475E+04  0.17095302731E+04  0.10865422570E+04 0.  0.
        4    1    3    3  502    0  0.28882562081E+03 -0.29855930773E+02 -0.13823405302E+04  0.14125079009E+04  0.12699999809E+01 0.  1.
       -4    1    3    3    0  502 -0.28882562081E+03  0.29855930773E+02  0.62522482713E+02  0.29702237219E+03  0.12699999809E+01 0. -1.
</event>
<event>
 5   0  0.3962999E-03  0.1084910E+04  0.7818609E-02  0.9220026E-01
        2   -1    0    0  501    0  0.00000000000E+00  0.00000000000E+00  0.64610510444E+03  0.64610510444E+03  0.25500000920E-02 0. -1.
       -2   -1    0    0    0  501  0.00000000000E+00  0.00000000000E+00 -0.45543286750E+03  0.45543286751E+03  0.25500000920E-02 0.  1.
    10030    2    1    2    0    0  0.00000000000E+00  0.00000000000E+00  0.19067223694E+03  0.11015379719E+04  0.10849101353E+04 0.  0.
        3    1    3    3  502    0 -0.21773261018E+03  0.40499819010E+03  0.38754288854E+03  0.60134892050E+03  0.10100000352E+00 0. -1.
       -3    1    3    3    0  502  0.21773261018E+03 -0.40499819010E+03 -0.19687065161E+03  0.50018905145E+03  0.10100000352E+00 0.  1.
</event>
<event>
 5   0  0.2257667E-03  0.1130708E+04  0.7818609E-02  0.9175768E-01
       -1   -1    0    0    0  501  0.00000000000E+00  0.00000000000E+00  0.13643697667E+03  0.13643697676E+03  0.50400001928E-02 0.  1.
        1   -1    0    0  501    0  0.00000000000E+00  0.00000000000E+00 -0.23426582021E+04  0.23426582021E+04  0.50400001928E-02 0. -1.
    10030    2    1    2    0    0  0.00000000000E+00  0.00000000000E+00 -0.22062212254E+04  0.24790951789E+04  0.11307081013E+04 0.  0.
        4    1    3    3  502    0 -0.10708222488E+02  0.26303786947E+03 -0.22000698119E+04  0.22157645130E+04  0.12699999809E+01 0. -1.
       -4    1    3    3    0  502  0.10708222488E+02 -0.26303786947E+03 -0.61514135146E+01  0.26333066588E+03  0.12699999809E+01 0.  1.
</event>
<event>
 5   0  0.2300702E-03  0.1098002E+04  0.7818609E-02  0.9207141E-01
        1   -1    0    0  501    0  0.00000000000E+00  0.00000000000E+00  0.87735787890E+03  0.87735787891E+03  0.50400001928E-02 0.  1.
       -1   -1    0    0    0  501  0.00000000000E+00  0.00000000000E+00 -0.34353403235E+03  0.34353403239E+03  0.50400001928E-02 0. -1.
    10030    2    1    2    0    0  0.00000000000E+00  0.00000000000E+00  0.53382384655E+03  0.12208919113E+04  0.10980023497E+04 0.  0.
        5    1    3    3  502    0  0.33111384983E+03 -0.26668150798E+03 -0.11927026154E+03  0.44159131958E+03  0.46999998093E+01 0. -1.
       -5    1    3    3    0  502 -0.33111384983E+03  0.26668150798E+03  0.65309410808E+03  0.77930059172E+03  0.46999998093E+01 0.  1.
</event>
<event>
 5   0  0.2257667E-03  0.1151002E+04  0.7818609E-02  0.9156860E-01
       -1   -1    0    0    0  501  0.00000000000E+00  0.00000000000E+00  0.38440228361E+03  0.38440228364E+03  0.50400001928E-02 0. -1.
        1   -1    0    0  501    0  0.00000000000E+00  0.00000000000E+00 -0.86160034848E+03  0.86160034850E+03  0.50400001928E-02 0.  1.
    10030    2    1    2    0    0  0.00000000000E+00  0.00000000000E+00 -0.47719806488E+03  0.12460026321E+04  0.11510015492E+04 0.  0.
        4    1    3    3  502    0 -0.41084771857E+03  0.12852263053E+03 -0.65207406086E+03  0.78135530213E+03  0.12699999809E+01 0.  1.
       -4    1    3    3    0  502  0.41084771857E+03 -0.12852263053E+03  0.17487599599E+03  0.46464733001E+03  0.12699999809E+01 0. -1.
</event>
<event>
 5   0  0.2255788E-03  0.1101244E+04  0.7818609E-02  0.9203980E-01
        1   -1    0    0  501    0  0.00000000000E+00  0.00000000000E+00  0.88941604925E+03  0.88941604926E+03  0.50400001928E-02 0.  1.
       -1   -1    0    0    0  501  0.00000000000E+00  0.00000000000E+00 -0.34088036543E+03  0.34088036547E+03  0.50400001928E-02 0. -1.
    10030    2    1    2    0    0  0.00000000000E+00  0.00000000000E+00  0.54853568382E+03  0.12302964147E+04  0.11012437839E+04 0.  0.
        3    1    3    3  502    0  0.32706144917E+03  0.42937526679E+03  0.39589338512E+03  0.66937574938E+03  0.10100000352E+00 0. -1.
       -3    1    3    3    0  502 -0.32706144917E+03 -0.42937526679E+03  0.15264229869E+03  0.56092066535E+03  0.10100000352E+00 0.  1.
</event>
<event>
 5   0  0.3744875E-03  0.1104901E+04  0.7818609E-02  0.9200429E-01
        2   -1    0    0  501    0  0.00000000000E+00  0.00000000000E+00  0.10747495405E+04  0.10747495405E+04  0.25500000920E-02 0. -1.
       -2   -1    0    0    0  501  0.00000000000E+00  0.00000000000E+00 -0.28397435806E+03  0.28397435807E+03  0.25500000920E-02 0.  1.
    10030    2    1    2    0    0  0.00000000000E+00  0.00000000000E+00  0.79077518248E+03  0.13587238986E+04  0.11049005582E+04 0.  0.
        2    1    3    3  502    0 -0.24216770709E+03 -0.40906318234E+03  0.74151407402E+03  0.88080702057E+03  0.25500000920E-02 0. -1.
       -2    1    3    3    0  502  0.24216770709E+03  0.40906318234E+03  0.49261108465E+02  0.47791687805E+03  0.25500000920E-02 0.  1.
</event>
<event>
 5   0  0.3713158E-03  0.1093447E+04  0.7818609E-02  0.9211602E-01
        2   -1    0    0  501    0  0.00000000000E+00  0.00000000000E+00  0.63933384426E+03  0.63933384426E+03  0.25500000920E-02 0. -1.
       -2   -1    0    0    0  501  0.00000000000E+00  0.00000000000E+00 -0.46752841991E+03  0.46752841992E+03  0.25500000920E-02 0.  1.
    10030    2    1    2    0    0  0.00000000000E+00  0.00000000000E+00  0.17180542435E+03  0.11068622642E+04  0.10934472864E+04 0.  0.
        4    1    3    3  502    0  0.53751962535E+03 -0.86621213644E+02  0.13625782439E+03  0.56124717362E+03  0.12699999809E+01 0. -1.
       -4    1    3    3    0  502 -0.53751962535E+03  0.86621213644E+02  0.35547599956E+02  0.54561509056E+03  0.12699999809E+01 0.  1.
</event>
<event>
 5   0  0.3748901E-03  0.1094908E+04  0.7818609E-02  0.9210169E-01
        2   -1    0    0  501    0  0.00000000000E+00  0.00000000000E+00  0.14308630612E+04  0.14308630612E+04  0.25500000920E-02 0. -1.
       -2   -1    0    0    0  501  0.00000000000E+00  0.00000000000E+00 -0.20945825034E+03  0.20945825036E+03  0.25500000920E-02 0.  1.
    10030    2    1    2    0    0  0.00000000000E+00  0.00000000000E+00  0.12214048108E+04  0.16403213115E+04  0.10949083492E+04 0.  0.
        5    1    3    3  502    0  0.86118189798E+02 -0.29656869167E+03  0.12878774045E+04  0.13243940617E+04  0.46999998093E+01 0. -1.
       -5    1    3    3    0  502 -0.86118189798E+02  0.29656869167E+03 -0.66472593693E+02  0.31592724986E+03  0.46999998093E+01 0.  1.
</event>
<event>
 5   0  0.3748901E-03  0.1102227E+04  0.7818609E-02  0.9203024E-01
        2   -1    0    0  501    0  0.00000000000E+00  0.00000000000E+00  0.97441333398E+03  0.97441333398E+03  0.25500000920E-02 0.  1.
       -2   -1    0    0    0  501  0.00000000000E+00  0.00000000000E+00 -0.31170147745E+03  0.31170147746E+03  0.25500000920E-02 0. -1.
    10030    2    1    2    0    0  0.00000000000E+00  0.00000000000E+00  0.66271185652E+03  0.12861148114E+04  0.11022269746E+04 0.  0.
        5    1    3    3  502    0  0.22646227419E+03  0.46127873635E+03  0.99039648300E+02  0.52334900036E+03  0.46999998093E+01 0. -1.
       -5    1    3    3    0  502 -0.22646227419E+03 -0.46127873635E+03  0.56367220822E+03  0.76276581109E+03  0.46999998093E+01 0.  1.
</event>
<event>
 5   0  0.2374100E-03  0.1124239E+04  0.7818609E-02  0.9181883E-01
       -1   -1    0    0    0  501  0.00000000000E+00  0.00000000000E+00  0.63393051945E+03  0.63393051947E+03  0.50400001928E-02 0. -1.
        1   -1    0    0  501    0  0.00000000000E+00  0.00000000000E+00 -0.49844339473E+03  0.49844339476E+03  0.50400001928E-02 0.  1.
    10030    2    1    2    0    0  0.00000000000E+00  0.00000000000E+00  0.13548712471E+03  0.11323739142E+04  0.11242392631E+04 0.  0.
        2    1    3    3  502    0  0.29843989107E+03 -0.19805613257E+03  0.50410554673E+03  0.61839712361E+03  0.25500000920E-02 0. -1.
       -2    1    3    3    0  502 -0.29843989107E+03  0.19805613257E+03 -0.36861842202E+03  0.51397679062E+03  0.25500000920E-02 0.  1.
</event>
<event>
 5   0  0.2298958E-03  0.1109055E+04  0.7818609E-02  0.9196411E-01
        1   -1    0    0  501    0  0.00000000000E+00  0.00000000000E+00  0.12445786716E+03  0.12445786726E+03  0.50400001928E-02 0. -1.
       -1   -1    0    0    0  501  0.00000000000E+00  0.00000000000E+00 -0.24707215942E+04  0.24707215942E+04  0.50400001928E-02 0.  1.
    10030    2    1    2    0    0  0.00000000000E+00  0.00000000000E+00 -0.23462637270E+04  0.25951794614E+04  0.11090549853E+04 0.  0.
        1    1    3    3  502    0  0.18978249021E+03  0.50520477436E+03 -0.14714370529E+04  0.15672830817E+04  0.50400001928E-02 0.  1.
       -1    1    3    3    0  502 -0.18978249021E+03 -0.50520477436E+03 -0.87482667410E+03  0.10278963797E+04  0.50400001928E-02 0. -1.
</event>
<event>
 5   0  0.3962999E-03  0.1103505E+04  0.7818609E-02  0.9201782E-01
        2   -1    0    0  501    0  0.00000000000E+00  0.00000000000E+00  0.11002139909E+04  0.11002139909E+04  0.25500000920E-02 0. -1.
       -2   -1    0    0    0  501  0.00000000000E+00  0.00000000000E+00 -0.27670153448E+03  0.27670153449E+03  0.25500000920E-02 0.  1.
    10030    2    1    2    0    0  0.00000000000E+00  0.00000000000E+00  0.82351245645E+03  0.13769155254E+04  0.11035051419E+04 0.  0.
        3    1    3    3  502    0  0.31925718272E+03 -0.72867757869E+02  0.96584840697E+03  0.10198519570E+04  0.10100000352E+00 0. -1.
       -3    1    3    3    0  502 -0.31925718272E+03  0.72867757869E+02 -0.14233595052E+03  0.35706356838E+03  0.10100000352E+00 0.  1.
</event>
<event>
 5   0  0.3992414E-03  0.1098759E+04  0.7818609E-02  0.9206402E-01
        2   -1    0    0  501    0  0.00000000000E+00  0.00000000000E+00  0.37151163909E+03  0.37151163910E+03  0.25500000920E-02 0.  1.
       -2   -1    0    0    0  501  0.00000000000E+00  0.00000000000E+00 -0.81240455441E+03  0.81240455441E+03  0.25500000920E-02 0. -1.
    10030    2    1    2    0    0  0.00000000000E+00  0.00000000000E+00 -0.44089291532E+03  0.11839161935E+04  0.10987588409E+04 0.  0.
        1    1    3    3  502    0 -0.23162833884E+03 -0.46938973455E+03 -0.40663705228E+02  0.52500661634E+03  0.50400001928E-02 0. -1.
       -1    1    3    3    0  502  0.23162833884E+03  0.46938973455E+03 -0.40022921009E+03  0.65890957717E+03  0.50400001928E-02 0.  1.
</event>
<event>
 5   0  0.1508625E-03  0.1081220E+04  0.7818609E-02  0.9223692E-01
        3   -1    0    0  501    0  0.00000000000E+00  0.00000000000E+00  0.35277588931E+03  0.35277590377E+03  0.10100000352E+00 0. -1.
       -3   -1    0    0    0  501  0.00000000000E+00  0.00000000000E+00 -0.82845581294E+03  0.82845581910E+03  0.10100000352E+00 0.  1.
    10030    2    1    2    0    0  0.00000000000E+00  0.00000000000E+00 -0.47567992363E+03  0.11812317229E+04  0.10812201410E+04 0.  0.
        4    1    3    3  502    0 -0.14672995713E+03 -0.43795051564E+03 -0.54476661270E+03  0.71421468038E+03  0.12699999809E+01 0.  1.
       -4    1    3    3    0  502  0.14672995713E+03  0.43795051564E+03  0.69086689067E+02  0.46701704249E+03  0.12699999809E+01 0. -1.
</event>
<event>
 5   0  0.3962999E-03  0.1099034E+04  0.7818609E-02  0.9206134E-01
        2   -1    0    0  501    0  0.00000000000E+00  0.00000000000E+00  0.22942301487E+04  0.22942301487E+04  0.25500000920E-02 0. -1.
       -2   -1    0    0    0  501  0.00000000000E+00  0.00000000000E+00 -0.13162106823E+03  0.13162106825E+03  0.25500000920E-02 0.  1.
    10030    2    1    2    0    0  0.00000000000E+00  0.00000000000E+00  0.21626090805E+04  0.24258512169E+04  0.10990341632E+04 0.  0.
        3    1    3    3  502    0  0.50538719243E+02  0.34955049648E+03  0.20105292091E+04  0.20413151208E+04  0.10100000352E+00 0. -1.
       -3    1    3    3    0  502 -0.50538719243E+02 -0.34955049648E+03  0.15207987136E+03  0.38453609610E+03  0.10100000352E+00 0.  1.
</event>
<event>
 5   0  0.2255788E-03  0.1094060E+04  0.7818609E-02  0.9211001E-01
        1   -1    0    0  501    0  0.00000000000E+00  0.00000000000E+00  0.11378416234E+04  0.11378416234E+04  0.50400001928E-02 0.  1.
       -1   -1    0    0    0  501  0.00000000000E+00  0.00000000000E+00 -0.26299068630E+03  0.26299068635E+03  0.50400001928E-02 0. -1.
    10030    2    1    2    0    0  0.00000000000E+00  0.00000000000E+00  0.87485093708E+03  0.14008323097E+04  0.10940598694E+04 0.  0.
        3    1    3    3  502    0  0.52683464645E+03 -0.11818129231E+03  0.54992706433E+03  0.77067590389E+03  0.10100000352E+00 0.  1.
       -3    1    3    3    0  502 -0.52683464645E+03  0.11818129231E+03  0.32492387275E+03  0.63015640585E+03  0.10100000352E+00 0. -1.
</event>
<event>
 5   0  0.1508625E-03  0.1121789E+04  0.7818609E-02  0.9184211E-01
       -3   -1    0    0    0  501  0.00000000000E+00  0.00000000000E+00  0.32386803664E+03  0.32386805239E+03  0.10100000352E+00 0.  1.
        3   -1    0    0  501    0  0.00000000000E+00  0.00000000000E+00 -0.97139204516E+03  0.97139205041E+03  0.10100000352E+00 0. -1.
    10030    2    1    2    0    0  0.00000000000E+00  0.00000000000E+00 -0.64752400852E+03  0.12952601028E+04  0.11217893707E+04 0.  0.
        1    1    3    3  502    0 -0.35467672352E+03  0.41632454103E+03 -0.46742576343E+03  0.71945016924E+03  0.50400001928E-02 0.  1.
       -1    1    3    3    0  502  0.35467672352E+03 -0.41632454103E+03 -0.18009824509E+03  0.57580993356E+03  0.50400001928E-02 0. -1.
</event>
<event>
 5   0  0.3744875E-03  0.1126058E+04  0.7818609E-02  0.9180160E-01
        2   -1    0    0  501    0  0.00000000000E+00  0.00000000000E+00  0.11906005457E+04  0.11906005457E+04  0.25500000920E-02 0.  1.
       -2   -1    0    0    0  501  0.00000000000E+00  0.00000000000E+00 -0.26625363711E+03  0.26625363712E+03  0.25500000920E-02 0. -1.
    10030    2    1    2    0    0  0.00000000000E+00  0.00000000000E+00  0.92434690863E+03  0.14568541829E+04  0.11260581258E+04 0.  0.
        2    1    3    3  502    0  0.11771703586E+03  0.24782866930E+03  0.10982602765E+04  0.11320123607E+04  0.25500000920E-02 0.  1.
       -2    1    3    3    0  502 -0.11771703586E+03 -0.24782866930E+03 -0.17391336790E+03  0.32484182213E+03  0.25500000920E-02 0. -1.
</event>
<event>
 5   0  0.2298958E-03  0.1091725E+04  0.7818609E-02  0.9213295E-01
       -1   -1    0    0    0  501  0.00000000000E+00  0.00000000000E+00  0.32852671150E+03  0.32852671154E+03  0.50400001928E-02 0. -1.
        1   -1    0    0  501    0  0.00000000000E+00  0.00000000000E+00 -0.90697556601E+03  0.90697556603E+03  0.50400001928E-02 0.  1.
    10030    2    1    2    0    0  0.00000000000E+00  0.00000000000E+00 -0.57844885452E+03  0.12355022776E+04  0.10917246908E+04 0.  0.
        1    1    3    3  502    0 -0.27537701446E+03  0.88725274046E+01  0.24406157677E+03  0.36807237755E+03  0.50400001928E-02 0. -1.
       -1    1    3    3    0  502  0.27537701446E+03 -0.88725274046E+01 -0.82251043129E+03  0.86742990001E+03  0.50400001928E-02 0.  1.
</event>
<event>
 5   0  0.3962999E-03  0.1111640E+04  0.7818609E-02  0.9193920E-01
       -2   -1    0    0    0  501  0.00000000000E+00  0.00000000000E+00  0.28169533216E+03  0.28169533217E+03  0.25500000920E-02 0. -1.
        2   -1    0    0  501    0  0.00000000000E+00  0.00000000000E+00 -0.10967029208E+04  0.10967029208E+04  0.25500000920E-02 0.  1.
    10030    2    1    2    0    0  0.00000000000E+00  0.00000000000E+00 -0.81500758863E+03  0.13783982530E+04  0.11116403979E+04 0.  0.
        3    1    3    3  502    0  0.32655543702E+03 -0.38842932984E+03 -0.68867939745E+03  0.85545024426E+03  0.10100000352E+00 0.  1.
       -3    1    3    3    0  502 -0.32655543702E+03  0.38842932984E+03 -0.12632819118E+03  0.52294800871E+03  0.10100000352E+00 0. -1.
</event>
<event>
 5   0  0.3744875E-03  0.1098336E+04  0.7818609E-02  0.9206815E-01
       -2   -1    0    0    0  501  0.00000000000E+00  0.00000000000E+00  0.28021274488E+03  0.28021274489E+03  0.25500000920E-02 0.  1.
        2   -1    0    0  501    0  0.00000000000E+00  0.00000000000E+00 -0.10762735622E+04  0.10762735622E+04  0.25500000920E-02 0. -1.
    10030    2    1    2    0    0  0.00000000000E+00  0.00000000000E+00 -0.79606081736E+03  0.13564863071E+04  0.10983361400E+04 0.  0.
        2    1    3    3  502    0 -0.24746660278E+03 -0.48522230472E+03 -0.31153223569E+03  0.62748126535E+03  0.25500000920E-02 0. -1.
       -2    1    3    3    0  502  0.24746660278E+03  0.48522230472E+03 -0.48452858167E+03  0.72900504178E+03  0.25500000920E-02 0.  1.
</event>
<event>
 5   0  0.2298958E-03  0.1109591E+04  0.7818609E-02  0.9195894E-01
        1   -1    0    0  501    0  0.00000000000E+00  0.00000000000E+00  0.44600766438E+03  0.44600766441E+03  0.50400001928E-02 0. -1.
       -1   -1    0    0    0  501  0.00000000000E+00  0.00000000000E+00 -0.69011808512E+03  0.69011808514E+03  0.50400001928E-02 0.  1.
    10030    2    1    2    0    0  0.00000000000E+00  0.00000000000E+00 -0.24411042074E+03  0.11361257495E+04  0.11095908351E+04 0.  0.
        1    1    3    3  502    0  0.54044099534E+03  0.23174892347E+02  0.41166497953E+01  0.54095331768E+03  0.50400001928E-02 0. -1.
       -1    1    3    3    0  502 -0.54044099534E+03 -0.23174892347E+02 -0.24822707054E+03  0.59517243186E+03  0.50400001928E-02 0.  1.
</event>
<event>
 5   0  0.3748901E-03  0.1062226E+04  0.7818609E-02  0.9242811E-01
        2   -1    0    0  501    0  0.00000000000E+00  0.00000000000E+00  0.51115568253E+03  0.51115568253E+03  0.25500000920E-02 0. -1.
       -2   -1    0    0    0  501  0.00000000000E+00  0.00000000000E+00 -0.55184990711E+03  0.55184990711E+03  0.25500000920E-02 0.  1.
    10030    2    1    2    0    0  0.00000000000E+00  0.00000000000E+00 -0.40694224581E+02  0.10630055896E+04  0.10622263712E+04 0.  0.
        5    1    3    3  502    0 -0.86992697324E+02 -0.49271233760E+02 -0.54232703968E+03  0.55148535051E+03  0.46999998093E+01 0.  1.
       -5    1    3    3    0  502  0.86992697324E+02  0.49271233760E+02  0.50163281510E+03  0.51152023913E+03  0.46999998093E+01 0. -1.
</event>
<event>
 5   0  0.3744875E-03  0.1060663E+04  0.7818609E-02  0.9244404E-01
       -2   -1    0    0    0  501  0.00000000000E+00  0.00000000000E+00  0.21419213338E+03  0.21419213340E+03  0.25500000920E-02 0.  1.
        2   -1    0    0  501    0  0.00000000000E+00  0.00000000000E+00 -0.13130792883E+04  0.13130792883E+04  0.25500000920E-02 0. -1.
    10030    2    1    2    0    0  0.00000000000E+00  0.00000000000E+00 -0.10988871549E+04  0.15272714217E+04  0.10606625365E+04 0.  0.
        2    1    3    3  502    0 -0.11327893763E+03 -0.33071993912E+03  0.24800997585E+02  0.35046096120E+03  0.25500000920E-02 0.  1.
       -2    1    3    3    0  502  0.11327893763E+03  0.33071993912E+03 -0.11236881525E+04  0.11768104605E+04  0.25500000920E-02 0. -1.
</event>
<event>
 5   0  0.3748901E-03  0.1101467E+04  0.7818609E-02  0.9203763E-01
        2   -1    0    0  501    0  0.00000000000E+00  0.00000000000E+00  0.84245340046E+03  0.84245340047E+03  0.25500000920E-02 0. -1.
       -2   -1    0    0    0  501  0.00000000000E+00  0.00000000000E+00 -0.36002874535E+03  0.36002874535E+03  0.25500000920E-02 0.  1.
    10030    2    1    2    0    0  0.00000000000E+00  0.00000000000E+00  0.48242465512E+03  0.12024821458E+04  0.11014670958E+04 0.  0.
        5    1    3    3  502    0  0.51179818934E+01  0.31723775005E+03 -0.25020174135E+03  0.40409031809E+03  0.46999998093E+01 0.  1.
       -5    1    3    3    0  502 -0.51179818934E+01 -0.31723775005E+03  0.73262639647E+03  0.79839182774E+03  0.46999998093E+01 0. -1.
</event>
<event>
 5   0  0.2298958E-03  0.1094666E+04  0.7818609E-02  0.9210406E-01
       -1   -1    0    0    0  501  0.00000000000E+00  0.00000000000E+00  0.54925066294E+03  0.54925066296E+03  0.50400001928E-02 0. -1.
        1   -1    0    0  501    0  0.00000000000E+00  0.00000000000E+00 -0.54542250212E+03  0.54542250214E+03  0.50400001928E-02 0.  1.
    10030    2    1    2    0    0  0.00000000000E+00  0.00000000000E+00  0.38281608242E+01  0.10946731651E+04  0.10946664714E+04 0.  0.
        1    1    3    3  502    0 -0.19642436592E+03 -0.50961032475E+03 -0.33981211850E+02  0.54721105380E+03  0.50400001928E-02 0.  1.
       -1    1    3    3    0  502  0.19642436592E+03  0.50961032475E+03  0.37809372674E+02  0.54746211130E+03  0.50400001928E-02 0. -1.
</event>
<event>
 5   0  0.3713158E-03  0.1104427E+04  0.7818609E-02  0.9200887E-01
        2   -1    0    0  501    0  0.00000000000E+00  0.00000000000E+00  0.99751293575E+03  0.99751293575E+03  0.25500000920E-02 0.  1.
       -2   -1    0    0    0  501  0.00000000000E+00  0.00000000000E+00 -0.30570027625E+03  0.30570027626E+03  0.25500000920E-02 0. -1.
    10030    2    1    2    0    0  0.00000000000E+00  0.00000000000E+00  0.69181265950E+03  0.13032132120E+04  0.11044274173E+04 0.  0.
        4    1    3    3  502    0  0.36361150236E+03  0.33352307092E+03  0.63850434258E+03  0.80693269352E+03  0.12699999809E+01 0.  1.
       -4    1    3    3    0  502 -0.36361150236E+03 -0.33352307092E+03  0.53308316929E+02  0.49628051849E+03  0.12699999809E+01 0. -1.
</event>
<event>
 5   0  0.3962999E-03  0.1061656E+04  0.7818609E-02  0.9243392E-01
       -2   -1    0    0    0  501  0.00000000000E+00  0.00000000000E+00  0.21640697855E+03  0.21640697857E+03  0.25500000920E-02 0.  1.
        2   -1    0    0  501    0  0.00000000000E+00  0.00000000000E+00 -0.13020756614E+04  0.13020756614E+04  0.25500000920E-02 0. -1.
    10030    2    1    2    0    0  0.00000000000E+00  0.00000000000E+00 -0.10856686829E+04  0.15184826400E+04  0.10616558006E+04 0.  0.
        3    1    3    3  502    0 -0.10563820908E+03 -0.17597401350E+02 -0.12864635974E+04  0.12909135128E+04  0.10100000352E+00 0. -1.
       -3    1    3    3    0  502  0.10563820908E+03  0.17597401350E+02  0.20079491455E+03  0.22756912722E+03  0.10100000352E+00 0.  1.
</event>
<event>
 5   0  0.3748901E-03  0.1148410E+04  0.7818609E-02  0.9159252E-01
        2   -1    0    0  501    0  0.00000000000E+00  0.00000000000E+00  0.47709311537E+03  0.47709311537E+03  0.25500000920E-02 0.  1.
       -2   -1    0    0    0  501  0.00000000000E+00  0.00000000000E+00 -0.69108402824E+03  0.69108402824E+03  0.25500000920E-02 0. -1.
    10030    2    1    2    0    0  0.00000000000E+00  0.00000000000E+00 -0.21399091287E+03  0.11681771436E+04  0.11484100871E+04 0.  0.
        5    1    3    3  502    0  0.23520601652E+03 -0.22582852409E+03 -0.58774967859E+03  0.67215486845E+03  0.46999998093E+01 0. -1.
       -5    1    3    3    0  502 -0.23520601652E+03  0.22582852409E+03  0.37375876573E+03  0.49602227516E+03  0.46999998093E+01 0.  1.
</event>
<event>
 5   0  0.3962999E-03  0.1098251E+04  0.7818609E-02  0.9206898E-01
        2   -1    0    0  501    0  0.00000000000E+00  0.00000000000E+00  0.16274694133E+04  0.16274694133E+04  0.25500000920E-02 0. -1.
       -2   -1    0    0    0  501  0.00000000000E+00  0.00000000000E+00 -0.18528070055E+03  0.18528070057E+03  0.25500000920E-02 0.  1.
    10030    2    1    2    0    0  0.00000000000E+00  0.00000000000E+00  0.14421887127E+04  0.18127501139E+04  0.10982507419E+04 0.  0.
        3    1    3    3  502    0  0.31856435944E+03 -0.12686725176E+03  0.13151394349E+02  0.34314941359E+03  0.10100000352E+00 0.  1.
       -3    1    3    3    0  502 -0.31856435944E+03  0.12686725176E+03  0.14290373184E+04  0.14696007003E+04  0.10100000352E+00 0. -1.
</event>
<event>
 5   0  0.2255788E-03  0.1126345E+04  0.7818609E-02  0.9179888E-01
        1   -1    0    0  501    0  0.00000000000E+00  0.00000000000E+00  0.61580136974E+03  0.61580136976E+03  0.50400001928E-02 0.  1.
       -1   -1    0    0    0  501  0.00000000000E+00  0.00000000000E+00 -0.51504106592E+03  0.51504106594E+03  0.50400001928E-02 0. -1.
    10030    2    1    2    0    0  0.00000000000E+00  0.00000000000E+00  0.10076030382E+03  0.11308424357E+04  0.11263445190E+04 0.  0.
        3    1    3    3  502    0  0.39074962837E+03  0.39953451272E+03 -0.19539065205E+02  0.55919127693E+03  0.10100000352E+00 0.  1.
       -3    1    3    3    0  502 -0.39074962837E+03 -0.39953451272E+03  0.12029936903E+03  0.57165115876E+03  0.10100000352E+00 0. -1.
</event>
<event>
 5   0  0.2255788E-03  0.1100453E+04  0.7818609E-02  0.9204750E-01
       -1   -1    0    0    0  501  0.00000000000E+00  0.00000000000E+00  0.55451138744E+03  0.55451138747E+03  0.50400001928E-02 0.  1.
        1   -1    0    0  501    0  0.00000000000E+00  0.00000000000E+00 -0.54597481913E+03  0.54597481915E+03  0.50400001928E-02 0. -1.
    10030    2    1    2    0    0  0.00000000000E+00  0.00000000000E+00  0.85365683122E+01  0.11004862066E+04  0.11004530967E+04 0.  0.
        3    1    3    3  502    0 -0.12108464887E+03 -0.52998481319E+03 -0.80609765929E+02  0.54958469681E+03  0.10100000352E+00 0.  1.
       -3    1    3    3    0  502  0.12108464887E+03  0.52998481319E+03  0.89146334241E+02  0.55090150981E+03  0.10100000352E+00 0. -1.
</event>
<event>
 5   0  0.3713158E-03  0.1102091E+04  0.7818609E-02  0.9203156E-01
        2   -1    0    0  501    0  0.00000000000E+00  0.00000000000E+00  0.47370860690E+03  0.47370860691E+03  0.25500000920E-02 0. -1.
       -2   -1    0    0    0  501  0.00000000000E+00  0.00000000000E+00 -0.64100825355E+03  0.64100825355E+03  0.25500000920E-02 0.  1.
    10030    2    1    2    0    0  0.00000000000E+00  0.00000000000E+00 -0.16729964665E+03  0.11147168605E+04  0.11020909705E+04 0.  0.
        4    1    3    3  502    0  0.27811436282E+02  0.44654278289E+03 -0.40901124910E+03  0.60618953120E+03  0.12699999809E+01 0.  1.
       -4    1    3    3    0  502 -0.27811436282E+02 -0.44654278289E+03  0.24171160246E+03  0.50852732926E+03  0.12699999809E+01 0. -1.
</event>
<event>
 5   0  0.2300702E-03  0.1106736E+04  0.7818609E-02  0.9198652E-01
       -1   -1    0    0    0  501  0.00000000000E+00  0.00000000000E+00  0.49203013132E+03  0.49203013134E+03  0.50400001928E-02 0. -1.
        1   -1    0    0  501    0  0.00000000000E+00  0.00000000000E+00 -0.62235196363E+03  0.62235196366E+03  0.50400001928E-02 0.  1.
    10030    2    1    2    0    0  0.00000000000E+00  0.00000000000E+00 -0.13032183232E+03  0.11143820950E+04  0.11067355934E+04 0.  0.
        5    1    3    3  502    0  0.70400257731E+02 -0.14709598003E+03  0.46726495002E+03  0.49492630476E+03  0.46999998093E+01 0. -1.
       -5    1    3    3    0  502 -0.70400257731E+02  0.14709598003E+03 -0.59758678234E+03  0.61945579023E+03  0.46999998093E+01 0.  1.
</event>
<event>
 5   0  0.1508625E-03  0.1104095E+04  0.7818609E-02  0.9201210E-01
       -3   -1    0    0    0  501  0.00000000000E+00  0.00000000000E+00  0.79769661617E+03  0.79769662257E+03  0.10100000352E+00 0.  1.
        3   -1    0    0  501    0  0.00000000000E+00  0.00000000000E+00 -0.38204541280E+03  0.38204542615E+03  0.10100000352E+00 0. -1.
    10030    2    1    2    0    0  0.00000000000E+00  0.00000000000E+00  0.41565120337E+03  0.11797420487E+04  0.11040948232E+04 0.  0.
        4    1    3    3  502    0  0.19331471810E+03 -0.23629740095E+03  0.69928181364E+03  0.76302274522E+03  0.12699999809E+01 0.  1.
       -4    1    3    3    0  502 -0.19331471810E+03  0.23629740095E+03 -0.28363061027E+03  0.41671930350E+03  0.12699999809E+01 0. -1.
</event>
<event>
 5   0  0.2255788E-03  0.1118543E+04  0.7818609E-02  0.9187305E-01
       -1   -1    0    0    0  501  0.00000000000E+00  0.00000000000E+00  0.22527255365E+03  0.22527255371E+03  0.50400001928E-02 0.  1.
        1   -1    0    0  501    0  0.00000000000E+00  0.00000000000E+00 -0.13884712307E+04  0.13884712307E+04  0.50400001928E-02 0. -1.
    10030    2    1    2    0    0  0.00000000000E+00  0.00000000000E+00 -0.11631986771E+04  0.16137437845E+04  0.11185427303E+04 0.  0.
        3    1    3    3  502    0  0.11317591667E+02  0.54472488401E+03 -0.39950110325E+03  0.67561411238E+03  0.10100000352E+00 0.  1.
       -3    1    3    3    0  502 -0.11317591667E+02 -0.54472488401E+03 -0.76369757384E+03  0.93812967208E+03  0.10100000352E+00 0. -1.
</event>
<event>
 5   0  0.2300702E-03  0.1066762E+04  0.7818609E-02  0.9238207E-01
       -1   -1    0    0    0  501  0.00000000000E+00  0.00000000000E+00  0.18949992795E+03  0.18949992802E+03  0.50400001928E-02 0. -1.
        1   -1    0    0  501    0  0.00000000000E+00  0.00000000000E+00 -0.15012957798E+04  0.15012957799E+04  0.50400001928E-02 0.  1.
    10030    2    1    2    0    0  0.00000000000E+00  0.00000000000E+00 -0.13117958519E+04  0.16907957079E+04  0.10667622831E+04 0.  0.
        5    1    3    3  502    0  0.42117241717E+03  0.26410371643E+03 -0.96215741568E+03  0.10830078303E+04  0.46999998093E+01 0.  1.
       -5    1    3    3    0  502 -0.42117241717E+03 -0.26410371643E+03 -0.34963843621E+03  0.60778787754E+03  0.46999998093E+01 0. -1.
</event>
<event>
 5   0  0.2255788E-03  0.1120910E+04  0.7818609E-02  0.9185048E-01
       -1   -1    0    0    0  501  0.00000000000E+00  0.00000000000E+00  0.31170147804E+03  0.31170147808E+03  0.50400001928E-02 0.  1.
        1   -1    0    0  501    0  0.00000000000E+00  0.00000000000E+00 -0.10077264553E+04  0.10077264553E+04  0.50400001928E-02 0. -1.
    10030    2    1    2    0    0  0.00000000000E+00  0.00000000000E+00 -0.69602497725E+03  0.13194279334E+04  0.11209100332E+04 0.  0.
        3    1    3    3  502    0 -0.19477971989E+03 -0.52155010408E+03 -0.27212654984E+03  0.61968259591E+03  0.10100000352E+00 0.  1.
       -3    1    3    3    0  502  0.19477971989E+03  0.52155010408E+03 -0.42389842740E+03  0.69974533746E+03  0.10100000352E+00 0. -1.
</event>
<event>
 5   0  0.3992414E-03  0.1099214E+04  0.7818609E-02  0.9205958E-01
        2   -1    0    0  501    0  0.00000000000E+00  0.00000000000E+00  0.87746513873E+03  0.87746513874E+03  0.25500000920E-02 0.  1.
       -2   -1    0    0    0  501  0.00000000000E+00  0.00000000000E+00 -0.34425063632E+03  0.34425063633E+03  0.25500000920E-02 0. -1.
    10030    2    1    2    0    0  0.00000000000E+00  0.00000000000E+00  0.53321450242E+03  0.12217157751E+04  0.10992141418E+04 0.  0.
        1    1    3    3  502    0 -0.18005524375E+03 -0.21461465703E+03  0.79215562143E+03  0.84023203366E+03  0.50400001928E-02 0.  1.
       -1    1    3    3    0  502  0.18005524375E+03  0.21461465703E+03 -0.25894111901E+03  0.38148374140E+03  0.50400001928E-02 0. -1.
</event>
<event>
 5   0  0.2374100E-03  0.1058610E+04  0.7818609E-02  0.9246500E-01
        1   -1    0    0  501    0  0.00000000000E+00  0.00000000000E+00  0.24345165161E+03  0.24345165166E+03  0.50400001928E-02 0.  1.
       -1   -1    0    0    0  501  0.00000000000E+00  0.00000000000E+00 -0.11507976992E+04  0.11507976992E+04  0.50400001928E-02 0. -1.
    10030    2    1    2    0    0  0.00000000000E+00  0.00000000000E+00 -0.90734604759E+03  0.13942493509E+04  0.10586096553E+04 0.  0.
        2    1    3    3  502    0 -0.34374252477E+03 -0.37872792045E+03 -0.27419607597E+03  0.58032512366E+03  0.25500000920E-02 0. -1.
       -2    1    3    3    0  502  0.34374252477E+03  0.37872792045E+03 -0.63314997163E+03  0.81392422721E+03  0.25500000920E-02 0.  1.
</event>
<event>
 5   0  0.2255788E-03  0.1104914E+04  0.7818609E-02  0.9200415E-01
        1   -1    0    0  501    0  0.00000000000E+00  0.00000000000E+00  0.53428583769E+03  0.53428583771E+03  0.50400001928E-02 0.  1.
       -1   -1    0    0    0  501  0.00000000000E+00  0.00000000000E+00 -0.57124642618E+03  0.57124642620E+03  0.50400001928E-02 0. -1.
    10030    2    1    2    0    0  0.00000000000E+00  0.00000000000E+00 -0.36960588496E+02  0.11055322639E+04  0.11049142507E+04 0.  0.
        3    1    3    3  502    0 -0.50628759397E+03  0.24301550246E+02 -0.23835573320E+03  0.56011709392E+03  0.10100000352E+00 0. -1.
       -3    1    3    3    0  502  0.50628759397E+03 -0.24301550246E+02  0.20139514471E+03  0.54541516999E+03  0.10100000352E+00 0.  1.
</event>
<event>
 5   0  0.2374100E-03  0.1097032E+04  0.7818609E-02  0.9208090E-01
        1   -1    0    0  501    0  0.00000000000E+00  0.00000000000E+00  0.14883158220E+04  0.14883158221E+04  0.50400001928E-02 0. -1.
       -1   -1    0    0    0  501  0.00000000000E+00  0.00000000000E+00 -0.20215446026E+03  0.20215446032E+03  0.50400001928E-02 0.  1.
    10030    2    1    2    0    0  0.00000000000E+00  0.00000000000E+00  0.12861613618E+04  0.16904702824E+04  0.10970317803E+04 0.  0.
        2    1    3    3  502    0 -0.18503422475E+03 -0.15333359517E+03 -0.11671953531E+03  0.26715595757E+03  0.25500000920E-02 0.  1.
       -2    1    3    3    0  502  0.18503422475E+03  0.15333359517E+03  0.14028808971E+04  0.14233143248E+04  0.25500000920E-02 0. -1.
</event>
<event>
 5   0  0.2255788E-03  0.1093684E+04  0.7818609E-02  0.9211370E-01
       -1   -1    0    0    0  501  0.00000000000E+00  0.00000000000E+00  0.72526235665E+03  0.72526235666E+03  0.50400001928E-02 0. -1.
        1   -1    0    0  501    0  0.00000000000E+00  0.00000000000E+00 -0.41231455155E+03  0.41231455158E+03  0.50400001928E-02 0.  1.
    10030    2    1    2    0    0  0.00000000000E+00  0.00000000000E+00  0.31294780510E+03  0.11375769082E+04  0.10936840922E+04 0.  0.
        3    1    3    3  502    0 -0.70050104510E+02  0.29649340492E+03  0.62881438185E+03  0.69872948508E+03  0.10100000352E+00 0. -1.
       -3    1    3    3    0  502  0.70050104510E+02 -0.29649340492E+03 -0.31586657675E+03  0.43884742316E+03  0.10100000352E+00 0.  1.
</event>
<event>
 5   0  0.3748901E-03  0.1018623E+04  0.7818609E-02  0.9288352E-01
       -2   -1    0    0    0  501  0.00000000000E+00  0.00000000000E+00  0.46046339247E+03  0.46046339247E+03  0.25500000920E-02 0. -1.
        2   -1    0    0  501    0  0.00000000000E+00  0.00000000000E+00 -0.56334192314E+03  0.56334192314E+03  0.25500000920E-02 0.  1.
    10030    2    1    2    0    0  0.00000000000E+00  0.00000000000E+00 -0.10287853067E+03  0.10238053156E+04  0.10186232533E+04 0.  0.
        5    1    3    3  502    0 -0.42880399741E+03  0.25174423945E+03  0.59249157026E+02  0.50077997454E+03  0.46999998093E+01 0.  1.
       -5    1    3    3    0  502  0.42880399741E+03 -0.25174423945E+03 -0.16212768770E+03  0.52302534108E+03  0.46999998093E+01 0. -1.
</event>
<event>
 5   0  0.3992414E-03  0.1094246E+04  0.7818609E-02  0.9210818E-01
        2   -1    0    0  501    0  0.00000000000E+00  0.00000000000E+00  0.25571493419E+04  0.25571493419E+04  0.25500000920E-02 0.  1.
       -2   -1    0    0    0  501  0.00000000000E+00  0.00000000000E+00 -0.11706140135E+03  0.11706140137E+03  0.25500000920E-02 0. -1.
    10030    2    1    2    0    0  0.00000000000E+00  0.00000000000E+00  0.24400879405E+04  0.26742107433E+04  0.10942458324E+04 0.  0.
        1    1    3    3  502    0 -0.12698852822E+03  0.16259724113E+03  0.24584439411E+04  0.24670854384E+04  0.50400001928E-02 0.  1.
       -1    1    3    3    0  502  0.12698852822E+03 -0.16259724113E+03 -0.18356000520E+02  0.20712530484E+03  0.50400001928E-02 0. -1.
</event>
<event>
 5   0  0.2298958E-03  0.1101770E+04  0.7818609E-02  0.9203468E-01
       -1   -1    0    0    0  501  0.00000000000E+00  0.00000000000E+00  0.29228061784E+03  0.29228061788E+03  0.50400001928E-02 0.  1.
        1   -1    0    0  501    0  0.00000000000E+00  0.00000000000E+00 -0.10382984525E+04  0.10382984525E+04  0.50400001928E-02 0. -1.
    10030    2    1    2    0    0  0.00000000000E+00  0.00000000000E+00 -0.74601783466E+03  0.13305790704E+04  0.11017704175E+04 0.  0.
        1    1    3    3  502    0  0.48143078756E+03  0.18268277916E+03 -0.60943524176E+03  0.79784704984E+03  0.50400001928E-02 0. -1.
       -1    1    3    3    0  502 -0.48143078756E+03 -0.18268277916E+03 -0.13658259290E+03  0.53273202056E+03  0.50400001928E-02 0.  1.
</event>
<event>
 5   0  0.3744875E-03  0.1030890E+04  0.7818609E-02  0.9275299E-01
        2   -1    0    0  501    0  0.00000000000E+00  0.00000000000E+00  0.11044589927E+04  0.11044589927E+04  0.25500000920E-02 0.  1.
       -2   -1    0    0    0  501  0.00000000000E+00  0.00000000000E+00 -0.24055545020E+03  0.24055545021E+03  0.25500000920E-02 0. -1.
    10030    2    1    2    0    0  0.00000000000E+00  0.00000000000E+00  0.86390354255E+03  0.13450144430E+04  0.10308901595E+04 0.  0.
        2    1    3    3  502    0  0.17237896660E+03 -0.39093569991E+03  0.80814882214E+03  0.91413880146E+03  0.25500000920E-02 0.  1.
       -2    1    3    3    0  502 -0.17237896660E+03  0.39093569991E+03  0.55754720403E+02  0.43087564151E+03  0.25500000920E-02 0. -1.
</event>
<event>
 5   0  0.3748901E-03  0.1103184E+04  0.7818609E-02  0.9202094E-01
       -2   -1    0    0    0  501  0.00000000000E+00  0.00000000000E+00  0.41710411871E+03  0.41710411871E+03  0.25500000920E-02 0.  1.
        2   -1    0    0  501    0  0.00000000000E+00  0.00000000000E+00 -0.72944275916E+03  0.72944275917E+03  0.25500000920E-02 0. -1.
    10030    2    1    2    0    0  0.00000000000E+00  0.00000000000E+00 -0.31233864046E+03  0.11465468779E+04  0.11031837185E+04 0.  0.
        5    1    3    3  502    0 -0.53165117964E+03  0.78069837012E+02 -0.28549361708E+03  0.60850355106E+03  0.46999998093E+01 0.  1.
       -5    1    3    3    0  502  0.53165117964E+03 -0.78069837012E+02 -0.26845023378E+02  0.53804332682E+03  0.46999998093E+01 0. -1.
</event>
<event>
 5   0  0.2374100E-03  0.1110899E+04  0.7818609E-02  0.9194634E-01
       -1   -1    0    0    0  501  0.00000000000E+00  0.00000000000E+00  0.12757171465E+03  0.12757171475E+03  0.50400001928E-02 0.  1.
        1   -1    0    0  501    0  0.00000000000E+00  0.00000000000E+00 -0.24184368025E+04  0.24184368025E+04  0.50400001928E-02 0. -1.
    10030    2    1    2    0    0  0.00000000000E+00  0.00000000000E+00 -0.22908650879E+04  0.25460085173E+04  0.11108989689E+04 0.  0.
        2    1    3    3  502    0 -0.20795785012E+03  0.35009918666E+03 -0.27964808480E+03  0.49398275199E+03  0.25500000920E-02 0.  1.
       -2    1    3    3    0  502  0.20795785012E+03 -0.35009918666E+03 -0.20112170031E+04  0.20520257653E+04  0.25500000920E-02 0. -1.
</event>
<event>
 5   0  0.3744875E-03  0.1067306E+04  0.7818609E-02  0.9237657E-01
       -2   -1    0    0    0  501  0.00000000000E+00  0.00000000000E+00  0.46206070316E+03  0.46206070317E+03  0.25500000920E-02 0. -1.
        2   -1    0    0  501    0  0.00000000000E+00  0.00000000000E+00 -0.61633771970E+03  0.61633771971E+03  0.25500000920E-02 0.  1.
    10030    2    1    2    0    0  0.00000000000E+00  0.00000000000E+00 -0.15427701654E+03  0.10783984229E+04  0.10673058421E+04 0.  0.
        2    1    3    3  502    0 -0.46294677162E+03  0.22701410746E+03  0.61878953861E+02  0.51931120080E+03  0.25500000920E-02 0.  1.
       -2    1    3    3    0  502  0.46294677162E+03 -0.22701410746E+03 -0.21615597040E+03  0.55908722207E+03  0.25500000920E-02 0. -1.
</event>
<event>
 5   0  0.3962999E-03  0.1013339E+04  0.7818609E-02  0.9294034E-01
        2   -1    0    0  501    0  0.00000000000E+00  0.00000000000E+00  0.40737423929E+03  0.40737423930E+03  0.25500000920E-02 0. -1.
       -2   -1    0    0    0  501  0.00000000000E+00  0.00000000000E+00 -0.63016777872E+03  0.63016777873E+03  0.25500000920E-02 0.  1.
    10030    2    1    2    0    0  0.00000000000E+00  0.00000000000E+00 -0.22279353943E+03  0.10375420180E+04  0.10133392709E+04 0.  0.
        3    1    3    3  502    0  0.33819008514E+02 -0.48895308862E+03  0.20104642533E+02  0.49053343929E+03  0.10100000352E+00 0. -1.
       -3    1    3    3    0  502 -0.33819008514E+02  0.48895308862E+03 -0.24289818196E+03  0.54700857874E+03  0.10100000352E+00 0.  1.
</event>
<event>
 5   0  0.2300702E-03  0.1095264E+04  0.7818609E-02  0.9209820E-01
       -1   -1    0    0    0  501  0.00000000000E+00  0.00000000000E+00  0.30430944381E+03  0.30430944385E+03  0.50400001928E-02 0.  1.
        1   -1    0    0  501    0  0.00000000000E+00  0.00000000000E+00 -0.98551325585E+03  0.98551325587E+03  0.50400001928E-02 0. -1.
    10030    2    1    2    0    0  0.00000000000E+00  0.00000000000E+00 -0.68120381205E+03  0.12898226997E+04  0.10952643348E+04 0.  0.
        5    1    3    3  502    0  0.53209949339E+03 -0.12314456489E+03 -0.29372598651E+03  0.62015441615E+03  0.46999998093E+01 0.  1.
       -5    1    3    3    0  502 -0.53209949339E+03  0.12314456489E+03 -0.38747782554E+03  0.66966828356E+03  0.46999998093E+01 0. -1.
</event>
<event>
 5   0  0.2300702E-03  0.1098477E+04  0.7818609E-02  0.9206677E-01
        1   -1    0    0  501    0  0.00000000000E+00  0.00000000000E+00  0.48044088443E+03  0.48044088445E+03  0.50400001928E-02 0.  1.
       -1   -1    0    0    0  501  0.00000000000E+00  0.00000000000E+00 -0.62788802647E+03  0.62788802649E+03  0.50400001928E-02 0. -1.
    10030    2    1    2    0    0  0.00000000000E+00  0.00000000000E+00 -0.14744714205E+03  0.11083289109E+04  0.10984772711E+04 0.  0.
        5    1    3    3  502    0  0.13216383692E+03 -0.38947482000E+03  0.29352302947E+03  0.50530760338E+03  0.46999998093E+01 0.  1.
       -5    1    3    3    0  502 -0.13216383692E+03  0.38947482000E+03 -0.44097017152E+03  0.60302130756E+03  0.46999998093E+01 0. -1.
</event>
<event>
 5   0  0.3992414E-03  0.1092635E+04  0.7818609E-02  0.9212400E-01
       -2   -1    0    0    0  501  0.00000000000E+00  0.00000000000E+00  0.27138233295E+03  0.27138233296E+03  0.25500000920E-02 0.  1.
        2   -1    0    0  501    0  0.00000000000E+00  0.00000000000E+00 -0.10997870992E+04  0.10997870992E+04  0.25500000920E-02 0. -1.
    10030    2    1    2    0    0  0.00000000000E+00  0.00000000000E+00 -0.82840476626E+03  0.13711694322E+04  0.10926349596E+04 0.  0.
        1    1    3    3  502    0 -0.35144840800E+03 -0.30659041932E+03 -0.77124667709E+03  0.90129634730E+03  0.50400001928E-02 0. -1.
       -1    1    3    3    0  502  0.35144840800E+03  0.30659041932E+03 -0.57158089167E+02  0.46987308487E+03  0.50400001928E-02 0.  1.
</event>
<event>
 5   0  0.2257667E-03  0.1092924E+04  0.7818609E-02  0.9212116E-01
        1   -1    0    0  501    0  0.00000000000E+00  0.00000000000E+00  0.10123168770E+04  0.10123168770E+04  0.50400001928E-02 0. -1.
       -1   -1    0    0    0  501  0.00000000000E+00  0.00000000000E+00 -0.29498722431E+03  0.29498722435E+03  0.50400001928E-02 0.  1.
    10030    2    1    2    0    0  0.00000000000E+00  0.00000000000E+00  0.71732965269E+03  0.13073041014E+04  0.10929236857E+04 0.  0.
        4    1    3    3  502    0  0.37119994578E+03 -0.22152734867E+03 -0.41206802061E+02  0.43423885062E+03  0.12699999809E+01 0.  1.
       -4    1    3    3    0  502 -0.37119994578E+03  0.22152734867E+03  0.75853645476E+03  0.87306525074E+03  0.12699999809E+01 0. -1.
</event>
<event>
 5   0  0.2374100E-03  0.1085262E+04  0.7818609E-02  0.9219677E-01
       -1   -1    0    0    0  501  0.00000000000E+00  0.00000000000E+00  0.34327066230E+03  0.34327066234E+03  0.50400001928E-02 0.  1.
        1   -1    0    0  501    0  0.00000000000E+00  0.00000000000E+00 -0.85777265950E+03  0.85777265951E+03  0.50400001928E-02 0. -1.
    10030    2    1    2    0    0  0.00000000000E+00  0.00000000000E+00 -0.51450199720E+03  0.12010433219E+04  0.10852616071E+04 0.  0.
        2    1    3    3  502    0 -0.32354144921E+03 -0.17246754190E+03 -0.69995850387E+03  0.79016835517E+03  0.25500000920E-02 0. -1.
       -2    1    3    3    0  502  0.32354144921E+03  0.17246754190E+03  0.18545650668E+03  0.41087496668E+03  0.25500000920E-02 0.  1.
</event>
<event>
 5   0  0.3713158E-03  0.1077352E+04  0.7818609E-02  0.9227552E-01
       -2   -1    0    0    0  501  0.00000000000E+00  0.00000000000E+00  0.15770000531E+03  0.15770000533E+03  0.25500000920E-02 0. -1.
        2   -1    0    0  501    0  0.00000000000E+00  0.00000000000E+00 -0.18400234802E+04  0.18400234802E+04  0.25500000920E-02 0.  1.
    10030    2    1    2    0    0  0.00000000000E+00  0.00000000000E+00 -0.16823234749E+04  0.19977234855E+04  0.10773517766E+04 0.  0.
        4    1    3    3  502    0  0.10680626550E+03  0.42398789877E+02  0.13470425093E+03  0.17706519661E+03  0.12699999809E+01 0. -1.
       -4    1    3    3    0  502 -0.10680626550E+03 -0.42398789877E+02 -0.18170277258E+04  0.18206582889E+04  0.12699999809E+01 0.  1.
</event>
<event>
 5   0  0.3744875E-03  0.1091046E+04  0.7818609E-02  0.9213963E-01
        2   -1    0    0  501    0  0.00000000000E+00  0.00000000000E+00  0.22315281058E+04  0.22315281058E+04  0.25500000920E-02 0. -1.
       -2   -1    0    0    0  501  0.00000000000E+00  0.00000000000E+00 -0.13335949779E+03  0.13335949781E+03  0.25500000920E-02 0.  1.
    10030    2    1    2    0    0  0.00000000000E+00  0.00000000000E+00  0.20981686081E+04  0.23648876036E+04  0.10910462273E+04 0.  0.
        2    1    3    3  502    0 -0.17676567256E+03 -0.51151384300E+03  0.90043849499E+03  0.10505627053E+04  0.25500000920E-02 0.  1.
       -2    1    3    3    0  502  0.17676567256E+03  0.51151384300E+03  0.11977301131E+04  0.13143248983E+04  0.25500000920E-02 0. -1.
</event>
<event>
 5   0  0.3962999E-03  0.1100142E+04  0.7818609E-02  0.9205054E-01
        2   -1    0    0  501    0  0.00000000000E+00  0.00000000000E+00  0.71162226570E+03  0.71162226570E+03  0.25500000920E-02 0.  1.
       -2   -1    0    0    0  501  0.00000000000E+00  0.00000000000E+00 -0.42519468009E+03  0.42519468010E+03  0.25500000920E-02 0. -1.
    10030    2    1    2    0    0  0.00000000000E+00  0.00000000000E+00  0.28642758560E+03  0.11368169458E+04  0.11001418120E+04 0.  0.
        3    1    3    3  502    0 -0.45708287411E+03  0.27126840821E+03 -0.31655255590E+01  0.53152735946E+03  0.10100000352E+00 0. -1.
       -3    1    3    3    0  502  0.45708287411E+03 -0.27126840821E+03  0.28959311116E+03  0.60528958634E+03  0.10100000352E+00 0.  1.
</event>
<event>
 5   0  0.1508625E-03  0.1109845E+04  0.7818609E-02  0.9195649E-01
       -4   -1    0    0    0  501  0.00000000000E+00  0.00000000000E+00  0.45145632702E+03  0.45145811334E+03  0.12699999809E+01 0.  1.
        4   -1    0    0  501    0  0.00000000000E+00  0.00000000000E+00 -0.68209773132E+03  0.68209891363E+03  0.12699999809E+01 0. -1.
    10030    2    1    2    0    0  0.00000000000E+00  0.00000000000E+00 -0.23064140431E+03  0.11335570270E+04  0.11098450685E+04 0.  0.
        2    1    3    3  502    0  0.16414706773E+03 -0.33703184717E+03 -0.53321294789E+03  0.65180577909E+03  0.25500000920E-02 0. -1.
       -2    1    3    3    0  502 -0.16414706773E+03  0.33703184717E+03  0.30257154358E+03  0.48175124789E+03  0.25500000920E-02 0.  1.
</event>
<event>
 5   0  0.3713158E-03  0.1122255E+04  0.7818609E-02  0.9183768E-01
       -2   -1    0    0    0  501  0.00000000000E+00  0.00000000000E+00  0.76942611791E+03  0.76942611792E+03  0.25500000920E-02 0.  1.
        2   -1    0    0  501    0  0.00000000000E+00  0.00000000000E+00 -0.40921954347E+03  0.40921954348E+03  0.25500000920E-02 0. -1.
    10030    2    1    2    0    0  0.00000000000E+00  0.00000000000E+00  0.36020657444E+03  0.11786456614E+04  0.11222552378E+04 0.  0.
        4    1    3    3  502    0  0.42011388882E+03  0.37002081208E+03  0.14009022716E+03  0.57709441654E+03  0.12699999809E+01 0. -1.
       -4    1    3    3    0  502 -0.42011388882E+03 -0.37002081208E+03  0.22011634728E+03  0.60155124486E+03  0.12699999809E+01 0.  1.
</event>
<event>
 5   0  0.3962999E-03  0.1111969E+04  0.7818609E-02  0.9193604E-01
        2   -1    0    0  501    0  0.00000000000E+00  0.00000000000E+00  0.16823607829E+04  0.16823607829E+04  0.25500000920E-02 0.  1.
       -2   -1    0    0    0  501  0.00000000000E+00  0.00000000000E+00 -0.18374091657E+03  0.18374091659E+03  0.25500000920E-02 0. -1.
    10030    2    1    2    0    0  0.00000000000E+00  0.00000000000E+00  0.14986198664E+04  0.18661016995E+04  0.11119685468E+04 0.  0.
        3    1    3    3  502    0  0.50647942066E+03 -0.22880454602E+03  0.72301102307E+03  0.91193084908E+03  0.10100000352E+00 0.  1.
       -3    1    3    3    0  502 -0.50647942066E+03  0.22880454602E+03  0.77560884329E+03  0.95417085044E+03  0.10100000352E+00 0. -1.
</event>
<event>
 5   0  0.2255788E-03  0.1107956E+04  0.7818609E-02  0.9197472E-01
        1   -1    0    0  501    0  0.00000000000E+00  0.00000000000E+00  0.23032334544E+04  0.23032334544E+04  0.50400001928E-02 0.  1.
       -1   -1    0    0    0  501  0.00000000000E+00  0.00000000000E+00 -0.13324389344E+03  0.13324389354E+03  0.50400001928E-02 0. -1.
    10030    2    1    2    0    0  0.00000000000E+00  0.00000000000E+00  0.21699895610E+04  0.24364773480E+04  0.11079563044E+04 0.  0.
        3    1    3    3  502    0 -0.79702364380E+02 -0.35786082341E+03  0.19982722741E+04  0.20316271626E+04  0.10100000352E+00 0.  1.
       -3    1    3    3    0  502  0.79702364380E+02  0.35786082341E+03  0.17171728682E+03  0.40485018539E+03  0.10100000352E+00 0. -1.
</event>
<event>
 5   0  0.3992414E-03  0.1121867E+04  0.7818609E-02  0.9184137E-01
       -2   -1    0    0    0  501  0.00000000000E+00  0.00000000000E+00  0.24981253343E+03  0.24981253345E+03  0.25500000920E-02 0.  1.
        2   -1    0    0  501    0  0.00000000000E+00  0.00000000000E+00 -0.12595293500E+04  0.12595293500E+04  0.25500000920E-02 0. -1.
    10030    2    1    2    0    0  0.00000000000E+00  0.00000000000E+00 -0.10097168166E+04  0.15093418834E+04  0.11218666906E+04 0.  0.
        1    1    3    3  502    0 -0.20052170951E+03  0.25175084726E+03  0.11322640716E+03  0.34118567436E+03  0.50400001928E-02 0.  1.
       -1    1    3    3    0  502  0.20052170951E+03 -0.25175084726E+03 -0.11229432237E+04  0.11681562091E+04  0.50400001928E-02 0. -1.
</event>
<event>
 5   0  0.2374100E-03  0.1101121E+04  0.7818609E-02  0.9204100E-01
       -1   -1    0    0    0  501  0.00000000000E+00  0.00000000000E+00  0.19980013426E+03  0.19980013433E+03  0.50400001928E-02 0.  1.
        1   -1    0    0  501    0  0.00000000000E+00  0.00000000000E+00 -0.15171005622E+04  0.15171005622E+04  0.50400001928E-02 0. -1.
    10030    2    1    2    0    0  0.00000000000E+00  0.00000000000E+00 -0.13173004279E+04  0.17169006965E+04  0.11011210580E+04 0.  0.
        2    1    3    3  502    0 -0.11220548083E+03 -0.36824911677E+03 -0.12723599761E+04  0.13293221546E+04  0.25500000920E-02 0. -1.
       -2    1    3    3    0  502  0.11220548083E+03  0.36824911677E+03 -0.44940451814E+02  0.38757854191E+03  0.25500000920E-02 0.  1.
</event>
<event>
 5   0  0.2298958E-03  0.1105803E+04  0.7818609E-02  0.9199554E-01
        1   -1    0    0  501    0  0.00000000000E+00  0.00000000000E+00  0.13430853742E+04  0.13430853742E+04  0.50400001928E-02 0. -1.
       -1   -1    0    0    0  501  0.00000000000E+00  0.00000000000E+00 -0.22761032055E+03  0.22761032061E+03  0.50400001928E-02 0.  1.
    10030    2    1    2    0    0  0.00000000000E+00  0.00000000000E+00  0.11154750536E+04  0.15706956948E+04  0.11058030432E+04 0.  0.
        1    1    3    3  502    0 -0.39634079437E+03 -0.13623941418E+03  0.10699784543E+04  0.11491305826E+04  0.50400001928E-02 0. -1.
       -1    1    3    3    0  502  0.39634079437E+03  0.13623941418E+03  0.45496599390E+02  0.42156511222E+03  0.50400001928E-02 0.  1.
</event>
<event>
 5   0  0.3713158E-03  0.1096496E+04  0.7818609E-02  0.9208614E-01
       -2   -1    0    0    0  501  0.00000000000E+00  0.00000000000E+00  0.68266890745E+03  0.68266890746E+03  0.25500000920E-02 0. -1.
        2   -1    0    0  501    0  0.00000000000E+00  0.00000000000E+00 -0.44029497693E+03  0.44029497693E+03  0.25500000920E-02 0.  1.
    10030    2    1    2    0    0  0.00000000000E+00  0.00000000000E+00  0.24237393053E+03  0.11229638844E+04  0.10964956742E+04 0.  0.
        4    1    3    3  502    0  0.44762367258E+03 -0.12133974191E+03 -0.17824679062E+03  0.49685391866E+03  0.12699999809E+01 0.  1.
       -4    1    3    3    0  502 -0.44762367258E+03  0.12133974191E+03  0.42062072115E+03  0.62610996573E+03  0.12699999809E+01 0. -1.
</event>
<event>
 5   0  0.3713158E-03  0.1082595E+04  0.7818609E-02  0.9222324E-01
       -2   -1    0    0    0  501  0.00000000000E+00  0.00000000000E+00  0.13141721570E+03  0.13141721572E+03  0.25500000920E-02 0. -1.
        2   -1    0    0  501    0  0.00000000000E+00  0.00000000000E+00 -0.22295625829E+04  0.22295625829E+04  0.25500000920E-02 0.  1.
    10030    2    1    2    0    0  0.00000000000E+00  0.00000000000E+00 -0.20981453672E+04  0.23609797986E+04  0.10825948585E+04 0.  0.
        4    1    3    3  502    0 -0.91182594493E+01  0.80987505742E+02  0.11795689215E+03  0.14337907813E+03  0.12699999809E+01 0. -1.
       -4    1    3    3    0  502  0.91182594493E+01 -0.80987505742E+02 -0.22161022594E+04  0.22176007205E+04  0.12699999809E+01 0.  1.
</event>
<event>
 5   0  0.3713158E-03  0.1094768E+04  0.7818609E-02  0.9210306E-01
        2   -1    0    0  501    0  0.00000000000E+00  0.00000000000E+00  0.11776984463E+04  0.11776984463E+04  0.25500000920E-02 0. -1.
       -2   -1    0    0    0  501  0.00000000000E+00  0.00000000000E+00 -0.25441946119E+03  0.25441946120E+03  0.25500000920E-02 0.  1.
    10030    2    1    2    0    0  0.00000000000E+00  0.00000000000E+00  0.92327898513E+03  0.14321179075E+04  0.10947682936E+04 0.  0.
        4    1    3    3  502    0 -0.43077840549E+03  0.28497899774E+03  0.69871647766E+03  0.86890125609E+03  0.12699999809E+01 0. -1.
       -4    1    3    3    0  502  0.43077840549E+03 -0.28497899774E+03  0.22456250747E+03  0.56321665143E+03  0.12699999809E+01 0.  1.
</event>
<event>
 5   0  0.1508625E-03  0.1093325E+04  0.7818609E-02  0.9211722E-01
       -3   -1    0    0    0  501  0.00000000000E+00  0.00000000000E+00  0.51437518153E+03  0.51437519144E+03  0.10100000352E+00 0. -1.
        3   -1    0    0  501    0  0.00000000000E+00  0.00000000000E+00 -0.58097668892E+03  0.58097669770E+03  0.10100000352E+00 0.  1.
    10030    2    1    2    0    0  0.00000000000E+00  0.00000000000E+00 -0.66601507399E+02  0.10953518891E+04  0.10933252033E+04 0.  0.
        4    1    3    3  502    0 -0.29787198405E+03 -0.16666616680E+03  0.39449553137E+03  0.52166432426E+03  0.12699999809E+01 0. -1.
       -4    1    3    3    0  502  0.29787198405E+03  0.16666616680E+03 -0.46109703877E+03  0.57368756488E+03  0.12699999809E+01 0.  1.
</event>
<event>
 5   0  0.2298958E-03  0.1098989E+04  0.7818609E-02  0.9206178E-01
       -1   -1    0    0    0  501  0.00000000000E+00  0.00000000000E+00  0.89574755209E+03  0.89574755211E+03  0.50400001928E-02 0. -1.
        1   -1    0    0  501    0  0.00000000000E+00  0.00000000000E+00 -0.33708602872E+03  0.33708602876E+03  0.50400001928E-02 0.  1.
    10030    2    1    2    0    0  0.00000000000E+00  0.00000000000E+00  0.55866152337E+03  0.12328335809E+04  0.10989885989E+04 0.  0.
        1    1    3    3  502    0  0.29179222572E+03 -0.22914832509E+03 -0.17536395635E+03  0.41037077758E+03  0.50400001928E-02 0.  1.
       -1    1    3    3    0  502 -0.29179222572E+03  0.22914832509E+03  0.73402547972E+03  0.82246280329E+03  0.50400001928E-02 0. -1.
</event>
<event>
 5   0  0.1508625E-03  0.1049609E+04  0.7818609E-02  0.9255748E-01
        3   -1    0    0  501    0  0.00000000000E+00  0.00000000000E+00  0.25864428779E+03  0.25864430751E+03  0.10100000352E+00 0. -1.
       -3   -1    0    0    0  501  0.00000000000E+00  0.00000000000E+00 -0.10648589375E+04  0.10648589423E+04  0.10100000352E+00 0.  1.
    10030    2    1    2    0    0  0.00000000000E+00  0.00000000000E+00 -0.80621464972E+03  0.13235032498E+04  0.10496088752E+04 0.  0.
        1    1    3    3  502    0 -0.26773737567E+03 -0.15138159125E+03  0.13308520750E+03  0.33512887220E+03  0.50400001928E-02 0. -1.
       -1    1    3    3    0  502  0.26773737567E+03  0.15138159125E+03 -0.93929985722E+03  0.98837437760E+03  0.50400001928E-02 0.  1.
</event>
<event>
 5   0  0.3962999E-03  0.1096697E+04  0.7818609E-02  0.9208417E-01
        2   -1    0    0  501    0  0.00000000000E+00  0.00000000000E+00  0.81344077274E+03  0.81344077275E+03  0.25500000920E-02 0.  1.
       -2   -1    0    0    0  501  0.00000000000E+00  0.00000000000E+00 -0.36964697104E+03  0.36964697105E+03  0.25500000920E-02 0. -1.
    10030    2    1    2    0    0  0.00000000000E+00  0.00000000000E+00  0.44379380170E+03  0.11830877438E+04  0.10966967088E+04 0.  0.
        3    1    3    3  502    0 -0.25204498467E+03 -0.48198722618E+03  0.29700580617E+03  0.61971833893E+03  0.10100000352E+00 0.  1.
       -3    1    3    3    0  502  0.25204498467E+03  0.48198722618E+03  0.14678799553E+03  0.56336940487E+03  0.10100000352E+00 0. -1.
</event>
<event>
 5   0  0.1508625E-03  0.1053913E+04  0.7818609E-02  0.9251314E-01
        3   -1    0    0  501    0  0.00000000000E+00  0.00000000000E+00  0.45175679420E+03  0.45175680549E+03  0.10100000352E+00 0.  1.
       -3   -1    0    0    0  501  0.00000000000E+00  0.00000000000E+00 -0.61467366367E+03  0.61467367196E+03  0.10100000352E+00 0. -1.
    10030    2    1    2    0    0  0.00000000000E+00  0.00000000000E+00 -0.16291686947E+03  0.10664304775E+04  0.10539127368E+04 0.  0.
        5    1    3    3  502    0  0.36337983438E+03  0.25556432666E+03  0.20528500895E+03  0.48940990385E+03  0.46999998093E+01 0.  1.
       -5    1    3    3    0  502 -0.36337983438E+03 -0.25556432666E+03 -0.36820187841E+03  0.57702057360E+03  0.46999998093E+01 0. -1.
</event>
<event>
 5   0  0.3992414E-03  0.1108651E+04  0.7818609E-02  0.9196801E-01
       -2   -1    0    0    0  501  0.00000000000E+00  0.00000000000E+00  0.56918762677E+03  0.56918762678E+03  0.25500000920E-02 0. -1.
        2   -1    0    0  501    0  0.00000000000E+00  0.00000000000E+00 -0.53985098333E+03  0.53985098334E+03  0.25500000920E-02 0.  1.
    10030    2    1    2    0    0  0.00000000000E+00  0.00000000000E+00  0.29336643441E+02  0.11090386101E+04  0.11086505311E+04 0.  0.
        1    1    3    3  502    0 -0.42715334479E+03 -0.11143504125E+03 -0.32070826500E+03  0.54564781650E+03  0.50400001928E-02 0.  1.
       -1    1    3    3    0  502  0.42715334479E+03  0.11143504125E+03  0.35004490845E+03  0.56339079362E+03  0.50400001928E-02 0. -1.
</event>
<event>
 5   0  0.1508625E-03  0.1143983E+04  0.7818609E-02  0.9163352E-01
       -4   -1    0    0    0  501  0.00000000000E+00  0.00000000000E+00  0.76874024654E+03  0.76874129560E+03  0.12699999809E+01 0. -1.
        4   -1    0    0  501    0  0.00000000000E+00  0.00000000000E+00 -0.42559593776E+03  0.42559783263E+03  0.12699999809E+01 0.  1.
    10030    2    1    2    0    0  0.00000000000E+00  0.00000000000E+00  0.34314430878E+03  0.11943391282E+04  0.11439833638E+04 0.  0.
        2    1    3    3  502    0  0.30364277042E+03 -0.24037871883E+03 -0.26790064143E+03  0.47090510104E+03  0.25500000920E-02 0.  1.
       -2    1    3    3    0  502 -0.30364277042E+03  0.24037871883E+03  0.61104495022E+03  0.72343402719E+03  0.25500000920E-02 0. -1.
</event>
<event>
 5   0  0.2298958E-03  0.1010955E+04  0.7818609E-02  0.9296611E-01
       -1   -1    0    0    0  501  0.00000000000E+00  0.00000000000E+00  0.72382821782E+03  0.72382821784E+03  0.50400001928E-02 0.  1.
        1   -1    0    0  501    0  0.00000000000E+00  0.00000000000E+00 -0.35299450655E+03  0.35299450659E+03  0.50400001928E-02 0. -1.
    10030    2    1    2    0    0  0.00000000000E+00  0.00000000000E+00  0.37083371127E+03  0.10768227244E+04  0.10109547658E+04 0.  0.
        1    1    3    3  502    0 -0.33365980600E+03 -0.51244736745E+02 -0.21533104229E+03  0.40040273099E+03  0.50400001928E-02 0. -1.
       -1    1    3    3    0  502  0.33365980600E+03  0.51244736745E+02  0.58616475356E+03  0.67641999344E+03  0.50400001928E-02 0.  1.
</event>
<event>
 5   0  0.2374100E-03  0.1087938E+04  0.7818609E-02  0.9217029E-01
        1   -1    0    0  501    0  0.00000000000E+00  0.00000000000E+00  0.10554375179E+04  0.10554375179E+04  0.50400001928E-02 0.  1.
       -1   -1    0    0    0  501  0.00000000000E+00  0.00000000000E+00 -0.28035962095E+03  0.28035962099E+03  0.50400001928E-02 0. -1.
    10030    2    1    2    0    0  0.00000000000E+00  0.00000000000E+00  0.77507789699E+03  0.13357971389E+04  0.10879376131E+04 0.  0.
        2    1    3    3  502    0 -0.52472869528E+03  0.64496868603E+02  0.54478693386E+03  0.75913954780E+03  0.25500000920E-02 0.  1.
       -2    1    3    3    0  502  0.52472869528E+03 -0.64496868603E+02  0.23029096312E+03  0.57665759114E+03  0.25500000920E-02 0. -1.
</event>
<event>
 5   0  0.3962999E-03  0.1116119E+04  0.7818609E-02  0.9189622E-01
       -2   -1    0    0    0  501  0.00000000000E+00  0.00000000000E+00  0.49967707986E+03  0.49967707986E+03  0.25500000920E-02 0.  1.
        2   -1    0    0  501    0  0.00000000000E+00  0.00000000000E+00 -0.62326357413E+03  0.62326357414E+03  0.25500000920E-02 0. -1.
    10030    2    1    2    0    0  0.00000000000E+00  0.00000000000E+00 -0.12358649427E+03  0.11229406540E+04  0.11161192100E+04 0.  0.
        3    1    3    3  502    0 -0.50362638464E+03 -0.10813177055E+03 -0.27781108095E+03  0.58524441220E+03  0.10100000352E+00 0. -1.
       -3    1    3    3    0  502  0.50362638464E+03  0.10813177055E+03  0.15422458667E+03  0.53769624180E+03  0.10100000352E+00 0.  1.
</event>
<event>
 5   0  0.2374100E-03  0.1102715E+04  0.7818609E-02  0.9202550E-01
       -1   -1    0    0    0  501  0.00000000000E+00  0.00000000000E+00  0.30037299081E+03  0.30037299085E+03  0.50400001928E-02 0.  1.
        1   -1    0    0  501    0  0.00000000000E+00  0.00000000000E+00 -0.10120579017E+04  0.10120579018E+04  0.50400001928E-02 0. -1.
    10030    2    1    2    0    0  0.00000000000E+00  0.00000000000E+00 -0.71168491094E+03  0.13124308926E+04  0.11027145757E+04 0.  0.
        2    1    3    3  502    0 -0.30566696306E+03  0.39006495539E+03 -0.64349219502E+03  0.81219773873E+03  0.25500000920E-02 0. -1.
       -2    1    3    3    0  502  0.30566696306E+03 -0.39006495539E+03 -0.68192715915E+02  0.50023315388E+03  0.25500000920E-02 0.  1.
</event>
<event>
 5   0  0.3744875E-03  0.1141621E+04  0.7818609E-02  0.9165549E-01
        2   -1    0    0  501    0  0.00000000000E+00  0.00000000000E+00  0.14532408170E+04  0.14532408170E+04  0.25500000920E-02 0. -1.
       -2   -1    0    0    0  501  0.00000000000E+00  0.00000000000E+00 -0.22420537916E+03  0.22420537918E+03  0.25500000920E-02 0.  1.
    10030    2    1    2    0    0  0.00000000000E+00  0.00000000000E+00  0.12290354378E+04  0.16774461962E+04  0.11416206172E+04 0.  0.
        2    1    3    3  502    0 -0.42165627310E+02 -0.23532557366E+02  0.14502343202E+04  0.14510380095E+04  0.25500000920E-02 0. -1.
       -2    1    3    3    0  502  0.42165627310E+02  0.23532557366E+02 -0.22119888244E+03  0.22640818665E+03  0.25500000920E-02 0.  1.
</event>
<event>
 5   0  0.2255788E-03  0.1101825E+04  0.7818609E-02  0.9203415E-01
       -1   -1    0    0    0  501  0.00000000000E+00  0.00000000000E+00  0.60451060296E+03  0.60451060298E+03  0.50400001928E-02 0. -1.
        1   -1    0    0  501    0  0.00000000000E+00  0.00000000000E+00 -0.50206652173E+03  0.50206652176E+03  0.50400001928E-02 0.  1.
    10030    2    1    2    0    0  0.00000000000E+00  0.00000000000E+00  0.10244408123E+03  0.11065771247E+04  0.11018249150E+04 0.  0.
        3    1    3    3  502    0  0.53108268157E+03 -0.13416447958E+03  0.11025995990E+03  0.55875414200E+03  0.10100000352E+00 0. -1.
       -3    1    3    3    0  502 -0.53108268157E+03  0.13416447958E+03 -0.78158786699E+01  0.54782298273E+03  0.10100000352E+00 0.  1.
</event>
<event>
 5   0  0.2298958E-03  0.1092433E+04  0.7818609E-02  0.9212599E-01
        1   -1    0    0  501    0  0.00000000000E+00  0.00000000000E+00  0.38446606073E+03  0.38446606077E+03  0.50400001928E-02 0. -1.
       -1   -1    0    0    0  501  0.00000000000E+00  0.00000000000E+00 -0.77601755469E+03  0.77601755471E+03  0.50400001928E-02 0.  1.
    10030    2    1    2    0    0  0.00000000000E+00  0.00000000000E+00 -0.39155149396E+03  0.11604836155E+04  0.10924329038E+04 0.  0.
        1    1    3    3  502    0 -0.42160327697E+03 -0.31400239858E+03 -0.35335922394E+03  0.63341105977E+03  0.50400001928E-02 0.  1.
       -1    1    3    3    0  502  0.42160327697E+03  0.31400239858E+03 -0.38192270020E+02  0.52707255571E+03  0.50400001928E-02 0. -1.
</event>
<event>
 5   0  0.3713158E-03  0.1093561E+04  0.7818609E-02  0.9211490E-01
       -2   -1    0    0    0  501  0.00000000000E+00  0.00000000000E+00  0.24316922592E+03  0.24316922594E+03  0.25500000920E-02 0. -1.
        2   -1    0    0  501    0  0.00000000000E+00  0.00000000000E+00 -0.12294692975E+04  0.12294692975E+04  0.25500000920E-02 0.  1.
    10030    2    1    2    0    0  0.00000000000E+00  0.00000000000E+00 -0.98630007161E+03  0.14726385235E+04  0.10935613332E+04 0.  0.
        4    1    3    3  502    0 -0.35180316082E+03 -0.32527281218E+03 -0.84790750821E+03  0.97391818018E+03  0.12699999809E+01 0.  1.
       -4    1    3    3    0  502  0.35180316082E+03  0.32527281218E+03 -0.13839256339E+03  0.49872034329E+03  0.12699999809E+01 0. -1.
</event>
<event>
 5   0  0.3748901E-03  0.1158586E+04  0.7818609E-02  0.9149899E-01
        2   -1    0    0  501    0  0.00000000000E+00  0.00000000000E+00  0.56188545532E+03  0.56188545532E+03  0.25500000920E-02 0.  1.
       -2   -1    0    0    0  501  0.00000000000E+00  0.00000000000E+00 -0.59724010080E+03  0.59724010080E+03  0.25500000920E-02 0. -1.
    10030    2    1    2    0    0  0.00000000000E+00  0.00000000000E+00 -0.35354645482E+02  0.11591255561E+04  0.11585862523E+04 0.  0.
        5    1    3    3  502    0  0.35842436145E+03 -0.27894386427E+03  0.34204634626E+03  0.56859079774E+03  0.46999998093E+01 0.  1.
       -5    1    3    3    0  502 -0.35842436145E+03  0.27894386427E+03 -0.37740099174E+03  0.59053475838E+03  0.46999998093E+01 0. -1.
</event>
<event>
 5   0  0.1508625E-03  0.1102849E+04  0.7818609E-02  0.9202420E-01
        4   -1    0    0  501    0  0.00000000000E+00  0.00000000000E+00  0.76283910461E+03  0.76284016178E+03  0.12699999809E+01 0. -1.
       -4   -1    0    0    0  501  0.00000000000E+00  0.00000000000E+00 -0.39859903228E+03  0.39860105549E+03  0.12699999809E+01 0.  1.
    10030    2    1    2    0    0  0.00000000000E+00  0.00000000000E+00  0.36424007233E+03  0.11614412173E+04  0.11028485258E+04 0.  0.
        5    1    3    3  502    0  0.14172568688E+02  0.55022874944E+03  0.14728568275E+03  0.56979619230E+03  0.46999998093E+01 0.  1.
       -5    1    3    3    0  502 -0.14172568688E+02 -0.55022874944E+03  0.21695438958E+03  0.59164502497E+03  0.46999998093E+01 0. -1.
</event>
<event>
 5   0  0.2374100E-03  0.1098835E+04  0.7818609E-02  0.9206328E-01
        1   -1    0    0  501    0  0.00000000000E+00  0.00000000000E+00  0.44780269724E+03  0.44780269727E+03  0.50400001928E-02 0. -1.
       -1   -1    0    0    0  501  0.00000000000E+00  0.00000000000E+00 -0.67409012710E+03  0.67409012712E+03  0.50400001928E-02 0.  1.
    10030    2    1    2    0    0  0.00000000000E+00  0.00000000000E+00 -0.22628742986E+03  0.11218928244E+04  0.10988346138E+04 0.  0.
        2    1    3    3  502    0  0.20019601971E+03 -0.49022798648E+03  0.36413756708E+02  0.53078045058E+03  0.25500000920E-02 0.  1.
       -2    1    3    3    0  502 -0.20019601971E+03  0.49022798648E+03 -0.26270118657E+03  0.59111237381E+03  0.25500000920E-02 0. -1.
</event>
<event>
 5   0  0.2298958E-03  0.1095847E+04  0.7818609E-02  0.9209249E-01
       -1   -1    0    0    0  501  0.00000000000E+00  0.00000000000E+00  0.24053408589E+03  0.24053408595E+03  0.50400001928E-02 0. -1.
        1   -1    0    0  501    0  0.00000000000E+00  0.00000000000E+00 -0.12481404880E+04  0.12481404880E+04  0.50400001928E-02 0.  1.
    10030    2    1    2    0    0  0.00000000000E+00  0.00000000000E+00 -0.10076064021E+04  0.14886745740E+04  0.10958473094E+04 0.  0.
        1    1    3    3  502    0  0.12238970800E+03 -0.50157277713E+03 -0.75305853030E+03  0.91304525708E+03  0.50400001928E-02 0.  1.
       -1    1    3    3    0  502 -0.12238970800E+03  0.50157277713E+03 -0.25454787181E+03  0.57562931688E+03  0.50400001928E-02 0. -1.
</event>
<event>
 5   0  0.2300702E-03  0.1102851E+04  0.7818609E-02  0.9202418E-01
       -1   -1    0    0    0  501  0.00000000000E+00  0.00000000000E+00  0.12703970490E+03  0.12703970500E+03  0.50400001928E-02 0.  1.
        1   -1    0    0  501    0  0.00000000000E+00  0.00000000000E+00 -0.23935038404E+04  0.23935038404E+04  0.50400001928E-02 0. -1.
    10030    2    1    2    0    0  0.00000000000E+00  0.00000000000E+00 -0.22664641355E+04  0.25205435454E+04  0.11028508906E+04 0.  0.
        5    1    3    3  502    0  0.42682697048E+02  0.19742007992E+03  0.39402728192E+02  0.20584257473E+03  0.46999998093E+01 0.  1.
       -5    1    3    3    0  502 -0.42682697048E+02 -0.19742007992E+03 -0.23058668637E+04  0.23147009707E+04  0.46999998093E+01 0. -1.
</event>
<event>
 5   0  0.2255788E-03  0.1089524E+04  0.7818609E-02  0.9215463E-01
       -1   -1    0    0    0  501  0.00000000000E+00  0.00000000000E+00  0.69597636645E+03  0.69597636647E+03  0.50400001928E-02 0.  1.
        1   -1    0    0  501    0  0.00000000000E+00  0.00000000000E+00 -0.42640164493E+03  0.42640164496E+03  0.50400001928E-02 0. -1.
    10030    2    1    2    0    0  0.00000000000E+00  0.00000000000E+00  0.26957472152E+03  0.11223780114E+04  0.10895236895E+04 0.  0.
        3    1    3    3  502    0 -0.40507144959E+03  0.20891614246E+03  0.44217529277E+03  0.63501797895E+03  0.10100000352E+00 0.  1.
       -3    1    3    3    0  502  0.40507144959E+03 -0.20891614246E+03 -0.17260057125E+03  0.48736003247E+03  0.10100000352E+00 0. -1.
</event>
<event>
 5   0  0.3992414E-03  0.1081404E+04  0.7818609E-02  0.9223509E-01
        2   -1    0    0  501    0  0.00000000000E+00  0.00000000000E+00  0.12927926991E+04  0.12927926991E+04  0.25500000920E-02 0. -1.
       -2   -1    0    0    0  501  0.00000000000E+00  0.00000000000E+00 -0.22614493203E+03  0.22614493204E+03  0.25500000920E-02 0.  1.
    10030    2    1    2    0    0  0.00000000000E+00  0.00000000000E+00  0.10666477671E+04  0.15189376312E+04  0.10814037490E+04 0.  0.
        1    1    3    3  502    0 -0.44505395471E+03 -0.24237746457E+02  0.10337453837E+03  0.45754429967E+03  0.50400001928E-02 0.  1.
       -1    1    3    3    0  502  0.44505395471E+03  0.24237746457E+02  0.96327322872E+03  0.10613933315E+04  0.50400001928E-02 0. -1.
</event>
<event>
 5   0  0.2255788E-03  0.1085184E+04  0.7818609E-02  0.9219754E-01
       -1   -1    0    0    0  501  0.00000000000E+00  0.00000000000E+00  0.44923711403E+03  0.44923711406E+03  0.50400001928E-02 0. -1.
        1   -1    0    0  501    0  0.00000000000E+00  0.00000000000E+00 -0.65534659812E+03  0.65534659814E+03  0.50400001928E-02 0.  1.
    10030    2    1    2    0    0  0.00000000000E+00  0.00000000000E+00 -0.20610948409E+03  0.11045837122E+04  0.10851838820E+04 0.  0.
        3    1    3    3  502    0 -0.20112528294E+03 -0.40826597917E+03 -0.40375689280E+03  0.60840128852E+03  0.10100000352E+00 0.  1.
       -3    1    3    3    0  502  0.20112528294E+03  0.40826597917E+03  0.19764740871E+03  0.49618242367E+03  0.10100000352E+00 0. -1.
</event>
<event>
 5   0  0.2298958E-03  0.1082647E+04  0.7818609E-02  0.9222272E-01
        1   -1    0    0  501    0  0.00000000000E+00  0.00000000000E+00  0.98978969334E+03  0.98978969336E+03  0.50400001928E-02 0.  1.
       -1   -1    0    0    0  501  0.00000000000E+00  0.00000000000E+00 -0.29605416206E+03  0.29605416210E+03  0.50400001928E-02 0. -1.
    10030    2    1    2    0    0  0.00000000000E+00  0.00000000000E+00  0.69373553128E+03  0.12858438555E+04  0.10826474187E+04 0.  0.
        1    1    3    3  502    0  0.36137437957E+03  0.18165173240E+03  0.77417450543E+03  0.87346148110E+03  0.50400001928E-02 0.  1.
       -1    1    3    3    0  502 -0.36137437957E+03 -0.18165173240E+03 -0.80438974147E+02  0.41238237436E+03  0.50400001928E-02 0. -1.
</event>
<event>
 5   0  0.2298958E-03  0.1097008E+04  0.7818609E-02  0.9208113E-01
       -1   -1    0    0    0  501  0.00000000000E+00  0.00000000000E+00  0.22807538500E+03  0.22807538505E+03  0.50400001928E-02 0.  1.
        1   -1    0    0  501    0  0.00000000000E+00  0.00000000000E+00 -0.13191102998E+04  0.13191102998E+04  0.50400001928E-02 0. -1.
    10030    2    1    2    0    0  0.00000000000E+00  0.00000000000E+00 -0.10910349148E+04  0.15471856849E+04  0.10970079116E+04 0.  0.
        1    1    3    3  502    0 -0.42718890692E+03  0.12353677566E+02 -0.10304333592E+04  0.11155428648E+04  0.50400001928E-02 0. -1.
       -1    1    3    3    0  502  0.42718890692E+03 -0.12353677566E+02 -0.60601555667E+02  0.43164282007E+03  0.50400001928E-02 0.  1.
</event>
<event>
 5   0  0.2374100E-03  0.1091681E+04  0.7818609E-02  0.9213339E-01
       -1   -1    0    0    0  501  0.00000000000E+00  0.00000000000E+00  0.43041664304E+03  0.43041664307E+03  0.50400001928E-02 0. -1.
        1   -1    0    0  501    0  0.00000000000E+00  0.00000000000E+00 -0.69221681739E+03  0.69221681741E+03  0.50400001928E-02 0.  1.
    10030    2    1    2    0    0  0.00000000000E+00  0.00000000000E+00 -0.26180017435E+03  0.11226334605E+04  0.10916806105E+04 0.  0.
        2    1    3    3  502    0  0.41389905120E+03 -0.32827454858E+03  0.10344298173E+02  0.52837828148E+03  0.25500000920E-02 0.  1.
       -2    1    3    3    0  502 -0.41389905120E+03  0.32827454858E+03 -0.27214447253E+03  0.59425517899E+03  0.25500000920E-02 0. -1.
</event>
<event>
 5   0  0.2255788E-03  0.1083615E+04  0.7818609E-02  0.9221311E-01
       -1   -1    0    0    0  501  0.00000000000E+00  0.00000000000E+00  0.66939881635E+03  0.66939881637E+03  0.50400001928E-02 0.  1.
        1   -1    0    0  501    0  0.00000000000E+00  0.00000000000E+00 -0.43853561347E+03  0.43853561350E+03  0.50400001928E-02 0. -1.
    10030    2    1    2    0    0  0.00000000000E+00  0.00000000000E+00  0.23086320288E+03  0.11079344299E+04  0.10836147297E+04 0.  0.
        3    1    3    3  502    0  0.39164511096E+03  0.31911506023E+03  0.31561880015E+03  0.59568074655E+03  0.10100000352E+00 0.  1.
       -3    1    3    3    0  502 -0.39164511096E+03 -0.31911506023E+03 -0.84755597272E+02  0.51225368332E+03  0.10100000352E+00 0. -1.
</event>
<event>
 5   0  0.3992414E-03  0.1101185E+04  0.7818609E-02  0.9204038E-01
        2   -1    0    0  501    0  0.00000000000E+00  0.00000000000E+00  0.79037012644E+03  0.79037012644E+03  0.25500000920E-02 0. -1.
       -2   -1    0    0    0  501  0.00000000000E+00  0.00000000000E+00 -0.38355680504E+03  0.38355680505E+03  0.25500000920E-02 0.  1.
    10030    2    1    2    0    0  0.00000000000E+00  0.00000000000E+00  0.40681332140E+03  0.11739269315E+04  0.11011845268E+04 0.  0.
        1    1    3    3  502    0 -0.51128842560E+03 -0.13797512996E+03  0.42792848015E+02  0.53130426171E+03  0.50400001928E-02 0.  1.
       -1    1    3    3    0  502  0.51128842560E+03  0.13797512996E+03  0.36402047338E+03  0.64262266978E+03  0.50400001928E-02 0. -1.
</event>
<event>
 5   0  0.3962999E-03  0.1055326E+04  0.7818609E-02  0.9249862E-01
       -2   -1    0    0    0  501  0.00000000000E+00  0.00000000000E+00  0.48157757015E+03  0.48157757015E+03  0.25500000920E-02 0. -1.
        2   -1    0    0  501    0  0.00000000000E+00  0.00000000000E+00 -0.57815869091E+03  0.57815869092E+03  0.25500000920E-02 0.  1.
    10030    2    1    2    0    0  0.00000000000E+00  0.00000000000E+00 -0.96581120763E+02  0.10597362611E+04  0.10553260303E+04 0.  0.
        3    1    3    3  502    0 -0.38687167591E+03  0.12616004213E+02 -0.40839676058E+03  0.56268710794E+03  0.10100000352E+00 0.  1.
       -3    1    3    3    0  502  0.38687167591E+03 -0.12616004213E+02  0.31181563982E+03  0.49704915313E+03  0.10100000352E+00 0. -1.
</event>
<event>
 5   0  0.2255788E-03  0.1101716E+04  0.7818609E-02  0.9203521E-01
       -1   -1    0    0    0  501  0.00000000000E+00  0.00000000000E+00  0.61731857192E+03  0.61731857195E+03  0.50400001928E-02 0. -1.
        1   -1    0    0  501    0  0.00000000000E+00  0.00000000000E+00 -0.49155244460E+03  0.49155244463E+03  0.50400001928E-02 0.  1.
    10030    2    1    2    0    0  0.00000000000E+00  0.00000000000E+00  0.12576612733E+03  0.11088710166E+04  0.11017158493E+04 0.  0.
        3    1    3    3  502    0 -0.48463726952E+02 -0.47734078210E+03 -0.20950621774E+03  0.52354161302E+03  0.10100000352E+00 0. -1.
       -3    1    3    3    0  502  0.48463726952E+02  0.47734078210E+03  0.33527234507E+03  0.58532940355E+03  0.10100000352E+00 0.  1.
</event>
<event>
 5   0  0.3748901E-03  0.1102348E+04  0.7818609E-02  0.9202906E-01
       -2   -1    0    0    0  501  0.00000000000E+00  0.00000000000E+00  0.32455043708E+03  0.32455043709E+03  0.25500000920E-02 0.  1.
        2   -1    0    0  501    0  0.00000000000E+00  0.00000000000E+00 -0.93604201874E+03  0.93604201874E+03  0.25500000920E-02 0. -1.
    10030    2    1    2    0    0  0.00000000000E+00  0.00000000000E+00 -0.61149158166E+03  0.12605924558E+04  0.11023481235E+04 0.  0.
        5    1    3    3  502    0  0.48264680470E+03 -0.21465231990E+03 -0.48564073953E+03  0.71756015386E+03  0.46999998093E+01 0. -1.
       -5    1    3    3    0  502 -0.48264680470E+03  0.21465231990E+03 -0.12585084213E+03  0.54303230198E+03  0.46999998093E+01 0.  1.
</event>
<event>
 5   0  0.2257667E-03  0.1108953E+04  0.7818609E-02  0.9196509E-01
       -1   -1    0    0    0  501  0.00000000000E+00  0.00000000000E+00  0.35104741768E+03  0.35104741772E+03  0.50400001928E-02 0. -1.
        1   -1    0    0  501    0  0.00000000000E+00  0.00000000000E+00 -0.87579157568E+03  0.87579157570E+03  0.50400001928E-02 0.  1.
    10030    2    1    2    0    0  0.00000000000E+00  0.00000000000E+00 -0.52474415800E+03  0.12268389934E+04  0.11089533283E+04 0.  0.
        4    1    3    3  502    0 -0.25690631116E+03  0.23510091223E+02  0.28060681668E+03  0.38117630510E+03  0.12699999809E+01 0. -1.
       -4    1    3    3    0  502  0.25690631116E+03 -0.23510091223E+02 -0.80535097467E+03  0.84566268832E+03  0.12699999809E+01 0.  1.
</event>
<event>
 5   0  0.2374100E-03  0.1115297E+04  0.7818609E-02  0.9190410E-01
        1   -1    0    0  501    0  0.00000000000E+00  0.00000000000E+00  0.13644003873E+04  0.13644003873E+04  0.50400001928E-02 0.  1.
       -1   -1    0    0    0  501  0.00000000000E+00  0.00000000000E+00 -0.22791819124E+03  0.22791819129E+03  0.50400001928E-02 0. -1.
    10030    2    1    2    0    0  0.00000000000E+00  0.00000000000E+00  0.11364821961E+04  0.15923185786E+04  0.11152966752E+04 0.  0.
        2    1    3    3  502    0  0.16755684959E+03  0.32758114535E+03  0.11664952060E+04  0.12231499377E+04  0.25500000920E-02 0.  1.
       -2    1    3    3    0  502 -0.16755684959E+03 -0.32758114535E+03 -0.30013009898E+02  0.36916864087E+03  0.25500000920E-02 0. -1.
</event>
<event>
 5   0  0.2298958E-03  0.1092693E+04  0.7818609E-02  0.9212343E-01
       -1   -1    0    0    0  501  0.00000000000E+00  0.00000000000E+00  0.48462999414E+03  0.48462999417E+03  0.50400001928E-02 0. -1.
        1   -1    0    0  501    0  0.00000000000E+00  0.00000000000E+00 -0.61592285817E+03  0.61592285819E+03  0.50400001928E-02 0.  1.
    10030    2    1    2    0    0  0.00000000000E+00  0.00000000000E+00 -0.13129286403E+03  0.11005528524E+04  0.10926933535E+04 0.  0.
        1    1    3    3  502    0  0.30414503296E+03 -0.25599174205E+03 -0.44312035315E+03  0.59530800471E+03  0.50400001928E-02 0.  1.
       -1    1    3    3    0  502 -0.30414503296E+03  0.25599174205E+03  0.31182748913E+03  0.50524484765E+03  0.50400001928E-02 0. -1.
</event>
<event>
 5   0  0.2300702E-03  0.1106258E+04  0.7818609E-02  0.9199114E-01
        1   -1    0    0  501    0  0.00000000000E+00  0.00000000000E+00  0.11648668182E+04  0.11648668182E+04  0.50400001928E-02 0.  1.
       -1   -1    0    0    0  501  0.00000000000E+00  0.00000000000E+00 -0.26264954197E+03  0.26264954202E+03  0.50400001928E-02 0. -1.
    10030    2    1    2    0    0  0.00000000000E+00  0.00000000000E+00  0.90221727621E+03  0.14275163602E+04  0.11062580825E+04 0.  0.
        5    1    3    3  502    0  0.35985190098E+03 -0.10964918123E+03 -0.72121952973E+02  0.38306657343E+03  0.46999998093E+01 0. -1.
       -5    1    3    3    0  502 -0.35985190098E+03  0.10964918123E+03  0.97433922918E+03  0.10444497868E+04  0.46999998093E+01 0.  1.
</event>
<event>
 5   0  0.3748901E-03  0.1088068E+04  0.7818609E-02  0.9216900E-01
        2   -1    0    0  501    0  0.00000000000E+00  0.00000000000E+00  0.12748154828E+04  0.12748154828E+04  0.25500000920E-02 0.  1.
       -2   -1    0    0    0  501  0.00000000000E+00  0.00000000000E+00 -0.23216929143E+03  0.23216929145E+03  0.25500000920E-02 0. -1.
    10030    2    1    2    0    0  0.00000000000E+00  0.00000000000E+00  0.10426461913E+04  0.15069847742E+04  0.10880680261E+04 0.  0.
        5    1    3    3  502    0 -0.52616355147E+03  0.13701692136E+03  0.49619374724E+03  0.73610600081E+03  0.46999998093E+01 0.  1.
       -5    1    3    3    0  502  0.52616355147E+03 -0.13701692136E+03  0.54645244408E+03  0.77087877340E+03  0.46999998093E+01 0. -1.
</event>
<event>
 5   0  0.3713158E-03  0.1106994E+04  0.7818609E-02  0.9198401E-01
        2   -1    0    0  501    0  0.00000000000E+00  0.00000000000E+00  0.79789157496E+03  0.79789157496E+03  0.25500000920E-02 0. -1.
       -2   -1    0    0    0  501  0.00000000000E+00  0.00000000000E+00 -0.38396091034E+03  0.38396091035E+03  0.25500000920E-02 0.  1.
    10030    2    1    2    0    0  0.00000000000E+00  0.00000000000E+00  0.41393066462E+03  0.11818524853E+04  0.11069944453E+04 0.  0.
        4    1    3    3  502    0  0.14741034128E+02  0.32342871724E+03  0.68624845139E+03  0.75878981488E+03  0.12699999809E+01 0. -1.
       -4    1    3    3    0  502 -0.14741034128E+02 -0.32342871724E+03 -0.27231778677E+03  0.42306267044E+03  0.12699999809E+01 0.  1.
</event>
<event>
 5   0  0.2300702E-03  0.1098154E+04  0.7818609E-02  0.9206993E-01
       -1   -1    0    0    0  501  0.00000000000E+00  0.00000000000E+00  0.32277401193E+03  0.32277401197E+03  0.50400001928E-02 0. -1.
        1   -1    0    0  501    0  0.00000000000E+00  0.00000000000E+00 -0.93404457436E+03  0.93404457437E+03  0.50400001928E-02 0.  1.
    10030    2    1    2    0    0  0.00000000000E+00  0.00000000000E+00 -0.61127056243E+03  0.12568185863E+04  0.10981535678E+04 0.  0.
        5    1    3    3  502    0  0.14188813057E+03 -0.37870966755E+03 -0.73065330817E+03  0.83512250636E+03  0.46999998093E+01 0.  1.
       -5    1    3    3    0  502 -0.14188813057E+03  0.37870966755E+03  0.11938274573E+03  0.42169607998E+03  0.46999998093E+01 0. -1.
</event>
<event>
 5   0  0.2300702E-03  0.1031463E+04  0.7818609E-02  0.9274694E-01
        1   -1    0    0  501    0  0.00000000000E+00  0.00000000000E+00  0.41626862795E+03  0.41626862798E+03  0.50400001928E-02 0.  1.
       -1   -1    0    0    0  501  0.00000000000E+00  0.00000000000E+00 -0.63895976326E+03  0.63895976328E+03  0.50400001928E-02 0. -1.
    10030    2    1    2    0    0  0.00000000000E+00  0.00000000000E+00 -0.22269113531E+03  0.10552283913E+04  0.10314628524E+04 0.  0.
        5    1    3    3  502    0  0.27641994463E+03  0.33727687695E+03 -0.39299430949E+03  0.58705220791E+03  0.46999998093E+01 0.  1.
       -5    1    3    3    0  502 -0.27641994463E+03 -0.33727687695E+03  0.17030317418E+03  0.46817618335E+03  0.46999998093E+01 0. -1.
</event>
<event>
 5   0  0.3992414E-03  0.1052584E+04  0.7818609E-02  0.9252680E-01
        2   -1    0    0  501    0  0.00000000000E+00  0.00000000000E+00  0.26540715976E+03  0.26540715977E+03  0.25500000920E-02 0.  1.
       -2   -1    0    0    0  501  0.00000000000E+00  0.00000000000E+00 -0.10436168509E+04  0.10436168509E+04  0.25500000920E-02 0. -1.
    10030    2    1    2    0    0  0.00000000000E+00  0.00000000000E+00 -0.77820969113E+03  0.13090240107E+04  0.10525842185E+04 0.  0.
        1    1    3    3  502    0  0.31495324884E+03  0.42088616350E+03 -0.42063206549E+03  0.67325481515E+03  0.50400001928E-02 0. -1.
       -1    1    3    3    0  502 -0.31495324884E+03 -0.42088616350E+03 -0.35757762564E+03  0.63576919551E+03  0.50400001928E-02 0.  1.
</event>
<event>
 5   0  0.3713158E-03  0.9196853E+03  0.7818609E-02  0.9401303E-01
        2   -1    0    0  501    0  0.00000000000E+00  0.00000000000E+00  0.60267759860E+03  0.60267759861E+03  0.25500000920E-02 0. -1.
       -2   -1    0    0    0  501  0.00000000000E+00  0.00000000000E+00 -0.35085966622E+03  0.35085966623E+03  0.25500000920E-02 0.  1.
    10030    2    1    2    0    0  0.00000000000E+00  0.00000000000E+00  0.25181793238E+03  0.95353726484E+03  0.91968529637E+03 0.  0.
        4    1    3    3  502    0  0.14863283414E+03 -0.23919527479E+03  0.50281056854E+03  0.57630389519E+03  0.12699999809E+01 0. -1.
       -4    1    3    3    0  502 -0.14863283414E+03  0.23919527479E+03 -0.25099263616E+03  0.37723336965E+03  0.12699999809E+01 0.  1.
</event>
<event>
 5   0  0.3713158E-03  0.1103357E+04  0.7818609E-02  0.9201926E-01
        2   -1    0    0  501    0  0.00000000000E+00  0.00000000000E+00  0.13391671010E+04  0.13391671010E+04  0.25500000920E-02 0. -1.
       -2   -1    0    0    0  501  0.00000000000E+00  0.00000000000E+00 -0.22726762328E+03  0.22726762329E+03  0.25500000920E-02 0.  1.
    10030    2    1    2    0    0  0.00000000000E+00  0.00000000000E+00  0.11118994777E+04  0.15664347243E+04  0.11033572843E+04 0.  0.
        4    1    3    3  502    0 -0.32420295960E+03 -0.31926021628E+03  0.99882529901E+03  0.10975829060E+04  0.12699999809E+01 0. -1.
       -4    1    3    3    0  502  0.32420295960E+03  0.31926021628E+03  0.11307417869E+03  0.46885181827E+03  0.12699999809E+01 0.  1.
</event>
<event>
 5   0  0.2257667E-03  0.1090163E+04  0.7818609E-02  0.9214833E-01
        1   -1    0    0  501    0  0.00000000000E+00  0.00000000000E+00  0.92723787061E+03  0.92723787063E+03  0.50400001928E-02 0.  1.
       -1   -1    0    0    0  501  0.00000000000E+00  0.00000000000E+00 -0.32042891333E+03  0.32042891337E+03  0.50400001928E-02 0. -1.
    10030    2    1    2    0    0  0.00000000000E+00  0.00000000000E+00  0.60680895728E+03  0.12476667840E+04  0.10901629664E+04 0.  0.
        4    1    3    3  502    0 -0.40521168878E+03 -0.27794398097E+03  0.57342071123E+03  0.75515713216E+03  0.12699999809E+01 0.  1.
       -4    1    3    3    0  502  0.40521168878E+03  0.27794398097E+03  0.33388246052E+02  0.49250965184E+03  0.12699999809E+01 0. -1.
</event>
<event>
 5   0  0.2255788E-03  0.1048559E+04  0.7818609E-02  0.9256833E-01
        1   -1    0    0  501    0  0.00000000000E+00  0.00000000000E+00  0.76722830869E+03  0.76722830871E+03  0.50400001928E-02 0.  1.
       -1   -1    0    0    0  501  0.00000000000E+00  0.00000000000E+00 -0.35826262007E+03  0.35826262010E+03  0.50400001928E-02 0. -1.
    10030    2    1    2    0    0  0.00000000000E+00  0.00000000000E+00  0.40896568862E+03  0.11254909288E+04  0.10485594386E+04 0.  0.
        3    1    3    3  502    0 -0.10040880681E+03 -0.32414040218E+03  0.63345488162E+03  0.71861952802E+03  0.10100000352E+00 0.  1.
       -3    1    3    3    0  502  0.10040880681E+03  0.32414040218E+03 -0.22448919299E+03  0.40687140079E+03  0.10100000352E+00 0. -1.
</event>
<event>
 5   0  0.2255788E-03  0.1100244E+04  0.7818609E-02  0.9204954E-01
       -1   -1    0    0    0  501  0.00000000000E+00  0.00000000000E+00  0.31252788658E+03  0.31252788662E+03  0.50400001928E-02 0. -1.
        1   -1    0    0  501    0  0.00000000000E+00  0.00000000000E+00 -0.96834247160E+03  0.96834247162E+03  0.50400001928E-02 0.  1.
    10030    2    1    2    0    0  0.00000000000E+00  0.00000000000E+00 -0.65581458502E+03  0.12808703582E+04  0.11002436570E+04 0.  0.
        3    1    3    3  502    0 -0.43859730125E+03  0.31004950656E+03 -0.46631981171E+03  0.71130335735E+03  0.10100000352E+00 0.  1.
       -3    1    3    3    0  502  0.43859730125E+03 -0.31004950656E+03 -0.18949477331E+03  0.56956700089E+03  0.10100000352E+00 0. -1.
</event>
<event>
 5   0  0.3713158E-03  0.1091193E+04  0.7818609E-02  0.9213819E-01
       -2   -1    0    0    0  501  0.00000000000E+00  0.00000000000E+00  0.20455803179E+03  0.20455803181E+03  0.25500000920E-02 0.  1.
        2   -1    0    0  501    0  0.00000000000E+00  0.00000000000E+00 -0.14552131715E+04  0.14552131715E+04  0.25500000920E-02 0. -1.
    10030    2    1    2    0    0  0.00000000000E+00  0.00000000000E+00 -0.12506551397E+04  0.16597712033E+04  0.10911930026E+04 0.  0.
        4    1    3    3  502    0 -0.47304256587E+03  0.26147455661E+03 -0.73849815748E+03  0.91516083525E+03  0.12699999809E+01 0.  1.
       -4    1    3    3    0  502  0.47304256587E+03 -0.26147455661E+03 -0.51215698224E+03  0.74461036806E+03  0.12699999809E+01 0. -1.
</event>
<event>
 5   0  0.2257667E-03  0.1108433E+04  0.7818609E-02  0.9197011E-01
       -1   -1    0    0    0  501  0.00000000000E+00  0.00000000000E+00  0.15533181649E+03  0.15533181657E+03  0.50400001928E-02 0. -1.
        1   -1    0    0  501    0  0.00000000000E+00  0.00000000000E+00 -0.19774188888E+04  0.19774188888E+04  0.50400001928E-02 0.  1.
    10030    2    1    2    0    0  0.00000000000E+00  0.00000000000E+00 -0.18220870723E+04  0.21327507053E+04  0.11084332511E+04 0.  0.
        4    1    3    3  502    0  0.50511608986E+03  0.94733878601E+02 -0.51187620452E+03  0.72535207564E+03  0.12699999809E+01 0. -1.
       -4    1    3    3    0  502 -0.50511608986E+03 -0.94733878601E+02 -0.13102108678E+04  0.14073986297E+04  0.12699999809E+01 0.  1.
</event>
<event>
 5   0  0.3992414E-03  0.9838249E+03  0.7818609E-02  0.9326465E-01
        2   -1    0    0  501    0  0.00000000000E+00  0.00000000000E+00  0.54585221058E+03  0.54585221058E+03  0.25500000920E-02 0.  1.
       -2   -1    0    0    0  501  0.00000000000E+00  0.00000000000E+00 -0.44330290822E+03  0.44330290822E+03  0.25500000920E-02 0. -1.
    10030    2    1    2    0    0  0.00000000000E+00  0.00000000000E+00  0.10254930236E+03  0.98915511881E+03  0.98382492835E+03 0.  0.
        1    1    3    3  502    0 -0.47080573406E+02 -0.25399485860E+03 -0.36961960213E+03  0.45094192408E+03  0.50400001928E-02 0. -1.
       -1    1    3    3    0  502  0.47080573406E+02  0.25399485860E+03  0.47216890449E+03  0.53821319473E+03  0.50400001928E-02 0.  1.
</event>
<event>
 5   0  0.2300702E-03  0.1106551E+04  0.7818609E-02  0.9198830E-01
       -1   -1    0    0    0  501  0.00000000000E+00  0.00000000000E+00  0.68918560853E+03  0.68918560855E+03  0.50400001928E-02 0.  1.
        1   -1    0    0  501    0  0.00000000000E+00  0.00000000000E+00 -0.44416773595E+03  0.44416773598E+03  0.50400001928E-02 0. -1.
    10030    2    1    2    0    0  0.00000000000E+00  0.00000000000E+00  0.24501787258E+03  0.11333533445E+04  0.11065514203E+04 0.  0.
        5    1    3    3  502    0  0.54883419613E+02  0.43318167007E+03 -0.22547518116E+03  0.49144653458E+03  0.46999998093E+01 0. -1.
       -5    1    3    3    0  502 -0.54883419613E+02 -0.43318167007E+03  0.47049305375E+03  0.64190680995E+03  0.46999998093E+01 0.  1.
</event>
<event>
 5   0  0.3962999E-03  0.1091298E+04  0.7818609E-02  0.9213715E-01
        2   -1    0    0  501    0  0.00000000000E+00  0.00000000000E+00  0.23860184163E+04  0.23860184163E+04  0.25500000920E-02 0.  1.
       -2   -1    0    0    0  501  0.00000000000E+00  0.00000000000E+00 -0.12478237212E+03  0.12478237215E+03  0.25500000920E-02 0. -1.
    10030    2    1    2    0    0  0.00000000000E+00  0.00000000000E+00  0.22612360442E+04  0.25108007885E+04  0.10912983789E+04 0.  0.
        3    1    3    3  502    0  0.15141808880E+03 -0.47887818401E+03  0.16212830015E+04  0.16972950049E+04  0.10100000352E+00 0. -1.
       -3    1    3    3    0  502 -0.15141808880E+03  0.47887818401E+03  0.63995304273E+03  0.81350578354E+03  0.10100000352E+00 0.  1.
</event>
<event>
 5   0  0.3992414E-03  0.1093949E+04  0.7818609E-02  0.9211109E-01
        2   -1    0    0  501    0  0.00000000000E+00  0.00000000000E+00  0.18504485245E+04  0.18504485245E+04  0.25500000920E-02 0.  1.
       -2   -1    0    0    0  501  0.00000000000E+00  0.00000000000E+00 -0.16168044382E+03  0.16168044384E+03  0.25500000920E-02 0. -1.
    10030    2    1    2    0    0  0.00000000000E+00  0.00000000000E+00  0.16887680807E+04  0.20121289683E+04  0.10939494298E+04 0.  0.
        1    1    3    3  502    0  0.32620651450E+03 -0.28775918895E+03  0.23444505262E+03  0.49414625735E+03  0.50400001928E-02 0. -1.
       -1    1    3    3    0  502 -0.32620651450E+03  0.28775918895E+03  0.14543230280E+04  0.15179827110E+04  0.50400001928E-02 0.  1.
</event>
<event>
 5   0  0.2300702E-03  0.1096284E+04  0.7818609E-02  0.9208821E-01
       -1   -1    0    0    0  501  0.00000000000E+00  0.00000000000E+00  0.32121302767E+03  0.32121302771E+03  0.50400001928E-02 0. -1.
        1   -1    0    0  501    0  0.00000000000E+00  0.00000000000E+00 -0.93539082516E+03  0.93539082517E+03  0.50400001928E-02 0.  1.
    10030    2    1    2    0    0  0.00000000000E+00  0.00000000000E+00 -0.61417779748E+03  0.12566038529E+04  0.10962841220E+04 0.  0.
        5    1    3    3  502    0 -0.82955239988E+02  0.46748506584E+03 -0.62102825282E+03  0.78174294971E+03  0.46999998093E+01 0. -1.
       -5    1    3    3    0  502  0.82955239988E+02 -0.46748506584E+03  0.68504553397E+01  0.47486090317E+03  0.46999998093E+01 0.  1.
</event>
<event>
 5   0  0.2374100E-03  0.1099979E+04  0.7818609E-02  0.9205212E-01
        1   -1    0    0  501    0  0.00000000000E+00  0.00000000000E+00  0.90571648424E+03  0.90571648425E+03  0.50400001928E-02 0.  1.
       -1   -1    0    0    0  501  0.00000000000E+00  0.00000000000E+00 -0.33397708494E+03  0.33397708498E+03  0.50400001928E-02 0. -1.
    10030    2    1    2    0    0  0.00000000000E+00  0.00000000000E+00  0.57173939929E+03  0.12396935692E+04  0.10999791838E+04 0.  0.
        2    1    3    3  502    0  0.98861001198E+02  0.52237356322E+03  0.12712080127E+03  0.54663272426E+03  0.25500000920E-02 0. -1.
       -2    1    3    3    0  502 -0.98861001198E+02 -0.52237356322E+03  0.44461859803E+03  0.69306084497E+03  0.25500000920E-02 0.  1.
</event>
<event>
 5   0  0.3744875E-03  0.1115196E+04  0.7818609E-02  0.9190506E-01
        2   -1    0    0  501    0  0.00000000000E+00  0.00000000000E+00  0.61054789140E+03  0.61054789140E+03  0.25500000920E-02 0.  1.
       -2   -1    0    0    0  501  0.00000000000E+00  0.00000000000E+00 -0.50924004882E+03  0.50924004883E+03  0.25500000920E-02 0. -1.
    10030    2    1    2    0    0  0.00000000000E+00  0.00000000000E+00  0.10130784257E+03  0.11197879402E+04  0.11151958358E+04 0.  0.
        2    1    3    3  502    0  0.48759609322E+03 -0.15056348372E+03  0.27629266559E+03  0.58030763378E+03  0.25500000920E-02 0.  1.
       -2    1    3    3    0  502 -0.48759609322E+03  0.15056348372E+03 -0.17498482302E+03  0.53948030645E+03  0.25500000920E-02 0. -1.
</event>
<event>
 5   0  0.3744875E-03  0.1106115E+04  0.7818609E-02  0.9199252E-01
       -2   -1    0    0    0  501  0.00000000000E+00  0.00000000000E+00  0.60965519423E+03  0.60965519423E+03  0.25500000920E-02 0. -1.
        2   -1    0    0  501    0  0.00000000000E+00  0.00000000000E+00 -0.50171419693E+03  0.50171419694E+03  0.25500000920E-02 0.  1.
    10030    2    1    2    0    0  0.00000000000E+00  0.00000000000E+00  0.10794099730E+03  0.11113693912E+04  0.11061151227E+04 0.  0.
        2    1    3    3  502    0  0.40919464579E+03  0.37198792539E+03  0.46358801448E+02  0.55494541466E+03  0.25500000920E-02 0.  1.
       -2    1    3    3    0  502 -0.40919464579E+03 -0.37198792539E+03  0.61582195848E+02  0.55642397650E+03  0.25500000920E-02 0. -1.
</event>
<event>
 5   0  0.2298958E-03  0.1110109E+04  0.7818609E-02  0.9195395E-01
       -1   -1    0    0    0  501  0.00000000000E+00  0.00000000000E+00  0.10157784260E+04  0.10157784260E+04  0.50400001928E-02 0.  1.
        1   -1    0    0  501    0  0.00000000000E+00  0.00000000000E+00 -0.30329964299E+03  0.30329964304E+03  0.50400001928E-02 0. -1.
    10030    2    1    2    0    0  0.00000000000E+00  0.00000000000E+00  0.71247878302E+03  0.13190780691E+04  0.11101085244E+04 0.  0.
        1    1    3    3  502    0  0.18049393219E+03  0.40748421643E+03 -0.36894330654E+02  0.44719418361E+03  0.50400001928E-02 0. -1.
       -1    1    3    3    0  502 -0.18049393219E+03 -0.40748421643E+03  0.74937311368E+03  0.87188388546E+03  0.50400001928E-02 0.  1.
</event>
<event>
 5   0  0.2374100E-03  0.1099426E+04  0.7818609E-02  0.9205752E-01
        1   -1    0    0  501    0  0.00000000000E+00  0.00000000000E+00  0.71056498649E+03  0.71056498651E+03  0.50400001928E-02 0.  1.
       -1   -1    0    0    0  501  0.00000000000E+00  0.00000000000E+00 -0.42527335988E+03  0.42527335991E+03  0.50400001928E-02 0. -1.
    10030    2    1    2    0    0  0.00000000000E+00  0.00000000000E+00  0.28529162661E+03  0.11358383464E+04  0.10994259579E+04 0.  0.
        2    1    3    3  502    0  0.22388355010E+03 -0.28822656932E+03 -0.28204791888E+03  0.46124768597E+03  0.25500000920E-02 0. -1.
       -2    1    3    3    0  502 -0.22388355010E+03  0.28822656932E+03  0.56733954549E+03  0.67459066044E+03  0.25500000920E-02 0.  1.
</event>
<event>
 5   0  0.3992414E-03  0.1107218E+04  0.7818609E-02  0.9198185E-01
       -2   -1    0    0    0  501  0.00000000000E+00  0.00000000000E+00  0.39591773028E+03  0.39591773029E+03  0.25500000920E-02 0.  1.
        2   -1    0    0  501    0  0.00000000000E+00  0.00000000000E+00 -0.77410725990E+03  0.77410725990E+03  0.25500000920E-02 0. -1.
    10030    2    1    2    0    0  0.00000000000E+00  0.00000000000E+00 -0.37818952961E+03  0.11700249902E+04  0.11072177552E+04 0.  0.
        1    1    3    3  502    0  0.15336689046E+02 -0.89153157407E+02  0.38805457878E+03  0.39845935256E+03  0.50400001928E-02 0.  1.
       -1    1    3    3    0  502 -0.15336689046E+02  0.89153157407E+02 -0.76624410839E+03  0.77156563763E+03  0.50400001928E-02 0. -1.
</event>
<event>
 5   0  0.2257667E-03  0.1086608E+04  0.7818609E-02  0.9218344E-01
        1   -1    0    0  501    0  0.00000000000E+00  0.00000000000E+00  0.96881376328E+03  0.96881376329E+03  0.50400001928E-02 0.  1.
       -1   -1    0    0    0  501  0.00000000000E+00  0.00000000000E+00 -0.30468102633E+03  0.30468102637E+03  0.50400001928E-02 0. -1.
    10030    2    1    2    0    0  0.00000000000E+00  0.00000000000E+00  0.66413273695E+03  0.12734947897E+04  0.10866078810E+04 0.  0.
        4    1    3    3  502    0  0.22438859438E+03 -0.27862098165E+03 -0.14715858883E+03  0.38682962124E+03  0.12699999809E+01 0. -1.
       -4    1    3    3    0  502 -0.22438859438E+03  0.27862098165E+03  0.81129132578E+03  0.88666516842E+03  0.12699999809E+01 0.  1.
</event>
<event>
 5   0  0.3992414E-03  0.1098126E+04  0.7818609E-02  0.9207020E-01
       -2   -1    0    0    0  501  0.00000000000E+00  0.00000000000E+00  0.29806823007E+03  0.29806823008E+03  0.25500000920E-02 0.  1.
        2   -1    0    0  501    0  0.00000000000E+00  0.00000000000E+00 -0.10114131769E+04  0.10114131770E+04  0.25500000920E-02 0. -1.
    10030    2    1    2    0    0  0.00000000000E+00  0.00000000000E+00 -0.71334494688E+03  0.13094814070E+04  0.10981259227E+04 0.  0.
        1    1    3    3  502    0 -0.95418982682E+02 -0.53821614214E+03 -0.29483931902E+03  0.62105685889E+03  0.50400001928E-02 0.  1.
       -1    1    3    3    0  502  0.95418982682E+02  0.53821614214E+03 -0.41850562785E+03  0.68842454814E+03  0.50400001928E-02 0. -1.
</event>
<event>
 5   0  0.2298958E-03  0.1103899E+04  0.7818609E-02  0.9201400E-01
        1   -1    0    0  501    0  0.00000000000E+00  0.00000000000E+00  0.18484518103E+03  0.18484518110E+03  0.50400001928E-02 0. -1.
       -1   -1    0    0    0  501  0.00000000000E+00  0.00000000000E+00 -0.16481274866E+04  0.16481274866E+04  0.50400001928E-02 0.  1.
    10030    2    1    2    0    0  0.00000000000E+00  0.00000000000E+00 -0.14632823055E+04  0.18329726677E+04  0.11038993137E+04 0.  0.
        1    1    3    3  502    0  0.44087834072E+03 -0.25066791963E+02 -0.18181720536E+03  0.47755580990E+03  0.50400001928E-02 0. -1.
       -1    1    3    3    0  502 -0.44087834072E+03  0.25066791963E+02 -0.12814651002E+04  0.13554168578E+04  0.50400001928E-02 0.  1.
</event>
<event>
 5   0  0.3713158E-03  0.1177951E+04  0.7818609E-02  0.9132378E-01
       -2   -1    0    0    0  501  0.00000000000E+00  0.00000000000E+00  0.15658498260E+03  0.15658498262E+03  0.25500000920E-02 0.  1.
        2   -1    0    0  501    0  0.00000000000E+00  0.00000000000E+00 -0.22153604346E+04  0.22153604346E+04  0.25500000920E-02 0. -1.
    10030    2    1    2    0    0  0.00000000000E+00  0.00000000000E+00 -0.20587754520E+04  0.23719454172E+04  0.11779510603E+04 0.  0.
        4    1    3    3  502    0  0.49529238819E+03 -0.26062822448E+03 -0.66001642929E+03  0.86536981749E+03  0.12699999809E+01 0.  1.
       -4    1    3    3    0  502 -0.49529238819E+03  0.26062822448E+03 -0.13987590227E+04  0.15065755997E+04  0.12699999809E+01 0. -1.
</event>
<event>
 5   0  0.2300702E-03  0.1099756E+04  0.7818609E-02  0.9205430E-01
        1   -1    0    0  501    0  0.00000000000E+00  0.00000000000E+00  0.67621529231E+03  0.67621529233E+03  0.50400001928E-02 0.  1.
       -1   -1    0    0    0  501  0.00000000000E+00  0.00000000000E+00 -0.44714441660E+03  0.44714441663E+03  0.50400001928E-02 0. -1.
    10030    2    1    2    0    0  0.00000000000E+00  0.00000000000E+00  0.22907087571E+03  0.11233597090E+04  0.10997561410E+04 0.  0.
        5    1    3    3  502    0 -0.14835011990E+03  0.24759817414E+03  0.59258775469E+03  0.65916230999E+03  0.46999998093E+01 0.  1.
       -5    1    3    3    0  502  0.14835011990E+03 -0.24759817414E+03 -0.36351687897E+03  0.46419739897E+03  0.46999998093E+01 0. -1.
</event>
<event>
 5   0  0.3962999E-03  0.1088401E+04  0.7818609E-02  0.9216571E-01
        2   -1    0    0  501    0  0.00000000000E+00  0.00000000000E+00  0.97204471121E+03  0.97204471121E+03  0.25500000920E-02 0.  1.
       -2   -1    0    0    0  501  0.00000000000E+00  0.00000000000E+00 -0.30467153857E+03  0.30467153858E+03  0.25500000920E-02 0. -1.
    10030    2    1    2    0    0  0.00000000000E+00  0.00000000000E+00  0.66737317264E+03  0.12767162498E+04  0.10884013189E+04 0.  0.
        3    1    3    3  502    0 -0.13637716239E+03 -0.41511607905E+03  0.71421220289E+03  0.83726887585E+03  0.10100000352E+00 0.  1.
       -3    1    3    3    0  502  0.13637716239E+03  0.41511607905E+03 -0.46839030256E+02  0.43944737394E+03  0.10100000352E+00 0. -1.
</event>
<event>
 5   0  0.3744875E-03  0.1096701E+04  0.7818609E-02  0.9208413E-01
       -2   -1    0    0    0  501  0.00000000000E+00  0.00000000000E+00  0.29475001520E+03  0.29475001521E+03  0.25500000920E-02 0. -1.
        2   -1    0    0  501    0  0.00000000000E+00  0.00000000000E+00 -0.10201465336E+04  0.10201465336E+04  0.25500000920E-02 0.  1.
    10030    2    1    2    0    0  0.00000000000E+00  0.00000000000E+00 -0.72539651838E+03  0.13148965488E+04  0.10967008823E+04 0.  0.
        2    1    3    3  502    0  0.51978239223E+02 -0.45186635982E+03 -0.72990645245E+03  0.86002812386E+03  0.25500000920E-02 0.  1.
       -2    1    3    3    0  502 -0.51978239223E+02  0.45186635982E+03  0.45099340741E+01  0.45486842493E+03  0.25500000920E-02 0. -1.
</event>
<event>
 5   0  0.3992414E-03  0.1061247E+04  0.7818609E-02  0.9243809E-01
        2   -1    0    0  501    0  0.00000000000E+00  0.00000000000E+00  0.46395607047E+03  0.46395607048E+03  0.25500000920E-02 0.  1.
       -2   -1    0    0    0  501  0.00000000000E+00  0.00000000000E+00 -0.60687010879E+03  0.60687010880E+03  0.25500000920E-02 0. -1.
    10030    2    1    2    0    0  0.00000000000E+00  0.00000000000E+00 -0.14291403832E+03  0.10708261793E+04  0.10612465707E+04 0.  0.
        1    1    3    3  502    0 -0.14034426911E+03 -0.56966349170E+02 -0.58459389246E+03  0.60389709217E+03  0.50400001928E-02 0. -1.
       -1    1    3    3    0  502  0.14034426911E+03  0.56966349170E+02  0.44167985414E+03  0.46692908711E+03  0.50400001928E-02 0.  1.
</event>
<event>
 5   0  0.2374100E-03  0.1102992E+04  0.7818609E-02  0.9202281E-01
       -1   -1    0    0    0  501  0.00000000000E+00  0.00000000000E+00  0.85611446218E+03  0.85611446220E+03  0.50400001928E-02 0.  1.
        1   -1    0    0  501    0  0.00000000000E+00  0.00000000000E+00 -0.35526521303E+03  0.35526521307E+03  0.50400001928E-02 0. -1.
    10030    2    1    2    0    0  0.00000000000E+00  0.00000000000E+00  0.50084924915E+03  0.12113796753E+04  0.11029917258E+04 0.  0.
        2    1    3    3  502    0 -0.23337055328E+03 -0.15123910772E+03  0.77347271450E+03  0.82194593674E+03  0.25500000920E-02 0.  1.
       -2    1    3    3    0  502  0.23337055328E+03  0.15123910772E+03 -0.27262346535E+03  0.38943373853E+03  0.25500000920E-02 0. -1.
</event>
<event>
 5   0  0.3744875E-03  0.1032752E+04  0.7818609E-02  0.9273335E-01
        2   -1    0    0  501    0  0.00000000000E+00  0.00000000000E+00  0.77289832930E+03  0.77289832930E+03  0.25500000920E-02 0. -1.
       -2   -1    0    0    0  501  0.00000000000E+00  0.00000000000E+00 -0.34499231661E+03  0.34499231662E+03  0.25500000920E-02 0.  1.
    10030    2    1    2    0    0  0.00000000000E+00  0.00000000000E+00  0.42790601269E+03  0.11178906459E+04  0.10327516355E+04 0.  0.
        2    1    3    3  502    0  0.15539444591E+03 -0.69849951541E+02 -0.31369302314E+03  0.35697305545E+03  0.25500000920E-02 0.  1.
       -2    1    3    3    0  502 -0.15539444591E+03  0.69849951541E+02  0.74159903582E+03  0.76091759047E+03  0.25500000920E-02 0. -1.
</event>
<event>
 5   0  0.2255788E-03  0.1095119E+04  0.7818609E-02  0.9209962E-01
        1   -1    0    0  501    0  0.00000000000E+00  0.00000000000E+00  0.15585308351E+04  0.15585308351E+04  0.50400001928E-02 0. -1.
       -1   -1    0    0    0  501  0.00000000000E+00  0.00000000000E+00 -0.19237448148E+03  0.19237448154E+03  0.50400001928E-02 0.  1.
    10030    2    1    2    0    0  0.00000000000E+00  0.00000000000E+00  0.13661563536E+04  0.17509053167E+04  0.10951192836E+04 0.  0.
        3    1    3    3  502    0 -0.18358218694E+03 -0.99599799026E+02  0.14923416903E+04  0.15068862831E+04  0.10100000352E+00 0. -1.
       -3    1    3    3    0  502  0.18358218694E+03  0.99599799026E+02 -0.12618533671E+03  0.24401903354E+03  0.10100000352E+00 0.  1.
</event>
<event>
 5   0  0.2257667E-03  0.1101489E+04  0.7818609E-02  0.9203742E-01
        1   -1    0    0  501    0  0.00000000000E+00  0.00000000000E+00  0.72237999542E+03  0.72237999544E+03  0.50400001928E-02 0.  1.
       -1   -1    0    0    0  501  0.00000000000E+00  0.00000000000E+00 -0.41988887288E+03  0.41988887291E+03  0.50400001928E-02 0. -1.
    10030    2    1    2    0    0  0.00000000000E+00  0.00000000000E+00  0.30249112254E+03  0.11422688683E+04  0.11014886692E+04 0.  0.
        4    1    3    3  502    0  0.40830158044E+03 -0.13147312917E+03 -0.20697391643E+03  0.47627216932E+03  0.12699999809E+01 0. -1.
       -4    1    3    3    0  502 -0.40830158044E+03  0.13147312917E+03  0.50946503897E+03  0.66599669903E+03  0.12699999809E+01 0.  1.
</event>
<event>
 5   0  0.2374100E-03  0.1112518E+04  0.7818609E-02  0.9193076E-01
        1   -1    0    0  501    0  0.00000000000E+00  0.00000000000E+00  0.10619396499E+04  0.10619396499E+04  0.50400001928E-02 0. -1.
       -1   -1    0    0    0  501  0.00000000000E+00  0.00000000000E+00 -0.29137630435E+03  0.29137630439E+03  0.50400001928E-02 0.  1.
    10030    2    1    2    0    0  0.00000000000E+00  0.00000000000E+00  0.77056334557E+03  0.13533159543E+04  0.11125179561E+04 0.  0.
        2    1    3    3  502    0  0.38356454624E+03 -0.39197492603E+03  0.27209386946E+03  0.61221007634E+03  0.25500000920E-02 0.  1.
       -2    1    3    3    0  502 -0.38356454624E+03  0.39197492603E+03  0.49846947611E+03  0.74110587799E+03  0.25500000920E-02 0. -1.
</event>
<event>
 5   0  0.2300702E-03  0.1096610E+04  0.7818609E-02  0.9208502E-01
        1   -1    0    0  501    0  0.00000000000E+00  0.00000000000E+00  0.64615072743E+03  0.64615072745E+03  0.50400001928E-02 0. -1.
       -1   -1    0    0    0  501  0.00000000000E+00  0.00000000000E+00 -0.46527593211E+03  0.46527593214E+03  0.50400001928E-02 0.  1.
    10030    2    1    2    0    0  0.00000000000E+00  0.00000000000E+00  0.18087479532E+03  0.11114266596E+04  0.10966100164E+04 0.  0.
        5    1    3    3  502    0 -0.42310130214E+03  0.24907717830E+03 -0.15691364526E+03  0.51545914939E+03  0.46999998093E+01 0.  1.
       -5    1    3    3    0  502  0.42310130214E+03 -0.24907717830E+03  0.33778844058E+03  0.59596751020E+03  0.46999998093E+01 0. -1.
</event>
<event>
 5   0  0.3992414E-03  0.1081051E+04  0.7818609E-02  0.9223860E-01
       -2   -1    0    0    0  501  0.00000000000E+00  0.00000000000E+00  0.21477290715E+03  0.21477290716E+03  0.25500000920E-02 0.  1.
        2   -1    0    0  501    0  0.00000000000E+00  0.00000000000E+00 -0.13603580855E+04  0.13603580855E+04  0.25500000920E-02 0. -1.
    10030    2    1    2    0    0  0.00000000000E+00  0.00000000000E+00 -0.11455851784E+04  0.15751309927E+04  0.10810514526E+04 0.  0.
        1    1    3    3  502    0 -0.35390502549E+03  0.28825325251E+03 -0.99465261745E+03  0.10943822614E+04  0.50400001928E-02 0. -1.
       -1    1    3    3    0  502  0.35390502549E+03 -0.28825325251E+03 -0.15093256091E+03  0.48074873127E+03  0.50400001928E-02 0.  1.
</event>
<event>
 5   0  0.3713158E-03  0.1098727E+04  0.7818609E-02  0.9206434E-01
       -2   -1    0    0    0  501  0.00000000000E+00  0.00000000000E+00  0.18563689387E+03  0.18563689389E+03  0.25500000920E-02 0. -1.
        2   -1    0    0  501    0  0.00000000000E+00  0.00000000000E+00 -0.16257553026E+04  0.16257553026E+04  0.25500000920E-02 0.  1.
    10030    2    1    2    0    0  0.00000000000E+00  0.00000000000E+00 -0.14401184087E+04  0.18113921965E+04  0.10987268352E+04 0.  0.
        4    1    3    3  502    0  0.17658486153E+03  0.32423829388E+03 -0.13907204568E+04  0.14388946058E+04  0.12699999809E+01 0.  1.
       -4    1    3    3    0  502 -0.17658486153E+03 -0.32423829388E+03 -0.49397951880E+02  0.37249759072E+03  0.12699999809E+01 0. -1.
</event>
<event>
 5   0  0.3962999E-03  0.1096263E+04  0.7818609E-02  0.9208841E-01
        2   -1    0    0  501    0  0.00000000000E+00  0.00000000000E+00  0.49866932217E+03  0.49866932217E+03  0.25500000920E-02 0. -1.
       -2   -1    0    0    0  501  0.00000000000E+00  0.00000000000E+00 -0.60250019383E+03  0.60250019383E+03  0.25500000920E-02 0.  1.
    10030    2    1    2    0    0  0.00000000000E+00  0.00000000000E+00 -0.10383087166E+03  0.11011695160E+04  0.10962634050E+04 0.  0.
        3    1    3    3  502    0 -0.20300059879E+03 -0.44438216357E+03  0.19771962054E+03  0.52704630627E+03  0.10100000352E+00 0. -1.
       -3    1    3    3    0  502  0.20300059879E+03  0.44438216357E+03 -0.30155049220E+03  0.57412320973E+03  0.10100000352E+00 0.  1.
</event>
<event>
 5   0  0.2374100E-03  0.1098287E+04  0.7818609E-02  0.9206864E-01
        1   -1    0    0  501    0  0.00000000000E+00  0.00000000000E+00  0.15808696479E+04  0.15808696479E+04  0.50400001928E-02 0.  1.
       -1   -1    0    0    0  501  0.00000000000E+00  0.00000000000E+00 -0.19075471151E+03  0.19075471158E+03  0.50400001928E-02 0. -1.
    10030    2    1    2    0    0  0.00000000000E+00  0.00000000000E+00  0.13901149364E+04  0.17716243595E+04  0.10982865449E+04 0.  0.
        2    1    3    3  502    0  0.33415646219E+03  0.33485059013E+03  0.24520505337E+03  0.53283297303E+03  0.25500000920E-02 0. -1.
       -2    1    3    3    0  502 -0.33415646219E+03 -0.33485059013E+03  0.11449098830E+04  0.12387913865E+04  0.25500000920E-02 0.  1.
</event>
<event>
 5   0  0.1508625E-03  0.1092714E+04  0.7818609E-02  0.9212322E-01
       -4   -1    0    0    0  501  0.00000000000E+00  0.00000000000E+00  0.28635348133E+03  0.28635629759E+03  0.12699999809E+01 0. -1.
        4   -1    0    0  501    0  0.00000000000E+00  0.00000000000E+00 -0.10424307125E+04  0.10424314861E+04  0.12699999809E+01 0.  1.
    10030    2    1    2    0    0  0.00000000000E+00  0.00000000000E+00 -0.75607723113E+03  0.13287877837E+04  0.10927141413E+04 0.  0.
        2    1    3    3  502    0 -0.34626149711E+03 -0.78454019872E+02 -0.88303199910E+03  0.95173398019E+03  0.25500000920E-02 0.  1.
       -2    1    3    3    0  502  0.34626149711E+03  0.78454019872E+02  0.12695476796E+03  0.37705380349E+03  0.25500000920E-02 0. -1.
</event>
<event>
 5   0  0.1508625E-03  0.1098495E+04  0.7818609E-02  0.9206660E-01
        3   -1    0    0  501    0  0.00000000000E+00  0.00000000000E+00  0.64477051069E+03  0.64477051860E+03  0.10100000352E+00 0. -1.
       -3   -1    0    0    0  501  0.00000000000E+00  0.00000000000E+00 -0.46787633403E+03  0.46787634493E+03  0.10100000352E+00 0.  1.
    10030    2    1    2    0    0  0.00000000000E+00  0.00000000000E+00  0.17689417666E+03  0.11126468635E+04  0.10984951038E+04 0.  0.
        2    1    3    3  502    0  0.31898087195E+03 -0.31402285060E+03 -0.23395167416E+03  0.50506686015E+03  0.25500000920E-02 0.  1.
       -2    1    3    3    0  502 -0.31898087195E+03  0.31402285060E+03  0.41084585082E+03  0.60758000338E+03  0.25500000920E-02 0. -1.
</event>
<event>
 5   0  0.2300702E-03  0.1136096E+04  0.7818609E-02  0.9170707E-01
        1   -1    0    0  501    0  0.00000000000E+00  0.00000000000E+00  0.44819070767E+03  0.44819070770E+03  0.50400001928E-02 0. -1.
       -1   -1    0    0    0  501  0.00000000000E+00  0.00000000000E+00 -0.71995839574E+03  0.71995839576E+03  0.50400001928E-02 0.  1.
    10030    2    1    2    0    0  0.00000000000E+00  0.00000000000E+00 -0.27176768807E+03  0.11681491035E+04  0.11360962334E+04 0.  0.
        5    1    3    3  502    0 -0.28307142738E+03 -0.44635523100E+03 -0.34982668427E+03  0.63384795043E+03  0.46999998093E+01 0.  1.
       -5    1    3    3    0  502  0.28307142738E+03  0.44635523100E+03  0.78058996205E+02  0.53430115303E+03  0.46999998093E+01 0. -1.
</event>
<event>
 5   0  0.2257667E-03  0.1095017E+04  0.7818609E-02  0.9210062E-01
       -1   -1    0    0    0  501  0.00000000000E+00  0.00000000000E+00  0.25878826353E+03  0.25878826358E+03  0.50400001928E-02 0. -1.
        1   -1    0    0  501    0  0.00000000000E+00  0.00000000000E+00 -0.11583428045E+04  0.11583428045E+04  0.50400001928E-02 0.  1.
    10030    2    1    2    0    0  0.00000000000E+00  0.00000000000E+00 -0.89955454093E+03  0.14171310680E+04  0.10950169368E+04 0.  0.
        4    1    3    3  502    0  0.44883391858E+02  0.43098704402E+02 -0.11537498055E+04  0.11554272992E+04  0.12699999809E+01 0.  1.
       -4    1    3    3    0  502 -0.44883391858E+02 -0.43098704402E+02  0.25419526458E+03  0.26170376883E+03  0.12699999809E+01 0. -1.
</event>
<event>
 5   0  0.2298958E-03  0.1096264E+04  0.7818609E-02  0.9208841E-01
       -1   -1    0    0    0  501  0.00000000000E+00  0.00000000000E+00  0.62069084381E+03  0.62069084383E+03  0.50400001928E-02 0. -1.
        1   -1    0    0  501    0  0.00000000000E+00  0.00000000000E+00 -0.48405516688E+03  0.48405516690E+03  0.50400001928E-02 0.  1.
    10030    2    1    2    0    0  0.00000000000E+00  0.00000000000E+00  0.13663567693E+03  0.11047460107E+04  0.10962638551E+04 0.  0.
        1    1    3    3  502    0  0.11255478489E+03  0.35741609826E+03 -0.33481962184E+03  0.50251271236E+03  0.50400001928E-02 0.  1.
       -1    1    3    3    0  502 -0.11255478489E+03 -0.35741609826E+03  0.47145529877E+03  0.60223329836E+03  0.50400001928E-02 0. -1.
</event>
<event>
 5   0  0.3713158E-03  0.1053777E+04  0.7818609E-02  0.9251453E-01
        2   -1    0    0  501    0  0.00000000000E+00  0.00000000000E+00  0.61998975053E+03  0.61998975053E+03  0.25500000920E-02 0. -1.
       -2   -1    0    0    0  501  0.00000000000E+00  0.00000000000E+00 -0.44776822298E+03  0.44776822299E+03  0.25500000920E-02 0.  1.
    10030    2    1    2    0    0  0.00000000000E+00  0.00000000000E+00  0.17222152755E+03  0.10677579735E+04  0.10537774127E+04 0.  0.
        4    1    3    3  502    0  0.27682713828E+03 -0.44595236085E+03  0.39640305343E+02  0.52638364275E+03  0.12699999809E+01 0. -1.
       -4    1    3    3    0  502 -0.27682713828E+03  0.44595236085E+03  0.13258122220E+03  0.54137433078E+03  0.12699999809E+01 0.  1.
</event>
<event>
 5   0  0.3748901E-03  0.1102503E+04  0.7818609E-02  0.9202755E-01
        2   -1    0    0  501    0  0.00000000000E+00  0.00000000000E+00  0.84308400132E+03  0.84308400132E+03  0.25500000920E-02 0. -1.
       -2   -1    0    0    0  501  0.00000000000E+00  0.00000000000E+00 -0.36043678869E+03  0.36043678870E+03  0.25500000920E-02 0.  1.
    10030    2    1    2    0    0  0.00000000000E+00  0.00000000000E+00  0.48264721263E+03  0.12035207900E+04  0.11025034967E+04 0.  0.
        5    1    3    3  502    0 -0.37462714085E+03  0.29326182067E+03  0.54523573677E+03  0.72363809240E+03  0.46999998093E+01 0. -1.
       -5    1    3    3    0  502  0.37462714085E+03 -0.29326182067E+03 -0.62588524142E+02  0.47988269762E+03  0.46999998093E+01 0.  1.
</event>
<event>
 5   0  0.2300702E-03  0.1058299E+04  0.7818609E-02  0.9246818E-01
       -1   -1    0    0    0  501  0.00000000000E+00  0.00000000000E+00  0.72690259252E+03  0.72690259254E+03  0.50400001928E-02 0.  1.
        1   -1    0    0  501    0  0.00000000000E+00  0.00000000000E+00 -0.38519489031E+03  0.38519489035E+03  0.50400001928E-02 0. -1.
    10030    2    1    2    0    0  0.00000000000E+00  0.00000000000E+00  0.34170770221E+03  0.11120974829E+04  0.10582989453E+04 0.  0.
        5    1    3    3  502    0 -0.34600237991E+03 -0.22505569338E+03 -0.17704926622E+03  0.44915058131E+03  0.46999998093E+01 0. -1.
       -5    1    3    3    0  502  0.34600237991E+03  0.22505569338E+03  0.51875696843E+03  0.66294690158E+03  0.46999998093E+01 0.  1.
</event>
<event>
 5   0  0.3992414E-03  0.1181476E+04  0.7818609E-02  0.9129227E-01
        2   -1    0    0  501    0  0.00000000000E+00  0.00000000000E+00  0.73911630642E+03  0.73911630643E+03  0.25500000920E-02 0.  1.
       -2   -1    0    0    0  501  0.00000000000E+00  0.00000000000E+00 -0.47214707689E+03  0.47214707690E+03  0.25500000920E-02 0. -1.
    10030    2    1    2    0    0  0.00000000000E+00  0.00000000000E+00  0.26696922953E+03  0.12112633833E+04  0.11814763706E+04 0.  0.
        1    1    3    3  502    0 -0.29375915179E+03  0.29877668101E+03  0.56040824211E+03  0.69972804876E+03  0.50400001928E-02 0.  1.
       -1    1    3    3    0  502  0.29375915179E+03 -0.29877668101E+03 -0.29343901258E+03  0.51153533456E+03  0.50400001928E-02 0. -1.
</event>
<event>
 5   0  0.3744875E-03  0.1099490E+04  0.7818609E-02  0.9205689E-01
       -2   -1    0    0    0  501  0.00000000000E+00  0.00000000000E+00  0.92199355425E+03  0.92199355425E+03  0.25500000920E-02 0.  1.
        2   -1    0    0  501    0  0.00000000000E+00  0.00000000000E+00 -0.32778918520E+03  0.32778918521E+03  0.25500000920E-02 0. -1.
    10030    2    1    2    0    0  0.00000000000E+00  0.00000000000E+00  0.59420436905E+03  0.12497827395E+04  0.10994899107E+04 0.  0.
        2    1    3    3  502    0  0.69185839085E+02  0.30114539670E+03 -0.21974247272E+03  0.37915957671E+03  0.25500000920E-02 0. -1.
       -2    1    3    3    0  502 -0.69185839085E+02 -0.30114539670E+03  0.81394684177E+03  0.87062316275E+03  0.25500000920E-02 0.  1.
</event>
<event>
 5   0  0.3744875E-03  0.1113793E+04  0.7818609E-02  0.9191851E-01
       -2   -1    0    0    0  501  0.00000000000E+00  0.00000000000E+00  0.19170311747E+03  0.19170311749E+03  0.25500000920E-02 0. -1.
        2   -1    0    0  501    0  0.00000000000E+00  0.00000000000E+00 -0.16177816044E+04  0.16177816044E+04  0.25500000920E-02 0.  1.
    10030    2    1    2    0    0  0.00000000000E+00  0.00000000000E+00 -0.14260784869E+04  0.18094847219E+04  0.11137931172E+04 0.  0.
        2    1    3    3  502    0  0.43580265768E+03 -0.12532411601E+03 -0.12382289387E+04  0.13186512030E+04  0.25500000920E-02 0.  1.
       -2    1    3    3    0  502 -0.43580265768E+03  0.12532411601E+03 -0.18784954821E+03  0.49083351889E+03  0.25500000920E-02 0. -1.
</event>
<event>
 5   0  0.2257667E-03  0.1089397E+04  0.7818609E-02  0.9215588E-01
        1   -1    0    0  501    0  0.00000000000E+00  0.00000000000E+00  0.74300728227E+03  0.74300728229E+03  0.50400001928E-02 0.  1.
       -1   -1    0    0    0  501  0.00000000000E+00  0.00000000000E+00 -0.39931831622E+03  0.39931831625E+03  0.50400001928E-02 0. -1.
    10030    2    1    2    0    0  0.00000000000E+00  0.00000000000E+00  0.34368896605E+03  0.11423255985E+04  0.10893969284E+04 0.  0.
        4    1    3    3  502    0 -0.17348847516E+03  0.51436434051E+03  0.21904105232E+03  0.58536272626E+03  0.12699999809E+01 0. -1.
       -4    1    3    3    0  502  0.17348847516E+03 -0.51436434051E+03  0.12464791374E+03  0.55696287228E+03  0.12699999809E+01 0.  1.
</event>
<event>
 5   0  0.2298958E-03  0.1106586E+04  0.7818609E-02  0.9198797E-01
       -1   -1    0    0    0  501  0.00000000000E+00  0.00000000000E+00  0.25726592685E+03  0.25726592690E+03  0.50400001928E-02 0. -1.
        1   -1    0    0  501    0  0.00000000000E+00  0.00000000000E+00 -0.11899472128E+04  0.11899472128E+04  0.50400001928E-02 0.  1.
    10030    2    1    2    0    0  0.00000000000E+00  0.00000000000E+00 -0.93268128598E+03  0.14472131397E+04  0.11065855099E+04 0.  0.
        1    1    3    3  502    0  0.16412399461E+03 -0.21528661504E+03  0.16473823357E+03  0.31689698302E+03  0.50400001928E-02 0. -1.
       -1    1    3    3    0  502 -0.16412399461E+03  0.21528661504E+03 -0.10974195196E+04  0.11303161567E+04  0.50400001928E-02 0.  1.
</event>
<event>
 5   0  0.3748901E-03  0.1197719E+04  0.7818609E-02  0.9114856E-01
       -2   -1    0    0    0  501  0.00000000000E+00  0.00000000000E+00  0.74456652642E+03  0.74456652642E+03  0.25500000920E-02 0. -1.
        2   -1    0    0  501    0  0.00000000000E+00  0.00000000000E+00 -0.48166622601E+03  0.48166622601E+03  0.25500000920E-02 0.  1.
    10030    2    1    2    0    0  0.00000000000E+00  0.00000000000E+00  0.26290030041E+03  0.12262327524E+04  0.11977187463E+04 0.  0.
        5    1    3    3  502    0  0.38958400274E+03  0.33276319606E+03 -0.18593564372E+03  0.54506989776E+03  0.46999998093E+01 0.  1.
       -5    1    3    3    0  502 -0.38958400274E+03 -0.33276319606E+03  0.44883594413E+03  0.68116285467E+03  0.46999998093E+01 0. -1.
</event>
<event>
 5   0  0.2300702E-03  0.1101294E+04  0.7818609E-02  0.9203931E-01
       -1   -1    0    0    0  501  0.00000000000E+00  0.00000000000E+00  0.30509293922E+03  0.30509293926E+03  0.50400001928E-02 0. -1.
        1   -1    0    0  501    0  0.00000000000E+00  0.00000000000E+00 -0.99383540845E+03  0.99383540846E+03  0.50400001928E-02 0.  1.
    10030    2    1    2    0    0  0.00000000000E+00  0.00000000000E+00 -0.68874246923E+03  0.12989283477E+04  0.11012940859E+04 0.  0.
        5    1    3    3  502    0 -0.48664872438E+03  0.22875136052E+03 -0.48410526174E+03  0.72355660478E+03  0.46999998093E+01 0.  1.
       -5    1    3    3    0  502  0.48664872438E+03 -0.22875136052E+03 -0.20463720749E+03  0.57537174294E+03  0.46999998093E+01 0. -1.
</event>
<event>
 5   0  0.3744875E-03  0.1091587E+04  0.7818609E-02  0.9213431E-01
       -2   -1    0    0    0  501  0.00000000000E+00  0.00000000000E+00  0.28020075580E+03  0.28020075581E+03  0.25500000920E-02 0. -1.
        2   -1    0    0  501    0  0.00000000000E+00  0.00000000000E+00 -0.10631316783E+04  0.10631316783E+04  0.25500000920E-02 0.  1.
    10030    2    1    2    0    0  0.00000000000E+00  0.00000000000E+00 -0.78293092247E+03  0.13433324341E+04  0.10915865514E+04 0.  0.
        2    1    3    3  502    0 -0.25518257458E+03  0.42088487477E+03 -0.68171553738E+03  0.84083190835E+03  0.25500000920E-02 0.  1.
       -2    1    3    3    0  502  0.25518257458E+03 -0.42088487477E+03 -0.10121538509E+03  0.50250052574E+03  0.25500000920E-02 0. -1.
</event>
<event>
 5   0  0.3713158E-03  0.1135786E+04  0.7818609E-02  0.9170998E-01
        2   -1    0    0  501    0  0.00000000000E+00  0.00000000000E+00  0.14885695548E+04  0.14885695548E+04  0.25500000920E-02 0. -1.
       -2   -1    0    0    0  501  0.00000000000E+00  0.00000000000E+00 -0.21665245782E+03  0.21665245783E+03  0.25500000920E-02 0.  1.
    10030    2    1    2    0    0  0.00000000000E+00  0.00000000000E+00  0.12719170970E+04  0.17052220127E+04  0.11357856359E+04 0.  0.
        4    1    3    3  502    0 -0.85954274390E+02 -0.41391718343E+03  0.66658197474E+02  0.42797254610E+03  0.12699999809E+01 0.  1.
       -4    1    3    3    0  502  0.85954274390E+02  0.41391718343E+03  0.12052588995E+04  0.12772494666E+04  0.12699999809E+01 0. -1.
</event>
<event>
 5   0  0.2257667E-03  0.1105898E+04  0.7818609E-02  0.9199462E-01
        1   -1    0    0  501    0  0.00000000000E+00  0.00000000000E+00  0.36818147139E+03  0.36818147142E+03  0.50400001928E-02 0.  1.
       -1   -1    0    0    0  501  0.00000000000E+00  0.00000000000E+00 -0.83043964320E+03  0.83043964321E+03  0.50400001928E-02 0. -1.
    10030    2    1    2    0    0  0.00000000000E+00  0.00000000000E+00 -0.46225817181E+03  0.11986211146E+04  0.11058978068E+04 0.  0.
        4    1    3    3  502    0 -0.29505677824E+03  0.38609674865E+03  0.54853218540E+02  0.48901911025E+03  0.12699999809E+01 0.  1.
       -4    1    3    3    0  502  0.29505677824E+03 -0.38609674865E+03 -0.51711139035E+03  0.70960200439E+03  0.12699999809E+01 0. -1.
</event>
<event>
 5   0  0.3748901E-03  0.1097099E+04  0.7818609E-02  0.9208024E-01
       -2   -1    0    0    0  501  0.00000000000E+00  0.00000000000E+00  0.33667234819E+03  0.33667234820E+03  0.25500000920E-02 0.  1.
        2   -1    0    0  501    0  0.00000000000E+00  0.00000000000E+00 -0.89376644286E+03  0.89376644287E+03  0.25500000920E-02 0. -1.
    10030    2    1    2    0    0  0.00000000000E+00  0.00000000000E+00 -0.55709409467E+03  0.12304387911E+04  0.10970988051E+04 0.  0.
        5    1    3    3  502    0  0.48738803569E+03  0.24920948933E+03 -0.31791114185E+03  0.63304190304E+03  0.46999998093E+01 0.  1.
       -5    1    3    3    0  502 -0.48738803569E+03 -0.24920948933E+03 -0.23918295283E+03  0.59739688803E+03  0.46999998093E+01 0. -1.
</event>
<event>
 5   0  0.3962999E-03  0.1093274E+04  0.7818609E-02  0.9211772E-01
        2   -1    0    0  501    0  0.00000000000E+00  0.00000000000E+00  0.30052015921E+03  0.30052015922E+03  0.25500000920E-02 0.  1.
       -2   -1    0    0    0  501  0.00000000000E+00  0.00000000000E+00 -0.99431586080E+03  0.99431586081E+03  0.25500000920E-02 0. -1.
    10030    2    1    2    0    0  0.00000000000E+00  0.00000000000E+00 -0.69379570159E+03  0.12948360200E+04  0.10932739104E+04 0.  0.
        3    1    3    3  502    0 -0.41736358245E+03  0.34596236737E+03 -0.43005373668E+03  0.69197438263E+03  0.10100000352E+00 0. -1.
       -3    1    3    3    0  502  0.41736358245E+03 -0.34596236737E+03 -0.26374196491E+03  0.60286163739E+03  0.10100000352E+00 0.  1.
</event>
<event>
 5   0  0.3713158E-03  0.1103850E+04  0.7818609E-02  0.9201448E-01
       -2   -1    0    0    0  501  0.00000000000E+00  0.00000000000E+00  0.65833092669E+03  0.65833092670E+03  0.25500000920E-02 0. -1.
        2   -1    0    0  501    0  0.00000000000E+00  0.00000000000E+00 -0.46271721505E+03  0.46271721506E+03  0.25500000920E-02 0.  1.
    10030    2    1    2    0    0  0.00000000000E+00  0.00000000000E+00  0.19561371164E+03  0.11210481418E+04  0.11038497234E+04 0.  0.
        4    1    3    3  502    0  0.20448111088E+03  0.46421026860E+03 -0.12310404014E+03  0.52197693031E+03  0.12699999809E+01 0.  1.
       -4    1    3    3    0  502 -0.20448111088E+03 -0.46421026860E+03  0.31871775178E+03  0.59907121144E+03  0.12699999809E+01 0. -1.
</event>
<event>
 5   0  0.2374100E-03  0.1098665E+04  0.7818609E-02  0.9206494E-01
       -1   -1    0    0    0  501  0.00000000000E+00  0.00000000000E+00  0.66931459781E+03  0.66931459783E+03  0.50400001928E-02 0. -1.
        1   -1    0    0  501    0  0.00000000000E+00  0.00000000000E+00 -0.45085825396E+03  0.45085825399E+03  0.50400001928E-02 0.  1.
    10030    2    1    2    0    0  0.00000000000E+00  0.00000000000E+00  0.21845634384E+03  0.11201728518E+04  0.10986646639E+04 0.  0.
        2    1    3    3  502    0 -0.15632023210E+03  0.75311471845E+02  0.64064007547E+03  0.66372248648E+03  0.25500000920E-02 0. -1.
       -2    1    3    3    0  502  0.15632023210E+03 -0.75311471845E+02 -0.42218373163E+03  0.45645036534E+03  0.25500000920E-02 0.  1.
</event>
<event>
 5   0  0.3962999E-03  0.1096561E+04  0.7818609E-02  0.9208550E-01
        2   -1    0    0  501    0  0.00000000000E+00  0.00000000000E+00  0.48166004828E+03  0.48166004829E+03  0.25500000920E-02 0.  1.
       -2   -1    0    0    0  501  0.00000000000E+00  0.00000000000E+00 -0.62411579076E+03  0.62411579077E+03  0.25500000920E-02 0. -1.
    10030    2    1    2    0    0  0.00000000000E+00  0.00000000000E+00 -0.14245574248E+03  0.11057758391E+04  0.10965612467E+04 0.  0.
        3    1    3    3  502    0  0.16537850297E+03  0.45560594384E+03  0.18721625432E+03  0.51959288043E+03  0.10100000352E+00 0.  1.
       -3    1    3    3    0  502 -0.16537850297E+03 -0.45560594384E+03 -0.32967199680E+03  0.58618295863E+03  0.10100000352E+00 0. -1.
</event>
<event>
 5   0  0.2255788E-03  0.1116139E+04  0.7818609E-02  0.9189603E-01
        1   -1    0    0  501    0  0.00000000000E+00  0.00000000000E+00  0.50880331328E+03  0.50880331330E+03  0.50400001928E-02 0. -1.
       -1   -1    0    0    0  501  0.00000000000E+00  0.00000000000E+00 -0.61210576342E+03  0.61210576344E+03  0.50400001928E-02 0.  1.
    10030    2    1    2    0    0  0.00000000000E+00  0.00000000000E+00 -0.10330245014E+03  0.11209090767E+04  0.11161387737E+04 0.  0.
        3    1    3    3  502    0  0.43398482715E+03 -0.27374256958E+03  0.16874882399E+03  0.54014257413E+03  0.10100000352E+00 0. -1.
       -3    1    3    3    0  502 -0.43398482715E+03  0.27374256958E+03 -0.27205127413E+03  0.58076650261E+03  0.10100000352E+00 0.  1.
</event>
<event>
 5   0  0.3713158E-03  0.1121986E+04  0.7818609E-02  0.9184024E-01
       -2   -1    0    0    0  501  0.00000000000E+00  0.00000000000E+00  0.37929256312E+03  0.37929256312E+03  0.25500000920E-02 0. -1.
        2   -1    0    0  501    0  0.00000000000E+00  0.00000000000E+00 -0.82973744105E+03  0.82973744105E+03  0.25500000920E-02 0.  1.
    10030    2    1    2    0    0  0.00000000000E+00  0.00000000000E+00 -0.45044487793E+03  0.12090300042E+04  0.11219861688E+04 0.  0.
        4    1    3    3  502    0  0.74378605373E+02 -0.74929117016E+02  0.36848908721E+03  0.38331758349E+03  0.12699999809E+01 0. -1.
       -4    1    3    3    0  502 -0.74378605373E+02  0.74929117016E+02 -0.81893396514E+03  0.82571242069E+03  0.12699999809E+01 0.  1.
</event>
<event>
 5   0  0.2298958E-03  0.1095192E+04  0.7818609E-02  0.9209890E-01
       -1   -1    0    0    0  501  0.00000000000E+00  0.00000000000E+00  0.56102015715E+03  0.56102015717E+03  0.50400001928E-02 0.  1.
        1   -1    0    0  501    0  0.00000000000E+00  0.00000000000E+00 -0.53449337766E+03  0.53449337769E+03  0.50400001928E-02 0. -1.
    10030    2    1    2    0    0  0.00000000000E+00  0.00000000000E+00  0.26526779487E+02  0.10955135349E+04  0.10951923279E+04 0.  0.
        1    1    3    3  502    0  0.16928734018E+03  0.28664486301E+03  0.44817600077E+03  0.55828774725E+03  0.50400001928E-02 0.  1.
       -1    1    3    3    0  502 -0.16928734018E+03 -0.28664486301E+03 -0.42164922128E+03  0.53722578761E+03  0.50400001928E-02 0. -1.
</event>
<event>
 5   0  0.3748901E-03  0.1099334E+04  0.7818609E-02  0.9205841E-01
        2   -1    0    0  501    0  0.00000000000E+00  0.00000000000E+00  0.40740262221E+03  0.40740262222E+03  0.25500000920E-02 0. -1.
       -2   -1    0    0    0  501  0.00000000000E+00  0.00000000000E+00 -0.74160960960E+03  0.74160960960E+03  0.25500000920E-02 0.  1.
    10030    2    1    2    0    0  0.00000000000E+00  0.00000000000E+00 -0.33420698739E+03  0.11490122318E+04  0.10993337976E+04 0.  0.
        5    1    3    3  502    0 -0.30058433514E+03 -0.40527452519E+03 -0.39492899407E+03  0.64077248978E+03  0.46999998093E+01 0.  1.
       -5    1    3    3    0  502  0.30058433514E+03  0.40527452519E+03  0.60722006681E+02  0.50823974204E+03  0.46999998093E+01 0. -1.
</event>
<event>
 5   0  0.2300702E-03  0.1096344E+04  0.7818609E-02  0.9208763E-01
       -1   -1    0    0    0  501  0.00000000000E+00  0.00000000000E+00  0.32991100006E+03  0.32991100009E+03  0.50400001928E-02 0.  1.
        1   -1    0    0  501    0  0.00000000000E+00  0.00000000000E+00 -0.91082909085E+03  0.91082909087E+03  0.50400001928E-02 0. -1.
    10030    2    1    2    0    0  0.00000000000E+00  0.00000000000E+00 -0.58091809080E+03  0.12407400910E+04  0.10963439903E+04 0.  0.
        5    1    3    3  502    0  0.16372326912E+03 -0.54646444580E+02 -0.87925006768E+03  0.89604370110E+03  0.46999998093E+01 0. -1.
       -5    1    3    3    0  502 -0.16372326912E+03  0.54646444580E+02  0.29833197688E+03  0.34469638987E+03  0.46999998093E+01 0.  1.
</event>
<event>
 5   0  0.2300702E-03  0.1058443E+04  0.7818609E-02  0.9246670E-01
       -1   -1    0    0    0  501  0.00000000000E+00  0.00000000000E+00  0.37189796350E+03  0.37189796354E+03  0.50400001928E-02 0.  1.
        1   -1    0    0  501    0  0.00000000000E+00  0.00000000000E+00 -0.75309745609E+03  0.75309745611E+03  0.50400001928E-02 0. -1.
    10030    2    1    2    0    0  0.00000000000E+00  0.00000000000E+00 -0.38119949259E+03  0.11249954196E+04  0.10584430268E+04 0.  0.
        5    1    3    3  502    0 -0.41972575699E+03  0.19173040107E+03 -0.46597134737E+03  0.65580610270E+03  0.46999998093E+01 0. -1.
       -5    1    3    3    0  502  0.41972575699E+03 -0.19173040107E+03  0.84771854776E+02  0.46918931694E+03  0.46999998093E+01 0.  1.
</event>
<event>
 5   0  0.3748901E-03  0.1095476E+04  0.7818609E-02  0.9209612E-01
        2   -1    0    0  501    0  0.00000000000E+00  0.00000000000E+00  0.82885254344E+03  0.82885254345E+03  0.25500000920E-02 0.  1.
       -2   -1    0    0    0  501  0.00000000000E+00  0.00000000000E+00 -0.36196659430E+03  0.36196659431E+03  0.25500000920E-02 0. -1.
    10030    2    1    2    0    0  0.00000000000E+00  0.00000000000E+00  0.46688594914E+03  0.11908191378E+04  0.10954760286E+04 0.  0.
        5    1    3    3  502    0  0.52151165441E+03 -0.42124559224E+02  0.57336978551E+02  0.52636347070E+03  0.46999998093E+01 0. -1.
       -5    1    3    3    0  502 -0.52151165441E+03  0.42124559224E+02  0.40954897059E+03  0.66445566706E+03  0.46999998093E+01 0.  1.
</event>
<event>
 5   0  0.2257667E-03  0.1085625E+04  0.7818609E-02  0.9219318E-01
       -1   -1    0    0    0  501  0.00000000000E+00  0.00000000000E+00  0.43014085163E+03  0.43014085165E+03  0.50400001928E-02 0. -1.
        1   -1    0    0  501    0  0.00000000000E+00  0.00000000000E+00 -0.68499689380E+03  0.68499689382E+03  0.50400001928E-02 0.  1.
    10030    2    1    2    0    0  0.00000000000E+00  0.00000000000E+00 -0.25485604217E+03  0.11151377455E+04  0.10856245157E+04 0.  0.
        4    1    3    3  502    0  0.13668435179E+03 -0.45555719006E+03  0.14127193964E+03  0.49615959052E+03  0.12699999809E+01 0. -1.
       -4    1    3    3    0  502 -0.13668435179E+03  0.45555719006E+03 -0.39612798181E+03  0.61897815495E+03  0.12699999809E+01 0.  1.
</event>
<event>
 5   0  0.2257667E-03  0.1102258E+04  0.7818609E-02  0.9202994E-01
       -1   -1    0    0    0  501  0.00000000000E+00  0.00000000000E+00  0.21841926147E+03  0.21841926152E+03  0.50400001928E-02 0.  1.
        1   -1    0    0  501    0  0.00000000000E+00  0.00000000000E+00 -0.13906424451E+04  0.13906424451E+04  0.50400001928E-02 0. -1.
    10030    2    1    2    0    0  0.00000000000E+00  0.00000000000E+00 -0.11722231837E+04  0.16090617067E+04  0.11022578571E+04 0.  0.
        4    1    3    3  502    0 -0.38046611591E+03 -0.18403285018E+03 -0.11024697024E+04  0.11807047103E+04  0.12699999809E+01 0. -1.
       -4    1    3    3    0  502  0.38046611591E+03  0.18403285018E+03 -0.69753481278E+02  0.42835699638E+03  0.12699999809E+01 0.  1.
</event>
<event>
 5   0  0.2300702E-03  0.1085849E+04  0.7818609E-02  0.9219095E-01
        1   -1    0    0  501    0  0.00000000000E+00  0.00000000000E+00  0.74529093712E+03  0.74529093713E+03  0.50400001928E-02 0. -1.
       -1   -1    0    0    0  501  0.00000000000E+00  0.00000000000E+00 -0.39550579781E+03  0.39550579784E+03  0.50400001928E-02 0.  1.
    10030    2    1    2    0    0  0.00000000000E+00  0.00000000000E+00  0.34978513931E+03  0.11407967350E+04  0.10858487679E+04 0.  0.
        5    1    3    3  502    0 -0.40701763416E+02 -0.43635338276E+03 -0.16176631470E+03  0.46717377791E+03  0.46999998093E+01 0.  1.
       -5    1    3    3    0  502  0.40701763416E+02  0.43635338276E+03  0.51155145401E+03  0.67362295707E+03  0.46999998093E+01 0. -1.
</event>
<event>
 5   0  0.2374100E-03  0.1090156E+04  0.7818609E-02  0.9214840E-01
        1   -1    0    0  501    0  0.00000000000E+00  0.00000000000E+00  0.88142792463E+03  0.88142792465E+03  0.50400001928E-02 0.  1.
       -1   -1    0    0    0  501  0.00000000000E+00  0.00000000000E+00 -0.33707826948E+03  0.33707826952E+03  0.50400001928E-02 0. -1.
    10030    2    1    2    0    0  0.00000000000E+00  0.00000000000E+00  0.54434965515E+03  0.12185061942E+04  0.10901563182E+04 0.  0.
        2    1    3    3  502    0  0.36597108077E+02  0.36167636220E+03 -0.18179781772E+03  0.40644751915E+03  0.25500000920E-02 0. -1.
       -2    1    3    3    0  502 -0.36597108077E+02 -0.36167636220E+03  0.72614747287E+03  0.81205867501E+03  0.25500000920E-02 0.  1.
</event>
<event>
 5   0  0.2257667E-03  0.1118785E+04  0.7818609E-02  0.9187074E-01
        1   -1    0    0  501    0  0.00000000000E+00  0.00000000000E+00  0.21032653669E+03  0.21032653675E+03  0.50400001928E-02 0.  1.
       -1   -1    0    0    0  501  0.00000000000E+00  0.00000000000E+00 -0.14877818237E+04  0.14877818237E+04  0.50400001928E-02 0. -1.
    10030    2    1    2    0    0  0.00000000000E+00  0.00000000000E+00 -0.12774552870E+04  0.16981083605E+04  0.11187850524E+04 0.  0.
        4    1    3    3  502    0 -0.39992648836E+03  0.63032748811E+02 -0.52835332216E+02  0.40829830852E+03  0.12699999809E+01 0.  1.
       -4    1    3    3    0  502  0.39992648836E+03 -0.63032748811E+02 -0.12246199548E+04  0.12898100520E+04  0.12699999809E+01 0. -1.
</event>
<event>
 5   0  0.2257667E-03  0.1100248E+04  0.7818609E-02  0.9204950E-01
        1   -1    0    0  501    0  0.00000000000E+00  0.00000000000E+00  0.24474945707E+04  0.24474945707E+04  0.50400001928E-02 0.  1.
       -1   -1    0    0    0  501  0.00000000000E+00  0.00000000000E+00 -0.12365145513E+03  0.12365145524E+03  0.50400001928E-02 0. -1.
    10030    2    1    2    0    0  0.00000000000E+00  0.00000000000E+00  0.23238431156E+04  0.25711460260E+04  0.11002477271E+04 0.  0.
        4    1    3    3  502    0  0.34406848171E+03 -0.19887162108E+03  0.20508625738E+04  0.20890121951E+04  0.12699999809E+01 0.  1.
       -4    1    3    3    0  502 -0.34406848171E+03  0.19887162108E+03  0.27298054182E+03  0.48213383089E+03  0.12699999809E+01 0. -1.
</event>
<event>
 5   0  0.2298958E-03  0.1097585E+04  0.7818609E-02  0.9207549E-01
        1   -1    0    0  501    0  0.00000000000E+00  0.00000000000E+00  0.55775052652E+03  0.55775052654E+03  0.50400001928E-02 0. -1.
       -1   -1    0    0    0  501  0.00000000000E+00  0.00000000000E+00 -0.53997847586E+03  0.53997847588E+03  0.50400001928E-02 0.  1.
    10030    2    1    2    0    0  0.00000000000E+00  0.00000000000E+00  0.17772050655E+02  0.10977290024E+04  0.10975851297E+04 0.  0.
        1    1    3    3  502    0  0.31362345005E+02 -0.33595159403E+02  0.55582245259E+03  0.55771931134E+03  0.50400001928E-02 0. -1.
       -1    1    3    3    0  502 -0.31362345005E+02  0.33595159403E+02 -0.53805040193E+03  0.54000969108E+03  0.50400001928E-02 0.  1.
</event>
<event>
 5   0  0.3744875E-03  0.1104732E+04  0.7818609E-02  0.9200592E-01
        2   -1    0    0  501    0  0.00000000000E+00  0.00000000000E+00  0.48208010014E+03  0.48208010014E+03  0.25500000920E-02 0.  1.
       -2   -1    0    0    0  501  0.00000000000E+00  0.00000000000E+00 -0.63289984846E+03  0.63289984847E+03  0.25500000920E-02 0. -1.
    10030    2    1    2    0    0  0.00000000000E+00  0.00000000000E+00 -0.15081974832E+03  0.11149799486E+04  0.11047324062E+04 0.  0.
        2    1    3    3  502    0 -0.30549548106E+03 -0.13307011120E+03  0.36921405799E+03  0.49734712633E+03  0.25500000920E-02 0.  1.
       -2    1    3    3    0  502  0.30549548106E+03  0.13307011120E+03 -0.52003380631E+03  0.61763282228E+03  0.25500000920E-02 0. -1.
</event>
<event>
 5   0  0.2298958E-03  0.1105141E+04  0.7818609E-02  0.9200196E-01
       -1   -1    0    0    0  501  0.00000000000E+00  0.00000000000E+00  0.57479955690E+03  0.57479955692E+03  0.50400001928E-02 0. -1.
        1   -1    0    0  501    0  0.00000000000E+00  0.00000000000E+00 -0.53120094316E+03  0.53120094318E+03  0.50400001928E-02 0.  1.
    10030    2    1    2    0    0  0.00000000000E+00  0.00000000000E+00  0.43598613742E+02  0.11060005001E+04  0.11051408359E+04 0.  0.
        1    1    3    3  502    0  0.54907673942E+03  0.39787456688E+02  0.69436326189E+02  0.55487810454E+03  0.50400001928E-02 0. -1.
       -1    1    3    3    0  502 -0.54907673942E+03 -0.39787456688E+02 -0.25837712446E+02  0.55112239556E+03  0.50400001928E-02 0.  1.
</event>
<event>
 5   0  0.2257667E-03  0.1093117E+04  0.7818609E-02  0.9211926E-01
       -1   -1    0    0    0  501  0.00000000000E+00  0.00000000000E+00  0.37470496719E+03  0.37470496722E+03  0.50400001928E-02 0.  1.
        1   -1    0    0  501    0  0.00000000000E+00  0.00000000000E+00 -0.79723100088E+03  0.79723100089E+03  0.50400001928E-02 0. -1.
    10030    2    1    2    0    0  0.00000000000E+00  0.00000000000E+00 -0.42252603369E+03  0.11719359681E+04  0.10931174064E+04 0.  0.
        4    1    3    3  502    0  0.42449411576E+02 -0.49666033770E+03 -0.45159467436E+03  0.67261638873E+03  0.12699999809E+01 0. -1.
       -4    1    3    3    0  502 -0.42449411576E+02  0.49666033770E+03  0.29068640669E+02  0.49931957938E+03  0.12699999809E+01 0.  1.
</event>
<event>
 5   0  0.3748901E-03  0.1103173E+04  0.7818609E-02  0.9202105E-01
        2   -1    0    0  501    0  0.00000000000E+00  0.00000000000E+00  0.76622246135E+03  0.76622246135E+03  0.25500000920E-02 0. -1.
       -2   -1    0    0    0  501  0.00000000000E+00  0.00000000000E+00 -0.39707454698E+03  0.39707454698E+03  0.25500000920E-02 0.  1.
    10030    2    1    2    0    0  0.00000000000E+00  0.00000000000E+00  0.36914791437E+03  0.11632970083E+04  0.11031725826E+04 0.  0.
        5    1    3    3  502    0 -0.15993391884E+03 -0.52336949561E+03  0.25710387284E+03  0.60466435214E+03  0.46999998093E+01 0. -1.
       -5    1    3    3    0  502  0.15993391884E+03  0.52336949561E+03  0.11204404154E+03  0.55863265620E+03  0.46999998093E+01 0.  1.
</event>
<event>
 5   0  0.3748901E-03  0.1089858E+04  0.7818609E-02  0.9215133E-01
        2   -1    0    0  501    0  0.00000000000E+00  0.00000000000E+00  0.62026374329E+03  0.62026374329E+03  0.25500000920E-02 0.  1.
       -2   -1    0    0    0  501  0.00000000000E+00  0.00000000000E+00 -0.47874434442E+03  0.47874434443E+03  0.25500000920E-02 0. -1.
    10030    2    1    2    0    0  0.00000000000E+00  0.00000000000E+00  0.14151939887E+03  0.10990080877E+04  0.10898582645E+04 0.  0.
        5    1    3    3  502    0 -0.27345880432E+03  0.92727567588E+02  0.53675137968E+03  0.60950984655E+03  0.46999998093E+01 0.  1.
       -5    1    3    3    0  502  0.27345880432E+03 -0.92727567588E+02 -0.39523198082E+03  0.48949824117E+03  0.46999998093E+01 0. -1.
</event>
<event>
 5   0  0.2255788E-03  0.1099158E+04  0.7818609E-02  0.9206013E-01
        1   -1    0    0  501    0  0.00000000000E+00  0.00000000000E+00  0.60092396582E+03  0.60092396584E+03  0.50400001928E-02 0. -1.
       -1   -1    0    0    0  501  0.00000000000E+00  0.00000000000E+00 -0.50262125847E+03  0.50262125849E+03  0.50400001928E-02 0.  1.
    10030    2    1    2    0    0  0.00000000000E+00  0.00000000000E+00  0.98302707347E+02  0.11035452243E+04  0.10991581505E+04 0.  0.
        3    1    3    3  502    0 -0.26674441375E+03 -0.37368029737E+03 -0.25412648962E+03  0.52475692453E+03  0.10100000352E+00 0.  1.
       -3    1    3    3    0  502  0.26674441375E+03  0.37368029737E+03  0.35242919697E+03  0.57878829980E+03  0.10100000352E+00 0. -1.
</event>
<event>
 5   0  0.2257667E-03  0.1106390E+04  0.7818609E-02  0.9198986E-01
       -1   -1    0    0    0  501  0.00000000000E+00  0.00000000000E+00  0.33547400973E+03  0.33547400977E+03  0.50400001928E-02 0. -1.
        1   -1    0    0  501    0  0.00000000000E+00  0.00000000000E+00 -0.91221608075E+03  0.91221608076E+03  0.50400001928E-02 0.  1.
    10030    2    1    2    0    0  0.00000000000E+00  0.00000000000E+00 -0.57674207102E+03  0.12476900905E+04  0.11063901416E+04 0.  0.
        4    1    3    3  502    0  0.69055186160E+01  0.47060486280E+03 -0.61619720214E+03  0.77538198838E+03  0.12699999809E+01 0.  1.
       -4    1    3    3    0  502 -0.69055186160E+01 -0.47060486280E+03  0.39455131116E+02  0.47230810215E+03  0.12699999809E+01 0. -1.
</event>
<event>
 5   0  0.2374100E-03  0.1097068E+04  0.7818609E-02  0.9208054E-01
       -1   -1    0    0    0  501  0.00000000000E+00  0.00000000000E+00  0.54128507514E+03  0.54128507516E+03  0.50400001928E-02 0. -1.
        1   -1    0    0  501    0  0.00000000000E+00  0.00000000000E+00 -0.55588048829E+03  0.55588048831E+03  0.50400001928E-02 0.  1.
    10030    2    1    2    0    0  0.00000000000E+00  0.00000000000E+00 -0.14595413151E+02  0.10971655635E+04  0.10970684790E+04 0.  0.
        2    1    3    3  502    0 -0.10560919456E+03  0.15197442135E+03  0.50912022460E+03  0.54171295888E+03  0.25500000920E-02 0. -1.
       -2    1    3    3    0  502  0.10560919456E+03 -0.15197442135E+03 -0.52371563775E+03  0.55545260459E+03  0.25500000920E-02 0.  1.
</event>
<event>
 5   0  0.3713158E-03  0.1106688E+04  0.7818609E-02  0.9198697E-01
        2   -1    0    0  501    0  0.00000000000E+00  0.00000000000E+00  0.68090672997E+03  0.68090672997E+03  0.25500000920E-02 0.  1.
       -2   -1    0    0    0  501  0.00000000000E+00  0.00000000000E+00 -0.44967942643E+03  0.44967942644E+03  0.25500000920E-02 0. -1.
    10030    2    1    2    0    0  0.00000000000E+00  0.00000000000E+00  0.23122730354E+03  0.11305861564E+04  0.11066882990E+04 0.  0.
        4    1    3    3  502    0 -0.33547039802E+03 -0.17507363633E+03  0.52806061396E+03  0.64964666628E+03  0.12699999809E+01 0.  1.
       -4    1    3    3    0  502  0.33547039802E+03  0.17507363633E+03 -0.29683331043E+03  0.48093949013E+03  0.12699999809E+01 0. -1.
</event>
<event>
 5   0  0.1508625E-03  0.1107089E+04  0.7818609E-02  0.9198310E-01
        3   -1    0    0  501    0  0.00000000000E+00  0.00000000000E+00  0.74354117266E+03  0.74354117952E+03  0.10100000352E+00 0. -1.
       -3   -1    0    0    0  501  0.00000000000E+00  0.00000000000E+00 -0.41209771865E+03  0.41209773102E+03  0.10100000352E+00 0.  1.
    10030    2    1    2    0    0  0.00000000000E+00  0.00000000000E+00  0.33144345401E+03  0.11556389105E+04  0.11070892143E+04 0.  0.
        2    1    3    3  502    0 -0.26350810585E+03 -0.26621300032E+03 -0.25971195259E+03  0.45580278818E+03  0.25500000920E-02 0.  1.
       -2    1    3    3    0  502  0.26350810585E+03  0.26621300032E+03  0.59115540660E+03  0.69983612235E+03  0.25500000920E-02 0. -1.
</event>
<event>
 5   0  0.2255788E-03  0.1093781E+04  0.7818609E-02  0.9211275E-01
       -1   -1    0    0    0  501  0.00000000000E+00  0.00000000000E+00  0.44898445479E+03  0.44898445482E+03  0.50400001928E-02 0.  1.
        1   -1    0    0  501    0  0.00000000000E+00  0.00000000000E+00 -0.66614562859E+03  0.66614562861E+03  0.50400001928E-02 0. -1.
    10030    2    1    2    0    0  0.00000000000E+00  0.00000000000E+00 -0.21716117380E+03  0.11151300834E+04  0.10937806579E+04 0.  0.
        3    1    3    3  502    0 -0.53501811866E+03 -0.10261722753E+03 -0.59534001174E+02  0.54801367700E+03  0.10100000352E+00 0.  1.
       -3    1    3    3    0  502  0.53501811866E+03  0.10261722753E+03 -0.15762717263E+03  0.56711640643E+03  0.10100000352E+00 0. -1.
</event>
<event>
 5   0  0.3744875E-03  0.1110422E+04  0.7818609E-02  0.9195093E-01
       -2   -1    0    0    0  501  0.00000000000E+00  0.00000000000E+00  0.21255958764E+03  0.21255958766E+03  0.25500000920E-02 0.  1.
        2   -1    0    0  501    0  0.00000000000E+00  0.00000000000E+00 -0.14502244449E+04  0.14502244449E+04  0.25500000920E-02 0. -1.
    10030    2    1    2    0    0  0.00000000000E+00  0.00000000000E+00 -0.12376648572E+04  0.16627840325E+04  0.11104217397E+04 0.  0.
        2    1    3    3  502    0 -0.45458674974E+03  0.16117448383E+03 -0.10306481569E+04  0.11379200106E+04  0.25500000920E-02 0. -1.
       -2    1    3    3    0  502  0.45458674974E+03 -0.16117448383E+03 -0.20701670036E+03  0.52486402192E+03  0.25500000920E-02 0.  1.
</event>
<event>
 5   0  0.3748901E-03  0.1112275E+04  0.7818609E-02  0.9193310E-01
       -2   -1    0    0    0  501  0.00000000000E+00  0.00000000000E+00  0.25926946482E+03  0.25926946483E+03  0.25500000920E-02 0. -1.
        2   -1    0    0  501    0  0.00000000000E+00  0.00000000000E+00 -0.11929246701E+04  0.11929246701E+04  0.25500000920E-02 0.  1.
    10030    2    1    2    0    0  0.00000000000E+00  0.00000000000E+00 -0.93365520526E+03  0.14521941349E+04  0.11122750394E+04 0.  0.
        5    1    3    3  502    0 -0.30041795464E+03  0.28895131801E+03 -0.94746665336E+03  0.10351130184E+04  0.46999998093E+01 0.  1.
       -5    1    3    3    0  502  0.30041795464E+03 -0.28895131801E+03  0.13811448102E+02  0.41708111651E+03  0.46999998093E+01 0. -1.
</event>
<event>
 5   0  0.3962999E-03  0.1093888E+04  0.7818609E-02  0.9211169E-01
        2   -1    0    0  501    0  0.00000000000E+00  0.00000000000E+00  0.12681739485E+03  0.12681739488E+03  0.25500000920E-02 0. -1.
       -2   -1    0    0    0  501  0.00000000000E+00  0.00000000000E+00 -0.23588860390E+04  0.23588860390E+04  0.25500000920E-02 0.  1.
    10030    2    1    2    0    0  0.00000000000E+00  0.00000000000E+00 -0.22320686441E+04  0.24857034338E+04  0.10938880788E+04 0.  0.
        3    1    3    3  502    0 -0.12761455686E+03 -0.44112863192E+03 -0.17911491402E+04  0.18490795542E+04  0.10100000352E+00 0.  1.
       -3    1    3    3    0  502  0.12761455686E+03  0.44112863192E+03 -0.44091950388E+03  0.63662387964E+03  0.10100000352E+00 0. -1.
</event>
<event>
 5   0  0.1508625E-03  0.1099337E+04  0.7818609E-02  0.9205838E-01
        4   -1    0    0  501    0  0.00000000000E+00  0.00000000000E+00  0.67736960428E+03  0.67737079484E+03  0.12699999809E+01 0. -1.
       -4   -1    0    0    0  501  0.00000000000E+00  0.00000000000E+00 -0.44603992045E+03  0.44604172847E+03  0.12699999809E+01 0.  1.
    10030    2    1    2    0    0  0.00000000000E+00  0.00000000000E+00  0.23132968383E+03  0.11234125233E+04  0.10993371980E+04 0.  0.
        3    1    3    3  502    0 -0.62066998624E+02  0.30364485644E+03 -0.34824060458E+03  0.46618026560E+03  0.10100000352E+00 0.  1.
       -3    1    3    3    0  502  0.62066998624E+02 -0.30364485644E+03  0.57957028840E+03  0.65723225770E+03  0.10100000352E+00 0. -1.
</event>
<event>
 5   0  0.3962999E-03  0.1089723E+04  0.7818609E-02  0.9215266E-01
        2   -1    0    0  501    0  0.00000000000E+00  0.00000000000E+00  0.47357148560E+03  0.47357148561E+03  0.25500000920E-02 0.  1.
       -2   -1    0    0    0  501  0.00000000000E+00  0.00000000000E+00 -0.62688378564E+03  0.62688378565E+03  0.25500000920E-02 0. -1.
    10030    2    1    2    0    0  0.00000000000E+00  0.00000000000E+00 -0.15331230004E+03  0.11004552713E+04  0.10897234249E+04 0.  0.
        3    1    3    3  502    0  0.70314051298E+02 -0.28088118411E+02  0.46823278949E+03  0.47431525757E+03  0.10100000352E+00 0.  1.
       -3    1    3    3    0  502 -0.70314051298E+02  0.28088118411E+02 -0.62154508954E+03  0.62614001368E+03  0.10100000352E+00 0. -1.
</event>
<event>
 5   0  0.2300702E-03  0.1102497E+04  0.7818609E-02  0.9202762E-01
       -1   -1    0    0    0  501  0.00000000000E+00  0.00000000000E+00  0.34069583665E+03  0.34069583668E+03  0.50400001928E-02 0. -1.
        1   -1    0    0  501    0  0.00000000000E+00  0.00000000000E+00 -0.89192377911E+03  0.89192377913E+03  0.50400001928E-02 0.  1.
    10030    2    1    2    0    0  0.00000000000E+00  0.00000000000E+00 -0.55122794246E+03  0.12326196158E+04  0.11024966543E+04 0.  0.
        5    1    3    3  502    0 -0.39296117921E+03  0.11844465386E+03  0.13579063643E+03  0.43232951707E+03  0.46999998093E+01 0. -1.
       -5    1    3    3    0  502  0.39296117921E+03 -0.11844465386E+03 -0.68701857889E+03  0.80029009874E+03  0.46999998093E+01 0.  1.
</event>
<event>
 5   0  0.2255788E-03  0.1103325E+04  0.7818609E-02  0.9201957E-01
       -1   -1    0    0    0  501  0.00000000000E+00  0.00000000000E+00  0.23081494727E+03  0.23081494733E+03  0.50400001928E-02 0. -1.
        1   -1    0    0  501    0  0.00000000000E+00  0.00000000000E+00 -0.13185081776E+04  0.13185081776E+04  0.50400001928E-02 0.  1.
    10030    2    1    2    0    0  0.00000000000E+00  0.00000000000E+00 -0.10876932303E+04  0.15493231249E+04  0.11033247854E+04 0.  0.
        3    1    3    3  502    0 -0.37810535140E+03  0.17145053082E+03 -0.10539759034E+04  0.11327948430E+04  0.10100000352E+00 0.  1.
       -3    1    3    3    0  502  0.37810535140E+03 -0.17145053082E+03 -0.33717326921E+02  0.41652828189E+03  0.10100000352E+00 0. -1.
</event>
<event>
 5   0  0.1508625E-03  0.1104009E+04  0.7818609E-02  0.9201293E-01
       -3   -1    0    0    0  501  0.00000000000E+00  0.00000000000E+00  0.58885572796E+03  0.58885573662E+03  0.10100000352E+00 0. -1.
        3   -1    0    0  501    0  0.00000000000E+00  0.00000000000E+00 -0.51745926750E+03  0.51745927735E+03  0.10100000352E+00 0.  1.
    10030    2    1    2    0    0  0.00000000000E+00  0.00000000000E+00  0.71396460466E+02  0.11063150140E+04  0.11040088114E+04 0.  0.
        5    1    3    3  502    0 -0.30030029282E+03  0.43205990642E+03  0.20287221139E+03  0.56394614349E+03  0.46999998093E+01 0. -1.
       -5    1    3    3    0  502  0.30030029282E+03 -0.43205990642E+03 -0.13147575092E+03  0.54236887049E+03  0.46999998093E+01 0.  1.
</event>
<event>
 5   0  0.2257667E-03  0.1045730E+04  0.7818609E-02  0.9259764E-01
        1   -1    0    0  501    0  0.00000000000E+00  0.00000000000E+00  0.10348604592E+04  0.10348604592E+04  0.50400001928E-02 0.  1.
       -1   -1    0    0    0  501  0.00000000000E+00  0.00000000000E+00 -0.26417827132E+03  0.26417827137E+03  0.50400001928E-02 0. -1.
    10030    2    1    2    0    0  0.00000000000E+00  0.00000000000E+00  0.77068218791E+03  0.12990387306E+04  0.10457296921E+04 0.  0.
        4    1    3    3  502    0  0.38079766545E+03  0.80357840535E+02  0.81909492632E+03  0.90685299567E+03  0.12699999809E+01 0.  1.
       -4    1    3    3    0  502 -0.38079766545E+03 -0.80357840535E+02 -0.48412738412E+02  0.39218573493E+03  0.12699999809E+01 0. -1.
</event>
<event>
 5   0  0.3713158E-03  0.1102827E+04  0.7818609E-02  0.9202441E-01
       -2   -1    0    0    0  501  0.00000000000E+00  0.00000000000E+00  0.66975338819E+03  0.66975338820E+03  0.25500000920E-02 0. -1.
        2   -1    0    0  501    0  0.00000000000E+00  0.00000000000E+00 -0.45398318105E+03  0.45398318105E+03  0.25500000920E-02 0.  1.
    10030    2    1    2    0    0  0.00000000000E+00  0.00000000000E+00  0.21577020715E+03  0.11237365693E+04  0.11028268653E+04 0.  0.
        4    1    3    3  502    0 -0.31909880495E+03  0.42705521268E+03 -0.35694143681E+02  0.53429943551E+03  0.12699999809E+01 0.  1.
       -4    1    3    3    0  502  0.31909880495E+03 -0.42705521268E+03  0.25146435083E+03  0.58943713374E+03  0.12699999809E+01 0. -1.
</event>
<event>
 5   0  0.2257667E-03  0.1106108E+04  0.7818609E-02  0.9199259E-01
       -1   -1    0    0    0  501  0.00000000000E+00  0.00000000000E+00  0.96183671706E+03  0.96183671707E+03  0.50400001928E-02 0. -1.
        1   -1    0    0  501    0  0.00000000000E+00  0.00000000000E+00 -0.31800456333E+03  0.31800456337E+03  0.50400001928E-02 0.  1.
    10030    2    1    2    0    0  0.00000000000E+00  0.00000000000E+00  0.64383215372E+03  0.12798412804E+04  0.11061075268E+04 0.  0.
        4    1    3    3  502    0  0.13549370583E+03  0.17956236510E+03 -0.26267875000E+03  0.34583655949E+03  0.12699999809E+01 0.  1.
       -4    1    3    3    0  502 -0.13549370583E+03 -0.17956236510E+03  0.90651090373E+03  0.93400472095E+03  0.12699999809E+01 0. -1.
</event>
<event>
 5   0  0.3748901E-03  0.1115142E+04  0.7818609E-02  0.9190558E-01
        2   -1    0    0  501    0  0.00000000000E+00  0.00000000000E+00  0.21757677301E+04  0.21757677301E+04  0.25500000920E-02 0.  1.
       -2   -1    0    0    0  501  0.00000000000E+00  0.00000000000E+00 -0.14288544432E+03  0.14288544434E+03  0.25500000920E-02 0. -1.
    10030    2    1    2    0    0  0.00000000000E+00  0.00000000000E+00  0.20328822858E+04  0.23186531744E+04  0.11151422131E+04 0.  0.
        5    1    3    3  502    0 -0.17567327129E+03 -0.20394605371E+03  0.20316754227E+04  0.20494346060E+04  0.46999998093E+01 0.  1.
       -5    1    3    3    0  502  0.17567327129E+03  0.20394605371E+03  0.12068630662E+01  0.26921856843E+03  0.46999998093E+01 0. -1.
</event>
<event>
 5   0  0.2255788E-03  0.1088594E+04  0.7818609E-02  0.9216381E-01
        1   -1    0    0  501    0  0.00000000000E+00  0.00000000000E+00  0.47243234800E+03  0.47243234803E+03  0.50400001928E-02 0.  1.
       -1   -1    0    0    0  501  0.00000000000E+00  0.00000000000E+00 -0.62709336508E+03  0.62709336510E+03  0.50400001928E-02 0. -1.
    10030    2    1    2    0    0  0.00000000000E+00  0.00000000000E+00 -0.15466101708E+03  0.10995257131E+04  0.10885939388E+04 0.  0.
        3    1    3    3  502    0  0.22134556536E+03 -0.28969649643E+03 -0.48554407203E+03  0.60718281879E+03  0.10100000352E+00 0. -1.
       -3    1    3    3    0  502 -0.22134556536E+03  0.28969649643E+03  0.33088305495E+03  0.49234289434E+03  0.10100000352E+00 0.  1.
</event>
<event>
 5   0  0.3744875E-03  0.1081384E+04  0.7818609E-02  0.9223529E-01
        2   -1    0    0  501    0  0.00000000000E+00  0.00000000000E+00  0.26102356523E+03  0.26102356524E+03  0.25500000920E-02 0.  1.
       -2   -1    0    0    0  501  0.00000000000E+00  0.00000000000E+00 -0.11200046305E+04  0.11200046305E+04  0.25500000920E-02 0. -1.
    10030    2    1    2    0    0  0.00000000000E+00  0.00000000000E+00 -0.85898106525E+03  0.13810281957E+04  0.10813835614E+04 0.  0.
        2    1    3    3  502    0 -0.54021601030E+03  0.85441348015E+01 -0.45631745817E+03  0.70720008672E+03  0.25500000920E-02 0. -1.
       -2    1    3    3    0  502  0.54021601030E+03 -0.85441348015E+01 -0.40266360708E+03  0.67382810901E+03  0.25500000920E-02 0.  1.
</event>
<event>
 5   0  0.3713158E-03  0.1122733E+04  0.7818609E-02  0.9183313E-01
        2   -1    0    0  501    0  0.00000000000E+00  0.00000000000E+00  0.38902382820E+03  0.38902382821E+03  0.25500000920E-02 0. -1.
       -2   -1    0    0    0  501  0.00000000000E+00  0.00000000000E+00 -0.81005956704E+03  0.81005956705E+03  0.25500000920E-02 0.  1.
    10030    2    1    2    0    0  0.00000000000E+00  0.00000000000E+00 -0.42103573884E+03  0.11990833953E+04  0.11227332254E+04 0.  0.
        4    1    3    3  502    0  0.28320310005E+03  0.65907009162E+02  0.30232766720E+03  0.41946556592E+03  0.12699999809E+01 0. -1.
       -4    1    3    3    0  502 -0.28320310005E+03 -0.65907009162E+02 -0.72336340604E+03  0.77961782934E+03  0.12699999809E+01 0.  1.
</event>
<event>
 5   0  0.3744875E-03  0.1109804E+04  0.7818609E-02  0.9195689E-01
       -2   -1    0    0    0  501  0.00000000000E+00  0.00000000000E+00  0.15373951731E+03  0.15373951734E+03  0.25500000920E-02 0. -1.
        2   -1    0    0  501    0  0.00000000000E+00  0.00000000000E+00 -0.20028432755E+04  0.20028432755E+04  0.25500000920E-02 0.  1.
    10030    2    1    2    0    0  0.00000000000E+00  0.00000000000E+00 -0.18491037582E+04  0.21565827928E+04  0.11098038718E+04 0.  0.
        2    1    3    3  502    0 -0.19770900010E+03 -0.39417783048E+03 -0.15790740270E+04  0.16394937613E+04  0.25500000920E-02 0.  1.
       -2    1    3    3    0  502  0.19770900010E+03  0.39417783048E+03 -0.27002973122E+03  0.51708903151E+03  0.25500000920E-02 0. -1.
</event>
<event>
 5   0  0.2257667E-03  0.1101786E+04  0.7818609E-02  0.9203452E-01
        1   -1    0    0  501    0  0.00000000000E+00  0.00000000000E+00  0.76202572820E+03  0.76202572822E+03  0.50400001928E-02 0.  1.
       -1   -1    0    0    0  501  0.00000000000E+00  0.00000000000E+00 -0.39825868948E+03  0.39825868951E+03  0.50400001928E-02 0. -1.
    10030    2    1    2    0    0  0.00000000000E+00  0.00000000000E+00  0.36376703872E+03  0.11602844177E+04  0.11017864909E+04 0.  0.
        4    1    3    3  502    0  0.31596449075E+03 -0.32358195906E+03 -0.14936912909E+03  0.47628940075E+03  0.12699999809E+01 0. -1.
       -4    1    3    3    0  502 -0.31596449075E+03  0.32358195906E+03  0.51313616781E+03  0.68399501698E+03  0.12699999809E+01 0.  1.
</event>
<event>
 5   0  0.3748901E-03  0.1062427E+04  0.7818609E-02  0.9242608E-01
        2   -1    0    0  501    0  0.00000000000E+00  0.00000000000E+00  0.43296143523E+03  0.43296143524E+03  0.25500000920E-02 0. -1.
       -2   -1    0    0    0  501  0.00000000000E+00  0.00000000000E+00 -0.65176145903E+03  0.65176145903E+03  0.25500000920E-02 0.  1.
    10030    2    1    2    0    0  0.00000000000E+00  0.00000000000E+00 -0.21880002379E+03  0.10847228943E+04  0.10624266125E+04 0.  0.
        5    1    3    3  502    0  0.24574899240E+03  0.89532703353E+02  0.36264112775E+03  0.44714578134E+03  0.46999998093E+01 0. -1.
       -5    1    3    3    0  502 -0.24574899240E+03 -0.89532703353E+02 -0.58144115154E+03  0.63757711294E+03  0.46999998093E+01 0.  1.
</event>
<event>
 5   0  0.2374100E-03  0.1100502E+04  0.7818609E-02  0.9204703E-01
       -1   -1    0    0    0  501  0.00000000000E+00  0.00000000000E+00  0.70403087206E+03  0.70403087208E+03  0.50400001928E-02 0.  1.
        1   -1    0    0  501    0  0.00000000000E+00  0.00000000000E+00 -0.43006071861E+03  0.43006071864E+03  0.50400001928E-02 0. -1.
    10030    2    1    2    0    0  0.00000000000E+00  0.00000000000E+00  0.27397015345E+03  0.11340915907E+04  0.11005017452E+04 0.  0.
        2    1    3    3  502    0  0.47303812030E+03 -0.28051814186E+03  0.15543492627E+03  0.57150284993E+03  0.25500000920E-02 0. -1.
       -2    1    3    3    0  502 -0.47303812030E+03  0.28051814186E+03  0.11853522718E+03  0.56258874079E+03  0.25500000920E-02 0.  1.
</event>
<event>
 5   0  0.2298958E-03  0.1110434E+04  0.7818609E-02  0.9195082E-01
       -1   -1    0    0    0  501  0.00000000000E+00  0.00000000000E+00  0.13231504292E+03  0.13231504302E+03  0.50400001928E-02 0.  1.
        1   -1    0    0  501    0  0.00000000000E+00  0.00000000000E+00 -0.23297867281E+04  0.23297867281E+04  0.50400001928E-02 0. -1.
    10030    2    1    2    0    0  0.00000000000E+00  0.00000000000E+00 -0.21974716851E+04  0.24621017711E+04  0.11104338450E+04 0.  0.
        1    1    3    3  502    0 -0.15277776749E+03 -0.20060783597E+03 -0.21955010957E+04  0.22099343003E+04  0.50400001928E-02 0. -1.
       -1    1    3    3    0  502  0.15277776749E+03  0.20060783597E+03 -0.19705894027E+01  0.25216747082E+03  0.50400001928E-02 0.  1.
</event>
<event>
 5   0  0.2300702E-03  0.1092595E+04  0.7818609E-02  0.9212439E-01
       -1   -1    0    0    0  501  0.00000000000E+00  0.00000000000E+00  0.41873878330E+03  0.41873878333E+03  0.50400001928E-02 0.  1.
        1   -1    0    0  501    0  0.00000000000E+00  0.00000000000E+00 -0.71271408387E+03  0.71271408389E+03  0.50400001928E-02 0. -1.
    10030    2    1    2    0    0  0.00000000000E+00  0.00000000000E+00 -0.29397530057E+03  0.11314528672E+04  0.10925951278E+04 0.  0.
        5    1    3    3  502    0  0.19377947379E+03 -0.23426609991E+03  0.32301251247E+03  0.44361048594E+03  0.46999998093E+01 0.  1.
       -5    1    3    3    0  502 -0.19377947379E+03  0.23426609991E+03 -0.61698781305E+03  0.68784238127E+03  0.46999998093E+01 0. -1.
</event>
<event>
 5   0  0.2257667E-03  0.1088534E+04  0.7818609E-02  0.9216440E-01
       -1   -1    0    0    0  501  0.00000000000E+00  0.00000000000E+00  0.11327887743E+03  0.11327887754E+03  0.50400001928E-02 0.  1.
        1   -1    0    0  501    0  0.00000000000E+00  0.00000000000E+00 -0.26150206935E+04  0.26150206935E+04  0.50400001928E-02 0. -1.
    10030    2    1    2    0    0  0.00000000000E+00  0.00000000000E+00 -0.25017418160E+04  0.27282995710E+04  0.10885340762E+04 0.  0.
        4    1    3    3  502    0  0.22703384185E+03  0.45434725841E+03 -0.17410572425E+04  0.18136310902E+04  0.12699999809E+01 0. -1.
       -4    1    3    3    0  502 -0.22703384185E+03 -0.45434725841E+03 -0.76068457351E+03  0.91466848084E+03  0.12699999809E+01 0.  1.
</event>
<event>
 5   0  0.3992414E-03  0.1065151E+04  0.7818609E-02  0.9239840E-01
       -2   -1    0    0    0  501  0.00000000000E+00  0.00000000000E+00  0.41758149004E+03  0.41758149005E+03  0.25500000920E-02 0. -1.
        2   -1    0    0  501    0  0.00000000000E+00  0.00000000000E+00 -0.67923697959E+03  0.67923697960E+03  0.25500000920E-02 0.  1.
    10030    2    1    2    0    0  0.00000000000E+00  0.00000000000E+00 -0.26165548955E+03  0.10968184696E+04  0.10651512382E+04 0.  0.
        1    1    3    3  502    0 -0.37794398506E+03 -0.14277264043E+03 -0.48814727441E+03  0.63365088514E+03  0.50400001928E-02 0.  1.
       -1    1    3    3    0  502  0.37794398506E+03  0.14277264043E+03  0.22649178487E+03  0.46316758451E+03  0.50400001928E-02 0. -1.
</event>
<event>
 5   0  0.2298958E-03  0.1104247E+04  0.7818609E-02  0.9201063E-01
        1   -1    0    0  501    0  0.00000000000E+00  0.00000000000E+00  0.12543430161E+04  0.12543430161E+04  0.50400001928E-02 0.  1.
       -1   -1    0    0    0  501  0.00000000000E+00  0.00000000000E+00 -0.24302768948E+03  0.24302768953E+03  0.50400001928E-02 0. -1.
    10030    2    1    2    0    0  0.00000000000E+00  0.00000000000E+00  0.10113153266E+04  0.14973707056E+04  0.11042465034E+04 0.  0.
        1    1    3    3  502    0 -0.86779258103E+02 -0.39559800122E+03  0.10144992748E+04  0.10923539705E+04  0.50400001928E-02 0.  1.
       -1    1    3    3    0  502  0.86779258103E+02  0.39559800122E+03 -0.31839481880E+01  0.40501673516E+03  0.50400001928E-02 0. -1.
</event>
<event>
 5   0  0.3962999E-03  0.1104138E+04  0.7818609E-02  0.9201168E-01
       -2   -1    0    0    0  501  0.00000000000E+00  0.00000000000E+00  0.34341570968E+03  0.34341570969E+03  0.25500000920E-02 0.  1.
        2   -1    0    0  501    0  0.00000000000E+00  0.00000000000E+00 -0.88749659266E+03  0.88749659266E+03  0.25500000920E-02 0. -1.
    10030    2    1    2    0    0  0.00000000000E+00  0.00000000000E+00 -0.54408088297E+03  0.12309123024E+04  0.11041381657E+04 0.  0.
        3    1    3    3  502    0  0.27152354773E+03  0.16454219314E+03 -0.77553948076E+03  0.83800994428E+03  0.10100000352E+00 0. -1.
       -3    1    3    3    0  502 -0.27152354773E+03 -0.16454219314E+03  0.23145859778E+03  0.39290235808E+03  0.10100000352E+00 0.  1.
</event>
<event>
 5   0  0.3992414E-03  0.1096040E+04  0.7818609E-02  0.9209060E-01
       -2   -1    0    0    0  501  0.00000000000E+00  0.00000000000E+00  0.38361882072E+03  0.38361882073E+03  0.25500000920E-02 0.  1.
        2   -1    0    0  501    0  0.00000000000E+00  0.00000000000E+00 -0.78287643586E+03  0.78287643586E+03  0.25500000920E-02 0. -1.
    10030    2    1    2    0    0  0.00000000000E+00  0.00000000000E+00 -0.39925761514E+03  0.11664952566E+04  0.10960403918E+04 0.  0.
        1    1    3    3  502    0 -0.24336242075E+03 -0.26975335700E+03  0.23703010746E+03  0.43379190093E+03  0.50400001928E-02 0.  1.
       -1    1    3    3    0  502  0.24336242075E+03  0.26975335700E+03 -0.63628772260E+03  0.73270335566E+03  0.50400001928E-02 0. -1.
</event>
<event>
 5   0  0.3992414E-03  0.1120907E+04  0.7818609E-02  0.9185050E-01
        2   -1    0    0  501    0  0.00000000000E+00  0.00000000000E+00  0.56669467260E+03  0.56669467261E+03  0.25500000920E-02 0.  1.
       -2   -1    0    0    0  501  0.00000000000E+00  0.00000000000E+00 -0.55428129948E+03  0.55428129948E+03  0.25500000920E-02 0. -1.
    10030    2    1    2    0    0  0.00000000000E+00  0.00000000000E+00  0.12413373128E+02  0.11209759721E+04  0.11209072389E+04 0.  0.
        1    1    3    3  502    0 -0.27990887618E+03 -0.36768305040E+03 -0.31093805791E+03  0.55697601420E+03  0.50400001928E-02 0. -1.
       -1    1    3    3    0  502  0.27990887618E+03  0.36768305040E+03  0.32335143104E+03  0.56399995789E+03  0.50400001928E-02 0.  1.
</event>
<event>
 5   0  0.3748901E-03  0.1101015E+04  0.7818609E-02  0.9204203E-01
        2   -1    0    0  501    0  0.00000000000E+00  0.00000000000E+00  0.33087953275E+03  0.33087953276E+03  0.25500000920E-02 0. -1.
       -2   -1    0    0    0  501  0.00000000000E+00  0.00000000000E+00 -0.91591824586E+03  0.91591824587E+03  0.25500000920E-02 0.  1.
    10030    2    1    2    0    0  0.00000000000E+00  0.00000000000E+00 -0.58503871312E+03  0.12467977786E+04  0.11010151702E+04 0.  0.
        5    1    3    3  502    0  0.11478063704E+03  0.21509512370E+03  0.26638538903E+03  0.36114231594E+03  0.46999998093E+01 0. -1.
       -5    1    3    3    0  502 -0.11478063704E+03 -0.21509512370E+03 -0.85142410214E+03  0.88565546269E+03  0.46999998093E+01 0.  1.
</event>
<event>
 5   0  0.2300702E-03  0.1101918E+04  0.7818609E-02  0.9203324E-01
       -1   -1    0    0    0  501  0.00000000000E+00  0.00000000000E+00  0.14167295873E+04  0.14167295873E+04  0.50400001928E-02 0. -1.
        1   -1    0    0  501    0  0.00000000000E+00  0.00000000000E+00 -0.21426532602E+03  0.21426532608E+03  0.50400001928E-02 0.  1.
    10030    2    1    2    0    0  0.00000000000E+00  0.00000000000E+00  0.12024642613E+04  0.16309949134E+04  0.11019183762E+04 0.  0.
        5    1    3    3  502    0 -0.16454822798E+03  0.28840194604E+03 -0.49495186003E+02  0.33574345154E+03  0.46999998093E+01 0.  1.
       -5    1    3    3    0  502  0.16454822798E+03 -0.28840194604E+03  0.12519594473E+04  0.12952514619E+04  0.46999998093E+01 0. -1.
</event>
<event>
 5   0  0.3962999E-03  0.1105351E+04  0.7818609E-02  0.9199992E-01
       -2   -1    0    0    0  501  0.00000000000E+00  0.00000000000E+00  0.18185570278E+03  0.18185570279E+03  0.25500000920E-02 0.  1.
        2   -1    0    0  501    0  0.00000000000E+00  0.00000000000E+00 -0.16796299867E+04  0.16796299867E+04  0.25500000920E-02 0. -1.
    10030    2    1    2    0    0  0.00000000000E+00  0.00000000000E+00 -0.14977742839E+04  0.18614856895E+04  0.11053511508E+04 0.  0.
        3    1    3    3  502    0  0.12466436973E+03  0.39577335686E+03 -0.13409295943E+03  0.43607188289E+03  0.10100000352E+00 0.  1.
       -3    1    3    3    0  502 -0.12466436973E+03 -0.39577335686E+03 -0.13636813245E+04  0.14254138066E+04  0.10100000352E+00 0. -1.
</event>
<event>
 5   0  0.2374100E-03  0.1096643E+04  0.7818609E-02  0.9208470E-01
        1   -1    0    0  501    0  0.00000000000E+00  0.00000000000E+00  0.41014701229E+03  0.41014701233E+03  0.50400001928E-02 0. -1.
       -1   -1    0    0    0  501  0.00000000000E+00  0.00000000000E+00 -0.73304591278E+03  0.73304591280E+03  0.50400001928E-02 0.  1.
    10030    2    1    2    0    0  0.00000000000E+00  0.00000000000E+00 -0.32289890049E+03  0.11431929251E+04  0.10966432255E+04 0.  0.
        2    1    3    3  502    0  0.36554658792E+03 -0.42602150684E+02 -0.58517239378E+03  0.69127851235E+03  0.25500000920E-02 0.  1.
       -2    1    3    3    0  502 -0.36554658792E+03  0.42602150684E+02  0.26227349329E+03  0.45191441278E+03  0.25500000920E-02 0. -1.
</event>
<event>
 5   0  0.2298958E-03  0.1068902E+04  0.7818609E-02  0.9236044E-01
       -1   -1    0    0    0  501  0.00000000000E+00  0.00000000000E+00  0.19944311209E+04  0.19944311209E+04  0.50400001928E-02 0.  1.
        1   -1    0    0  501    0  0.00000000000E+00  0.00000000000E+00 -0.14321762877E+03  0.14321762886E+03  0.50400001928E-02 0. -1.
    10030    2    1    2    0    0  0.00000000000E+00  0.00000000000E+00  0.18512134921E+04  0.21376487498E+04  0.10689016718E+04 0.  0.
        1    1    3    3  502    0  0.71958857078E+02  0.16186669456E+03 -0.82801941455E+02  0.19553788751E+03  0.50400001928E-02 0. -1.
       -1    1    3    3    0  502 -0.71958857078E+02 -0.16186669456E+03  0.19340154336E+04  0.19421108623E+04  0.50400001928E-02 0.  1.
</event>
<event>
 5   0  0.2255788E-03  0.1123576E+04  0.7818609E-02  0.9182513E-01
       -1   -1    0    0    0  501  0.00000000000E+00  0.00000000000E+00  0.24316554650E+03  0.24316554655E+03  0.50400001928E-02 0. -1.
        1   -1    0    0  501    0  0.00000000000E+00  0.00000000000E+00 -0.12979050279E+04  0.12979050279E+04  0.50400001928E-02 0.  1.
    10030    2    1    2    0    0  0.00000000000E+00  0.00000000000E+00 -0.10547394814E+04  0.15410705744E+04  0.11235760507E+04 0.  0.
        3    1    3    3  502    0  0.44161381999E+02 -0.31919985135E+03  0.10380440242E+03  0.33854709706E+03  0.10100000352E+00 0. -1.
       -3    1    3    3    0  502 -0.44161381999E+02  0.31919985135E+03 -0.11585438838E+04  0.12025234774E+04  0.10100000352E+00 0.  1.
</event>
<event>
 5   0  0.2255788E-03  0.1084410E+04  0.7818609E-02  0.9220521E-01
       -1   -1    0    0    0  501  0.00000000000E+00  0.00000000000E+00  0.46951207777E+03  0.46951207780E+03  0.50400001928E-02 0.  1.
        1   -1    0    0  501    0  0.00000000000E+00  0.00000000000E+00 -0.62615299274E+03  0.62615299276E+03  0.50400001928E-02 0. -1.
    10030    2    1    2    0    0  0.00000000000E+00  0.00000000000E+00 -0.15664091497E+03  0.10956650706E+04  0.10844102409E+04 0.  0.
        3    1    3    3  502    0  0.10881788260E+03 -0.43314076764E+03 -0.38897557604E+03  0.59224510561E+03  0.10100000352E+00 0.  1.
       -3    1    3    3    0  502 -0.10881788260E+03  0.43314076764E+03  0.23233466107E+03  0.50341996494E+03  0.10100000352E+00 0. -1.
</event>
<event>
 5   0  0.3744875E-03  0.1093812E+04  0.7818609E-02  0.9211244E-01
       -2   -1    0    0    0  501  0.00000000000E+00  0.00000000000E+00  0.22271676584E+03  0.22271676586E+03  0.25500000920E-02 0.  1.
        2   -1    0    0  501    0  0.00000000000E+00  0.00000000000E+00 -0.13429891626E+04  0.13429891627E+04  0.25500000920E-02 0. -1.
    10030    2    1    2    0    0  0.00000000000E+00  0.00000000000E+00 -0.11202723968E+04  0.15657059285E+04  0.10938120549E+04 0.  0.
        2    1    3    3  502    0 -0.35790760828E+03  0.20860501438E+02 -0.11513204706E+04  0.12058490132E+04  0.25500000920E-02 0. -1.
       -2    1    3    3    0  502  0.35790760828E+03 -0.20860501438E+02  0.31048073828E+02  0.35985691528E+03  0.25500000920E-02 0.  1.
</event>
<event>
 5   0  0.2300702E-03  0.1097264E+04  0.7818609E-02  0.9207863E-01
        1   -1    0    0  501    0  0.00000000000E+00  0.00000000000E+00  0.17461770372E+04  0.17461770372E+04  0.50400001928E-02 0.  1.
       -1   -1    0    0    0  501  0.00000000000E+00  0.00000000000E+00 -0.17237478927E+03  0.17237478934E+03  0.50400001928E-02 0. -1.
    10030    2    1    2    0    0  0.00000000000E+00  0.00000000000E+00  0.15738022479E+04  0.19185518265E+04  0.10972636855E+04 0.  0.
        5    1    3    3  502    0  0.35846771840E+03 -0.91693296224E+01  0.60927882125E+02  0.36375469558E+03  0.46999998093E+01 0. -1.
       -5    1    3    3    0  502 -0.35846771840E+03  0.91693296224E+01  0.15128743658E+04  0.15547971309E+04  0.46999998093E+01 0.  1.
</event>
<event>
 5   0  0.3748901E-03  0.1105329E+04  0.7818609E-02  0.9200014E-01
       -2   -1    0    0    0  501  0.00000000000E+00  0.00000000000E+00  0.34187830712E+03  0.34187830713E+03  0.25500000920E-02 0.  1.
        2   -1    0    0  501    0  0.00000000000E+00  0.00000000000E+00 -0.89341086029E+03  0.89341086029E+03  0.25500000920E-02 0. -1.
    10030    2    1    2    0    0  0.00000000000E+00  0.00000000000E+00 -0.55153255317E+03  0.12352891674E+04  0.11053285348E+04 0.  0.
        5    1    3    3  502    0  0.54237610993E+03  0.71002677613E+02 -0.36378191730E+03  0.65694185299E+03  0.46999998093E+01 0. -1.
       -5    1    3    3    0  502 -0.54237610993E+03 -0.71002677613E+02 -0.18775063587E+03  0.57834731444E+03  0.46999998093E+01 0.  1.
</event>
<event>
 5   0  0.1508625E-03  0.1088261E+04  0.7818609E-02  0.9216710E-01
        4   -1    0    0  501    0  0.00000000000E+00  0.00000000000E+00  0.28992220251E+03  0.28992498411E+03  0.12699999809E+01 0.  1.
       -4   -1    0    0    0  501  0.00000000000E+00  0.00000000000E+00 -0.10212241671E+04  0.10212249567E+04  0.12699999809E+01 0. -1.
    10030    2    1    2    0    0  0.00000000000E+00  0.00000000000E+00 -0.73130196455E+03  0.13111499409E+04  0.10882608162E+04 0.  0.
        1    1    3    3  502    0 -0.45928350070E+02  0.53163509425E+03 -0.23739299517E+03  0.58403828724E+03  0.50400001928E-02 0. -1.
       -1    1    3    3    0  502  0.45928350070E+02 -0.53163509425E+03 -0.49390896937E+03  0.72711165362E+03  0.50400001928E-02 0.  1.
</event>
<event>
 5   0  0.3748901E-03  0.1101039E+04  0.7818609E-02  0.9204179E-01
        2   -1    0    0  501    0  0.00000000000E+00  0.00000000000E+00  0.11130412139E+04  0.11130412139E+04  0.25500000920E-02 0. -1.
       -2   -1    0    0    0  501  0.00000000000E+00  0.00000000000E+00 -0.27229173957E+03  0.27229173958E+03  0.25500000920E-02 0.  1.
    10030    2    1    2    0    0  0.00000000000E+00  0.00000000000E+00  0.84074947433E+03  0.13853329535E+04  0.11010393787E+04 0.  0.
        5    1    3    3  502    0  0.24764083868E+02  0.14653715505E+03 -0.24654906834E+03  0.28791479774E+03  0.46999998093E+01 0.  1.
       -5    1    3    3    0  502 -0.24764083868E+02 -0.14653715505E+03  0.10872985427E+04  0.10974181557E+04  0.46999998093E+01 0. -1.
</event>
<event>
 5   0  0.2298958E-03  0.1096082E+04  0.7818609E-02  0.9209019E-01
        1   -1    0    0  501    0  0.00000000000E+00  0.00000000000E+00  0.66033612174E+03  0.66033612176E+03  0.50400001928E-02 0.  1.
       -1   -1    0    0    0  501  0.00000000000E+00  0.00000000000E+00 -0.45484221626E+03  0.45484221628E+03  0.50400001928E-02 0. -1.
    10030    2    1    2    0    0  0.00000000000E+00  0.00000000000E+00  0.20549390549E+03  0.11151783380E+04  0.10960816486E+04 0.  0.
        1    1    3    3  502    0 -0.53379489868E+03 -0.60711697205E+02 -0.74256019007E+01  0.53728767306E+03  0.50400001928E-02 0.  1.
       -1    1    3    3    0  502  0.53379489868E+03  0.60711697205E+02  0.21291950739E+03  0.57789066499E+03  0.50400001928E-02 0. -1.
</event>
<event>
 5   0  0.2374100E-03  0.1107327E+04  0.7818609E-02  0.9198080E-01
       -1   -1    0    0    0  501  0.00000000000E+00  0.00000000000E+00  0.32731484571E+03  0.32731484575E+03  0.50400001928E-02 0. -1.
        1   -1    0    0  501    0  0.00000000000E+00  0.00000000000E+00 -0.93653929461E+03  0.93653929462E+03  0.50400001928E-02 0.  1.
    10030    2    1    2    0    0  0.00000000000E+00  0.00000000000E+00 -0.60922444890E+03  0.12638541404E+04  0.11073268980E+04 0.  0.
        2    1    3    3  502    0  0.36271916474E+03  0.69076668572E+02  0.16626652920E+03  0.40494609190E+03  0.25500000920E-02 0. -1.
       -2    1    3    3    0  502 -0.36271916474E+03 -0.69076668572E+02 -0.77549097810E+03  0.85890804847E+03  0.25500000920E-02 0.  1.
</event>
<event>
 5   0  0.3992414E-03  0.1065496E+04  0.7818609E-02  0.9239490E-01
       -2   -1    0    0    0  501  0.00000000000E+00  0.00000000000E+00  0.32823361232E+03  0.32823361233E+03  0.25500000920E-02 0.  1.
        2   -1    0    0  501    0  0.00000000000E+00  0.00000000000E+00 -0.86469092810E+03  0.86469092810E+03  0.25500000920E-02 0. -1.
    10030    2    1    2    0    0  0.00000000000E+00  0.00000000000E+00 -0.53645731577E+03  0.11929245404E+04  0.10654963667E+04 0.  0.
        1    1    3    3  502    0 -0.21700949052E+03  0.18535594415E+03  0.23542825266E+03  0.36996811644E+03  0.50400001928E-02 0.  1.
       -1    1    3    3    0  502  0.21700949052E+03 -0.18535594415E+03 -0.77188556844E+03  0.82295642399E+03  0.50400001928E-02 0. -1.
</event>
<event>
 5   0  0.3992414E-03  0.1101081E+04  0.7818609E-02  0.9204139E-01
       -2   -1    0    0    0  501  0.00000000000E+00  0.00000000000E+00  0.97873391363E+03  0.97873391364E+03  0.25500000920E-02 0.  1.
        2   -1    0    0  501    0  0.00000000000E+00  0.00000000000E+00 -0.30968047669E+03  0.30968047670E+03  0.25500000920E-02 0. -1.
    10030    2    1    2    0    0  0.00000000000E+00  0.00000000000E+00  0.66905343695E+03  0.12884143903E+04  0.11010808961E+04 0.  0.
        1    1    3    3  502    0 -0.18650688841E+03  0.80987277303E+02 -0.26413368751E+03  0.33333221178E+03  0.50400001928E-02 0. -1.
       -1    1    3    3    0  502  0.18650688841E+03 -0.80987277303E+02  0.93318712445E+03  0.95508217855E+03  0.50400001928E-02 0.  1.
</event>
<event>
 5   0  0.1508625E-03  0.1095510E+04  0.7818609E-02  0.9209580E-01
       -3   -1    0    0    0  501  0.00000000000E+00  0.00000000000E+00  0.99112402337E+02  0.99112453799E+02  0.10100000352E+00 0.  1.
        3   -1    0    0  501    0  0.00000000000E+00  0.00000000000E+00 -0.30272216393E+04  0.30272216410E+04  0.10100000352E+00 0. -1.
    10030    2    1    2    0    0  0.00000000000E+00  0.00000000000E+00 -0.29281092370E+04  0.31263340948E+04  0.10955095475E+04 0.  0.
        2    1    3    3  502    0 -0.47759371403E+03 -0.26821280909E+03 -0.14606473621E+04  0.15599758277E+04  0.25500000920E-02 0. -1.
       -2    1    3    3    0  502  0.47759371403E+03  0.26821280909E+03 -0.14674618749E+04  0.15663582671E+04  0.25500000920E-02 0.  1.
</event>
<event>
 5   0  0.2257667E-03  0.1079205E+04  0.7818609E-02  0.9225700E-01
        1   -1    0    0  501    0  0.00000000000E+00  0.00000000000E+00  0.75091332224E+03  0.75091332226E+03  0.50400001928E-02 0. -1.
       -1   -1    0    0    0  501  0.00000000000E+00  0.00000000000E+00 -0.38775583593E+03  0.38775583596E+03  0.50400001928E-02 0.  1.
    10030    2    1    2    0    0  0.00000000000E+00  0.00000000000E+00  0.36315748631E+03  0.11386691582E+04  0.10792053058E+04 0.  0.
        4    1    3    3  502    0  0.39302244496E+03 -0.31735297328E+03  0.38174162890E+03  0.63317283267E+03  0.12699999809E+01 0. -1.
       -4    1    3    3    0  502 -0.39302244496E+03  0.31735297328E+03 -0.18584142587E+02  0.50549632556E+03  0.12699999809E+01 0.  1.
</event>
<event>
 5   0  0.3748901E-03  0.1112095E+04  0.7818609E-02  0.9193482E-01
        2   -1    0    0  501    0  0.00000000000E+00  0.00000000000E+00  0.17882395915E+04  0.17882395915E+04  0.25500000920E-02 0. -1.
       -2   -1    0    0    0  501  0.00000000000E+00  0.00000000000E+00 -0.17290136603E+03  0.17290136605E+03  0.25500000920E-02 0.  1.
    10030    2    1    2    0    0  0.00000000000E+00  0.00000000000E+00  0.16153382255E+04  0.19611409575E+04  0.11120954423E+04 0.  0.
        5    1    3    3  502    0 -0.35738466810E+03 -0.20754900166E+03  0.14636366789E+04  0.15208730410E+04  0.46999998093E+01 0. -1.
       -5    1    3    3    0  502  0.35738466810E+03  0.20754900166E+03  0.15170154656E+03  0.44026791651E+03  0.46999998093E+01 0.  1.
</event>
<event>
 5   0  0.2300702E-03  0.1108325E+04  0.7818609E-02  0.9197115E-01
        1   -1    0    0  501    0  0.00000000000E+00  0.00000000000E+00  0.42344515062E+03  0.42344515065E+03  0.50400001928E-02 0.  1.
       -1   -1    0    0    0  501  0.00000000000E+00  0.00000000000E+00 -0.72523255558E+03  0.72523255560E+03  0.50400001928E-02 0. -1.
    10030    2    1    2    0    0  0.00000000000E+00  0.00000000000E+00 -0.30178740496E+03  0.11486777062E+04  0.11083252388E+04 0.  0.
        5    1    3    3  502    0  0.10103930017E+03  0.52105593478E+03  0.14171691807E+02  0.53097189587E+03  0.46999998093E+01 0. -1.
       -5    1    3    3    0  502 -0.10103930017E+03 -0.52105593478E+03 -0.31595909677E+03  0.61770581038E+03  0.46999998093E+01 0.  1.
</event>
<event>
 5   0  0.2374100E-03  0.1103026E+04  0.7818609E-02  0.9202248E-01
       -1   -1    0    0    0  501  0.00000000000E+00  0.00000000000E+00  0.34280529638E+03  0.34280529642E+03  0.50400001928E-02 0.  1.
        1   -1    0    0  501    0  0.00000000000E+00  0.00000000000E+00 -0.88728656244E+03  0.88728656245E+03  0.50400001928E-02 0. -1.
    10030    2    1    2    0    0  0.00000000000E+00  0.00000000000E+00 -0.54448126605E+03  0.12300918589E+04  0.11030258982E+04 0.  0.
        2    1    3    3  502    0 -0.45783510779E+03  0.17882327278E+03 -0.55120901612E+03  0.73852699902E+03  0.25500000920E-02 0. -1.
       -2    1    3    3    0  502  0.45783510779E+03 -0.17882327278E+03  0.67277500703E+01  0.49156485985E+03  0.25500000920E-02 0.  1.
</event>
<event>
 5   0  0.3748901E-03  0.1086123E+04  0.7818609E-02  0.9218824E-01
       -2   -1    0    0    0  501  0.00000000000E+00  0.00000000000E+00  0.14215676915E+03  0.14215676917E+03  0.25500000920E-02 0. -1.
        2   -1    0    0  501    0  0.00000000000E+00  0.00000000000E+00 -0.20745821187E+04  0.20745821187E+04  0.25500000920E-02 0.  1.
    10030    2    1    2    0    0  0.00000000000E+00  0.00000000000E+00 -0.19324253495E+04  0.22167388878E+04  0.10861231815E+04 0.  0.
        5    1    3    3  502    0  0.75186938947E+02  0.53780427832E+03 -0.97172092819E+03  0.11131712222E+04  0.46999998093E+01 0. -1.
       -5    1    3    3    0  502 -0.75186938947E+02 -0.53780427832E+03 -0.96070442133E+03  0.11035676657E+04  0.46999998093E+01 0.  1.
</event>
<event>
 5   0  0.3992414E-03  0.1109190E+04  0.7818609E-02  0.9196281E-01
       -2   -1    0    0    0  501  0.00000000000E+00  0.00000000000E+00  0.24956193399E+03  0.24956193401E+03  0.25500000920E-02 0. -1.
        2   -1    0    0  501    0  0.00000000000E+00  0.00000000000E+00 -0.12324611079E+04  0.12324611079E+04  0.25500000920E-02 0.  1.
    10030    2    1    2    0    0  0.00000000000E+00  0.00000000000E+00 -0.98289917390E+03  0.14820230419E+04  0.11091895738E+04 0.  0.
        1    1    3    3  502    0 -0.52832267080E+03  0.51293324650E+02 -0.27675389664E+03  0.59862222559E+03  0.50400001928E-02 0. -1.
       -1    1    3    3    0  502  0.52832267080E+03 -0.51293324650E+02 -0.70614527726E+03  0.88340081631E+03  0.50400001928E-02 0.  1.
</event>
<event>
 5   0  0.2374100E-03  0.1098319E+04  0.7818609E-02  0.9206831E-01
        1   -1    0    0  501    0  0.00000000000E+00  0.00000000000E+00  0.26067073812E+03  0.26067073817E+03  0.50400001928E-02 0.  1.
       -1   -1    0    0    0  501  0.00000000000E+00  0.00000000000E+00 -0.11569245695E+04  0.11569245695E+04  0.50400001928E-02 0. -1.
    10030    2    1    2    0    0  0.00000000000E+00  0.00000000000E+00 -0.89625383138E+03  0.14175953077E+04  0.10983194099E+04 0.  0.
        2    1    3    3  502    0  0.45865168091E+03 -0.26115629116E+03 -0.64392329097E+03  0.83258703898E+03  0.25500000920E-02 0. -1.
       -2    1    3    3    0  502 -0.45865168091E+03  0.26115629116E+03 -0.25233054041E+03  0.58500826870E+03  0.25500000920E-02 0.  1.
</event>
<event>
 5   0  0.2300702E-03  0.1086886E+04  0.7818609E-02  0.9218069E-01
        1   -1    0    0  501    0  0.00000000000E+00  0.00000000000E+00  0.10367694576E+04  0.10367694576E+04  0.50400001928E-02 0. -1.
       -1   -1    0    0    0  501  0.00000000000E+00  0.00000000000E+00 -0.28485618597E+03  0.28485618602E+03  0.50400001928E-02 0.  1.
    10030    2    1    2    0    0  0.00000000000E+00  0.00000000000E+00  0.75191327164E+03  0.13216256436E+04  0.10868858145E+04 0.  0.
        5    1    3    3  502    0  0.14383501209E+03 -0.48103993326E+03  0.12316203241E+03  0.51699023619E+03  0.46999998093E+01 0. -1.
       -5    1    3    3    0  502 -0.14383501209E+03  0.48103993326E+03  0.62875123923E+03  0.80463540745E+03  0.46999998093E+01 0.  1.
</event>
<event>
 5   0  0.2255788E-03  0.1073807E+04  0.7818609E-02  0.9231104E-01
       -1   -1    0    0    0  501  0.00000000000E+00  0.00000000000E+00  0.40974600181E+03  0.40974600184E+03  0.50400001928E-02 0.  1.
        1   -1    0    0  501    0  0.00000000000E+00  0.00000000000E+00 -0.70352184755E+03  0.70352184757E+03  0.50400001928E-02 0. -1.
    10030    2    1    2    0    0  0.00000000000E+00  0.00000000000E+00 -0.29377584574E+03  0.11132678494E+04  0.10738068062E+04 0.  0.
        3    1    3    3  502    0 -0.31236724431E+03 -0.39400834157E+03 -0.34208704957E+03  0.60814424952E+03  0.10100000352E+00 0. -1.
       -3    1    3    3    0  502  0.31236724431E+03  0.39400834157E+03  0.48311203828E+02  0.50512359988E+03  0.10100000352E+00 0.  1.
</event>
<event>
 5   0  0.2255788E-03  0.1111522E+04  0.7818609E-02  0.9194034E-01
       -1   -1    0    0    0  501  0.00000000000E+00  0.00000000000E+00  0.38862777212E+03  0.38862777216E+03  0.50400001928E-02 0. -1.
        1   -1    0    0  501    0  0.00000000000E+00  0.00000000000E+00 -0.79477155146E+03  0.79477155147E+03  0.50400001928E-02 0.  1.
    10030    2    1    2    0    0  0.00000000000E+00  0.00000000000E+00 -0.40614377933E+03  0.11833993236E+04  0.11115220149E+04 0.  0.
        3    1    3    3  502    0  0.24299078306E+03  0.36050467536E+03  0.16552721138E+03  0.46519609791E+03  0.10100000352E+00 0. -1.
       -3    1    3    3    0  502 -0.24299078306E+03 -0.36050467536E+03 -0.57167099071E+03  0.71820322572E+03  0.10100000352E+00 0.  1.
</event>
<event>
 5   0  0.2300702E-03  0.1102580E+04  0.7818609E-02  0.9202681E-01
       -1   -1    0    0    0  501  0.00000000000E+00  0.00000000000E+00  0.36114933934E+03  0.36114933938E+03  0.50400001928E-02 0. -1.
        1   -1    0    0  501    0  0.00000000000E+00  0.00000000000E+00 -0.84153726881E+03  0.84153726883E+03  0.50400001928E-02 0.  1.
    10030    2    1    2    0    0  0.00000000000E+00  0.00000000000E+00 -0.48038792947E+03  0.12026866082E+04  0.11025799358E+04 0.  0.
        5    1    3    3  502    0  0.18436354879E+03 -0.47405737138E+03 -0.47204390711E+03  0.69395089864E+03  0.46999998093E+01 0.  1.
       -5    1    3    3    0  502 -0.18436354879E+03  0.47405737138E+03 -0.83440223641E+01  0.50873570957E+03  0.46999998093E+01 0. -1.
</event>
<event>
 5   0  0.2257667E-03  0.1108166E+04  0.7818609E-02  0.9197269E-01
       -1   -1    0    0    0  501  0.00000000000E+00  0.00000000000E+00  0.16710123622E+03  0.16710123630E+03  0.50400001928E-02 0. -1.
        1   -1    0    0  501    0  0.00000000000E+00  0.00000000000E+00 -0.18372581099E+04  0.18372581099E+04  0.50400001928E-02 0.  1.
    10030    2    1    2    0    0  0.00000000000E+00  0.00000000000E+00 -0.16701568736E+04  0.20043593462E+04  0.11081662357E+04 0.  0.
        4    1    3    3  502    0  0.53384451790E+03 -0.72799612587E+02 -0.60122357135E+03  0.80731725395E+03  0.12699999809E+01 0. -1.
       -4    1    3    3    0  502 -0.53384451790E+03  0.72799612587E+02 -0.10689333023E+04  0.11970420922E+04  0.12699999809E+01 0.  1.
</event>
<event>
 5   0  0.2255788E-03  0.1098053E+04  0.7818609E-02  0.9207091E-01
        1   -1    0    0  501    0  0.00000000000E+00  0.00000000000E+00  0.12048087800E+04  0.12048087800E+04  0.50400001928E-02 0. -1.
       -1   -1    0    0    0  501  0.00000000000E+00  0.00000000000E+00 -0.25018929233E+03  0.25018929238E+03  0.50400001928E-02 0.  1.
    10030    2    1    2    0    0  0.00000000000E+00  0.00000000000E+00  0.95461948765E+03  0.14549980724E+04  0.10980532885E+04 0.  0.
        3    1    3    3  502    0 -0.36095848569E+03  0.39987253369E+03  0.61779955931E+03  0.81967394571E+03  0.10100000352E+00 0. -1.
       -3    1    3    3    0  502  0.36095848569E+03 -0.39987253369E+03  0.33681992834E+03  0.63532412666E+03  0.10100000352E+00 0.  1.
</event>
<event>
 5   0  0.3713158E-03  0.1094772E+04  0.7818609E-02  0.9210302E-01
        2   -1    0    0  501    0  0.00000000000E+00  0.00000000000E+00  0.72859420751E+03  0.72859420752E+03  0.25500000920E-02 0. -1.
       -2   -1    0    0    0  501  0.00000000000E+00  0.00000000000E+00 -0.41124614686E+03  0.41124614686E+03  0.25500000920E-02 0.  1.
    10030    2    1    2    0    0  0.00000000000E+00  0.00000000000E+00  0.31734806066E+03  0.11398403544E+04  0.10947722329E+04 0.  0.
        4    1    3    3  502    0  0.22647932502E+03  0.48489724906E+03  0.27834806907E+03  0.60323916257E+03  0.12699999809E+01 0.  1.
       -4    1    3    3    0  502 -0.22647932502E+03 -0.48489724906E+03  0.38999991586E+02  0.53660119181E+03  0.12699999809E+01 0. -1.
</event>
<event>
 5   0  0.2255788E-03  0.1101087E+04  0.7818609E-02  0.9204133E-01
        1   -1    0    0  501    0  0.00000000000E+00  0.00000000000E+00  0.18253532011E+04  0.18253532011E+04  0.50400001928E-02 0. -1.
       -1   -1    0    0    0  501  0.00000000000E+00  0.00000000000E+00 -0.16604892749E+03  0.16604892757E+03  0.50400001928E-02 0.  1.
    10030    2    1    2    0    0  0.00000000000E+00  0.00000000000E+00  0.16593042736E+04  0.19914021286E+04  0.11010866295E+04 0.  0.
        3    1    3    3  502    0  0.35730476494E+03  0.40800072494E+03  0.65839351035E+03  0.85300252712E+03  0.10100000352E+00 0.  1.
       -3    1    3    3    0  502 -0.35730476494E+03 -0.40800072494E+03  0.10009107632E+04  0.11383996015E+04  0.10100000352E+00 0. -1.
</event>
<event>
 5   0  0.3962999E-03  0.1097216E+04  0.7818609E-02  0.9207910E-01
       -2   -1    0    0    0  501  0.00000000000E+00  0.00000000000E+00  0.36898617053E+03  0.36898617054E+03  0.25500000920E-02 0. -1.
        2   -1    0    0  501    0  0.00000000000E+00  0.00000000000E+00 -0.81566917568E+03  0.81566917569E+03  0.25500000920E-02 0.  1.
    10030    2    1    2    0    0  0.00000000000E+00  0.00000000000E+00 -0.44668300516E+03  0.11846553462E+04  0.10972158321E+04 0.  0.
        3    1    3    3  502    0 -0.41725584230E+03 -0.17270465938E+03 -0.55968129492E+03  0.71914706381E+03  0.10100000352E+00 0.  1.
       -3    1    3    3    0  502  0.41725584230E+03  0.17270465938E+03  0.11299828976E+03  0.46550828241E+03  0.10100000352E+00 0. -1.
</event>
<event>
 5   0  0.3962999E-03  0.1099901E+04  0.7818609E-02  0.9205289E-01
        2   -1    0    0  501    0  0.00000000000E+00  0.00000000000E+00  0.42650229447E+03  0.42650229448E+03  0.25500000920E-02 0. -1.
       -2   -1    0    0    0  501  0.00000000000E+00  0.00000000000E+00 -0.70912956406E+03  0.70912956407E+03  0.25500000920E-02 0.  1.
    10030    2    1    2    0    0  0.00000000000E+00  0.00000000000E+00 -0.28262726959E+03  0.11356318585E+04  0.10999006976E+04 0.  0.
        3    1    3    3  502    0 -0.17140879867E+03 -0.17906066460E+03  0.36555348925E+03  0.44167076151E+03  0.10100000352E+00 0. -1.
       -3    1    3    3    0  502  0.17140879867E+03  0.17906066460E+03 -0.64818075884E+03  0.69396109704E+03  0.10100000352E+00 0.  1.
</event>
<event>
 5   0  0.3748901E-03  0.1095937E+04  0.7818609E-02  0.9209161E-01
       -2   -1    0    0    0  501  0.00000000000E+00  0.00000000000E+00  0.67986690622E+03  0.67986690623E+03  0.25500000920E-02 0.  1.
        2   -1    0    0  501    0  0.00000000000E+00  0.00000000000E+00 -0.44165940226E+03  0.44165940226E+03  0.25500000920E-02 0. -1.
    10030    2    1    2    0    0  0.00000000000E+00  0.00000000000E+00  0.23820750397E+03  0.11215263085E+04  0.10959372453E+04 0.  0.
        5    1    3    3  502    0 -0.38029046310E+03  0.10656998116E+03 -0.26959314959E+03  0.47820555571E+03  0.46999998093E+01 0. -1.
       -5    1    3    3    0  502  0.38029046310E+03 -0.10656998116E+03  0.50780065356E+03  0.64332075278E+03  0.46999998093E+01 0.  1.
</event>
<event>
 5   0  0.3748901E-03  0.1099996E+04  0.7818609E-02  0.9205196E-01
       -2   -1    0    0    0  501  0.00000000000E+00  0.00000000000E+00  0.80333904815E+03  0.80333904815E+03  0.25500000920E-02 0.  1.
        2   -1    0    0  501    0  0.00000000000E+00  0.00000000000E+00 -0.37655035781E+03  0.37655035782E+03  0.25500000920E-02 0. -1.
    10030    2    1    2    0    0  0.00000000000E+00  0.00000000000E+00  0.42678869034E+03  0.11798894060E+04  0.10999956473E+04 0.  0.
        5    1    3    3  502    0 -0.22782845261E+03  0.48838323308E+03  0.95641495605E+02  0.54735123262E+03  0.46999998093E+01 0. -1.
       -5    1    3    3    0  502  0.22782845261E+03 -0.48838323308E+03  0.33114719473E+03  0.63253817335E+03  0.46999998093E+01 0.  1.
</event>
<event>
 5   0  0.2300702E-03  0.1114174E+04  0.7818609E-02  0.9191486E-01
        1   -1    0    0  501    0  0.00000000000E+00  0.00000000000E+00  0.43462687697E+03  0.43462687699E+03  0.50400001928E-02 0.  1.
       -1   -1    0    0    0  501  0.00000000000E+00  0.00000000000E+00 -0.71405089116E+03  0.71405089118E+03  0.50400001928E-02 0. -1.
    10030    2    1    2    0    0  0.00000000000E+00  0.00000000000E+00 -0.27942401419E+03  0.11486777682E+04  0.11141736110E+04 0.  0.
        5    1    3    3  502    0  0.34442569233E+03  0.21394681465E+02 -0.59056101097E+03  0.68401110196E+03  0.46999998093E+01 0. -1.
       -5    1    3    3    0  502 -0.34442569233E+03 -0.21394681465E+02  0.31113699677E+03  0.46466666621E+03  0.46999998093E+01 0.  1.
</event>
<event>
 5   0  0.2374100E-03  0.1117810E+04  0.7818609E-02  0.9188005E-01
       -1   -1    0    0    0  501  0.00000000000E+00  0.00000000000E+00  0.17780331305E+03  0.17780331312E+03  0.50400001928E-02 0.  1.
        1   -1    0    0  501    0  0.00000000000E+00  0.00000000000E+00 -0.17568564213E+04  0.17568564213E+04  0.50400001928E-02 0. -1.
    10030    2    1    2    0    0  0.00000000000E+00  0.00000000000E+00 -0.15790531083E+04  0.19346597345E+04  0.11178101670E+04 0.  0.
        2    1    3    3  502    0  0.65216056576E+02 -0.28029745723E+03  0.39712990648E+02  0.29051148032E+03  0.25500000920E-02 0.  1.
       -2    1    3    3    0  502 -0.65216056576E+02  0.28029745723E+03 -0.16187660989E+04  0.16441482541E+04  0.25500000920E-02 0. -1.
</event>
<event>
 5   0  0.3748901E-03  0.1099387E+04  0.7818609E-02  0.9205789E-01
       -2   -1    0    0    0  501  0.00000000000E+00  0.00000000000E+00  0.41715883025E+03  0.41715883026E+03  0.25500000920E-02 0.  1.
        2   -1    0    0  501    0  0.00000000000E+00  0.00000000000E+00 -0.72433595489E+03  0.72433595489E+03  0.25500000920E-02 0. -1.
    10030    2    1    2    0    0  0.00000000000E+00  0.00000000000E+00 -0.30717712464E+03  0.11414947851E+04  0.10993873560E+04 0.  0.
        5    1    3    3  502    0 -0.54057281963E+03  0.51582941678E+02 -0.24206541798E+03  0.59455658248E+03  0.46999998093E+01 0. -1.
       -5    1    3    3    0  502  0.54057281963E+03 -0.51582941678E+02 -0.65111706663E+02  0.54693820267E+03  0.46999998093E+01 0.  1.
</event>
<event>
 5   0  0.3992414E-03  0.1092921E+04  0.7818609E-02  0.9212119E-01
       -2   -1    0    0    0  501  0.00000000000E+00  0.00000000000E+00  0.28868436749E+03  0.28868436750E+03  0.25500000920E-02 0.  1.
        2   -1    0    0  501    0  0.00000000000E+00  0.00000000000E+00 -0.10344134866E+04  0.10344134866E+04  0.25500000920E-02 0. -1.
    10030    2    1    2    0    0  0.00000000000E+00  0.00000000000E+00 -0.74572911907E+03  0.13230978541E+04  0.10929208628E+04 0.  0.
        1    1    3    3  502    0 -0.58827272209E+02 -0.45449987396E+03 -0.73318693813E+03  0.86463510780E+03  0.50400001928E-02 0. -1.
       -1    1    3    3    0  502  0.58827272209E+02  0.45449987396E+03 -0.12542180943E+02  0.45846274626E+03  0.50400001928E-02 0.  1.
</event>
<event>
 5   0  0.2374100E-03  0.1098008E+04  0.7818609E-02  0.9207136E-01
        1   -1    0    0  501    0  0.00000000000E+00  0.00000000000E+00  0.10181056360E+04  0.10181056360E+04  0.50400001928E-02 0. -1.
       -1   -1    0    0    0  501  0.00000000000E+00  0.00000000000E+00 -0.29604506722E+03  0.29604506727E+03  0.50400001928E-02 0.  1.
    10030    2    1    2    0    0  0.00000000000E+00  0.00000000000E+00  0.72206056874E+03  0.13141507032E+04  0.10980075619E+04 0.  0.
        2    1    3    3  502    0  0.48966557446E+03 -0.78771716972E+02  0.79254521053E+02  0.50225355880E+03  0.25500000920E-02 0.  1.
       -2    1    3    3    0  502 -0.48966557446E+03  0.78771716972E+02  0.64280604769E+03  0.81189714445E+03  0.25500000920E-02 0. -1.
</event>
<event>
 5   0  0.3992414E-03  0.1105671E+04  0.7818609E-02  0.9199683E-01
       -2   -1    0    0    0  501  0.00000000000E+00  0.00000000000E+00  0.29411083029E+03  0.29411083030E+03  0.25500000920E-02 0.  1.
        2   -1    0    0  501    0  0.00000000000E+00  0.00000000000E+00 -0.10391552675E+04  0.10391552675E+04  0.25500000920E-02 0. -1.
    10030    2    1    2    0    0  0.00000000000E+00  0.00000000000E+00 -0.74504443724E+03  0.13332660978E+04  0.11056705089E+04 0.  0.
        1    1    3    3  502    0 -0.12636027331E+03 -0.23906355497E+03  0.20892532843E+03  0.34171346896E+03  0.50400001928E-02 0.  1.
       -1    1    3    3    0  502  0.12636027331E+03  0.23906355497E+03 -0.95396976567E+03  0.99155262887E+03  0.50400001928E-02 0. -1.
</event>
<event>
 5   0  0.2257667E-03  0.1092482E+04  0.7818609E-02  0.9212550E-01
        1   -1    0    0  501    0  0.00000000000E+00  0.00000000000E+00  0.49149809947E+03  0.49149809949E+03  0.50400001928E-02 0.  1.
       -1   -1    0    0    0  501  0.00000000000E+00  0.00000000000E+00 -0.60708136611E+03  0.60708136613E+03  0.50400001928E-02 0. -1.
    10030    2    1    2    0    0  0.00000000000E+00  0.00000000000E+00 -0.11558326664E+03  0.10985794656E+04  0.10924821970E+04 0.  0.
        4    1    3    3  502    0  0.38974684293E+03 -0.34977388807E+03  0.98424512358E+02  0.53285398739E+03  0.12699999809E+01 0.  1.
       -4    1    3    3    0  502 -0.38974684293E+03  0.34977388807E+03 -0.21400777900E+03  0.56572547823E+03  0.12699999809E+01 0. -1.
</event>
<event>
 5   0  0.1508625E-03  0.1113718E+04  0.7818609E-02  0.9191923E-01
        3   -1    0    0  501    0  0.00000000000E+00  0.00000000000E+00  0.55090950177E+03  0.55090951103E+03  0.10100000352E+00 0.  1.
       -3   -1    0    0    0  501  0.00000000000E+00  0.00000000000E+00 -0.56287322717E+03  0.56287323623E+03  0.10100000352E+00 0. -1.
    10030    2    1    2    0    0  0.00000000000E+00  0.00000000000E+00 -0.11963725396E+02  0.11137827473E+04  0.11137184911E+04 0.  0.
        5    1    3    3  502    0  0.88290065808E+02  0.22960785160E+03 -0.50556571472E+03  0.56225766614E+03  0.46999998093E+01 0. -1.
       -5    1    3    3    0  502 -0.88290065808E+02 -0.22960785160E+03  0.49360198933E+03  0.55152508112E+03  0.46999998093E+01 0.  1.
</event>
<event>
 5   0  0.3962999E-03  0.1105059E+04  0.7818609E-02  0.9200275E-01
        2   -1    0    0  501    0  0.00000000000E+00  0.00000000000E+00  0.70966991244E+03  0.70966991244E+03  0.25500000920E-02 0.  1.
       -2   -1    0    0    0  501  0.00000000000E+00  0.00000000000E+00 -0.43018392302E+03  0.43018392303E+03  0.25500000920E-02 0. -1.
    10030    2    1    2    0    0  0.00000000000E+00  0.00000000000E+00  0.27948598942E+03  0.11398538355E+04  0.11050585269E+04 0.  0.
        3    1    3    3  502    0  0.30260177963E+03 -0.63784817146E+02  0.61203830699E+03  0.68573117135E+03  0.10100000352E+00 0.  1.
       -3    1    3    3    0  502 -0.30260177963E+03  0.63784817146E+02 -0.33255231758E+03  0.45412266411E+03  0.10100000352E+00 0. -1.
</event>
<event>
 5   0  0.2257667E-03  0.1093622E+04  0.7818609E-02  0.9211431E-01
        1   -1    0    0  501    0  0.00000000000E+00  0.00000000000E+00  0.32947643228E+03  0.32947643232E+03  0.50400001928E-02 0. -1.
       -1   -1    0    0    0  501  0.00000000000E+00  0.00000000000E+00 -0.90750670530E+03  0.90750670532E+03  0.50400001928E-02 0.  1.
    10030    2    1    2    0    0  0.00000000000E+00  0.00000000000E+00 -0.57803027303E+03  0.12369831376E+04  0.10936216376E+04 0.  0.
        4    1    3    3  502    0  0.52280400663E+03 -0.16003677879E+03 -0.29811029636E+03  0.62274164917E+03  0.12699999809E+01 0.  1.
       -4    1    3    3    0  502 -0.52280400663E+03  0.16003677879E+03 -0.27991997667E+03  0.61424148846E+03  0.12699999809E+01 0. -1.
</event>
<event>
 5   0  0.3962999E-03  0.1104273E+04  0.7818609E-02  0.9201037E-01
        2   -1    0    0  501    0  0.00000000000E+00  0.00000000000E+00  0.72453767334E+03  0.72453767335E+03  0.25500000920E-02 0.  1.
       -2   -1    0    0    0  501  0.00000000000E+00  0.00000000000E+00 -0.42075767263E+03  0.42075767264E+03  0.25500000920E-02 0. -1.
    10030    2    1    2    0    0  0.00000000000E+00  0.00000000000E+00  0.30378000071E+03  0.11452953460E+04  0.11042731278E+04 0.  0.
        3    1    3    3  502    0  0.30619819360E+03 -0.38955867570E+03 -0.10076050817E+03  0.50563424111E+03  0.10100000352E+00 0. -1.
       -3    1    3    3    0  502 -0.30619819360E+03  0.38955867570E+03  0.40454050888E+03  0.63966110488E+03  0.10100000352E+00 0.  1.
</event>
<event>
 5   0  0.3713158E-03  0.1094957E+04  0.7818609E-02  0.9210121E-01
       -2   -1    0    0    0  501  0.00000000000E+00  0.00000000000E+00  0.14353814556E+03  0.14353814558E+03  0.25500000920E-02 0.  1.
        2   -1    0    0  501    0  0.00000000000E+00  0.00000000000E+00 -0.20881740755E+04  0.20881740755E+04  0.25500000920E-02 0. -1.
    10030    2    1    2    0    0  0.00000000000E+00  0.00000000000E+00 -0.19446359300E+04  0.22317122211E+04  0.10949568657E+04 0.  0.
        4    1    3    3  502    0  0.47392928897E+03 -0.15064194863E+03 -0.50562936642E+03  0.70919999768E+03  0.12699999809E+01 0.  1.
       -4    1    3    3    0  502 -0.47392928897E+03  0.15064194863E+03 -0.14390065636E+04  0.15225122234E+04  0.12699999809E+01 0. -1.
</event>
<event>
 5   0  0.3744875E-03  0.1098182E+04  0.7818609E-02  0.9206966E-01
       -2   -1    0    0    0  501  0.00000000000E+00  0.00000000000E+00  0.22397409383E+03  0.22397409384E+03  0.25500000920E-02 0. -1.
        2   -1    0    0  501    0  0.00000000000E+00  0.00000000000E+00 -0.13461412471E+04  0.13461412471E+04  0.25500000920E-02 0.  1.
    10030    2    1    2    0    0  0.00000000000E+00  0.00000000000E+00 -0.11221671532E+04  0.15701153409E+04  0.10981817081E+04 0.  0.
        2    1    3    3  502    0 -0.17539377824E+01 -0.97880321275E+02  0.21139624431E+03  0.23296352871E+03  0.25500000920E-02 0. -1.
       -2    1    3    3    0  502  0.17539377824E+01  0.97880321275E+02 -0.13335633975E+04  0.13371518122E+04  0.25500000920E-02 0.  1.
</event>
<event>
 5   0  0.3744875E-03  0.1170300E+04  0.7818609E-02  0.9139258E-01
       -2   -1    0    0    0  501  0.00000000000E+00  0.00000000000E+00  0.27565697941E+03  0.27565697943E+03  0.25500000920E-02 0. -1.
        2   -1    0    0  501    0  0.00000000000E+00  0.00000000000E+00 -0.12421252145E+04  0.12421252145E+04  0.25500000920E-02 0.  1.
    10030    2    1    2    0    0  0.00000000000E+00  0.00000000000E+00 -0.96646823511E+03  0.15177821940E+04  0.11702999354E+04 0.  0.
        2    1    3    3  502    0  0.23228903504E+03  0.49978165582E+03 -0.22823041551E+03  0.59651405840E+03  0.25500000920E-02 0. -1.
       -2    1    3    3    0  502 -0.23228903504E+03 -0.49978165582E+03 -0.73823781960E+03  0.92126813555E+03  0.25500000920E-02 0.  1.
</event>
<event>
 5   0  0.2374100E-03  0.1105591E+04  0.7818609E-02  0.9199759E-01
        1   -1    0    0  501    0  0.00000000000E+00  0.00000000000E+00  0.80650224647E+03  0.80650224649E+03  0.50400001928E-02 0.  1.
       -1   -1    0    0    0  501  0.00000000000E+00  0.00000000000E+00 -0.37889927001E+03  0.37889927005E+03  0.50400001928E-02 0. -1.
    10030    2    1    2    0    0  0.00000000000E+00  0.00000000000E+00  0.42760297646E+03  0.11854015165E+04  0.11055914480E+04 0.  0.
        2    1    3    3  502    0  0.53313379086E+03  0.14385451975E+03  0.18631182863E+03  0.58278457366E+03  0.25500000920E-02 0.  1.
       -2    1    3    3    0  502 -0.53313379086E+03 -0.14385451975E+03  0.24129114783E+03  0.60261694287E+03  0.25500000920E-02 0. -1.
</event>
<event>
 5   0  0.3744875E-03  0.1110804E+04  0.7818609E-02  0.9194725E-01
        2   -1    0    0  501    0  0.00000000000E+00  0.00000000000E+00  0.73083486588E+03  0.73083486588E+03  0.25500000920E-02 0.  1.
       -2   -1    0    0    0  501  0.00000000000E+00  0.00000000000E+00 -0.42208068567E+03  0.42208068567E+03  0.25500000920E-02 0. -1.
    10030    2    1    2    0    0  0.00000000000E+00  0.00000000000E+00  0.30875418021E+03  0.11529155516E+04  0.11108038194E+04 0.  0.
        2    1    3    3  502    0  0.35335753428E+03 -0.52727768217E+02  0.59573894264E+03  0.69465577976E+03  0.25500000920E-02 0.  1.
       -2    1    3    3    0  502 -0.35335753428E+03  0.52727768217E+02 -0.28698476242E+03  0.45825977179E+03  0.25500000920E-02 0. -1.
</event>
<event>
 5   0  0.3748901E-03  0.1107123E+04  0.7818609E-02  0.9198277E-01
       -2   -1    0    0    0  501  0.00000000000E+00  0.00000000000E+00  0.18590664782E+03  0.18590664784E+03  0.25500000920E-02 0. -1.
        2   -1    0    0  501    0  0.00000000000E+00  0.00000000000E+00 -0.16483016348E+04  0.16483016348E+04  0.25500000920E-02 0.  1.
    10030    2    1    2    0    0  0.00000000000E+00  0.00000000000E+00 -0.14623949870E+04  0.18342082827E+04  0.11071228144E+04 0.  0.
        5    1    3    3  502    0  0.33319104957E+03 -0.33107563289E+03 -0.12164277507E+04  0.13039731259E+04  0.46999998093E+01 0.  1.
       -5    1    3    3    0  502 -0.33319104957E+03  0.33107563289E+03 -0.24596723628E+03  0.53023515682E+03  0.46999998093E+01 0. -1.
</event>
<event>
 5   0  0.3748901E-03  0.1100867E+04  0.7818609E-02  0.9204347E-01
        2   -1    0    0  501    0  0.00000000000E+00  0.00000000000E+00  0.18491953468E+04  0.18491953468E+04  0.25500000920E-02 0.  1.
       -2   -1    0    0    0  501  0.00000000000E+00  0.00000000000E+00 -0.16384265040E+03  0.16384265042E+03  0.25500000920E-02 0. -1.
    10030    2    1    2    0    0  0.00000000000E+00  0.00000000000E+00  0.16853526964E+04  0.20130379972E+04  0.11008670524E+04 0.  0.
        5    1    3    3  502    0 -0.47968612940E+03  0.20359836600E+03  0.11667240063E+04  0.12778176999E+04  0.46999998093E+01 0.  1.
       -5    1    3    3    0  502  0.47968612940E+03 -0.20359836600E+03  0.51862869011E+03  0.73522029731E+03  0.46999998093E+01 0. -1.
</event>
<event>
 5   0  0.3962999E-03  0.1086640E+04  0.7818609E-02  0.9218312E-01
        2   -1    0    0  501    0  0.00000000000E+00  0.00000000000E+00  0.12985044954E+04  0.12985044954E+04  0.25500000920E-02 0.  1.
       -2   -1    0    0    0  501  0.00000000000E+00  0.00000000000E+00 -0.22733589027E+03  0.22733589028E+03  0.25500000920E-02 0. -1.
    10030    2    1    2    0    0  0.00000000000E+00  0.00000000000E+00  0.10711686051E+04  0.15258403856E+04  0.10866400977E+04 0.  0.
        3    1    3    3  502    0 -0.52361445725E+03 -0.12322849087E+03  0.64288534451E+03  0.83824753933E+03  0.10100000352E+00 0.  1.
       -3    1    3    3    0  502  0.52361445725E+03  0.12322849087E+03  0.42828326058E+03  0.68759284631E+03  0.10100000352E+00 0. -1.
</event>
<event>
 5   0  0.2300702E-03  0.1090900E+04  0.7818609E-02  0.9214107E-01
        1   -1    0    0  501    0  0.00000000000E+00  0.00000000000E+00  0.80838605732E+03  0.80838605733E+03  0.50400001928E-02 0.  1.
       -1   -1    0    0    0  501  0.00000000000E+00  0.00000000000E+00 -0.36803681318E+03  0.36803681322E+03  0.50400001928E-02 0. -1.
    10030    2    1    2    0    0  0.00000000000E+00  0.00000000000E+00  0.44034924413E+03  0.11764228705E+04  0.10909002308E+04 0.  0.
        5    1    3    3  502    0 -0.32176481369E+03  0.28705959827E+03  0.58036213214E+03  0.72303395682E+03  0.46999998093E+01 0.  1.
       -5    1    3    3    0  502  0.32176481369E+03 -0.28705959827E+03 -0.14001288801E+03  0.45338891373E+03  0.46999998093E+01 0. -1.
</event>
<event>
 5   0  0.2298958E-03  0.1098184E+04  0.7818609E-02  0.9206963E-01
       -1   -1    0    0    0  501  0.00000000000E+00  0.00000000000E+00  0.19920631814E+03  0.19920631820E+03  0.50400001928E-02 0. -1.
        1   -1    0    0  501    0  0.00000000000E+00  0.00000000000E+00 -0.15135170611E+04  0.15135170611E+04  0.50400001928E-02 0.  1.
    10030    2    1    2    0    0  0.00000000000E+00  0.00000000000E+00 -0.13143107429E+04  0.17127233793E+04  0.10981842491E+04 0.  0.
        1    1    3    3  502    0  0.42717793762E+03  0.11353505227E+03 -0.14907423931E+03  0.46647007121E+03  0.50400001928E-02 0.  1.
       -1    1    3    3    0  502 -0.42717793762E+03 -0.11353505227E+03 -0.11652365036E+04  0.12462533081E+04  0.50400001928E-02 0. -1.
</event>
<event>
 5   0  0.3962999E-03  0.1105642E+04  0.7818609E-02  0.9199711E-01
        2   -1    0    0  501    0  0.00000000000E+00  0.00000000000E+00  0.22617123513E+04  0.22617123513E+04  0.25500000920E-02 0.  1.
       -2   -1    0    0    0  501  0.00000000000E+00  0.00000000000E+00 -0.13512365419E+03  0.13512365421E+03  0.25500000920E-02 0. -1.
    10030    2    1    2    0    0  0.00000000000E+00  0.00000000000E+00  0.21265886971E+04  0.23968360055E+04  0.11056416013E+04 0.  0.
        3    1    3    3  502    0 -0.51970134675E+03  0.16656979523E+03  0.87213407936E+03  0.10288113768E+04  0.10100000352E+00 0. -1.
       -3    1    3    3    0  502  0.51970134675E+03 -0.16656979523E+03  0.12544546177E+04  0.13680246287E+04  0.10100000352E+00 0.  1.
</event>
<event>
 5   0  0.1508625E-03  0.1109968E+04  0.7818609E-02  0.9195530E-01
       -4   -1    0    0    0  501  0.00000000000E+00  0.00000000000E+00  0.78499671013E+03  0.78499773746E+03  0.12699999809E+01 0. -1.
        4   -1    0    0  501    0  0.00000000000E+00  0.00000000000E+00 -0.39236547741E+03  0.39236753276E+03  0.12699999809E+01 0.  1.
    10030    2    1    2    0    0  0.00000000000E+00  0.00000000000E+00  0.39263123272E+03  0.11773652702E+04  0.11099683304E+04 0.  0.
        4    1    3    3  502    0 -0.28857715905E+03  0.21991748148E+03 -0.24914288071E+03  0.44012982550E+03  0.12699999809E+01 0.  1.
       -4    1    3    3    0  502  0.28857715905E+03 -0.21991748148E+03  0.64177411342E+03  0.73723544472E+03  0.12699999809E+01 0. -1.
</event>
<event>
 5   0  0.3713158E-03  0.1162840E+04  0.7818609E-02  0.9146019E-01
       -2   -1    0    0    0  501  0.00000000000E+00  0.00000000000E+00  0.46040987593E+03  0.46040987594E+03  0.25500000920E-02 0. -1.
        2   -1    0    0  501    0  0.00000000000E+00  0.00000000000E+00 -0.73423593490E+03  0.73423593491E+03  0.25500000920E-02 0.  1.
    10030    2    1    2    0    0  0.00000000000E+00  0.00000000000E+00 -0.27382605897E+03  0.11946458108E+04  0.11628404460E+04 0.  0.
        4    1    3    3  502    0  0.91085470087E+02  0.49899585528E+03 -0.42885882872E+03  0.66424011797E+03  0.12699999809E+01 0.  1.
       -4    1    3    3    0  502 -0.91085470087E+02 -0.49899585528E+03  0.15503276975E+03  0.53040569288E+03  0.12699999809E+01 0. -1.
</event>
<event>
 5   0  0.1508625E-03  0.1061499E+04  0.7818609E-02  0.9243552E-01
        3   -1    0    0  501    0  0.00000000000E+00  0.00000000000E+00  0.23638803888E+03  0.23638806046E+03  0.10100000352E+00 0.  1.
       -3   -1    0    0    0  501  0.00000000000E+00  0.00000000000E+00 -0.11916634422E+04  0.11916634464E+04  0.10100000352E+00 0. -1.
    10030    2    1    2    0    0  0.00000000000E+00  0.00000000000E+00 -0.95527540327E+03  0.14280515069E+04  0.10614989450E+04 0.  0.
        1    1    3    3  502    0  0.93450171123E+02 -0.42700120509E+03 -0.72628229775E+02  0.44310024082E+03  0.50400001928E-02 0.  1.
       -1    1    3    3    0  502 -0.93450171123E+02  0.42700120509E+03 -0.88264717350E+03  0.98495126608E+03  0.50400001928E-02 0. -1.
</event>
<event>
 5   0  0.2257667E-03  0.1123840E+04  0.7818609E-02  0.9182262E-01
        1   -1    0    0  501    0  0.00000000000E+00  0.00000000000E+00  0.35840274050E+03  0.35840274053E+03  0.50400001928E-02 0. -1.
       -1   -1    0    0    0  501  0.00000000000E+00  0.00000000000E+00 -0.88100343030E+03  0.88100343031E+03  0.50400001928E-02 0.  1.
    10030    2    1    2    0    0  0.00000000000E+00  0.00000000000E+00 -0.52260068980E+03  0.12394061708E+04  0.11238399243E+04 0.  0.
        4    1    3    3  502    0 -0.51918817250E+03  0.13358919225E+03 -0.75611535802E+02  0.54140663830E+03  0.12699999809E+01 0. -1.
       -4    1    3    3    0  502  0.51918817250E+03 -0.13358919225E+03 -0.44698915400E+03  0.69799953255E+03  0.12699999809E+01 0.  1.
</event>
<event>
 5   0  0.3713158E-03  0.1102989E+04  0.7818609E-02  0.9202284E-01
        2   -1    0    0  501    0  0.00000000000E+00  0.00000000000E+00  0.10297779834E+04  0.10297779834E+04  0.25500000920E-02 0. -1.
       -2   -1    0    0    0  501  0.00000000000E+00  0.00000000000E+00 -0.29535104026E+03  0.29535104027E+03  0.25500000920E-02 0.  1.
    10030    2    1    2    0    0  0.00000000000E+00  0.00000000000E+00  0.73442694314E+03  0.13251290237E+04  0.11029886647E+04 0.  0.
        4    1    3    3  502    0 -0.50874041302E+03 -0.11007972281E+01  0.11143583605E+03  0.52080474081E+03  0.12699999809E+01 0.  1.
       -4    1    3    3    0  502  0.50874041302E+03  0.11007972281E+01  0.62299110709E+03  0.80432428286E+03  0.12699999809E+01 0. -1.
</event>
<event>
 5   0  0.3992414E-03  0.1101579E+04  0.7818609E-02  0.9203654E-01
       -2   -1    0    0    0  501  0.00000000000E+00  0.00000000000E+00  0.11696623332E+03  0.11696623335E+03  0.25500000920E-02 0. -1.
        2   -1    0    0  501    0  0.00000000000E+00  0.00000000000E+00 -0.25936478206E+04  0.25936478206E+04  0.25500000920E-02 0.  1.
    10030    2    1    2    0    0  0.00000000000E+00  0.00000000000E+00 -0.24766815873E+04  0.27106140540E+04  0.11015792594E+04 0.  0.
        1    1    3    3  502    0 -0.25731696533E+02  0.34392492142E+03 -0.18162262252E+03  0.38978615780E+03  0.50400001928E-02 0. -1.
       -1    1    3    3    0  502  0.25731696533E+02 -0.34392492142E+03 -0.22950589648E+04  0.23208278962E+04  0.50400001928E-02 0.  1.
</event>
<event>
 5   0  0.3744875E-03  0.1106929E+04  0.7818609E-02  0.9198464E-01
       -2   -1    0    0    0  501  0.00000000000E+00  0.00000000000E+00  0.74336072244E+03  0.74336072245E+03  0.25500000920E-02 0.  1.
        2   -1    0    0  501    0  0.00000000000E+00  0.00000000000E+00 -0.41207858183E+03  0.41207858184E+03  0.25500000920E-02 0. -1.
    10030    2    1    2    0    0  0.00000000000E+00  0.00000000000E+00  0.33128214061E+03  0.11554393043E+04  0.11069291437E+04 0.  0.
        2    1    3    3  502    0  0.18046487745E+03  0.51783211941E+03  0.87491079611E+02  0.55531285318E+03  0.25500000920E-02 0. -1.
       -2    1    3    3    0  502 -0.18046487745E+03 -0.51783211941E+03  0.24379106100E+03  0.60012645111E+03  0.25500000920E-02 0.  1.
</event>
<event>
 5   0  0.2255788E-03  0.1110260E+04  0.7818609E-02  0.9195249E-01
       -1   -1    0    0    0  501  0.00000000000E+00  0.00000000000E+00  0.17437708083E+03  0.17437708090E+03  0.50400001928E-02 0.  1.
        1   -1    0    0  501    0  0.00000000000E+00  0.00000000000E+00 -0.17672568099E+04  0.17672568099E+04  0.50400001928E-02 0. -1.
    10030    2    1    2    0    0  0.00000000000E+00  0.00000000000E+00 -0.15928797291E+04  0.19416338908E+04  0.11102595798E+04 0.  0.
        3    1    3    3  502    0 -0.11605702645E+03 -0.15899211172E+03  0.11129458453E+03  0.22612876801E+03  0.10100000352E+00 0.  1.
       -3    1    3    3    0  502  0.11605702645E+03  0.15899211172E+03 -0.17041743136E+04  0.17155051228E+04  0.10100000352E+00 0. -1.
</event>
<event>
 5   0  0.1508625E-03  0.1101742E+04  0.7818609E-02  0.9203496E-01
       -3   -1    0    0    0  501  0.00000000000E+00  0.00000000000E+00  0.42983723726E+03  0.42983724913E+03  0.10100000352E+00 0.  1.
        3   -1    0    0  501    0  0.00000000000E+00  0.00000000000E+00 -0.70598566495E+03  0.70598567217E+03  0.10100000352E+00 0. -1.
    10030    2    1    2    0    0  0.00000000000E+00  0.00000000000E+00 -0.27614842769E+03  0.11358229213E+04  0.11017421452E+04 0.  0.
        1    1    3    3  502    0 -0.41245952232E+03  0.27950816880E+03 -0.38031346380E+03  0.62680619393E+03  0.50400001928E-02 0. -1.
       -1    1    3    3    0  502  0.41245952232E+03 -0.27950816880E+03  0.10416503611E+03  0.50901672738E+03  0.50400001928E-02 0.  1.
</event>
<event>
 5   0  0.2298958E-03  0.1063986E+04  0.7818609E-02  0.9241022E-01
        1   -1    0    0  501    0  0.00000000000E+00  0.00000000000E+00  0.12273086240E+04  0.12273086240E+04  0.50400001928E-02 0. -1.
       -1   -1    0    0    0  501  0.00000000000E+00  0.00000000000E+00 -0.23059932709E+03  0.23059932714E+03  0.50400001928E-02 0.  1.
    10030    2    1    2    0    0  0.00000000000E+00  0.00000000000E+00  0.99670929689E+03  0.14579079511E+04  0.10639859827E+04 0.  0.
        1    1    3    3  502    0 -0.19211030200E+03  0.38748302985E+03  0.92283278878E+03  0.10191515209E+04  0.50400001928E-02 0. -1.
       -1    1    3    3    0  502  0.19211030200E+03 -0.38748302985E+03  0.73876508107E+02  0.43875643019E+03  0.50400001928E-02 0.  1.
</event>
<event>
 5   0  0.2374100E-03  0.1104417E+04  0.7818609E-02  0.9200898E-01
        1   -1    0    0  501    0  0.00000000000E+00  0.00000000000E+00  0.79533353442E+03  0.79533353443E+03  0.50400001928E-02 0. -1.
       -1   -1    0    0    0  501  0.00000000000E+00  0.00000000000E+00 -0.38340399510E+03  0.38340399513E+03  0.50400001928E-02 0.  1.
    10030    2    1    2    0    0  0.00000000000E+00  0.00000000000E+00  0.41192953932E+03  0.11787375296E+04  0.11044166869E+04 0.  0.
        2    1    3    3  502    0  0.28191935558E+03  0.32251424534E+03 -0.16596864469E+03  0.45939041406E+03  0.25500000920E-02 0.  1.
       -2    1    3    3    0  502 -0.28191935558E+03 -0.32251424534E+03  0.57789818401E+03  0.71934711551E+03  0.25500000920E-02 0. -1.
</event>
<event>
 5   0  0.3744875E-03  0.1179493E+04  0.7818609E-02  0.9130998E-01
        2   -1    0    0  501    0  0.00000000000E+00  0.00000000000E+00  0.98374212163E+03  0.98374212163E+03  0.25500000920E-02 0.  1.
       -2   -1    0    0    0  501  0.00000000000E+00  0.00000000000E+00 -0.35354879607E+03  0.35354879608E+03  0.25500000920E-02 0. -1.
    10030    2    1    2    0    0  0.00000000000E+00  0.00000000000E+00  0.63019332556E+03  0.13372909177E+04  0.11794928448E+04 0.  0.
        2    1    3    3  502    0 -0.51944082658E+03  0.26235705250E+03  0.20663875019E+03  0.61753507464E+03  0.25500000920E-02 0. -1.
       -2    1    3    3    0  502  0.51944082658E+03 -0.26235705250E+03  0.42355457537E+03  0.71975584307E+03  0.25500000920E-02 0.  1.
</event>
<event>
 5   0  0.3748901E-03  0.1112427E+04  0.7818609E-02  0.9193164E-01
       -2   -1    0    0    0  501  0.00000000000E+00  0.00000000000E+00  0.69018989384E+03  0.69018989385E+03  0.25500000920E-02 0. -1.
        2   -1    0    0  501    0  0.00000000000E+00  0.00000000000E+00 -0.44824385507E+03  0.44824385508E+03  0.25500000920E-02 0.  1.
    10030    2    1    2    0    0  0.00000000000E+00  0.00000000000E+00  0.24194603877E+03  0.11384337489E+04  0.11124268583E+04 0.  0.
        5    1    3    3  502    0 -0.21102615869E+03 -0.24612226947E+03  0.58347113652E+03  0.66750945186E+03  0.46999998093E+01 0. -1.
       -5    1    3    3    0  502  0.21102615869E+03  0.24612226947E+03 -0.34152509775E+03  0.47092429707E+03  0.46999998093E+01 0.  1.
</event>
<event>
 5   0  0.2298958E-03  0.1117844E+04  0.7818609E-02  0.9187972E-01
        1   -1    0    0  501    0  0.00000000000E+00  0.00000000000E+00  0.79980917577E+03  0.79980917579E+03  0.50400001928E-02 0.  1.
       -1   -1    0    0    0  501  0.00000000000E+00  0.00000000000E+00 -0.39058562121E+03  0.39058562124E+03  0.50400001928E-02 0. -1.
    10030    2    1    2    0    0  0.00000000000E+00  0.00000000000E+00  0.40922355456E+03  0.11903947970E+04  0.11178442893E+04 0.  0.
        1    1    3    3  502    0 -0.55336864956E+03 -0.76070116954E+02  0.18356981820E+03  0.58796377710E+03  0.50400001928E-02 0. -1.
       -1    1    3    3    0  502  0.55336864956E+03  0.76070116954E+02  0.22565373636E+03  0.60243101992E+03  0.50400001928E-02 0.  1.
</event>
<event>
 5   0  0.3992414E-03  0.1133553E+04  0.7818609E-02  0.9173093E-01
       -2   -1    0    0    0  501  0.00000000000E+00  0.00000000000E+00  0.20045876360E+03  0.20045876361E+03  0.25500000920E-02 0. -1.
        2   -1    0    0  501    0  0.00000000000E+00  0.00000000000E+00 -0.16025008643E+04  0.16025008643E+04  0.25500000920E-02 0.  1.
    10030    2    1    2    0    0  0.00000000000E+00  0.00000000000E+00 -0.14020421007E+04  0.18029596280E+04  0.11335525430E+04 0.  0.
        1    1    3    3  502    0 -0.43669055037E+03  0.19567096811E+03 -0.21793272843E+03  0.52581407236E+03  0.50400001928E-02 0. -1.
       -1    1    3    3    0  502  0.43669055037E+03 -0.19567096811E+03 -0.11841093723E+04  0.12771455556E+04  0.50400001928E-02 0.  1.
</event>
<event>
 5   0  0.2257667E-03  0.1087034E+04  0.7818609E-02  0.9217923E-01
        1   -1    0    0  501    0  0.00000000000E+00  0.00000000000E+00  0.61691837653E+03  0.61691837655E+03  0.50400001928E-02 0. -1.
       -1   -1    0    0    0  501  0.00000000000E+00  0.00000000000E+00 -0.47884855840E+03  0.47884855843E+03  0.50400001928E-02 0.  1.
    10030    2    1    2    0    0  0.00000000000E+00  0.00000000000E+00  0.13806981812E+03  0.10957669350E+04  0.10870335327E+04 0.  0.
        4    1    3    3  502    0 -0.12572821920E+03 -0.25717821073E+02 -0.46335589806E+03  0.48080067865E+03  0.12699999809E+01 0.  1.
       -4    1    3    3    0  502  0.12572821920E+03  0.25717821073E+02  0.60142571619E+03  0.61496625632E+03  0.12699999809E+01 0. -1.
</event>
<event>
 5   0  0.3748901E-03  0.1103333E+04  0.7818609E-02  0.9201949E-01
       -2   -1    0    0    0  501  0.00000000000E+00  0.00000000000E+00  0.31766913244E+03  0.31766913245E+03  0.25500000920E-02 0. -1.
        2   -1    0    0  501    0  0.00000000000E+00  0.00000000000E+00 -0.95802838290E+03  0.95802838290E+03  0.25500000920E-02 0.  1.
    10030    2    1    2    0    0  0.00000000000E+00  0.00000000000E+00 -0.64035925046E+03  0.12756975153E+04  0.11033332140E+04 0.  0.
        5    1    3    3  502    0 -0.20873785322E+03  0.39619423166E+03  0.52282704559E+02  0.45088461025E+03  0.46999998093E+01 0. -1.
       -5    1    3    3    0  502  0.20873785322E+03 -0.39619423166E+03 -0.69264195502E+03  0.82481290510E+03  0.46999998093E+01 0.  1.
</event>
<event>
 5   0  0.3713158E-03  0.1096124E+04  0.7818609E-02  0.9208977E-01
        2   -1    0    0  501    0  0.00000000000E+00  0.00000000000E+00  0.72140716500E+03  0.72140716500E+03  0.25500000920E-02 0. -1.
       -2   -1    0    0    0  501  0.00000000000E+00  0.00000000000E+00 -0.41636984874E+03  0.41636984875E+03  0.25500000920E-02 0.  1.
    10030    2    1    2    0    0  0.00000000000E+00  0.00000000000E+00  0.30503731626E+03  0.11377770137E+04  0.10961244312E+04 0.  0.
        4    1    3    3  502    0 -0.34486643083E+03 -0.41500565698E+03  0.52913774327E+02  0.54218449891E+03  0.12699999809E+01 0.  1.
       -4    1    3    3    0  502  0.34486643083E+03  0.41500565698E+03  0.25212354193E+03  0.59559251484E+03  0.12699999809E+01 0. -1.
</event>
<event>
 5   0  0.3748901E-03  0.1091935E+04  0.7818609E-02  0.9213088E-01
        2   -1    0    0  501    0  0.00000000000E+00  0.00000000000E+00  0.40487834048E+03  0.40487834049E+03  0.25500000920E-02 0.  1.
       -2   -1    0    0    0  501  0.00000000000E+00  0.00000000000E+00 -0.73622284737E+03  0.73622284738E+03  0.25500000920E-02 0. -1.
    10030    2    1    2    0    0  0.00000000000E+00  0.00000000000E+00 -0.33134450689E+03  0.11411011879E+04  0.10919353180E+04 0.  0.
        5    1    3    3  502    0 -0.33969924055E+03 -0.41239902250E+03 -0.48414582706E+02  0.53650218043E+03  0.46999998093E+01 0.  1.
       -5    1    3    3    0  502  0.33969924055E+03  0.41239902250E+03 -0.28292992418E+03  0.60459900743E+03  0.46999998093E+01 0. -1.
</event>
<event>
 5   0  0.3748901E-03  0.1089969E+04  0.7818609E-02  0.9215024E-01
       -2   -1    0    0    0  501  0.00000000000E+00  0.00000000000E+00  0.38389468088E+03  0.38389468089E+03  0.25500000920E-02 0.  1.
        2   -1    0    0  501    0  0.00000000000E+00  0.00000000000E+00 -0.77367151056E+03  0.77367151057E+03  0.25500000920E-02 0. -1.
    10030    2    1    2    0    0  0.00000000000E+00  0.00000000000E+00 -0.38977682969E+03  0.11575661915E+04  0.10899694999E+04 0.  0.
        5    1    3    3  502    0 -0.40570704279E+03 -0.32247519910E+03 -0.37385586844E+03  0.63904519322E+03  0.46999998093E+01 0. -1.
       -5    1    3    3    0  502  0.40570704279E+03  0.32247519910E+03 -0.15920961247E+02  0.51852099824E+03  0.46999998093E+01 0.  1.
</event>
<event>
 5   0  0.3748901E-03  0.1102205E+04  0.7818609E-02  0.9203045E-01
        2   -1    0    0  501    0  0.00000000000E+00  0.00000000000E+00  0.48202040912E+03  0.48202040913E+03  0.25500000920E-02 0. -1.
       -2   -1    0    0    0  501  0.00000000000E+00  0.00000000000E+00 -0.63008576037E+03  0.63008576038E+03  0.25500000920E-02 0.  1.
    10030    2    1    2    0    0  0.00000000000E+00  0.00000000000E+00 -0.14806535125E+03  0.11121061695E+04  0.11022054183E+04 0.  0.
        5    1    3    3  502    0 -0.12077943744E+03  0.55030120060E+02 -0.61369799700E+03  0.62790390040E+03  0.46999998093E+01 0.  1.
       -5    1    3    3    0  502  0.12077943744E+03 -0.55030120060E+02  0.46563264575E+03  0.48420226911E+03  0.46999998093E+01 0. -1.
</event>
<event>
 5   0  0.3992414E-03  0.1102516E+04  0.7818609E-02  0.9202743E-01
       -2   -1    0    0    0  501  0.00000000000E+00  0.00000000000E+00  0.70085674883E+03  0.70085674884E+03  0.25500000920E-02 0. -1.
        2   -1    0    0  501    0  0.00000000000E+00  0.00000000000E+00 -0.43359156990E+03  0.43359156990E+03  0.25500000920E-02 0.  1.
    10030    2    1    2    0    0  0.00000000000E+00  0.00000000000E+00  0.26726517894E+03  0.11344483187E+04  0.11025163545E+04 0.  0.
        1    1    3    3  502    0  0.80799812998E+02  0.47023483682E+03 -0.15047327612E+03  0.50029153340E+03  0.50400001928E-02 0.  1.
       -1    1    3    3    0  502 -0.80799812998E+02 -0.47023483682E+03  0.41773845506E+03  0.63415678534E+03  0.50400001928E-02 0. -1.
</event>
<event>
 5   0  0.2374100E-03  0.1142423E+04  0.7818609E-02  0.9164802E-01
       -1   -1    0    0    0  501  0.00000000000E+00  0.00000000000E+00  0.51438692342E+03  0.51438692344E+03  0.50400001928E-02 0. -1.
        1   -1    0    0  501    0  0.00000000000E+00  0.00000000000E+00 -0.63431329878E+03  0.63431329880E+03  0.50400001928E-02 0.  1.
    10030    2    1    2    0    0  0.00000000000E+00  0.00000000000E+00 -0.11992637536E+03  0.11487002222E+04  0.11424228049E+04 0.  0.
        2    1    3    3  502    0 -0.35231890321E+03  0.42553650423E+03  0.85998302111E+02  0.55911146828E+03  0.25500000920E-02 0. -1.
       -2    1    3    3    0  502  0.35231890321E+03 -0.42553650423E+03 -0.20592467748E+03  0.58958875396E+03  0.25500000920E-02 0.  1.
</event>
<event>
 5   0  0.3713158E-03  0.1110180E+04  0.7818609E-02  0.9195326E-01
        2   -1    0    0  501    0  0.00000000000E+00  0.00000000000E+00  0.68181738887E+03  0.68181738887E+03  0.25500000920E-02 0.  1.
       -2   -1    0    0    0  501  0.00000000000E+00  0.00000000000E+00 -0.45191704897E+03  0.45191704898E+03  0.25500000920E-02 0. -1.
    10030    2    1    2    0    0  0.00000000000E+00  0.00000000000E+00  0.22990033990E+03  0.11337344379E+04  0.11101799896E+04 0.  0.
        4    1    3    3  502    0 -0.99854737880E-01 -0.44909707518E+03 -0.21821559845E+03  0.49930737348E+03  0.12699999809E+01 0. -1.
       -4    1    3    3    0  502  0.99854737880E-01  0.44909707518E+03  0.44811593835E+03  0.63442706437E+03  0.12699999809E+01 0.  1.
</event>
<event>
 5   0  0.2255788E-03  0.1097464E+04  0.7818609E-02  0.9207667E-01
       -1   -1    0    0    0  501  0.00000000000E+00  0.00000000000E+00  0.41921873295E+03  0.41921873298E+03  0.50400001928E-02 0. -1.
        1   -1    0    0  501    0  0.00000000000E+00  0.00000000000E+00 -0.71825670367E+03  0.71825670369E+03  0.50400001928E-02 0.  1.
    10030    2    1    2    0    0  0.00000000000E+00  0.00000000000E+00 -0.29903797072E+03  0.11374754367E+04  0.10974637402E+04 0.  0.
        3    1    3    3  502    0  0.38409544029E+03 -0.48505642541E+02 -0.55257276479E+03  0.67469902563E+03  0.10100000352E+00 0.  1.
       -3    1    3    3    0  502 -0.38409544029E+03  0.48505642541E+02  0.25353479406E+03  0.46277641103E+03  0.10100000352E+00 0. -1.
</event>
<event>
 5   0  0.3962999E-03  0.1110484E+04  0.7818609E-02  0.9195033E-01
        2   -1    0    0  501    0  0.00000000000E+00  0.00000000000E+00  0.22376966884E+04  0.22376966884E+04  0.25500000920E-02 0.  1.
       -2   -1    0    0    0  501  0.00000000000E+00  0.00000000000E+00 -0.13777283563E+03  0.13777283565E+03  0.25500000920E-02 0. -1.
    10030    2    1    2    0    0  0.00000000000E+00  0.00000000000E+00  0.20999238527E+04  0.23754695240E+04  0.11104842513E+04 0.  0.
        3    1    3    3  502    0  0.48397480432E+02  0.33855215139E+03  0.11426962096E+03  0.36057930029E+03  0.10100000352E+00 0. -1.
       -3    1    3    3    0  502 -0.48397480432E+02 -0.33855215139E+03  0.19856542318E+04  0.20148902237E+04  0.10100000352E+00 0.  1.
</event>
<event>
 5   0  0.2257667E-03  0.1095953E+04  0.7818609E-02  0.9209145E-01
        1   -1    0    0  501    0  0.00000000000E+00  0.00000000000E+00  0.47499527838E+03  0.47499527841E+03  0.50400001928E-02 0. -1.
       -1   -1    0    0    0  501  0.00000000000E+00  0.00000000000E+00 -0.63217099715E+03  0.63217099717E+03  0.50400001928E-02 0.  1.
    10030    2    1    2    0    0  0.00000000000E+00  0.00000000000E+00 -0.15717571877E+03  0.11071662756E+04  0.10959529895E+04 0.  0.
        4    1    3    3  502    0 -0.99273577562E+02 -0.36618486762E+03  0.32084346680E+03  0.49687900294E+03  0.12699999809E+01 0. -1.
       -4    1    3    3    0  502  0.99273577562E+02  0.36618486762E+03 -0.47801918557E+03  0.61028727264E+03  0.12699999809E+01 0.  1.
</event>
<event>
 5   0  0.3992414E-03  0.1103979E+04  0.7818609E-02  0.9201322E-01
       -2   -1    0    0    0  501  0.00000000000E+00  0.00000000000E+00  0.45083746188E+03  0.45083746189E+03  0.25500000920E-02 0.  1.
        2   -1    0    0  501    0  0.00000000000E+00  0.00000000000E+00 -0.67583638179E+03  0.67583638179E+03  0.25500000920E-02 0. -1.
    10030    2    1    2    0    0  0.00000000000E+00  0.00000000000E+00 -0.22499891991E+03  0.11266738437E+04  0.11039789111E+04 0.  0.
        1    1    3    3  502    0  0.13301034790E+03  0.35704991028E+02  0.43302236842E+03  0.45439517010E+03  0.50400001928E-02 0.  1.
       -1    1    3    3    0  502 -0.13301034790E+03 -0.35704991028E+02 -0.65802128833E+03  0.67227867358E+03  0.50400001928E-02 0. -1.
</event>
<event>
 5   0  0.2300702E-03  0.1097254E+04  0.7818609E-02  0.9207873E-01
        1   -1    0    0  501    0  0.00000000000E+00  0.00000000000E+00  0.38933718584E+03  0.38933718587E+03  0.50400001928E-02 0. -1.
       -1   -1    0    0    0  501  0.00000000000E+00  0.00000000000E+00 -0.77308648188E+03  0.77308648190E+03  0.50400001928E-02 0.  1.
    10030    2    1    2    0    0  0.00000000000E+00  0.00000000000E+00 -0.38374929604E+03  0.11624236678E+04  0.10972535082E+04 0.  0.
        5    1    3    3  502    0 -0.35498884236E+03 -0.13866488874E+03  0.22618236586E+03  0.44319925789E+03  0.46999998093E+01 0. -1.
       -5    1    3    3    0  502  0.35498884236E+03  0.13866488874E+03 -0.60993166190E+03  0.71922440988E+03  0.46999998093E+01 0.  1.
</event>
<event>
 5   0  0.2257667E-03  0.1102701E+04  0.7818609E-02  0.9202563E-01
        1   -1    0    0  501    0  0.00000000000E+00  0.00000000000E+00  0.59548664536E+03  0.59548664538E+03  0.50400001928E-02 0. -1.
       -1   -1    0    0    0  501  0.00000000000E+00  0.00000000000E+00 -0.51048588802E+03  0.51048588805E+03  0.50400001928E-02 0.  1.
    10030    2    1    2    0    0  0.00000000000E+00  0.00000000000E+00  0.85000757333E+02  0.11059725334E+04  0.11027012814E+04 0.  0.
        4    1    3    3  502    0  0.19932920628E+03 -0.52359064575E+02 -0.47039942446E+03  0.51356677809E+03  0.12699999809E+01 0.  1.
       -4    1    3    3    0  502 -0.19932920628E+03  0.52359064575E+02  0.55540018179E+03  0.59240575534E+03  0.12699999809E+01 0. -1.
</event>
<event>
 5   0  0.3962999E-03  0.1100907E+04  0.7818609E-02  0.9204308E-01
        2   -1    0    0  501    0  0.00000000000E+00  0.00000000000E+00  0.60789333553E+03  0.60789333553E+03  0.25500000920E-02 0.  1.
       -2   -1    0    0    0  501  0.00000000000E+00  0.00000000000E+00 -0.49844113814E+03  0.49844113814E+03  0.25500000920E-02 0. -1.
    10030    2    1    2    0    0  0.00000000000E+00  0.00000000000E+00  0.10945219739E+03  0.11063344737E+04  0.11009069825E+04 0.  0.
        3    1    3    3  502    0 -0.20564332817E+03 -0.44536718073E+03 -0.19622070602E+03  0.52834049605E+03  0.10100000352E+00 0. -1.
       -3    1    3    3    0  502  0.20564332817E+03  0.44536718073E+03  0.30567290341E+03  0.57799397763E+03  0.10100000352E+00 0.  1.
</event>
<event>
 5   0  0.2300702E-03  0.1098243E+04  0.7818609E-02  0.9206906E-01
        1   -1    0    0  501    0  0.00000000000E+00  0.00000000000E+00  0.10850818950E+04  0.10850818950E+04  0.50400001928E-02 0. -1.
       -1   -1    0    0    0  501  0.00000000000E+00  0.00000000000E+00 -0.27789099718E+03  0.27789099723E+03  0.50400001928E-02 0.  1.
    10030    2    1    2    0    0  0.00000000000E+00  0.00000000000E+00  0.80719089781E+03  0.13629728922E+04  0.10982431240E+04 0.  0.
        5    1    3    3  502    0 -0.48462960613E+03 -0.88932771731E+02  0.10281716315E+03  0.50335708206E+03  0.46999998093E+01 0.  1.
       -5    1    3    3    0  502  0.48462960613E+03  0.88932771731E+02  0.70437373466E+03  0.85961581017E+03  0.46999998093E+01 0. -1.
</event>
<event>
 5   0  0.2255788E-03  0.9985192E+03  0.7818609E-02  0.9310170E-01
       -1   -1    0    0    0  501  0.00000000000E+00  0.00000000000E+00  0.19608094053E+03  0.19608094060E+03  0.50400001928E-02 0. -1.
        1   -1    0    0  501    0  0.00000000000E+00  0.00000000000E+00 -0.12712105788E+04  0.12712105788E+04  0.50400001928E-02 0.  1.
    10030    2    1    2    0    0  0.00000000000E+00  0.00000000000E+00 -0.10751296383E+04  0.14672915194E+04  0.99851923561E+03 0.  0.
        3    1    3    3  502    0  0.24259894030E+03  0.22178506245E+03 -0.10897743748E+04  0.11382666902E+04  0.10100000352E+00 0.  1.
       -3    1    3    3    0  502 -0.24259894030E+03 -0.22178506245E+03  0.14644736524E+02  0.32902482926E+03  0.10100000352E+00 0. -1.
</event>
<event>
 5   0  0.2374100E-03  0.1103025E+04  0.7818609E-02  0.9202249E-01
        1   -1    0    0  501    0  0.00000000000E+00  0.00000000000E+00  0.38139992964E+03  0.38139992967E+03  0.50400001928E-02 0. -1.
       -1   -1    0    0    0  501  0.00000000000E+00  0.00000000000E+00 -0.79749821909E+03  0.79749821910E+03  0.50400001928E-02 0.  1.
    10030    2    1    2    0    0  0.00000000000E+00  0.00000000000E+00 -0.41609828945E+03  0.11788981488E+04  0.11030245050E+04 0.  0.
        2    1    3    3  502    0 -0.43990908559E+03 -0.13782728888E+03 -0.53160997170E+03  0.70365156658E+03  0.25500000920E-02 0.  1.
       -2    1    3    3    0  502  0.43990908559E+03  0.13782728888E+03  0.11551168225E+03  0.47524658219E+03  0.25500000920E-02 0. -1.
</event>
<event>
 5   0  0.3744875E-03  0.1101325E+04  0.7818609E-02  0.9203901E-01
        2   -1    0    0  501    0  0.00000000000E+00  0.00000000000E+00  0.20514203885E+04  0.20514203885E+04  0.25500000920E-02 0.  1.
       -2   -1    0    0    0  501  0.00000000000E+00  0.00000000000E+00 -0.14781435387E+03  0.14781435389E+03  0.25500000920E-02 0. -1.
    10030    2    1    2    0    0  0.00000000000E+00  0.00000000000E+00  0.19036060346E+04  0.21992347424E+04  0.11013253457E+04 0.  0.
        2    1    3    3  502    0  0.13616807639E+03 -0.46481889444E+03  0.42866508602E+03  0.64680144220E+03  0.25500000920E-02 0. -1.
       -2    1    3    3    0  502 -0.13616807639E+03  0.46481889444E+03  0.14749409486E+04  0.15524333002E+04  0.25500000920E-02 0.  1.
</event>
<event>
 5   0  0.2374100E-03  0.1107059E+04  0.7818609E-02  0.9198339E-01
        1   -1    0    0  501    0  0.00000000000E+00  0.00000000000E+00  0.71889562049E+03  0.71889562051E+03  0.50400001928E-02 0. -1.
       -1   -1    0    0    0  501  0.00000000000E+00  0.00000000000E+00 -0.42620222285E+03  0.42620222288E+03  0.50400001928E-02 0.  1.
    10030    2    1    2    0    0  0.00000000000E+00  0.00000000000E+00  0.29269339764E+03  0.11450978434E+04  0.11070590074E+04 0.  0.
        2    1    3    3  502    0  0.54742307498E+03  0.79405735069E+02  0.16748457105E+03  0.57795187977E+03  0.25500000920E-02 0.  1.
       -2    1    3    3    0  502 -0.54742307498E+03 -0.79405735069E+02  0.12520882659E+03  0.56714596362E+03  0.25500000920E-02 0. -1.
</event>
<event>
 5   0  0.2374100E-03  0.1097941E+04  0.7818609E-02  0.9207201E-01
        1   -1    0    0  501    0  0.00000000000E+00  0.00000000000E+00  0.13856268277E+04  0.13856268278E+04  0.50400001928E-02 0. -1.
       -1   -1    0    0    0  501  0.00000000000E+00  0.00000000000E+00 -0.21749615304E+03  0.21749615310E+03  0.50400001928E-02 0.  1.
    10030    2    1    2    0    0  0.00000000000E+00  0.00000000000E+00  0.11681306747E+04  0.16031229808E+04  0.10979408083E+04 0.  0.
        2    1    3    3  502    0  0.20629404194E+03 -0.50649881354E+03  0.65363539153E+03  0.85225436633E+03  0.25500000920E-02 0.  1.
       -2    1    3    3    0  502 -0.20629404194E+03  0.50649881354E+03  0.51449528318E+03  0.75086861452E+03  0.25500000920E-02 0. -1.
</event>
<event>
 5   0  0.2255788E-03  0.1090545E+04  0.7818609E-02  0.9214457E-01
       -1   -1    0    0    0  501  0.00000000000E+00  0.00000000000E+00  0.76283312273E+03  0.76283312275E+03  0.50400001928E-02 0. -1.
        1   -1    0    0  501    0  0.00000000000E+00  0.00000000000E+00 -0.38976040691E+03  0.38976040695E+03  0.50400001928E-02 0.  1.
    10030    2    1    2    0    0  0.00000000000E+00  0.00000000000E+00  0.37307271582E+03  0.11525935297E+04  0.10905450900E+04 0.  0.
        3    1    3    3  502    0 -0.20398180883E+03  0.15739566840E+03  0.69444112009E+03  0.74069592563E+03  0.10100000352E+00 0. -1.
       -3    1    3    3    0  502  0.20398180883E+03 -0.15739566840E+03 -0.32136840428E+03  0.41189760406E+03  0.10100000352E+00 0.  1.
</event>
<event>
 5   0  0.3992414E-03  0.1091745E+04  0.7818609E-02  0.9213275E-01
       -2   -1    0    0    0  501  0.00000000000E+00  0.00000000000E+00  0.30345840372E+03  0.30345840373E+03  0.25500000920E-02 0.  1.
        2   -1    0    0  501    0  0.00000000000E+00  0.00000000000E+00 -0.98193679216E+03  0.98193679216E+03  0.25500000920E-02 0. -1.
    10030    2    1    2    0    0  0.00000000000E+00  0.00000000000E+00 -0.67847838843E+03  0.12853951959E+04  0.10917453394E+04 0.  0.
        1    1    3    3  502    0 -0.20963900442E+03 -0.32590767943E+02 -0.93140954784E+03  0.95526667280E+03  0.50400001928E-02 0. -1.
       -1    1    3    3    0  502  0.20963900442E+03  0.32590767943E+02  0.25293115941E+03  0.33012852309E+03  0.50400001928E-02 0.  1.
</event>
<event>
 5   0  0.3713158E-03  0.1098777E+04  0.7818609E-02  0.9206385E-01
       -2   -1    0    0    0  501  0.00000000000E+00  0.00000000000E+00  0.34935640234E+03  0.34935640235E+03  0.25500000920E-02 0. -1.
        2   -1    0    0  501    0  0.00000000000E+00  0.00000000000E+00 -0.86395391030E+03  0.86395391030E+03  0.25500000920E-02 0.  1.
    10030    2    1    2    0    0  0.00000000000E+00  0.00000000000E+00 -0.51459750796E+03  0.12133103127E+04  0.10987771929E+04 0.  0.
        4    1    3    3  502    0  0.30636364904E+03  0.17100898859E+03  0.20952509092E+03  0.40866261911E+03  0.12699999809E+01 0. -1.
       -4    1    3    3    0  502 -0.30636364904E+03 -0.17100898859E+03 -0.72412259887E+03  0.80464769355E+03  0.12699999809E+01 0.  1.
</event>
<event>
 5   0  0.2298958E-03  0.1102936E+04  0.7818609E-02  0.9202335E-01
        1   -1    0    0  501    0  0.00000000000E+00  0.00000000000E+00  0.48336065342E+03  0.48336065345E+03  0.50400001928E-02 0.  1.
       -1   -1    0    0    0  501  0.00000000000E+00  0.00000000000E+00 -0.62917212083E+03  0.62917212085E+03  0.50400001928E-02 0. -1.
    10030    2    1    2    0    0  0.00000000000E+00  0.00000000000E+00 -0.14581146741E+03  0.11125327743E+04  0.11029361676E+04 0.  0.
        1    1    3    3  502    0  0.27009312622E+01 -0.51873575575E+02  0.48088752472E+03  0.48368478819E+03  0.50400001928E-02 0.  1.
       -1    1    3    3    0  502 -0.27009312622E+01  0.51873575575E+02 -0.62669899213E+03  0.62884798611E+03  0.50400001928E-02 0. -1.
</event>
<event>
 5   0  0.3992414E-03  0.1098379E+04  0.7818609E-02  0.9206773E-01
       -2   -1    0    0    0  501  0.00000000000E+00  0.00000000000E+00  0.11361670296E+04  0.11361670296E+04  0.25500000920E-02 0.  1.
        2   -1    0    0  501    0  0.00000000000E+00  0.00000000000E+00 -0.26546202537E+03  0.26546202538E+03  0.25500000920E-02 0. -1.
    10030    2    1    2    0    0  0.00000000000E+00  0.00000000000E+00  0.87070500426E+03  0.14016290550E+04  0.10983791710E+04 0.  0.
        1    1    3    3  502    0 -0.28024429851E+03  0.27254223540E+03 -0.56882107627E+02  0.39503381009E+03  0.50400001928E-02 0. -1.
       -1    1    3    3    0  502  0.28024429851E+03 -0.27254223540E+03  0.92758711188E+03  0.10065952449E+04  0.50400001928E-02 0.  1.
</event>
<event>
 5   0  0.3713158E-03  0.1099123E+04  0.7818609E-02  0.9206047E-01
        2   -1    0    0  501    0  0.00000000000E+00  0.00000000000E+00  0.46591503586E+03  0.46591503587E+03  0.25500000920E-02 0. -1.
       -2   -1    0    0    0  501  0.00000000000E+00  0.00000000000E+00 -0.64822482803E+03  0.64822482803E+03  0.25500000920E-02 0.  1.
    10030    2    1    2    0    0  0.00000000000E+00  0.00000000000E+00 -0.18230979217E+03  0.11141398639E+04  0.10991227302E+04 0.  0.
        4    1    3    3  502    0  0.52006330494E+03 -0.36285150399E+02  0.85098971453E+02  0.52822902337E+03  0.12699999809E+01 0. -1.
       -4    1    3    3    0  502 -0.52006330494E+03  0.36285150399E+02 -0.26740876362E+03  0.58591084053E+03  0.12699999809E+01 0.  1.
</event>
<event>
 5   0  0.3748901E-03  0.1098436E+04  0.7818609E-02  0.9206717E-01
       -2   -1    0    0    0  501  0.00000000000E+00  0.00000000000E+00  0.20175950231E+03  0.20175950232E+03  0.25500000920E-02 0. -1.
        2   -1    0    0  501    0  0.00000000000E+00  0.00000000000E+00 -0.14950503501E+04  0.14950503501E+04  0.25500000920E-02 0.  1.
    10030    2    1    2    0    0  0.00000000000E+00  0.00000000000E+00 -0.12932908478E+04  0.16968098524E+04  0.10984363697E+04 0.  0.
        5    1    3    3  502    0 -0.45352879566E+03 -0.29394292637E+03 -0.49586235216E+03  0.73347963485E+03  0.46999998093E+01 0.  1.
       -5    1    3    3    0  502  0.45352879566E+03  0.29394292637E+03 -0.79742849563E+03  0.96333021757E+03  0.46999998093E+01 0. -1.
</event>
<event>
 5   0  0.3992414E-03  0.1103319E+04  0.7818609E-02  0.9201963E-01
        2   -1    0    0  501    0  0.00000000000E+00  0.00000000000E+00  0.15821938801E+04  0.15821938801E+04  0.25500000920E-02 0. -1.
       -2   -1    0    0    0  501  0.00000000000E+00  0.00000000000E+00 -0.19234568478E+03  0.19234568480E+03  0.25500000920E-02 0.  1.
    10030    2    1    2    0    0  0.00000000000E+00  0.00000000000E+00  0.13898481953E+04  0.17745395649E+04  0.11033189300E+04 0.  0.
        1    1    3    3  502    0  0.10649026153E+03  0.37809080598E+03  0.13179145471E+04  0.13752060162E+04  0.50400001928E-02 0. -1.
       -1    1    3    3    0  502 -0.10649026153E+03 -0.37809080598E+03  0.71933648194E+02  0.39933354873E+03  0.50400001928E-02 0.  1.
</event>
<event>
 5   0  0.3748901E-03  0.1122276E+04  0.7818609E-02  0.9183749E-01
        2   -1    0    0  501    0  0.00000000000E+00  0.00000000000E+00  0.11360114651E+04  0.11360114651E+04  0.25500000920E-02 0.  1.
       -2   -1    0    0    0  501  0.00000000000E+00  0.00000000000E+00 -0.27717643790E+03  0.27717643791E+03  0.25500000920E-02 0. -1.
    10030    2    1    2    0    0  0.00000000000E+00  0.00000000000E+00  0.85883502720E+03  0.14131879030E+04  0.11222755657E+04 0.  0.
        5    1    3    3  502    0 -0.52018776074E+03 -0.20179799164E+03  0.35454138918E+03  0.66108957222E+03  0.46999998093E+01 0.  1.
       -5    1    3    3    0  502  0.52018776074E+03  0.20179799164E+03  0.50429363802E+03  0.75209833080E+03  0.46999998093E+01 0. -1.
</event>
<event>
 5   0  0.3992414E-03  0.1094735E+04  0.7818609E-02  0.9210339E-01
        2   -1    0    0  501    0  0.00000000000E+00  0.00000000000E+00  0.40485487025E+03  0.40485487026E+03  0.25500000920E-02 0. -1.
       -2   -1    0    0    0  501  0.00000000000E+00  0.00000000000E+00 -0.74004521053E+03  0.74004521053E+03  0.25500000920E-02 0.  1.
    10030    2    1    2    0    0  0.00000000000E+00  0.00000000000E+00 -0.33519034027E+03  0.11449000808E+04  0.10947345024E+04 0.  0.
        1    1    3    3  502    0 -0.23832107103E+03 -0.17930340619E+03  0.31241917310E+03  0.43191710329E+03  0.50400001928E-02 0. -1.
       -1    1    3    3    0  502  0.23832107103E+03  0.17930340619E+03 -0.64760951338E+03  0.71298297750E+03  0.50400001928E-02 0.  1.
</event>
<event>
 5   0  0.2257667E-03  0.1104416E+04  0.7818609E-02  0.9200899E-01
       -1   -1    0    0    0  501  0.00000000000E+00  0.00000000000E+00  0.61063902913E+03  0.61063902915E+03  0.50400001928E-02 0. -1.
        1   -1    0    0  501    0  0.00000000000E+00  0.00000000000E+00 -0.49936772701E+03  0.49936772703E+03  0.50400001928E-02 0.  1.
    10030    2    1    2    0    0  0.00000000000E+00  0.00000000000E+00  0.11127130212E+03  0.11100067562E+04  0.11044155450E+04 0.  0.
        4    1    3    3  502    0  0.36928246936E+03  0.73030488883E+02 -0.35042558042E+03  0.51429825471E+03  0.12699999809E+01 0.  1.
       -4    1    3    3    0  502 -0.36928246936E+03 -0.73030488883E+02  0.46169688254E+03  0.59570850147E+03  0.12699999809E+01 0. -1.
</event>
<event>
 5   0  0.2255788E-03  0.1106133E+04  0.7818609E-02  0.9199235E-01
       -1   -1    0    0    0  501  0.00000000000E+00  0.00000000000E+00  0.29751062880E+03  0.29751062885E+03  0.50400001928E-02 0. -1.
        1   -1    0    0  501    0  0.00000000000E+00  0.00000000000E+00 -0.10281395362E+04  0.10281395362E+04  0.50400001928E-02 0.  1.
    10030    2    1    2    0    0  0.00000000000E+00  0.00000000000E+00 -0.73062890740E+03  0.13256501651E+04  0.11061327948E+04 0.  0.
        3    1    3    3  502    0  0.40515794189E+03  0.35485134429E+03 -0.21462337821E+03  0.57977205788E+03  0.10100000352E+00 0. -1.
       -3    1    3    3    0  502 -0.40515794189E+03 -0.35485134429E+03 -0.51600552920E+03  0.74587810719E+03  0.10100000352E+00 0.  1.
</event>
<event>
 5   0  0.3992414E-03  0.1100355E+04  0.7818609E-02  0.9204845E-01
        2   -1    0    0  501    0  0.00000000000E+00  0.00000000000E+00  0.83471880768E+03  0.83471880768E+03  0.25500000920E-02 0.  1.
       -2   -1    0    0    0  501  0.00000000000E+00  0.00000000000E+00 -0.36263176295E+03  0.36263176296E+03  0.25500000920E-02 0. -1.
    10030    2    1    2    0    0  0.00000000000E+00  0.00000000000E+00  0.47208704473E+03  0.11973505706E+04  0.11003554931E+04 0.  0.
        1    1    3    3  502    0 -0.22764158848E+03 -0.40960777520E+03  0.54971803547E+03  0.72234973584E+03  0.50400001928E-02 0.  1.
       -1    1    3    3    0  502  0.22764158848E+03  0.40960777520E+03 -0.77630990741E+02  0.47500083480E+03  0.50400001928E-02 0. -1.
</event>
<event>
 5   0  0.2374100E-03  0.1093991E+04  0.7818609E-02  0.9211068E-01
        1   -1    0    0  501    0  0.00000000000E+00  0.00000000000E+00  0.33155742057E+03  0.33155742061E+03  0.50400001928E-02 0. -1.
       -1   -1    0    0    0  501  0.00000000000E+00  0.00000000000E+00 -0.90242009805E+03  0.90242009806E+03  0.50400001928E-02 0.  1.
    10030    2    1    2    0    0  0.00000000000E+00  0.00000000000E+00 -0.57086267748E+03  0.12339775187E+04  0.10939910055E+04 0.  0.
        2    1    3    3  502    0 -0.19155082108E+03  0.17985112249E+03  0.25571412421E+03  0.36664404624E+03  0.25500000920E-02 0. -1.
       -2    1    3    3    0  502  0.19155082108E+03 -0.17985112249E+03 -0.82657680168E+03  0.86733347243E+03  0.25500000920E-02 0.  1.
</event>
<event>
 5   0  0.3744875E-03  0.1096889E+04  0.7818609E-02  0.9208229E-01
       -2   -1    0    0    0  501  0.00000000000E+00  0.00000000000E+00  0.32004367686E+03  0.32004367687E+03  0.25500000920E-02 0.  1.
        2   -1    0    0  501    0  0.00000000000E+00  0.00000000000E+00 -0.93984486535E+03  0.93984486535E+03  0.25500000920E-02 0. -1.
    10030    2    1    2    0    0  0.00000000000E+00  0.00000000000E+00 -0.61980118848E+03  0.12598885422E+04  0.10968890671E+04 0.  0.
        2    1    3    3  502    0  0.41173044304E+03 -0.33138276260E+03 -0.14165922252E+03  0.54717805914E+03  0.25500000920E-02 0.  1.
       -2    1    3    3    0  502 -0.41173044304E+03  0.33138276260E+03 -0.47814196597E+03  0.71271048308E+03  0.25500000920E-02 0. -1.
</event>
<event>
 5   0  0.2257667E-03  0.9523769E+03  0.7818609E-02  0.9362377E-01
        1   -1    0    0  501    0  0.00000000000E+00  0.00000000000E+00  0.99156016829E+03  0.99156016830E+03  0.50400001928E-02 0.  1.
       -1   -1    0    0    0  501  0.00000000000E+00  0.00000000000E+00 -0.22868552530E+03  0.22868552535E+03  0.50400001928E-02 0. -1.
    10030    2    1    2    0    0  0.00000000000E+00  0.00000000000E+00  0.76287464299E+03  0.12202456937E+04  0.95237693796E+03 0.  0.
        4    1    3    3  502    0 -0.20169502886E+03 -0.34798546524E+03  0.70804408980E+03  0.81431125172E+03  0.12699999809E+01 0.  1.
       -4    1    3    3    0  502  0.20169502886E+03  0.34798546524E+03  0.54830553192E+02  0.40593444193E+03  0.12699999809E+01 0. -1.
</event>
<event>
 5   0  0.3748901E-03  0.1094286E+04  0.7818609E-02  0.9210779E-01
        2   -1    0    0  501    0  0.00000000000E+00  0.00000000000E+00  0.68884228076E+03  0.68884228076E+03  0.25500000920E-02 0.  1.
       -2   -1    0    0    0  501  0.00000000000E+00  0.00000000000E+00 -0.43459184407E+03  0.43459184408E+03  0.25500000920E-02 0. -1.
    10030    2    1    2    0    0  0.00000000000E+00  0.00000000000E+00  0.25425043669E+03  0.11234341248E+04  0.10942855881E+04 0.  0.
        5    1    3    3  502    0 -0.34110184485E+03  0.22485851344E+03 -0.24647945342E+03  0.47716457390E+03  0.46999998093E+01 0. -1.
       -5    1    3    3    0  502  0.34110184485E+03 -0.22485851344E+03  0.50072989011E+03  0.64626955094E+03  0.46999998093E+01 0.  1.
</event>
<event>
 5   0  0.2257667E-03  0.1100586E+04  0.7818609E-02  0.9204621E-01
        1   -1    0    0  501    0  0.00000000000E+00  0.00000000000E+00  0.12645629472E+04  0.12645629472E+04  0.50400001928E-02 0. -1.
       -1   -1    0    0    0  501  0.00000000000E+00  0.00000000000E+00 -0.23946796145E+03  0.23946796150E+03  0.50400001928E-02 0.  1.
    10030    2    1    2    0    0  0.00000000000E+00  0.00000000000E+00  0.10250949857E+04  0.15040309087E+04  0.11005858642E+04 0.  0.
        4    1    3    3  502    0  0.23560041188E+03 -0.17539278487E+03  0.11484820734E+04  0.11854462742E+04  0.12699999809E+01 0. -1.
       -4    1    3    3    0  502 -0.23560041188E+03  0.17539278487E+03 -0.12338708767E+03  0.31858463455E+03  0.12699999809E+01 0.  1.
</event>
<event>
 5   0  0.3992414E-03  0.1094131E+04  0.7818609E-02  0.9210931E-01
       -2   -1    0    0    0  501  0.00000000000E+00  0.00000000000E+00  0.32616587835E+03  0.32616587836E+03  0.25500000920E-02 0.  1.
        2   -1    0    0  501    0  0.00000000000E+00  0.00000000000E+00 -0.91757206919E+03  0.91757206919E+03  0.25500000920E-02 0. -1.
    10030    2    1    2    0    0  0.00000000000E+00  0.00000000000E+00 -0.59140619084E+03  0.12437379476E+04  0.10941310706E+04 0.  0.
        1    1    3    3  502    0 -0.20034996728E+03 -0.37592088418E+03 -0.68589347882E+03  0.80740726084E+03  0.50400001928E-02 0. -1.
       -1    1    3    3    0  502  0.20034996728E+03  0.37592088418E+03  0.94487287975E+02  0.43633068671E+03  0.50400001928E-02 0.  1.
</event>
<event>
 5   0  0.2374100E-03  0.1122248E+04  0.7818609E-02  0.9183774E-01
        1   -1    0    0  501    0  0.00000000000E+00  0.00000000000E+00  0.34573200375E+03  0.34573200378E+03  0.50400001928E-02 0.  1.
       -1   -1    0    0    0  501  0.00000000000E+00  0.00000000000E+00 -0.91070645443E+03  0.91070645444E+03  0.50400001928E-02 0. -1.
    10030    2    1    2    0    0  0.00000000000E+00  0.00000000000E+00 -0.56497445068E+03  0.12564384582E+04  0.11222483991E+04 0.  0.
        2    1    3    3  502    0  0.46491375295E+03  0.22552488321E+03 -0.52740019714E+03  0.73834764073E+03  0.25500000920E-02 0. -1.
       -2    1    3    3    0  502 -0.46491375295E+03 -0.22552488321E+03 -0.37574253545E+02  0.51809081749E+03  0.25500000920E-02 0.  1.
</event>
<event>
 5   0  0.1508625E-03  0.1099564E+04  0.7818609E-02  0.9205617E-01
        4   -1    0    0  501    0  0.00000000000E+00  0.00000000000E+00  0.79075371181E+03  0.79075473166E+03  0.12699999809E+01 0. -1.
       -4   -1    0    0    0  501  0.00000000000E+00  0.00000000000E+00 -0.38224069553E+03  0.38224280532E+03  0.12699999809E+01 0.  1.
    10030    2    1    2    0    0  0.00000000000E+00  0.00000000000E+00  0.40851301628E+03  0.11729975370E+04  0.10995637032E+04 0.  0.
        5    1    3    3  502    0  0.31232817659E+03  0.43522925765E+03  0.33605771493E+03  0.63240040668E+03  0.46999998093E+01 0.  1.
       -5    1    3    3    0  502 -0.31232817659E+03 -0.43522925765E+03  0.72455301346E+02  0.54059713030E+03  0.46999998093E+01 0. -1.
</event>
<event>
 5   0  0.2255788E-03  0.1104705E+04  0.7818609E-02  0.9200618E-01
       -1   -1    0    0    0  501  0.00000000000E+00  0.00000000000E+00  0.39139987536E+03  0.39139987539E+03  0.50400001928E-02 0. -1.
        1   -1    0    0  501    0  0.00000000000E+00  0.00000000000E+00 -0.77949310724E+03  0.77949310726E+03  0.50400001928E-02 0.  1.
    10030    2    1    2    0    0  0.00000000000E+00  0.00000000000E+00 -0.38809323188E+03  0.11708929827E+04  0.11047053997E+04 0.  0.
        3    1    3    3  502    0  0.60915852954E+02 -0.16386193767E+03 -0.74939719429E+03  0.76951779756E+03  0.10100000352E+00 0.  1.
       -3    1    3    3    0  502 -0.60915852954E+02  0.16386193767E+03  0.36130396241E+03  0.40137518509E+03  0.10100000352E+00 0. -1.
</event>
<event>
 5   0  0.2300702E-03  0.1102037E+04  0.7818609E-02  0.9203208E-01
       -1   -1    0    0    0  501  0.00000000000E+00  0.00000000000E+00  0.41903614370E+03  0.41903614373E+03  0.50400001928E-02 0.  1.
        1   -1    0    0  501    0  0.00000000000E+00  0.00000000000E+00 -0.72457143488E+03  0.72457143490E+03  0.50400001928E-02 0. -1.
    10030    2    1    2    0    0  0.00000000000E+00  0.00000000000E+00 -0.30553529118E+03  0.11436075786E+04  0.11020374221E+04 0.  0.
        5    1    3    3  502    0  0.26478530355E+03  0.19873227277E+03  0.30429376877E+03  0.44969162870E+03  0.46999998093E+01 0.  1.
       -5    1    3    3    0  502 -0.26478530355E+03 -0.19873227277E+03 -0.60982905995E+03  0.69391594993E+03  0.46999998093E+01 0. -1.
</event>
<event>
 5   0  0.2257667E-03  0.1101901E+04  0.7818609E-02  0.9203341E-01
       -1   -1    0    0    0  501  0.00000000000E+00  0.00000000000E+00  0.11162430350E+04  0.11162430350E+04  0.50400001928E-02 0. -1.
        1   -1    0    0  501    0  0.00000000000E+00  0.00000000000E+00 -0.27193559684E+03  0.27193559689E+03  0.50400001928E-02 0.  1.
    10030    2    1    2    0    0  0.00000000000E+00  0.00000000000E+00  0.84430743813E+03  0.13881786319E+04  0.11019005690E+04 0.  0.
        4    1    3    3  502    0  0.48749335753E+03  0.15434678563E+03  0.68055758478E+03  0.85125374770E+03  0.12699999809E+01 0. -1.
       -4    1    3    3    0  502 -0.48749335753E+03 -0.15434678563E+03  0.16374985335E+03  0.53692488418E+03  0.12699999809E+01 0.  1.
</event>
<event>
 5   0  0.3713158E-03  0.1097438E+04  0.7818609E-02  0.9207693E-01
        2   -1    0    0  501    0  0.00000000000E+00  0.00000000000E+00  0.11313810758E+04  0.11313810758E+04  0.25500000920E-02 0.  1.
       -2   -1    0    0    0  501  0.00000000000E+00  0.00000000000E+00 -0.26612825770E+03  0.26612825772E+03  0.25500000920E-02 0. -1.
    10030    2    1    2    0    0  0.00000000000E+00  0.00000000000E+00  0.86525281813E+03  0.13975093336E+04  0.10974378789E+04 0.  0.
        4    1    3    3  502    0  0.51958119680E+03 -0.14102634163E+03  0.56762078089E+03  0.78233497486E+03  0.12699999809E+01 0.  1.
       -4    1    3    3    0  502 -0.51958119680E+03  0.14102634163E+03  0.29763203724E+03  0.61517435869E+03  0.12699999809E+01 0. -1.
</event>
<event>
 5   0  0.3992414E-03  0.1089409E+04  0.7818609E-02  0.9215577E-01
        2   -1    0    0  501    0  0.00000000000E+00  0.00000000000E+00  0.11581149964E+04  0.11581149964E+04  0.25500000920E-02 0.  1.
       -2   -1    0    0    0  501  0.00000000000E+00  0.00000000000E+00 -0.25619455599E+03  0.25619455600E+03  0.25500000920E-02 0. -1.
    10030    2    1    2    0    0  0.00000000000E+00  0.00000000000E+00  0.90192044037E+03  0.14143095524E+04  0.10894085685E+04 0.  0.
        1    1    3    3  502    0 -0.37973133579E+03  0.25370314673E+03  0.83638897451E+03  0.95294684571E+03  0.50400001928E-02 0.  1.
       -1    1    3    3    0  502  0.37973133579E+03 -0.25370314673E+03  0.65531465857E+02  0.46136270665E+03  0.50400001928E-02 0. -1.
</event>
<event>
 5   0  0.3748901E-03  0.1084906E+04  0.7818609E-02  0.9220029E-01
        2   -1    0    0  501    0  0.00000000000E+00  0.00000000000E+00  0.78419914619E+03  0.78419914619E+03  0.25500000920E-02 0. -1.
       -2   -1    0    0    0  501  0.00000000000E+00  0.00000000000E+00 -0.37523050344E+03  0.37523050345E+03  0.25500000920E-02 0.  1.
    10030    2    1    2    0    0  0.00000000000E+00  0.00000000000E+00  0.40896864275E+03  0.11594296496E+04  0.10849063378E+04 0.  0.
        5    1    3    3  502    0  0.42346694531E+02  0.36157646349E+03 -0.22526046417E+03  0.42812982634E+03  0.46999998093E+01 0.  1.
       -5    1    3    3    0  502 -0.42346694531E+02 -0.36157646349E+03  0.63422910692E+03  0.73129982329E+03  0.46999998093E+01 0. -1.
</event>
<event>
 5   0  0.3744875E-03  0.1076080E+04  0.7818609E-02  0.9228825E-01
        2   -1    0    0  501    0  0.00000000000E+00  0.00000000000E+00  0.90576681792E+03  0.90576681792E+03  0.25500000920E-02 0.  1.
       -2   -1    0    0    0  501  0.00000000000E+00  0.00000000000E+00 -0.31960423083E+03  0.31960423084E+03  0.25500000920E-02 0. -1.
    10030    2    1    2    0    0  0.00000000000E+00  0.00000000000E+00  0.58616258708E+03  0.12253710488E+04  0.10760797501E+04 0.  0.
        2    1    3    3  502    0 -0.21406397298E+03 -0.25174674791E+02 -0.26829346849E+03  0.34414899974E+03  0.25500000920E-02 0. -1.
       -2    1    3    3    0  502  0.21406397298E+03  0.25174674791E+02  0.85445605557E+03  0.88122204903E+03  0.25500000920E-02 0.  1.
</event>
<event>
 5   0  0.2374100E-03  0.1109289E+04  0.7818609E-02  0.9196185E-01
        1   -1    0    0  501    0  0.00000000000E+00  0.00000000000E+00  0.13270051859E+04  0.13270051859E+04  0.50400001928E-02 0.  1.
       -1   -1    0    0    0  501  0.00000000000E+00  0.00000000000E+00 -0.23182327729E+03  0.23182327734E+03  0.50400001928E-02 0. -1.
    10030    2    1    2    0    0  0.00000000000E+00  0.00000000000E+00  0.10951819086E+04  0.15588284633E+04  0.11092893062E+04 0.  0.
        2    1    3    3  502    0  0.14249969804E+03 -0.26851856532E+03 -0.10433330517E+03  0.32139356316E+03  0.25500000920E-02 0. -1.
       -2    1    3    3    0  502 -0.14249969804E+03  0.26851856532E+03  0.11995152138E+04  0.12374349001E+04  0.25500000920E-02 0.  1.
</event>
<event>
 5   0  0.2298958E-03  0.1102718E+04  0.7818609E-02  0.9202546E-01
        1   -1    0    0  501    0  0.00000000000E+00  0.00000000000E+00  0.10270092283E+04  0.10270092283E+04  0.50400001928E-02 0.  1.
       -1   -1    0    0    0  501  0.00000000000E+00  0.00000000000E+00 -0.29600221093E+03  0.29600221097E+03  0.50400001928E-02 0. -1.
    10030    2    1    2    0    0  0.00000000000E+00  0.00000000000E+00  0.73100701738E+03  0.13230114393E+04  0.11027184632E+04 0.  0.
        1    1    3    3  502    0  0.51898335048E+03  0.86521728820E+01  0.58860452630E+03  0.78477631627E+03  0.50400001928E-02 0.  1.
       -1    1    3    3    0  502 -0.51898335048E+03 -0.86521728820E+01  0.14240249108E+03  0.53823512303E+03  0.50400001928E-02 0. -1.
</event>
<event>
 5   0  0.3748901E-03  0.1095065E+04  0.7818609E-02  0.9210015E-01
        2   -1    0    0  501    0  0.00000000000E+00  0.00000000000E+00  0.78890568206E+03  0.78890568207E+03  0.25500000920E-02 0.  1.
       -2   -1    0    0    0  501  0.00000000000E+00  0.00000000000E+00 -0.38000989291E+03  0.38000989292E+03  0.25500000920E-02 0. -1.
    10030    2    1    2    0    0  0.00000000000E+00  0.00000000000E+00  0.40889578915E+03  0.11689155750E+04  0.10950652287E+04 0.  0.
        5    1    3    3  502    0  0.27534950205E+02 -0.42577167396E+03  0.57070584754E+03  0.71257767734E+03  0.46999998093E+01 0.  1.
       -5    1    3    3    0  502 -0.27534950205E+02  0.42577167396E+03 -0.16181005839E+03  0.45633789764E+03  0.46999998093E+01 0. -1.
</event>
<event>
 5   0  0.3992414E-03  0.1056793E+04  0.7818609E-02  0.9248359E-01
       -2   -1    0    0    0  501  0.00000000000E+00  0.00000000000E+00  0.38138238454E+03  0.38138238454E+03  0.25500000920E-02 0. -1.
        2   -1    0    0  501    0  0.00000000000E+00  0.00000000000E+00 -0.73208096295E+03  0.73208096295E+03  0.25500000920E-02 0.  1.
    10030    2    1    2    0    0  0.00000000000E+00  0.00000000000E+00 -0.35069857841E+03  0.11134633475E+04  0.10567928526E+04 0.  0.
        1    1    3    3  502    0 -0.20728896159E+03 -0.30503763190E+03  0.22334178042E+03  0.43115916015E+03  0.50400001928E-02 0. -1.
       -1    1    3    3    0  502  0.20728896159E+03  0.30503763190E+03 -0.57404035883E+03  0.68230418735E+03  0.50400001928E-02 0.  1.
</event>
<event>
 5   0  0.2300702E-03  0.1092832E+04  0.7818609E-02  0.9212207E-01
       -1   -1    0    0    0  501  0.00000000000E+00  0.00000000000E+00  0.59820530617E+03  0.59820530619E+03  0.50400001928E-02 0.  1.
        1   -1    0    0  501    0  0.00000000000E+00  0.00000000000E+00 -0.49911014160E+03  0.49911014162E+03  0.50400001928E-02 0. -1.
    10030    2    1    2    0    0  0.00000000000E+00  0.00000000000E+00  0.99095164567E+02  0.10973154478E+04  0.10928317988E+04 0.  0.
        5    1    3    3  502    0 -0.19256691645E+03 -0.34583869589E+03 -0.32864320027E+03  0.51450448391E+03  0.46999998093E+01 0.  1.
       -5    1    3    3    0  502  0.19256691645E+03  0.34583869589E+03  0.42773836484E+03  0.58281096390E+03  0.46999998093E+01 0. -1.
</event>
<event>
 5   0  0.2255788E-03  0.1094126E+04  0.7818609E-02  0.9210936E-01
       -1   -1    0    0    0  501  0.00000000000E+00  0.00000000000E+00  0.26134669704E+03  0.26134669709E+03  0.50400001928E-02 0.  1.
        1   -1    0    0  501    0  0.00000000000E+00  0.00000000000E+00 -0.11451370576E+04  0.11451370576E+04  0.50400001928E-02 0. -1.
    10030    2    1    2    0    0  0.00000000000E+00  0.00000000000E+00 -0.88379036059E+03  0.14064837547E+04  0.10941257473E+04 0.  0.
        3    1    3    3  502    0  0.51259841451E+03 -0.39560607327E+01 -0.68750380556E+03  0.85757464854E+03  0.10100000352E+00 0. -1.
       -3    1    3    3    0  502 -0.51259841451E+03  0.39560607327E+01 -0.19628655503E+03  0.54890910619E+03  0.10100000352E+00 0.  1.
</event>
<event>
 5   0  0.3748901E-03  0.1159315E+04  0.7818609E-02  0.9149233E-01
       -2   -1    0    0    0  501  0.00000000000E+00  0.00000000000E+00  0.30961075491E+03  0.30961075492E+03  0.25500000920E-02 0. -1.
        2   -1    0    0  501    0  0.00000000000E+00  0.00000000000E+00 -0.10852431801E+04  0.10852431801E+04  0.25500000920E-02 0.  1.
    10030    2    1    2    0    0  0.00000000000E+00  0.00000000000E+00 -0.77563242521E+03  0.13948539350E+04  0.11593152466E+04 0.  0.
        5    1    3    3  502    0  0.39521274656E+03 -0.41156041886E+03 -0.51055008551E+03  0.76567524005E+03  0.46999998093E+01 0.  1.
       -5    1    3    3    0  502 -0.39521274656E+03  0.41156041886E+03 -0.26508233971E+03  0.62917869500E+03  0.46999998093E+01 0. -1.
</event>
<event>
 5   0  0.2255788E-03  0.1104059E+04  0.7818609E-02  0.9201245E-01
        1   -1    0    0  501    0  0.00000000000E+00  0.00000000000E+00  0.58862080590E+03  0.58862080592E+03  0.50400001928E-02 0.  1.
       -1   -1    0    0    0  501  0.00000000000E+00  0.00000000000E+00 -0.51771245133E+03  0.51771245135E+03  0.50400001928E-02 0. -1.
    10030    2    1    2    0    0  0.00000000000E+00  0.00000000000E+00  0.70908354567E+02  0.11063332573E+04  0.11040585498E+04 0.  0.
        3    1    3    3  502    0  0.16486990530E+03 -0.52007571309E+03 -0.48834983193E+02  0.54776427303E+03  0.10100000352E+00 0. -1.
       -3    1    3    3    0  502 -0.16486990530E+03  0.52007571309E+03  0.11974333776E+03  0.55856898424E+03  0.10100000352E+00 0.  1.
</event>
<event>
 5   0  0.3962999E-03  0.1095518E+04  0.7818609E-02  0.9209571E-01
       -2   -1    0    0    0  501  0.00000000000E+00  0.00000000000E+00  0.15416068580E+03  0.15416068583E+03  0.25500000920E-02 0.  1.
        2   -1    0    0  501    0  0.00000000000E+00  0.00000000000E+00 -0.19462820338E+04  0.19462820338E+04  0.25500000920E-02 0. -1.
    10030    2    1    2    0    0  0.00000000000E+00  0.00000000000E+00 -0.17921213480E+04  0.21004427196E+04  0.10955184583E+04 0.  0.
        3    1    3    3  502    0  0.16387810616E+03 -0.51666407950E+03 -0.10475442281E+04  0.11794688316E+04  0.10100000352E+00 0. -1.
       -3    1    3    3    0  502 -0.16387810616E+03  0.51666407950E+03 -0.74457711987E+03  0.92097388799E+03  0.10100000352E+00 0.  1.
</event>
<event>
 5   0  0.2374100E-03  0.1039327E+04  0.7818609E-02  0.9266433E-01
        1   -1    0    0  501    0  0.00000000000E+00  0.00000000000E+00  0.25677846250E+03  0.25677846255E+03  0.50400001928E-02 0.  1.
       -1   -1    0    0    0  501  0.00000000000E+00  0.00000000000E+00 -0.10516861359E+04  0.10516861359E+04  0.50400001928E-02 0. -1.
    10030    2    1    2    0    0  0.00000000000E+00  0.00000000000E+00 -0.79490767336E+03  0.13084645984E+04  0.10393273768E+04 0.  0.
        2    1    3    3  502    0  0.44828748474E+03  0.25095775299E+03 -0.29905484917E+03  0.59445375395E+03  0.25500000920E-02 0.  1.
       -2    1    3    3    0  502 -0.44828748474E+03 -0.25095775299E+03 -0.49585282419E+03  0.71401084448E+03  0.25500000920E-02 0. -1.
</event>
<event>
 5   0  0.3992414E-03  0.1089508E+04  0.7818609E-02  0.9215479E-01
        2   -1    0    0  501    0  0.00000000000E+00  0.00000000000E+00  0.10246662975E+04  0.10246662975E+04  0.25500000920E-02 0.  1.
       -2   -1    0    0    0  501  0.00000000000E+00  0.00000000000E+00 -0.28961333427E+03  0.28961333428E+03  0.25500000920E-02 0. -1.
    10030    2    1    2    0    0  0.00000000000E+00  0.00000000000E+00  0.73505296325E+03  0.13142796318E+04  0.10895081880E+04 0.  0.
        1    1    3    3  502    0 -0.51378349294E+03 -0.84449482206E+02  0.17432232851E+03  0.54908420748E+03  0.50400001928E-02 0.  1.
       -1    1    3    3    0  502  0.51378349294E+03  0.84449482206E+02  0.56073063473E+03  0.76519542433E+03  0.50400001928E-02 0. -1.
</event>
<event>
 5   0  0.2374100E-03  0.1092214E+04  0.7818609E-02  0.9212814E-01
       -1   -1    0    0    0  501  0.00000000000E+00  0.00000000000E+00  0.39977317222E+03  0.39977317226E+03  0.50400001928E-02 0. -1.
        1   -1    0    0  501    0  0.00000000000E+00  0.00000000000E+00 -0.74600501012E+03  0.74600501014E+03  0.50400001928E-02 0.  1.
    10030    2    1    2    0    0  0.00000000000E+00  0.00000000000E+00 -0.34623183790E+03  0.11457781824E+04  0.10922138791E+04 0.  0.
        2    1    3    3  502    0 -0.23852466342E+02 -0.23263607873E+03 -0.69082030672E+03  0.72932926821E+03  0.25500000920E-02 0.  1.
       -2    1    3    3    0  502  0.23852466342E+02  0.23263607873E+03  0.34458846882E+03  0.41644891419E+03  0.25500000920E-02 0. -1.
</event>
<event>
 5   0  0.3713158E-03  0.1087397E+04  0.7818609E-02  0.9217564E-01
       -2   -1    0    0    0  501  0.00000000000E+00  0.00000000000E+00  0.42113986759E+03  0.42113986760E+03  0.25500000920E-02 0.  1.
        2   -1    0    0  501    0  0.00000000000E+00  0.00000000000E+00 -0.70192318170E+03  0.70192318170E+03  0.25500000920E-02 0. -1.
    10030    2    1    2    0    0  0.00000000000E+00  0.00000000000E+00 -0.28078331411E+03  0.11230630493E+04  0.10873965897E+04 0.  0.
        4    1    3    3  502    0  0.88073973046E+02  0.50958753459E+03  0.32951863404E+02  0.51819293544E+03  0.12699999809E+01 0. -1.
       -4    1    3    3    0  502 -0.88073973046E+02 -0.50958753459E+03 -0.31373517751E+03  0.60487011386E+03  0.12699999809E+01 0.  1.
</event>
<event>
 5   0  0.2257667E-03  0.1116323E+04  0.7818609E-02  0.9189427E-01
        1   -1    0    0  501    0  0.00000000000E+00  0.00000000000E+00  0.10071176010E+04  0.10071176010E+04  0.50400001928E-02 0.  1.
       -1   -1    0    0    0  501  0.00000000000E+00  0.00000000000E+00 -0.30934229415E+03  0.30934229419E+03  0.50400001928E-02 0. -1.
    10030    2    1    2    0    0  0.00000000000E+00  0.00000000000E+00  0.69777530687E+03  0.13164598952E+04  0.11163226581E+04 0.  0.
        4    1    3    3  502    0  0.39030278435E+02  0.53899225247E+03  0.51359272133E+03  0.74553008468E+03  0.12699999809E+01 0. -1.
       -4    1    3    3    0  502 -0.39030278435E+02 -0.53899225247E+03  0.18418258554E+03  0.57092981055E+03  0.12699999809E+01 0.  1.
</event>
<event>
 5   0  0.1508625E-03  0.1105094E+04  0.7818609E-02  0.9200241E-01
       -4   -1    0    0    0  501  0.00000000000E+00  0.00000000000E+00  0.27334597199E+03  0.27334892227E+03  0.12699999809E+01 0.  1.
        4   -1    0    0  501    0  0.00000000000E+00  0.00000000000E+00 -0.11169200857E+04  0.11169208078E+04  0.12699999809E+01 0. -1.
    10030    2    1    2    0    0  0.00000000000E+00  0.00000000000E+00 -0.84357411375E+03  0.13902697300E+04  0.11050939493E+04 0.  0.
        2    1    3    3  502    0  0.38699562360E+03 -0.18787946989E+03  0.14458789568E+02  0.43043392582E+03  0.25500000920E-02 0.  1.
       -2    1    3    3    0  502 -0.38699562360E+03  0.18787946989E+03 -0.85803290332E+03  0.95983580423E+03  0.25500000920E-02 0. -1.
</event>
<event>
 5   0  0.2255788E-03  0.1102595E+04  0.7818609E-02  0.9202666E-01
        1   -1    0    0  501    0  0.00000000000E+00  0.00000000000E+00  0.63955947759E+03  0.63955947761E+03  0.50400001928E-02 0. -1.
       -1   -1    0    0    0  501  0.00000000000E+00  0.00000000000E+00 -0.47521638818E+03  0.47521638821E+03  0.50400001928E-02 0.  1.
    10030    2    1    2    0    0  0.00000000000E+00  0.00000000000E+00  0.16434308941E+03  0.11147758658E+04  0.11025953836E+04 0.  0.
        3    1    3    3  502    0  0.30275971312E+03 -0.32317866034E+03 -0.24981735122E+03  0.50844528670E+03  0.10100000352E+00 0.  1.
       -3    1    3    3    0  502 -0.30275971312E+03  0.32317866034E+03  0.41416044063E+03  0.60633057912E+03  0.10100000352E+00 0. -1.
</event>
<event>
 5   0  0.2374100E-03  0.1101335E+04  0.7818609E-02  0.9203892E-01
       -1   -1    0    0    0  501  0.00000000000E+00  0.00000000000E+00  0.22457338228E+03  0.22457338234E+03  0.50400001928E-02 0.  1.
        1   -1    0    0  501    0  0.00000000000E+00  0.00000000000E+00 -0.13502689098E+04  0.13502689098E+04  0.50400001928E-02 0. -1.
    10030    2    1    2    0    0  0.00000000000E+00  0.00000000000E+00 -0.11256955275E+04  0.15748422922E+04  0.11013345652E+04 0.  0.
        2    1    3    3  502    0  0.26072864281E+03  0.43476067481E+03 -0.87032870088E+03  0.10072081796E+04  0.25500000920E-02 0.  1.
       -2    1    3    3    0  502 -0.26072864281E+03 -0.43476067481E+03 -0.25536682665E+03  0.56763411253E+03  0.25500000920E-02 0. -1.
</event>
<event>
 5   0  0.2255788E-03  0.1101876E+04  0.7818609E-02  0.9203365E-01
        1   -1    0    0  501    0  0.00000000000E+00  0.00000000000E+00  0.13270690280E+04  0.13270690280E+04  0.50400001928E-02 0.  1.
       -1   -1    0    0    0  501  0.00000000000E+00  0.00000000000E+00 -0.22872411549E+03  0.22872411555E+03  0.50400001928E-02 0. -1.
    10030    2    1    2    0    0  0.00000000000E+00  0.00000000000E+00  0.10983449125E+04  0.15557931436E+04  0.11018760179E+04 0.  0.
        3    1    3    3  502    0 -0.10283690284E+03  0.32329441542E+03  0.11620918072E+04  0.12105998869E+04  0.10100000352E+00 0.  1.
       -3    1    3    3    0  502  0.10283690284E+03 -0.32329441542E+03 -0.63746894721E+02  0.34519325662E+03  0.10100000352E+00 0. -1.
</event>
<event>
 5   0  0.2300702E-03  0.1035405E+04  0.7818609E-02  0.9270543E-01
        1   -1    0    0  501    0  0.00000000000E+00  0.00000000000E+00  0.33825727890E+03  0.33825727894E+03  0.50400001928E-02 0. -1.
       -1   -1    0    0    0  501  0.00000000000E+00  0.00000000000E+00 -0.79234359898E+03  0.79234359899E+03  0.50400001928E-02 0.  1.
    10030    2    1    2    0    0  0.00000000000E+00  0.00000000000E+00 -0.45408632007E+03  0.11306008779E+04  0.10354052149E+04 0.  0.
        5    1    3    3  502    0 -0.38225275735E+03  0.33056182248E+03 -0.10444585678E+03  0.51606134905E+03  0.46999998093E+01 0. -1.
       -5    1    3    3    0  502  0.38225275735E+03 -0.33056182248E+03 -0.34964046329E+03  0.61453952888E+03  0.46999998093E+01 0.  1.
</event>
<event>
 5   0  0.2300702E-03  0.1104078E+04  0.7818609E-02  0.9201227E-01
        1   -1    0    0  501    0  0.00000000000E+00  0.00000000000E+00  0.14119258375E+04  0.14119258375E+04  0.50400001928E-02 0.  1.
       -1   -1    0    0    0  501  0.00000000000E+00  0.00000000000E+00 -0.21583773198E+03  0.21583773204E+03  0.50400001928E-02 0. -1.
    10030    2    1    2    0    0  0.00000000000E+00  0.00000000000E+00  0.11960881055E+04  0.16277635696E+04  0.11040776613E+04 0.  0.
        5    1    3    3  502    0  0.34628584763E+03 -0.32799183739E+03  0.18832039949E+03  0.51281497299E+03  0.46999998093E+01 0. -1.
       -5    1    3    3    0  502 -0.34628584763E+03  0.32799183739E+03  0.10077677060E+04  0.11149485966E+04  0.46999998093E+01 0.  1.
</event>
<event>
 5   0  0.2300702E-03  0.1089033E+04  0.7818609E-02  0.9215948E-01
       -1   -1    0    0    0  501  0.00000000000E+00  0.00000000000E+00  0.34215625717E+03  0.34215625721E+03  0.50400001928E-02 0. -1.
        1   -1    0    0  501    0  0.00000000000E+00  0.00000000000E+00 -0.86655768137E+03  0.86655768138E+03  0.50400001928E-02 0.  1.
    10030    2    1    2    0    0  0.00000000000E+00  0.00000000000E+00 -0.52440142419E+03  0.12087139386E+04  0.10890328423E+04 0.  0.
        5    1    3    3  502    0 -0.12088270832E+03  0.43734946472E+03  0.71855805212E+02  0.45942630552E+03  0.46999998093E+01 0. -1.
       -5    1    3    3    0  502  0.12088270832E+03 -0.43734946472E+03 -0.59625722941E+03  0.74928763307E+03  0.46999998093E+01 0.  1.
</event>
<event>
 5   0  0.3713158E-03  0.1068638E+04  0.7818609E-02  0.9236310E-01
       -2   -1    0    0    0  501  0.00000000000E+00  0.00000000000E+00  0.36756919636E+03  0.36756919637E+03  0.25500000920E-02 0.  1.
        2   -1    0    0  501    0  0.00000000000E+00  0.00000000000E+00 -0.77671620149E+03  0.77671620150E+03  0.25500000920E-02 0. -1.
    10030    2    1    2    0    0  0.00000000000E+00  0.00000000000E+00 -0.40914700513E+03  0.11442853979E+04  0.10686382924E+04 0.  0.
        4    1    3    3  502    0  0.30014366681E+03 -0.38556075137E+03 -0.43610166743E+03  0.65492716462E+03  0.12699999809E+01 0.  1.
       -4    1    3    3    0  502 -0.30014366681E+03  0.38556075137E+03  0.26954662300E+02  0.48935823325E+03  0.12699999809E+01 0. -1.
</event>
<event>
 5   0  0.2257667E-03  0.1099330E+04  0.7818609E-02  0.9205845E-01
        1   -1    0    0  501    0  0.00000000000E+00  0.00000000000E+00  0.38904424823E+03  0.38904424826E+03  0.50400001928E-02 0. -1.
       -1   -1    0    0    0  501  0.00000000000E+00  0.00000000000E+00 -0.77659937812E+03  0.77659937813E+03  0.50400001928E-02 0.  1.
    10030    2    1    2    0    0  0.00000000000E+00  0.00000000000E+00 -0.38755512988E+03  0.11656436264E+04  0.10993298345E+04 0.  0.
        4    1    3    3  502    0 -0.29712568652E+03  0.16460951839E+03 -0.65199120796E+03  0.73516944666E+03  0.12699999809E+01 0.  1.
       -4    1    3    3    0  502  0.29712568652E+03 -0.16460951839E+03  0.26443607808E+03  0.43047417974E+03  0.12699999809E+01 0. -1.
</event>
<event>
 5   0  0.3962999E-03  0.9772802E+03  0.7818609E-02  0.9333821E-01
       -2   -1    0    0    0  501  0.00000000000E+00  0.00000000000E+00  0.24358922671E+03  0.24358922672E+03  0.25500000920E-02 0.  1.
        2   -1    0    0  501    0  0.00000000000E+00  0.00000000000E+00 -0.98021217585E+03  0.98021217585E+03  0.25500000920E-02 0. -1.
    10030    2    1    2    0    0  0.00000000000E+00  0.00000000000E+00 -0.73662294914E+03  0.12238014026E+04  0.97728015622E+03 0.  0.
        3    1    3    3  502    0 -0.18828935268E+03 -0.40544972083E+03 -0.61537918513E+03  0.76061416509E+03  0.10100000352E+00 0. -1.
       -3    1    3    3    0  502  0.18828935268E+03  0.40544972083E+03 -0.12124376401E+03  0.46318723748E+03  0.10100000352E+00 0.  1.
</event>
<event>
 5   0  0.3992414E-03  0.1117867E+04  0.7818609E-02  0.9187951E-01
       -2   -1    0    0    0  501  0.00000000000E+00  0.00000000000E+00  0.12570070392E+03  0.12570070394E+03  0.25500000920E-02 0. -1.
        2   -1    0    0  501    0  0.00000000000E+00  0.00000000000E+00 -0.24853196231E+04  0.24853196231E+04  0.25500000920E-02 0.  1.
    10030    2    1    2    0    0  0.00000000000E+00  0.00000000000E+00 -0.23596189192E+04  0.26110203270E+04  0.11178665862E+04 0.  0.
        1    1    3    3  502    0 -0.14284923270E+03  0.38187018693E+03 -0.20728225887E+04  0.21125397576E+04  0.50400001928E-02 0.  1.
       -1    1    3    3    0  502  0.14284923270E+03 -0.38187018693E+03 -0.28679633044E+03  0.49848056946E+03  0.50400001928E-02 0. -1.
</event>
<event>
 5   0  0.2257667E-03  0.1095438E+04  0.7818609E-02  0.9209650E-01
       -1   -1    0    0    0  501  0.00000000000E+00  0.00000000000E+00  0.17398826567E+03  0.17398826575E+03  0.50400001928E-02 0.  1.
        1   -1    0    0  501    0  0.00000000000E+00  0.00000000000E+00 -0.17242315459E+04  0.17242315459E+04  0.50400001928E-02 0. -1.
    10030    2    1    2    0    0  0.00000000000E+00  0.00000000000E+00 -0.15502432802E+04  0.18982198116E+04  0.10954379149E+04 0.  0.
        4    1    3    3  502    0  0.20837924586E+03  0.21310811840E+03  0.21151288955E+02  0.29880758049E+03  0.12699999809E+01 0.  1.
       -4    1    3    3    0  502 -0.20837924586E+03 -0.21310811840E+03 -0.15713945692E+04  0.15994122311E+04  0.12699999809E+01 0. -1.
</event>
<event>
 5   0  0.3992414E-03  0.1099776E+04  0.7818609E-02  0.9205410E-01
       -2   -1    0    0    0  501  0.00000000000E+00  0.00000000000E+00  0.14581157647E+03  0.14581157650E+03  0.25500000920E-02 0.  1.
        2   -1    0    0  501    0  0.00000000000E+00  0.00000000000E+00 -0.20737502916E+04  0.20737502916E+04  0.25500000920E-02 0. -1.
    10030    2    1    2    0    0  0.00000000000E+00  0.00000000000E+00 -0.19279387151E+04  0.22195618681E+04  0.10997759758E+04 0.  0.
        1    1    3    3  502    0 -0.11402373389E+03  0.17282778854E+03 -0.19920724857E+04  0.20028039456E+04  0.50400001928E-02 0. -1.
       -1    1    3    3    0  502  0.11402373389E+03 -0.17282778854E+03  0.64133770590E+02  0.21675792244E+03  0.50400001928E-02 0.  1.
</event>
<event>
 5   0  0.3992414E-03  0.1126209E+04  0.7818609E-02  0.9180017E-01
        2   -1    0    0  501    0  0.00000000000E+00  0.00000000000E+00  0.11786813442E+04  0.11786813442E+04  0.25500000920E-02 0. -1.
       -2   -1    0    0    0  501  0.00000000000E+00  0.00000000000E+00 -0.26901803000E+03  0.26901803001E+03  0.25500000920E-02 0.  1.
    10030    2    1    2    0    0  0.00000000000E+00  0.00000000000E+00  0.90966331415E+03  0.14476993742E+04  0.11262087430E+04 0.  0.
        1    1    3    3  502    0 -0.14390130259E+03 -0.49671771259E+03  0.16839991761E+03  0.54387002414E+03  0.50400001928E-02 0.  1.
       -1    1    3    3    0  502  0.14390130259E+03  0.49671771259E+03  0.74126339654E+03  0.90382935002E+03  0.50400001928E-02 0. -1.
</event>
<event>
 5   0  0.2374100E-03  0.1094778E+04  0.7818609E-02  0.9210297E-01
        1   -1    0    0  501    0  0.00000000000E+00  0.00000000000E+00  0.28145956806E+03  0.28145956810E+03  0.50400001928E-02 0. -1.
       -1   -1    0    0    0  501  0.00000000000E+00  0.00000000000E+00 -0.10645747487E+04  0.10645747488E+04  0.50400001928E-02 0.  1.
    10030    2    1    2    0    0  0.00000000000E+00  0.00000000000E+00 -0.78311518069E+03  0.13460343169E+04  0.10947780578E+04 0.  0.
        2    1    3    3  502    0  0.40597300981E+03 -0.30367508982E+03 -0.13778449759E+03  0.52537340307E+03  0.25500000920E-02 0. -1.
       -2    1    3    3    0  502 -0.40597300981E+03  0.30367508982E+03 -0.64533068310E+03  0.82066091379E+03  0.25500000920E-02 0.  1.
</event>
<event>
 5   0  0.3992414E-03  0.1091121E+04  0.7818609E-02  0.9213890E-01
       -2   -1    0    0    0  501  0.00000000000E+00  0.00000000000E+00  0.54029302515E+03  0.54029302515E+03  0.25500000920E-02 0.  1.
        2   -1    0    0  501    0  0.00000000000E+00  0.00000000000E+00 -0.55087896820E+03  0.55087896820E+03  0.25500000920E-02 0. -1.
    10030    2    1    2    0    0  0.00000000000E+00  0.00000000000E+00 -0.10585943050E+02  0.10911719934E+04  0.10911206427E+04 0.  0.
        1    1    3    3  502    0  0.53740880535E+03 -0.88408675416E+02  0.26516484278E+02  0.54527739905E+03  0.50400001928E-02 0. -1.
       -1    1    3    3    0  502 -0.53740880535E+03  0.88408675416E+02 -0.37102427329E+02  0.54589459431E+03  0.50400001928E-02 0.  1.
</event>
<event>
 5   0  0.2257667E-03  0.1096249E+04  0.7818609E-02  0.9208856E-01
        1   -1    0    0  501    0  0.00000000000E+00  0.00000000000E+00  0.28086352372E+04  0.28086352372E+04  0.50400001928E-02 0.  1.
       -1   -1    0    0    0  501  0.00000000000E+00  0.00000000000E+00 -0.10697019250E+03  0.10697019262E+03  0.50400001928E-02 0. -1.
    10030    2    1    2    0    0  0.00000000000E+00  0.00000000000E+00  0.27016650447E+04  0.29156054298E+04  0.10962486072E+04 0.  0.
        4    1    3    3  502    0  0.13963617914E+03 -0.48110682358E+03  0.75924415706E+03  0.90962373603E+03  0.12699999809E+01 0. -1.
       -4    1    3    3    0  502 -0.13963617914E+03  0.48110682358E+03  0.19424208876E+04  0.20059816938E+04  0.12699999809E+01 0.  1.
</event>
<event>
 5   0  0.1508625E-03  0.1074911E+04  0.7818609E-02  0.9229996E-01
       -4   -1    0    0    0  501  0.00000000000E+00  0.00000000000E+00  0.14122297379E+04  0.14122303090E+04  0.12699999809E+01 0. -1.
        4   -1    0    0  501    0  0.00000000000E+00  0.00000000000E+00 -0.20453811654E+03  0.20454205929E+03  0.12699999809E+01 0.  1.
    10030    2    1    2    0    0  0.00000000000E+00  0.00000000000E+00  0.12076916214E+04  0.16167723683E+04  0.10749110840E+04 0.  0.
        4    1    3    3  502    0 -0.13748859337E+03  0.22804602575E+02 -0.17688673052E+03  0.22519700607E+03  0.12699999809E+01 0.  1.
       -4    1    3    3    0  502  0.13748859337E+03 -0.22804602575E+02  0.13845783519E+04  0.13915753622E+04  0.12699999809E+01 0. -1.
</event>
<event>
 5   0  0.2257667E-03  0.1107927E+04  0.7818609E-02  0.9197500E-01
       -1   -1    0    0    0  501  0.00000000000E+00  0.00000000000E+00  0.51726019167E+03  0.51726019170E+03  0.50400001928E-02 0.  1.
        1   -1    0    0  501    0  0.00000000000E+00  0.00000000000E+00 -0.59327160105E+03  0.59327160107E+03  0.50400001928E-02 0. -1.
    10030    2    1    2    0    0  0.00000000000E+00  0.00000000000E+00 -0.76011409380E+02  0.11105317928E+04  0.11079274021E+04 0.  0.
        4    1    3    3  502    0  0.39779715584E+03  0.23172397877E+02  0.34772956540E+03  0.52886387735E+03  0.12699999809E+01 0.  1.
       -4    1    3    3    0  502 -0.39779715584E+03 -0.23172397877E+02 -0.42374097478E+03  0.58166791542E+03  0.12699999809E+01 0. -1.
</event>
<event>
 5   0  0.3992414E-03  0.1156059E+04  0.7818609E-02  0.9152212E-01
        2   -1    0    0  501    0  0.00000000000E+00  0.00000000000E+00  0.31039766234E+03  0.31039766235E+03  0.25500000920E-02 0.  1.
       -2   -1    0    0    0  501  0.00000000000E+00  0.00000000000E+00 -0.10764194477E+04  0.10764194478E+04  0.25500000920E-02 0. -1.
    10030    2    1    2    0    0  0.00000000000E+00  0.00000000000E+00 -0.76602178540E+03  0.13868171101E+04  0.11560589609E+04 0.  0.
        1    1    3    3  502    0  0.28428743201E+03  0.30841078255E+03  0.94097533342E+02  0.42987312151E+03  0.50400001928E-02 0.  1.
       -1    1    3    3    0  502 -0.28428743201E+03 -0.30841078255E+03 -0.86011931874E+03  0.95694398859E+03  0.50400001928E-02 0. -1.
</event>
<event>
 5   0  0.2298958E-03  0.1094842E+04  0.7818609E-02  0.9210234E-01
       -1   -1    0    0    0  501  0.00000000000E+00  0.00000000000E+00  0.54017348107E+03  0.54017348110E+03  0.50400001928E-02 0. -1.
        1   -1    0    0  501    0  0.00000000000E+00  0.00000000000E+00 -0.55476567872E+03  0.55476567874E+03  0.50400001928E-02 0.  1.
    10030    2    1    2    0    0  0.00000000000E+00  0.00000000000E+00 -0.14592197648E+02  0.10949391598E+04  0.10948419208E+04 0.  0.
        1    1    3    3  502    0 -0.28622582270E+03 -0.19701345878E+03 -0.43033506668E+03  0.55310739840E+03  0.50400001928E-02 0. -1.
       -1    1    3    3    0  502  0.28622582270E+03  0.19701345878E+03  0.41574286904E+03  0.54183176144E+03  0.50400001928E-02 0.  1.
</event>
<event>
 5   0  0.2374100E-03  0.1095079E+04  0.7818609E-02  0.9210001E-01
        1   -1    0    0  501    0  0.00000000000E+00  0.00000000000E+00  0.99816611045E+03  0.99816611046E+03  0.50400001928E-02 0.  1.
       -1   -1    0    0    0  501  0.00000000000E+00  0.00000000000E+00 -0.30035058512E+03  0.30035058516E+03  0.50400001928E-02 0. -1.
    10030    2    1    2    0    0  0.00000000000E+00  0.00000000000E+00  0.69781552533E+03  0.12985166956E+04  0.10950794955E+04 0.  0.
        2    1    3    3  502    0 -0.28534994340E+03  0.44835417999E+03  0.19270161789E+03  0.56531404941E+03  0.25500000920E-02 0. -1.
       -2    1    3    3    0  502  0.28534994340E+03 -0.44835417999E+03  0.50511390743E+03  0.73320264621E+03  0.25500000920E-02 0.  1.
</event>
<event>
 5   0  0.3744875E-03  0.1098008E+04  0.7818609E-02  0.9207135E-01
       -2   -1    0    0    0  501  0.00000000000E+00  0.00000000000E+00  0.47477997136E+03  0.47477997136E+03  0.25500000920E-02 0. -1.
        2   -1    0    0  501    0  0.00000000000E+00  0.00000000000E+00 -0.63483226683E+03  0.63483226683E+03  0.25500000920E-02 0.  1.
    10030    2    1    2    0    0  0.00000000000E+00  0.00000000000E+00 -0.16005229547E+03  0.11096122382E+04  0.10980084617E+04 0.  0.
        2    1    3    3  502    0  0.76810147226E+02  0.52786069102E+03  0.51226906212E+02  0.53587396258E+03  0.25500000920E-02 0. -1.
       -2    1    3    3    0  502 -0.76810147226E+02 -0.52786069102E+03 -0.21127920168E+03  0.57373827562E+03  0.25500000920E-02 0.  1.
</event>
<event>
 5   0  0.3744875E-03  0.1098207E+04  0.7818609E-02  0.9206941E-01
       -2   -1    0    0    0  501  0.00000000000E+00  0.00000000000E+00  0.52414316191E+03  0.52414316191E+03  0.25500000920E-02 0. -1.
        2   -1    0    0  501    0  0.00000000000E+00  0.00000000000E+00 -0.57525294285E+03  0.57525294286E+03  0.25500000920E-02 0.  1.
    10030    2    1    2    0    0  0.00000000000E+00  0.00000000000E+00 -0.51109780944E+02  0.10993961048E+04  0.10982074419E+04 0.  0.
        2    1    3    3  502    0 -0.17322205852E+03  0.21881598857E+03 -0.49896056858E+03  0.57170618976E+03  0.25500000920E-02 0.  1.
       -2    1    3    3    0  502  0.17322205852E+03 -0.21881598857E+03  0.44785078763E+03  0.52768991501E+03  0.25500000920E-02 0. -1.
</event>
<event>
 5   0  0.3748901E-03  0.1141403E+04  0.7818609E-02  0.9165752E-01
       -2   -1    0    0    0  501  0.00000000000E+00  0.00000000000E+00  0.60240115062E+03  0.60240115063E+03  0.25500000920E-02 0.  1.
        2   -1    0    0  501    0  0.00000000000E+00  0.00000000000E+00 -0.54066973723E+03  0.54066973723E+03  0.25500000920E-02 0. -1.
    10030    2    1    2    0    0  0.00000000000E+00  0.00000000000E+00  0.61731413394E+02  0.11430708879E+04  0.11414027717E+04 0.  0.
        5    1    3    3  502    0  0.10764303589E+03 -0.15718053950E+03 -0.50786586419E+03  0.54244130667E+03  0.46999998093E+01 0. -1.
       -5    1    3    3    0  502 -0.10764303589E+03  0.15718053950E+03  0.56959727758E+03  0.60062958119E+03  0.46999998093E+01 0.  1.
</event>
<event>
 5   0  0.3992414E-03  0.1103301E+04  0.7818609E-02  0.9201981E-01
       -2   -1    0    0    0  501  0.00000000000E+00  0.00000000000E+00  0.11749130181E+03  0.11749130184E+03  0.25500000920E-02 0.  1.
        2   -1    0    0  501    0  0.00000000000E+00  0.00000000000E+00 -0.25901322844E+04  0.25901322844E+04  0.25500000920E-02 0. -1.
    10030    2    1    2    0    0  0.00000000000E+00  0.00000000000E+00 -0.24726409826E+04  0.27076235863E+04  0.11033005284E+04 0.  0.
        1    1    3    3  502    0 -0.16316469836E+03  0.31332570670E+03 -0.19651128022E+03  0.40424299691E+03  0.50400001928E-02 0.  1.
       -1    1    3    3    0  502  0.16316469836E+03 -0.31332570670E+03 -0.22761297024E+04  0.23033805894E+04  0.50400001928E-02 0. -1.
</event>
<event>
 5   0  0.2255788E-03  0.1071998E+04  0.7818609E-02  0.9232923E-01
       -1   -1    0    0    0  501  0.00000000000E+00  0.00000000000E+00  0.12087303735E+04  0.12087303735E+04  0.50400001928E-02 0. -1.
        1   -1    0    0  501    0  0.00000000000E+00  0.00000000000E+00 -0.23768316961E+03  0.23768316967E+03  0.50400001928E-02 0.  1.
    10030    2    1    2    0    0  0.00000000000E+00  0.00000000000E+00  0.97104720384E+03  0.14464135431E+04  0.10719978851E+04 0.  0.
        3    1    3    3  502    0  0.42804596085E+03  0.27089579745E+03  0.72188449149E+03  0.88188724162E+03  0.10100000352E+00 0. -1.
       -3    1    3    3    0  502 -0.42804596085E+03 -0.27089579745E+03  0.24916271235E+03  0.56452630151E+03  0.10100000352E+00 0.  1.
</event>
<event>
 5   0  0.3713158E-03  0.1138354E+04  0.7818609E-02  0.9168595E-01
       -2   -1    0    0    0  501  0.00000000000E+00  0.00000000000E+00  0.79790357042E+03  0.79790357043E+03  0.25500000920E-02 0. -1.
        2   -1    0    0  501    0  0.00000000000E+00  0.00000000000E+00 -0.40601700198E+03  0.40601700199E+03  0.25500000920E-02 0.  1.
    10030    2    1    2    0    0  0.00000000000E+00  0.00000000000E+00  0.39188656844E+03  0.12039205724E+04  0.11383539266E+04 0.  0.
        4    1    3    3  502    0 -0.70787780549E+02 -0.25894844547E+03  0.72674315994E+03  0.77474024079E+03  0.12699999809E+01 0. -1.
       -4    1    3    3    0  502  0.70787780549E+02  0.25894844547E+03 -0.33485659150E+03  0.42918033163E+03  0.12699999809E+01 0.  1.
</event>
<event>
 5   0  0.3748901E-03  0.1116039E+04  0.7818609E-02  0.9189699E-01
        2   -1    0    0  501    0  0.00000000000E+00  0.00000000000E+00  0.95642264525E+03  0.95642264525E+03  0.25500000920E-02 0. -1.
       -2   -1    0    0    0  501  0.00000000000E+00  0.00000000000E+00 -0.32557341971E+03  0.32557341972E+03  0.25500000920E-02 0.  1.
    10030    2    1    2    0    0  0.00000000000E+00  0.00000000000E+00  0.63084922554E+03  0.12819960650E+04  0.11160390518E+04 0.  0.
        5    1    3    3  502    0 -0.11111162307E+03  0.30254393819E+03  0.83866436420E+03  0.89847572761E+03  0.46999998093E+01 0. -1.
       -5    1    3    3    0  502  0.11111162307E+03 -0.30254393819E+03 -0.20781513866E+03  0.38352033737E+03  0.46999998093E+01 0.  1.
</event>
<event>
 5   0  0.3992414E-03  0.1096084E+04  0.7818609E-02  0.9209017E-01
       -2   -1    0    0    0  501  0.00000000000E+00  0.00000000000E+00  0.79902845034E+03  0.79902845035E+03  0.25500000920E-02 0. -1.
        2   -1    0    0  501    0  0.00000000000E+00  0.00000000000E+00 -0.37589420862E+03  0.37589420863E+03  0.25500000920E-02 0.  1.
    10030    2    1    2    0    0  0.00000000000E+00  0.00000000000E+00  0.42313424172E+03  0.11749226590E+04  0.10960842431E+04 0.  0.
        1    1    3    3  502    0  0.22406522066E+02 -0.51350880332E+03  0.77406990004E+01  0.51405569909E+03  0.50400001928E-02 0.  1.
       -1    1    3    3    0  502 -0.22406522066E+02  0.51350880332E+03  0.41539354272E+03  0.66086695989E+03  0.50400001928E-02 0. -1.
</event>
<event>
 5   0  0.2298958E-03  0.1107860E+04  0.7818609E-02  0.9197565E-01
       -1   -1    0    0    0  501  0.00000000000E+00  0.00000000000E+00  0.51545229402E+03  0.51545229405E+03  0.50400001928E-02 0.  1.
        1   -1    0    0  501    0  0.00000000000E+00  0.00000000000E+00 -0.59527965253E+03  0.59527965255E+03  0.50400001928E-02 0. -1.
    10030    2    1    2    0    0  0.00000000000E+00  0.00000000000E+00 -0.79827358503E+02  0.11107319466E+04  0.11078596707E+04 0.  0.
        1    1    3    3  502    0  0.22240970860E+03 -0.16947449956E+03  0.43950026502E+03  0.52091090165E+03  0.50400001928E-02 0.  1.
       -1    1    3    3    0  502 -0.22240970860E+03  0.16947449956E+03 -0.51932762353E+03  0.58982104495E+03  0.50400001928E-02 0. -1.
</event>
<event>
 5   0  0.1508625E-03  0.1094549E+04  0.7818609E-02  0.9210522E-01
       -4   -1    0    0    0  501  0.00000000000E+00  0.00000000000E+00  0.11335080394E+04  0.11335087509E+04  0.12699999809E+01 0.  1.
        4   -1    0    0  501    0  0.00000000000E+00  0.00000000000E+00 -0.26422970481E+03  0.26423275687E+03  0.12699999809E+01 0. -1.
    10030    2    1    2    0    0  0.00000000000E+00  0.00000000000E+00  0.86927833458E+03  0.13977415077E+04  0.10945485368E+04 0.  0.
        2    1    3    3  502    0 -0.19668512486E+03 -0.17191748368E+03  0.10487546501E+04  0.10807992301E+04  0.25500000920E-02 0.  1.
       -2    1    3    3    0  502  0.19668512486E+03  0.17191748368E+03 -0.17947631554E+03  0.31694227768E+03  0.25500000920E-02 0. -1.
</event>
<event>
 5   0  0.2374100E-03  0.1102294E+04  0.7818609E-02  0.9202959E-01
        1   -1    0    0  501    0  0.00000000000E+00  0.00000000000E+00  0.42531094757E+03  0.42531094760E+03  0.50400001928E-02 0.  1.
       -1   -1    0    0    0  501  0.00000000000E+00  0.00000000000E+00 -0.71421432063E+03  0.71421432065E+03  0.50400001928E-02 0. -1.
    10030    2    1    2    0    0  0.00000000000E+00  0.00000000000E+00 -0.28890337306E+03  0.11395252682E+04  0.11022942792E+04 0.  0.
        2    1    3    3  502    0  0.20307860353E+03 -0.83022775386E+02  0.37822347886E+03  0.43724901419E+03  0.25500000920E-02 0.  1.
       -2    1    3    3    0  502 -0.20307860353E+03  0.83022775386E+02 -0.66712685192E+03  0.70227625405E+03  0.25500000920E-02 0. -1.
</event>
<event>
 5   0  0.3744875E-03  0.1098594E+04  0.7818609E-02  0.9206563E-01
        2   -1    0    0  501    0  0.00000000000E+00  0.00000000000E+00  0.15637324937E+04  0.15637324937E+04  0.25500000920E-02 0.  1.
       -2   -1    0    0    0  501  0.00000000000E+00  0.00000000000E+00 -0.19295321338E+03  0.19295321339E+03  0.25500000920E-02 0. -1.
    10030    2    1    2    0    0  0.00000000000E+00  0.00000000000E+00  0.13707792803E+04  0.17566857071E+04  0.10985940279E+04 0.  0.
        2    1    3    3  502    0 -0.21887068599E+03 -0.10365159140E+03  0.14737607758E+04  0.14935256455E+04  0.25500000920E-02 0.  1.
       -2    1    3    3    0  502  0.21887068599E+03  0.10365159140E+03 -0.10298149547E+03  0.26316006156E+03  0.25500000920E-02 0. -1.
</event>
<event>
 5   0  0.3713158E-03  0.1114277E+04  0.7818609E-02  0.9191388E-01
        2   -1    0    0  501    0  0.00000000000E+00  0.00000000000E+00  0.19353885128E+04  0.19353885128E+04  0.25500000920E-02 0.  1.
       -2   -1    0    0    0  501  0.00000000000E+00  0.00000000000E+00 -0.16038283380E+03  0.16038283382E+03  0.25500000920E-02 0. -1.
    10030    2    1    2    0    0  0.00000000000E+00  0.00000000000E+00  0.17750056790E+04  0.20957713466E+04  0.11142766159E+04 0.  0.
        4    1    3    3  502    0  0.16158569520E+03 -0.32283644794E+03  0.89380696379E+02  0.37191911862E+03  0.12699999809E+01 0. -1.
       -4    1    3    3    0  502 -0.16158569520E+03  0.32283644794E+03  0.16856249826E+04  0.17238522280E+04  0.12699999809E+01 0.  1.
</event>
<event>
 5   0  0.3748901E-03  0.1091342E+04  0.7818609E-02  0.9213672E-01
       -2   -1    0    0    0  501  0.00000000000E+00  0.00000000000E+00  0.50781295589E+03  0.50781295589E+03  0.25500000920E-02 0.  1.
        2   -1    0    0  501    0  0.00000000000E+00  0.00000000000E+00 -0.58635140293E+03  0.58635140294E+03  0.25500000920E-02 0. -1.
    10030    2    1    2    0    0  0.00000000000E+00  0.00000000000E+00 -0.78538447045E+02  0.10941643588E+04  0.10913419979E+04 0.  0.
        5    1    3    3  502    0  0.26673483718E+03 -0.53881920369E+02  0.43490634084E+03  0.51304614804E+03  0.46999998093E+01 0.  1.
       -5    1    3    3    0  502 -0.26673483718E+03  0.53881920369E+02 -0.51344478789E+03  0.58111821080E+03  0.46999998093E+01 0. -1.
</event>
<event>
 5   0  0.2257667E-03  0.1090349E+04  0.7818609E-02  0.9214650E-01
       -1   -1    0    0    0  501  0.00000000000E+00  0.00000000000E+00  0.38244450175E+03  0.38244450178E+03  0.50400001928E-02 0.  1.
        1   -1    0    0  501    0  0.00000000000E+00  0.00000000000E+00 -0.77714562277E+03  0.77714562279E+03  0.50400001928E-02 0. -1.
    10030    2    1    2    0    0  0.00000000000E+00  0.00000000000E+00 -0.39470112103E+03  0.11595901246E+04  0.10903486975E+04 0.  0.
        4    1    3    3  502    0 -0.30766975655E+03 -0.38512764211E+03  0.50309976458E+02  0.49549640407E+03  0.12699999809E+01 0.  1.
       -4    1    3    3    0  502  0.30766975655E+03  0.38512764211E+03 -0.44501109749E+03  0.66409372050E+03  0.12699999809E+01 0. -1.
</event>
<event>
 5   0  0.2257667E-03  0.1093926E+04  0.7818609E-02  0.9211132E-01
       -1   -1    0    0    0  501  0.00000000000E+00  0.00000000000E+00  0.70148159034E+03  0.70148159036E+03  0.50400001928E-02 0.  1.
        1   -1    0    0  501    0  0.00000000000E+00  0.00000000000E+00 -0.42648106469E+03  0.42648106471E+03  0.50400001928E-02 0. -1.
    10030    2    1    2    0    0  0.00000000000E+00  0.00000000000E+00  0.27500052566E+03  0.11279626551E+04  0.10939261685E+04 0.  0.
        4    1    3    3  502    0 -0.22888714806E+03 -0.20043983900E+02  0.64930680688E+03  0.68876122873E+03  0.12699999809E+01 0.  1.
       -4    1    3    3    0  502  0.22888714806E+03  0.20043983900E+02 -0.37430628123E+03  0.43920142634E+03  0.12699999809E+01 0. -1.
</event>
<event>
 5   0  0.3744875E-03  0.1086234E+04  0.7818609E-02  0.9218714E-01
        2   -1    0    0  501    0  0.00000000000E+00  0.00000000000E+00  0.25864493242E+04  0.25864493242E+04  0.25500000920E-02 0. -1.
       -2   -1    0    0    0  501  0.00000000000E+00  0.00000000000E+00 -0.11404666872E+03  0.11404666875E+03  0.25500000920E-02 0.  1.
    10030    2    1    2    0    0  0.00000000000E+00  0.00000000000E+00  0.24724026555E+04  0.27004959930E+04  0.10862337304E+04 0.  0.
        2    1    3    3  502    0 -0.11710485803E+03  0.52763229879E+03  0.11030948584E+04  0.12283841651E+04  0.25500000920E-02 0.  1.
       -2    1    3    3    0  502  0.11710485803E+03 -0.52763229879E+03  0.13693077971E+04  0.14721118278E+04  0.25500000920E-02 0. -1.
</event>
<event>
 5   0  0.3992414E-03  0.1122761E+04  0.7818609E-02  0.9183287E-01
        2   -1    0    0  501    0  0.00000000000E+00  0.00000000000E+00  0.18776765896E+04  0.18776765896E+04  0.25500000920E-02 0. -1.
       -2   -1    0    0    0  501  0.00000000000E+00  0.00000000000E+00 -0.16783936279E+03  0.16783936281E+03  0.25500000920E-02 0.  1.
    10030    2    1    2    0    0  0.00000000000E+00  0.00000000000E+00  0.17098372268E+04  0.20455159524E+04  0.11227609582E+04 0.  0.
        1    1    3    3  502    0 -0.11834964635E+03  0.33678217870E+03  0.16442690948E+04  0.16825723553E+04  0.50400001928E-02 0. -1.
       -1    1    3    3    0  502  0.11834964635E+03 -0.33678217870E+03  0.65568131929E+02  0.36294359703E+03  0.50400001928E-02 0.  1.
</event>
<event>
 5   0  0.3713158E-03  0.1102994E+04  0.7818609E-02  0.9202279E-01
       -2   -1    0    0    0  501  0.00000000000E+00  0.00000000000E+00  0.14595714435E+03  0.14595714437E+03  0.25500000920E-02 0.  1.
        2   -1    0    0  501    0  0.00000000000E+00  0.00000000000E+00 -0.20838230511E+04  0.20838230511E+04  0.25500000920E-02 0. -1.
    10030    2    1    2    0    0  0.00000000000E+00  0.00000000000E+00 -0.19378659067E+04  0.22297801954E+04  0.11029938565E+04 0.  0.
        4    1    3    3  502    0  0.43274540748E+03  0.31084671852E+03 -0.68123722396E+03  0.86485839206E+03  0.12699999809E+01 0.  1.
       -4    1    3    3    0  502 -0.43274540748E+03 -0.31084671852E+03 -0.12566286828E+04  0.13649218034E+04  0.12699999809E+01 0. -1.
</event>
<event>
 5   0  0.1508625E-03  0.1062586E+04  0.7818609E-02  0.9242445E-01
        4   -1    0    0  501    0  0.00000000000E+00  0.00000000000E+00  0.45215485618E+03  0.45215663974E+03  0.12699999809E+01 0. -1.
       -4   -1    0    0    0  501  0.00000000000E+00  0.00000000000E+00 -0.62427888583E+03  0.62428017764E+03  0.12699999809E+01 0.  1.
    10030    2    1    2    0    0  0.00000000000E+00  0.00000000000E+00 -0.17212402965E+03  0.10764368174E+04  0.10625862507E+04 0.  0.
        5    1    3    3  502    0 -0.33698063259E+03 -0.20770974300E+03  0.27288839913E+03  0.48082164308E+03  0.46999998093E+01 0. -1.
       -5    1    3    3    0  502  0.33698063259E+03  0.20770974300E+03 -0.44501242879E+03  0.59561517430E+03  0.46999998093E+01 0.  1.
</event>
<event>
 5   0  0.3748901E-03  0.1088920E+04  0.7818609E-02  0.9216059E-01
        2   -1    0    0  501    0  0.00000000000E+00  0.00000000000E+00  0.89699448061E+03  0.89699448061E+03  0.25500000920E-02 0.  1.
       -2   -1    0    0    0  501  0.00000000000E+00  0.00000000000E+00 -0.33047798837E+03  0.33047798838E+03  0.25500000920E-02 0. -1.
    10030    2    1    2    0    0  0.00000000000E+00  0.00000000000E+00  0.56651649224E+03  0.12274724690E+04  0.10889204407E+04 0.  0.
        5    1    3    3  502    0  0.18087990989E+03  0.24780614378E+03  0.79025150972E+03  0.84772929954E+03  0.46999998093E+01 0.  1.
       -5    1    3    3    0  502 -0.18087990989E+03 -0.24780614378E+03 -0.22373501748E+03  0.37974316944E+03  0.46999998093E+01 0. -1.
</event>
<event>
 5   0  0.2257667E-03  0.1095462E+04  0.7818609E-02  0.9209626E-01
        1   -1    0    0  501    0  0.00000000000E+00  0.00000000000E+00  0.85155695841E+03  0.85155695843E+03  0.50400001928E-02 0.  1.
       -1   -1    0    0    0  501  0.00000000000E+00  0.00000000000E+00 -0.35230669072E+03  0.35230669076E+03  0.50400001928E-02 0. -1.
    10030    2    1    2    0    0  0.00000000000E+00  0.00000000000E+00  0.49925026769E+03  0.12038636492E+04  0.10954619373E+04 0.  0.
        4    1    3    3  502    0 -0.32019223771E+03 -0.44385057535E+03  0.27373208393E+03  0.61192913724E+03  0.12699999809E+01 0. -1.
       -4    1    3    3    0  502  0.32019223771E+03  0.44385057535E+03  0.22551818376E+03  0.59193451195E+03  0.12699999809E+01 0.  1.
</event>
<event>
 5   0  0.2298958E-03  0.1101800E+04  0.7818609E-02  0.9203440E-01
       -1   -1    0    0    0  501  0.00000000000E+00  0.00000000000E+00  0.53260496388E+03  0.53260496390E+03  0.50400001928E-02 0. -1.
        1   -1    0    0  501    0  0.00000000000E+00  0.00000000000E+00 -0.56982319463E+03  0.56982319465E+03  0.50400001928E-02 0.  1.
    10030    2    1    2    0    0  0.00000000000E+00  0.00000000000E+00 -0.37218230754E+02  0.11024281586E+04  0.11017997314E+04 0.  0.
        1    1    3    3  502    0 -0.56446907184E+02  0.12574140541E+03  0.51507443321E+03  0.53319679869E+03  0.50400001928E-02 0. -1.
       -1    1    3    3    0  502  0.56446907184E+02 -0.12574140541E+03 -0.55229266396E+03  0.56923135986E+03  0.50400001928E-02 0.  1.
</event>
<event>
 5   0  0.2298958E-03  0.1103042E+04  0.7818609E-02  0.9202232E-01
        1   -1    0    0  501    0  0.00000000000E+00  0.00000000000E+00  0.12021531863E+04  0.12021531863E+04  0.50400001928E-02 0.  1.
       -1   -1    0    0    0  501  0.00000000000E+00  0.00000000000E+00 -0.25302569338E+03  0.25302569343E+03  0.50400001928E-02 0. -1.
    10030    2    1    2    0    0  0.00000000000E+00  0.00000000000E+00  0.94912749287E+03  0.14551788797E+04  0.11030424172E+04 0.  0.
        1    1    3    3  502    0 -0.13762710563E+02  0.44986124424E+03  0.89509156393E+03  0.10018749718E+04  0.50400001928E-02 0.  1.
       -1    1    3    3    0  502  0.13762710563E+02 -0.44986124424E+03  0.54035928934E+02  0.45330390789E+03  0.50400001928E-02 0. -1.
</event>
<event>
 5   0  0.1508625E-03  0.1109252E+04  0.7818609E-02  0.9196221E-01
       -4   -1    0    0    0  501  0.00000000000E+00  0.00000000000E+00  0.18920555372E+03  0.18920981597E+03  0.12699999809E+01 0.  1.
        4   -1    0    0  501    0  0.00000000000E+00  0.00000000000E+00 -0.16257744413E+04  0.16257749374E+04  0.12699999809E+01 0. -1.
    10030    2    1    2    0    0  0.00000000000E+00  0.00000000000E+00 -0.14365688876E+04  0.18149847533E+04  0.11092517685E+04 0.  0.
        3    1    3    3  502    0  0.20936854261E+03 -0.32601307552E+03 -0.68948343278E+02  0.39353982808E+03  0.10100000352E+00 0.  1.
       -3    1    3    3    0  502 -0.20936854261E+03  0.32601307552E+03 -0.13676205443E+04  0.14214449252E+04  0.10100000352E+00 0. -1.
</event>
<event>
 5   0  0.1508625E-03  0.1097227E+04  0.7818609E-02  0.9207899E-01
       -3   -1    0    0    0  501  0.00000000000E+00  0.00000000000E+00  0.65047381645E+03  0.65047382429E+03  0.10100000352E+00 0.  1.
        3   -1    0    0  501    0  0.00000000000E+00  0.00000000000E+00 -0.46270366886E+03  0.46270367988E+03  0.10100000352E+00 0. -1.
    10030    2    1    2    0    0  0.00000000000E+00  0.00000000000E+00  0.18777014760E+03  0.11131775042E+04  0.10972267439E+04 0.  0.
        5    1    3    3  502    0  0.38876022617E+03  0.20605993563E+03 -0.23853553126E+03  0.50051623370E+03  0.46999998093E+01 0. -1.
       -5    1    3    3    0  502 -0.38876022617E+03 -0.20605993563E+03  0.42630567885E+03  0.61266127048E+03  0.46999998093E+01 0.  1.
</event>
<event>
 5   0  0.2298958E-03  0.9960442E+03  0.7818609E-02  0.9312894E-01
       -1   -1    0    0    0  501  0.00000000000E+00  0.00000000000E+00  0.11005774189E+04  0.11005774189E+04  0.50400001928E-02 0. -1.
        1   -1    0    0  501    0  0.00000000000E+00  0.00000000000E+00 -0.22535989195E+03  0.22535989200E+03  0.50400001928E-02 0.  1.
    10030    2    1    2    0    0  0.00000000000E+00  0.00000000000E+00  0.87521752697E+03  0.13259373109E+04  0.99604419229E+03 0.  0.
        1    1    3    3  502    0 -0.16899789031E+03 -0.35610229755E+03  0.84282161273E+03  0.93043936082E+03  0.50400001928E-02 0. -1.
       -1    1    3    3    0  502  0.16899789031E+03  0.35610229755E+03  0.32395914232E+02  0.39549795010E+03  0.50400001928E-02 0.  1.
</event>
<event>
 5   0  0.3992414E-03  0.1081310E+04  0.7818609E-02  0.9223602E-01
        2   -1    0    0  501    0  0.00000000000E+00  0.00000000000E+00  0.19992006491E+04  0.19992006491E+04  0.25500000920E-02 0.  1.
       -2   -1    0    0    0  501  0.00000000000E+00  0.00000000000E+00 -0.14621229650E+03  0.14621229652E+03  0.25500000920E-02 0. -1.
    10030    2    1    2    0    0  0.00000000000E+00  0.00000000000E+00  0.18529883526E+04  0.21454129456E+04  0.10813097948E+04 0.  0.
        1    1    3    3  502    0  0.34879747383E+03  0.17440800780E+03  0.18350745493E+03  0.43099050683E+03  0.50400001928E-02 0. -1.
       -1    1    3    3    0  502 -0.34879747383E+03 -0.17440800780E+03  0.16694808977E+04  0.17144224388E+04  0.50400001928E-02 0.  1.
</event>
<event>
 5   0  0.2255788E-03  0.1139533E+04  0.7818609E-02  0.9167494E-01
       -1   -1    0    0    0  501  0.00000000000E+00  0.00000000000E+00  0.81289760722E+03  0.81289760724E+03  0.50400001928E-02 0. -1.
        1   -1    0    0  501    0  0.00000000000E+00  0.00000000000E+00 -0.39935410937E+03  0.39935410940E+03  0.50400001928E-02 0.  1.
    10030    2    1    2    0    0  0.00000000000E+00  0.00000000000E+00  0.41354349785E+03  0.12122517166E+04  0.11395332377E+04 0.  0.
        3    1    3    3  502    0  0.50370671432E+03 -0.21973075248E+03  0.36681104285E+03  0.66072112801E+03  0.10100000352E+00 0. -1.
       -3    1    3    3    0  502 -0.50370671432E+03  0.21973075248E+03  0.46732455006E+02  0.55153058863E+03  0.10100000352E+00 0.  1.
</event>
<event>
 5   0  0.3713158E-03  0.1106991E+04  0.7818609E-02  0.9198404E-01
       -2   -1    0    0    0  501  0.00000000000E+00  0.00000000000E+00  0.19527377165E+03  0.19527377167E+03  0.25500000920E-02 0.  1.
        2   -1    0    0  501    0  0.00000000000E+00  0.00000000000E+00 -0.15688615759E+04  0.15688615759E+04  0.25500000920E-02 0. -1.
    10030    2    1    2    0    0  0.00000000000E+00  0.00000000000E+00 -0.13735878042E+04  0.17641353475E+04  0.11069914492E+04 0.  0.
        4    1    3    3  502    0  0.10319167496E+03 -0.54288064425E+03 -0.63670245345E+03  0.84306556258E+03  0.12699999809E+01 0.  1.
       -4    1    3    3    0  502 -0.10319167496E+03  0.54288064425E+03 -0.73688535077E+03  0.92106978496E+03  0.12699999809E+01 0. -1.
</event>
<event>
 5   0  0.3962999E-03  0.1098581E+04  0.7818609E-02  0.9206576E-01
        2   -1    0    0  501    0  0.00000000000E+00  0.00000000000E+00  0.20529061874E+04  0.20529061874E+04  0.25500000920E-02 0. -1.
       -2   -1    0    0    0  501  0.00000000000E+00  0.00000000000E+00 -0.14697222017E+03  0.14697222019E+03  0.25500000920E-02 0.  1.
    10030    2    1    2    0    0  0.00000000000E+00  0.00000000000E+00  0.19059339672E+04  0.21998784076E+04  0.10985812308E+04 0.  0.
        3    1    3    3  502    0  0.71278007756E+02  0.41274132246E+03  0.16645753393E+04  0.17164635225E+04  0.10100000352E+00 0. -1.
       -3    1    3    3    0  502 -0.71278007756E+02 -0.41274132246E+03  0.24135862793E+03  0.48341488510E+03  0.10100000352E+00 0.  1.
</event>
<event>
 5   0  0.3744875E-03  0.1096093E+04  0.7818609E-02  0.9209009E-01
        2   -1    0    0  501    0  0.00000000000E+00  0.00000000000E+00  0.69863990678E+03  0.69863990678E+03  0.25500000920E-02 0. -1.
       -2   -1    0    0    0  501  0.00000000000E+00  0.00000000000E+00 -0.42991347102E+03  0.42991347103E+03  0.25500000920E-02 0.  1.
    10030    2    1    2    0    0  0.00000000000E+00  0.00000000000E+00  0.26872643576E+03  0.11285533778E+04  0.10960925277E+04 0.  0.
        2    1    3    3  502    0  0.51367437940E+01  0.98492419869E+02 -0.42070107353E+03  0.43210708879E+03  0.25500000920E-02 0.  1.
       -2    1    3    3    0  502 -0.51367437940E+01 -0.98492419869E+02  0.68942750929E+03  0.69644628901E+03  0.25500000920E-02 0. -1.
</event>
<event>
 5   0  0.2300702E-03  0.1102056E+04  0.7818609E-02  0.9203191E-01
       -1   -1    0    0    0  501  0.00000000000E+00  0.00000000000E+00  0.82246425166E+03  0.82246425167E+03  0.50400001928E-02 0.  1.
        1   -1    0    0  501    0  0.00000000000E+00  0.00000000000E+00 -0.36917315676E+03  0.36917315679E+03  0.50400001928E-02 0. -1.
    10030    2    1    2    0    0  0.00000000000E+00  0.00000000000E+00  0.45329109490E+03  0.11916374085E+04  0.11020557593E+04 0.  0.
        5    1    3    3  502    0  0.25795515299E+03 -0.47953556653E+03  0.13544233934E+03  0.56112559896E+03  0.46999998093E+01 0. -1.
       -5    1    3    3    0  502 -0.25795515299E+03  0.47953556653E+03  0.31784875555E+03  0.63051180951E+03  0.46999998093E+01 0.  1.
</event>
<event>
 5   0  0.2298958E-03  0.1076099E+04  0.7818609E-02  0.9228806E-01
        1   -1    0    0  501    0  0.00000000000E+00  0.00000000000E+00  0.71222142181E+03  0.71222142183E+03  0.50400001928E-02 0.  1.
       -1   -1    0    0    0  501  0.00000000000E+00  0.00000000000E+00 -0.40647063623E+03  0.40647063626E+03  0.50400001928E-02 0. -1.
    10030    2    1    2    0    0  0.00000000000E+00  0.00000000000E+00  0.30575078558E+03  0.11186920581E+04  0.10760986841E+04 0.  0.
        1    1    3    3  502    0 -0.35399917851E+03  0.16783370197E+03 -0.23052230610E+03  0.45455924095E+03  0.50400001928E-02 0. -1.
       -1    1    3    3    0  502  0.35399917851E+03 -0.16783370197E+03  0.53627309169E+03  0.66413281713E+03  0.50400001928E-02 0.  1.
</event>
<event>
 5   0  0.3713158E-03  0.1104558E+04  0.7818609E-02  0.9200761E-01
       -2   -1    0    0    0  501  0.00000000000E+00  0.00000000000E+00  0.25491515687E+03  0.25491515688E+03  0.25500000920E-02 0. -1.
        2   -1    0    0  501    0  0.00000000000E+00  0.00000000000E+00 -0.11965243690E+04  0.11965243690E+04  0.25500000920E-02 0.  1.
    10030    2    1    2    0    0  0.00000000000E+00  0.00000000000E+00 -0.94160921209E+03  0.14514395258E+04  0.11045581872E+04 0.  0.
        4    1    3    3  502    0 -0.24052845421E+03  0.45749946784E+03 -0.72645611463E+03  0.89157153372E+03  0.12699999809E+01 0.  1.
       -4    1    3    3    0  502  0.24052845421E+03 -0.45749946784E+03 -0.21515309746E+03  0.55986799212E+03  0.12699999809E+01 0. -1.
</event>
<event>
 5   0  0.3713158E-03  0.1107564E+04  0.7818609E-02  0.9197851E-01
        2   -1    0    0  501    0  0.00000000000E+00  0.00000000000E+00  0.11098398319E+04  0.11098398319E+04  0.25500000920E-02 0. -1.
       -2   -1    0    0    0  501  0.00000000000E+00  0.00000000000E+00 -0.27632307096E+03  0.27632307098E+03  0.25500000920E-02 0.  1.
    10030    2    1    2    0    0  0.00000000000E+00  0.00000000000E+00  0.83351676089E+03  0.13861629028E+04  0.11075637239E+04 0.  0.
        4    1    3    3  502    0  0.32142416481E+02  0.11439663138E+03  0.10936947330E+04  0.11001315859E+04  0.12699999809E+01 0. -1.
       -4    1    3    3    0  502 -0.32142416481E+02 -0.11439663138E+03 -0.26017797214E+03  0.28603131699E+03  0.12699999809E+01 0.  1.
</event>
<event>
 5   0  0.3748901E-03  0.1063448E+04  0.7818609E-02  0.9241569E-01
       -2   -1    0    0    0  501  0.00000000000E+00  0.00000000000E+00  0.55767999743E+03  0.55767999743E+03  0.25500000920E-02 0.  1.
        2   -1    0    0  501    0  0.00000000000E+00  0.00000000000E+00 -0.50697632192E+03  0.50697632192E+03  0.25500000920E-02 0. -1.
    10030    2    1    2    0    0  0.00000000000E+00  0.00000000000E+00  0.50703675509E+02  0.10646563194E+04  0.10634482666E+04 0.  0.
        5    1    3    3  502    0  0.17392393360E+03 -0.20155213721E+01  0.52837147807E+03  0.55628419521E+03  0.46999998093E+01 0.  1.
       -5    1    3    3    0  502 -0.17392393360E+03  0.20155213721E+01 -0.47766780256E+03  0.50837212414E+03  0.46999998093E+01 0. -1.
</event>
<event>
 5   0  0.3962999E-03  0.1101143E+04  0.7818609E-02  0.9204079E-01
        2   -1    0    0  501    0  0.00000000000E+00  0.00000000000E+00  0.69710816676E+03  0.69710816677E+03  0.25500000920E-02 0. -1.
       -2   -1    0    0    0  501  0.00000000000E+00  0.00000000000E+00 -0.43483771302E+03  0.43483771303E+03  0.25500000920E-02 0.  1.
    10030    2    1    2    0    0  0.00000000000E+00  0.00000000000E+00  0.26227045374E+03  0.11319458798E+04  0.11011428989E+04 0.  0.
        3    1    3    3  502    0  0.19977487680E+03  0.50236136740E+03  0.24048365234E+02  0.54116104713E+03  0.10100000352E+00 0.  1.
       -3    1    3    3    0  502 -0.19977487680E+03 -0.50236136740E+03  0.23822208851E+03  0.59078483267E+03  0.10100000352E+00 0. -1.
</event>
<event>
 5   0  0.3713158E-03  0.1128513E+04  0.7818609E-02  0.9177839E-01
       -2   -1    0    0    0  501  0.00000000000E+00  0.00000000000E+00  0.18222209259E+03  0.18222209260E+03  0.25500000920E-02 0. -1.
        2   -1    0    0  501    0  0.00000000000E+00  0.00000000000E+00 -0.17472368032E+04  0.17472368032E+04  0.25500000920E-02 0.  1.
    10030    2    1    2    0    0  0.00000000000E+00  0.00000000000E+00 -0.15650147106E+04  0.19294588958E+04  0.11285125547E+04 0.  0.
        4    1    3    3  502    0 -0.34414865635E+03 -0.11666085056E+03 -0.15205422849E+04  0.15633612842E+04  0.12699999809E+01 0.  1.
       -4    1    3    3    0  502  0.34414865635E+03  0.11666085056E+03 -0.44472425728E+02  0.36609761167E+03  0.12699999809E+01 0. -1.
</event>
<event>
 5   0  0.2300702E-03  0.1098065E+04  0.7818609E-02  0.9207080E-01
       -1   -1    0    0    0  501  0.00000000000E+00  0.00000000000E+00  0.40352609747E+03  0.40352609750E+03  0.50400001928E-02 0. -1.
        1   -1    0    0  501    0  0.00000000000E+00  0.00000000000E+00 -0.74700608497E+03  0.74700608499E+03  0.50400001928E-02 0.  1.
    10030    2    1    2    0    0  0.00000000000E+00  0.00000000000E+00 -0.34347998750E+03  0.11505321825E+04  0.10980645706E+04 0.  0.
        5    1    3    3  502    0  0.35570174134E+03 -0.37788341562E+03  0.15970230754E+02  0.51922706291E+03  0.46999998093E+01 0.  1.
       -5    1    3    3    0  502 -0.35570174134E+03  0.37788341562E+03 -0.35945021826E+03  0.63130511957E+03  0.46999998093E+01 0. -1.
</event>
<event>
 5   0  0.2374100E-03  0.1095267E+04  0.7818609E-02  0.9209817E-01
        1   -1    0    0  501    0  0.00000000000E+00  0.00000000000E+00  0.17736379388E+04  0.17736379388E+04  0.50400001928E-02 0.  1.
       -1   -1    0    0    0  501  0.00000000000E+00  0.00000000000E+00 -0.16908887539E+03  0.16908887547E+03  0.50400001928E-02 0. -1.
    10030    2    1    2    0    0  0.00000000000E+00  0.00000000000E+00  0.16045490634E+04  0.19427268143E+04  0.10952669894E+04 0.  0.
        2    1    3    3  502    0  0.20680903894E+03  0.34054904233E+03  0.14686910281E+04  0.15217742818E+04  0.25500000920E-02 0.  1.
       -2    1    3    3    0  502 -0.20680903894E+03 -0.34054904233E+03  0.13585803534E+03  0.42095253247E+03  0.25500000920E-02 0. -1.
</event>
<event>
 5   0  0.1508625E-03  0.1110822E+04  0.7818609E-02  0.9194708E-01
       -3   -1    0    0    0  501  0.00000000000E+00  0.00000000000E+00  0.13671566894E+03  0.13671570625E+03  0.10100000352E+00 0.  1.
        3   -1    0    0  501    0  0.00000000000E+00  0.00000000000E+00 -0.22563709684E+04  0.22563709707E+04  0.10100000352E+00 0. -1.
    10030    2    1    2    0    0  0.00000000000E+00  0.00000000000E+00 -0.21196552995E+04  0.23930866769E+04  0.11108218825E+04 0.  0.
        3    1    3    3  502    0 -0.87768065314E+02 -0.37968923739E+03 -0.20725871182E+03  0.44138796325E+03  0.10100000352E+00 0.  1.
       -3    1    3    3    0  502  0.87768065314E+02  0.37968923739E+03 -0.19123965876E+04  0.19516987137E+04  0.10100000352E+00 0. -1.
</event>
<event>
 5   0  0.3713158E-03  0.9847290E+03  0.7818609E-02  0.9325454E-01
        2   -1    0    0  501    0  0.00000000000E+00  0.00000000000E+00  0.89488137408E+03  0.89488137408E+03  0.25500000920E-02 0. -1.
       -2   -1    0    0    0  501  0.00000000000E+00  0.00000000000E+00 -0.27089934328E+03  0.27089934329E+03  0.25500000920E-02 0.  1.
    10030    2    1    2    0    0  0.00000000000E+00  0.00000000000E+00  0.62398203080E+03  0.11657807174E+04  0.98472895065E+03 0.  0.
        4    1    3    3  502    0 -0.19190355879E+02 -0.36026508796E+03  0.70864924773E+03  0.79520096363E+03  0.12699999809E+01 0. -1.
       -4    1    3    3    0  502  0.19190355879E+02  0.36026508796E+03 -0.84667216929E+02  0.37057975374E+03  0.12699999809E+01 0.  1.
</event>
<event>
 5   0  0.3962999E-03  0.1101232E+04  0.7818609E-02  0.9203992E-01
       -2   -1    0    0    0  501  0.00000000000E+00  0.00000000000E+00  0.17828765577E+03  0.17828765579E+03  0.25500000920E-02 0. -1.
        2   -1    0    0  501    0  0.00000000000E+00  0.00000000000E+00 -0.17004994897E+04  0.17004994897E+04  0.25500000920E-02 0.  1.
    10030    2    1    2    0    0  0.00000000000E+00  0.00000000000E+00 -0.15222118340E+04  0.18787871455E+04  0.11012321602E+04 0.  0.
        3    1    3    3  502    0 -0.16029967572E+03  0.50426214271E+03 -0.10209777358E+04  0.11499442777E+04  0.10100000352E+00 0.  1.
       -3    1    3    3    0  502  0.16029967572E+03 -0.50426214271E+03 -0.50123409816E+03  0.72884286782E+03  0.10100000352E+00 0. -1.
</event>
<event>
 5   0  0.2300702E-03  0.1067231E+04  0.7818609E-02  0.9237733E-01
       -1   -1    0    0    0  501  0.00000000000E+00  0.00000000000E+00  0.10879966513E+04  0.10879966513E+04  0.50400001928E-02 0. -1.
        1   -1    0    0  501    0  0.00000000000E+00  0.00000000000E+00 -0.26171543173E+03  0.26171543178E+03  0.50400001928E-02 0.  1.
    10030    2    1    2    0    0  0.00000000000E+00  0.00000000000E+00  0.82628121960E+03  0.13497120831E+04  0.10672310216E+04 0.  0.
        5    1    3    3  502    0  0.11860637969E+03  0.23914334447E+02 -0.24411177072E+03  0.27249222979E+03  0.46999998093E+01 0.  1.
       -5    1    3    3    0  502 -0.11860637969E+03 -0.23914334447E+02  0.10703929903E+04  0.10772198533E+04  0.46999998093E+01 0. -1.
</event>
<event>
 5   0  0.3744875E-03  0.1102393E+04  0.7818609E-02  0.9202863E-01
       -2   -1    0    0    0  501  0.00000000000E+00  0.00000000000E+00  0.48499157203E+03  0.48499157203E+03  0.25500000920E-02 0.  1.
        2   -1    0    0  501    0  0.00000000000E+00  0.00000000000E+00 -0.62643881708E+03  0.62643881708E+03  0.25500000920E-02 0. -1.
    10030    2    1    2    0    0  0.00000000000E+00  0.00000000000E+00 -0.14144724505E+03  0.11114303891E+04  0.11023929366E+04 0.  0.
        2    1    3    3  502    0 -0.31783861347E+03  0.44839293129E+03 -0.11277819145E+03  0.56106730925E+03  0.25500000920E-02 0. -1.
       -2    1    3    3    0  502  0.31783861347E+03 -0.44839293129E+03 -0.28669053606E+02  0.55036307987E+03  0.25500000920E-02 0.  1.
</event>
<event>
 5   0  0.3713158E-03  0.1097691E+04  0.7818609E-02  0.9207446E-01
       -2   -1    0    0    0  501  0.00000000000E+00  0.00000000000E+00  0.35866960171E+03  0.35866960172E+03  0.25500000920E-02 0. -1.
        2   -1    0    0  501    0  0.00000000000E+00  0.00000000000E+00 -0.83985700586E+03  0.83985700587E+03  0.25500000920E-02 0.  1.
    10030    2    1    2    0    0  0.00000000000E+00  0.00000000000E+00 -0.48118740415E+03  0.11985266076E+04  0.10976906264E+04 0.  0.
        4    1    3    3  502    0  0.51368819505E+03 -0.96531581525E+02 -0.42341344452E+03  0.67266222272E+03  0.12699999809E+01 0.  1.
       -4    1    3    3    0  502 -0.51368819505E+03  0.96531581525E+02 -0.57773959629E+02  0.52586438487E+03  0.12699999809E+01 0. -1.
</event>
<event>
 5   0  0.2298958E-03  0.1084107E+04  0.7818609E-02  0.9220822E-01
       -1   -1    0    0    0  501  0.00000000000E+00  0.00000000000E+00  0.67653122470E+03  0.67653122472E+03  0.50400001928E-02 0. -1.
        1   -1    0    0  501    0  0.00000000000E+00  0.00000000000E+00 -0.43430664448E+03  0.43430664451E+03  0.50400001928E-02 0.  1.
    10030    2    1    2    0    0  0.00000000000E+00  0.00000000000E+00  0.24222458022E+03  0.11108378692E+04  0.10841070171E+04 0.  0.
        1    1    3    3  502    0 -0.17660570915E+03 -0.12511129361E+03 -0.38811193650E+03  0.44437966602E+03  0.50400001928E-02 0.  1.
       -1    1    3    3    0  502  0.17660570915E+03  0.12511129361E+03  0.63033651671E+03  0.66645820321E+03  0.50400001928E-02 0. -1.
</event>
<event>
 5   0  0.3744875E-03  0.1099193E+04  0.7818609E-02  0.9205979E-01
        2   -1    0    0  501    0  0.00000000000E+00  0.00000000000E+00  0.12072387662E+04  0.12072387662E+04  0.25500000920E-02 0.  1.
       -2   -1    0    0    0  501  0.00000000000E+00  0.00000000000E+00 -0.25020416933E+03  0.25020416934E+03  0.25500000920E-02 0. -1.
    10030    2    1    2    0    0  0.00000000000E+00  0.00000000000E+00  0.95703459688E+03  0.14574429355E+04  0.10991927450E+04 0.  0.
        2    1    3    3  502    0 -0.19946940012E+03  0.10649326509E+03  0.11427062950E+04  0.11648633112E+04  0.25500000920E-02 0.  1.
       -2    1    3    3    0  502  0.19946940012E+03 -0.10649326509E+03 -0.18567169813E+03  0.29257962436E+03  0.25500000920E-02 0. -1.
</event>
<event>
 5   0  0.2300702E-03  0.1088375E+04  0.7818609E-02  0.9216597E-01
        1   -1    0    0  501    0  0.00000000000E+00  0.00000000000E+00  0.17204225460E+04  0.17204225460E+04  0.50400001928E-02 0.  1.
       -1   -1    0    0    0  501  0.00000000000E+00  0.00000000000E+00 -0.17213216234E+03  0.17213216241E+03  0.50400001928E-02 0. -1.
    10030    2    1    2    0    0  0.00000000000E+00  0.00000000000E+00  0.15482903836E+04  0.18925547084E+04  0.10883750329E+04 0.  0.
        5    1    3    3  502    0 -0.15756300258E+03  0.24270077503E+03  0.15755188471E+04  0.16018774901E+04  0.46999998093E+01 0.  1.
       -5    1    3    3    0  502  0.15756300258E+03 -0.24270077503E+03 -0.27228463437E+02  0.29067721824E+03  0.46999998093E+01 0. -1.
</event>
<event>
 5   0  0.1508625E-03  0.1097049E+04  0.7818609E-02  0.9208072E-01
       -3   -1    0    0    0  501  0.00000000000E+00  0.00000000000E+00  0.99544143155E+03  0.99544143667E+03  0.10100000352E+00 0. -1.
        3   -1    0    0  501    0  0.00000000000E+00  0.00000000000E+00 -0.30225722065E+03  0.30225723753E+03  0.10100000352E+00 0.  1.
    10030    2    1    2    0    0  0.00000000000E+00  0.00000000000E+00  0.69318421090E+03  0.12976986742E+04  0.10970494514E+04 0.  0.
        1    1    3    3  502    0  0.15377683062E+03 -0.45574777724E+03  0.34687810426E+02  0.48224122004E+03  0.50400001928E-02 0.  1.
       -1    1    3    3    0  502 -0.15377683062E+03  0.45574777724E+03  0.65849640047E+03  0.81545745416E+03  0.50400001928E-02 0. -1.
</event>
<event>
 5   0  0.2298958E-03  0.1098625E+04  0.7818609E-02  0.9206533E-01
        1   -1    0    0  501    0  0.00000000000E+00  0.00000000000E+00  0.47522988344E+03  0.47522988347E+03  0.50400001928E-02 0. -1.
       -1   -1    0    0    0  501  0.00000000000E+00  0.00000000000E+00 -0.63494342642E+03  0.63494342644E+03  0.50400001928E-02 0.  1.
    10030    2    1    2    0    0  0.00000000000E+00  0.00000000000E+00 -0.15971354298E+03  0.11101733099E+04  0.10986247595E+04 0.  0.
        1    1    3    3  502    0  0.35748210111E+03  0.31136542102E+03  0.20055290842E+03  0.51474590540E+03  0.50400001928E-02 0. -1.
       -1    1    3    3    0  502 -0.35748210111E+03 -0.31136542102E+03 -0.36026645140E+03  0.59542740452E+03  0.50400001928E-02 0.  1.
</event>
<event>
 5   0  0.3748901E-03  0.1094955E+04  0.7818609E-02  0.9210123E-01
        2   -1    0    0  501    0  0.00000000000E+00  0.00000000000E+00  0.63409997008E+03  0.63409997008E+03  0.25500000920E-02 0. -1.
       -2   -1    0    0    0  501  0.00000000000E+00  0.00000000000E+00 -0.47268860272E+03  0.47268860273E+03  0.25500000920E-02 0.  1.
    10030    2    1    2    0    0  0.00000000000E+00  0.00000000000E+00  0.16141136736E+03  0.11067885728E+04  0.10949553943E+04 0.  0.
        5    1    3    3  502    0 -0.14671533114E+02  0.38694284044E+03 -0.31047756824E+03  0.49634506750E+03  0.46999998093E+01 0.  1.
       -5    1    3    3    0  502  0.14671533114E+02 -0.38694284044E+03  0.47188893560E+03  0.61044350532E+03  0.46999998093E+01 0. -1.
</event>
<event>
 5   0  0.2300702E-03  0.1093091E+04  0.7818609E-02  0.9211952E-01
        1   -1    0    0  501    0  0.00000000000E+00  0.00000000000E+00  0.62297244712E+03  0.62297244714E+03  0.50400001928E-02 0.  1.
       -1   -1    0    0    0  501  0.00000000000E+00  0.00000000000E+00 -0.47949448029E+03  0.47949448032E+03  0.50400001928E-02 0. -1.
    10030    2    1    2    0    0  0.00000000000E+00  0.00000000000E+00  0.14347796682E+03  0.11024669275E+04  0.10930907552E+04 0.  0.
        5    1    3    3  502    0 -0.50468489801E+03  0.17971830000E+03  0.18075986707E+03  0.56542173037E+03  0.46999998093E+01 0.  1.
       -5    1    3    3    0  502  0.50468489801E+03 -0.17971830000E+03 -0.37281900248E+02  0.53704519709E+03  0.46999998093E+01 0. -1.
</event>
<event>
 5   0  0.3962999E-03  0.1109624E+04  0.7818609E-02  0.9195862E-01
        2   -1    0    0  501    0  0.00000000000E+00  0.00000000000E+00  0.20679055252E+04  0.20679055252E+04  0.25500000920E-02 0. -1.
       -2   -1    0    0    0  501  0.00000000000E+00  0.00000000000E+00 -0.14885412400E+03  0.14885412403E+03  0.25500000920E-02 0.  1.
    10030    2    1    2    0    0  0.00000000000E+00  0.00000000000E+00  0.19190514012E+04  0.22167596492E+04  0.11096238381E+04 0.  0.
        3    1    3    3  502    0  0.41610481456E+03 -0.28706198951E+03  0.50279242695E+03  0.71298529951E+03  0.10100000352E+00 0. -1.
       -3    1    3    3    0  502 -0.41610481456E+03  0.28706198951E+03  0.14162589742E+04  0.15037743497E+04  0.10100000352E+00 0.  1.
</event>
<event>
 5   0  0.2298958E-03  0.9675042E+03  0.7818609E-02  0.9344922E-01
       -1   -1    0    0    0  501  0.00000000000E+00  0.00000000000E+00  0.37552813897E+03  0.37552813901E+03  0.50400001928E-02 0. -1.
        1   -1    0    0  501    0  0.00000000000E+00  0.00000000000E+00 -0.62316527240E+03  0.62316527242E+03  0.50400001928E-02 0.  1.
    10030    2    1    2    0    0  0.00000000000E+00  0.00000000000E+00 -0.24763713343E+03  0.99869341143E+03  0.96750420164E+03 0.  0.
        1    1    3    3  502    0 -0.27943027579E+03  0.22949319982E+03 -0.45553084746E+03  0.58159845323E+03  0.50400001928E-02 0. -1.
       -1    1    3    3    0  502  0.27943027579E+03 -0.22949319982E+03  0.20789371403E+03  0.41709495820E+03  0.50400001928E-02 0.  1.
</event>
<event>
 5   0  0.2255788E-03  0.1109379E+04  0.7818609E-02  0.9196099E-01
        1   -1    0    0  501    0  0.00000000000E+00  0.00000000000E+00  0.33977055581E+03  0.33977055585E+03  0.50400001928E-02 0.  1.
       -1   -1    0    0    0  501  0.00000000000E+00  0.00000000000E+00 -0.90555335001E+03  0.90555335002E+03  0.50400001928E-02 0. -1.
    10030    2    1    2    0    0  0.00000000000E+00  0.00000000000E+00 -0.56578279420E+03  0.12453239059E+04  0.11093788624E+04 0.  0.
        3    1    3    3  502    0  0.41469706755E+03 -0.32963187309E+03 -0.46751289159E+03  0.70654026325E+03  0.10100000352E+00 0.  1.
       -3    1    3    3    0  502 -0.41469706755E+03  0.32963187309E+03 -0.98269902611E+02  0.53878364262E+03  0.10100000352E+00 0. -1.
</event>
<event>
 5   0  0.3962999E-03  0.1105831E+04  0.7818609E-02  0.9199527E-01
        2   -1    0    0  501    0  0.00000000000E+00  0.00000000000E+00  0.18436532520E+04  0.18436532520E+04  0.25500000920E-02 0. -1.
       -2   -1    0    0    0  501  0.00000000000E+00  0.00000000000E+00 -0.16582063500E+03  0.16582063502E+03  0.25500000920E-02 0.  1.
    10030    2    1    2    0    0  0.00000000000E+00  0.00000000000E+00  0.16778326170E+04  0.20094738871E+04  0.11058313669E+04 0.  0.
        3    1    3    3  502    0 -0.23601304299E+03  0.24002093021E+03  0.16359927824E+04  0.16702648286E+04  0.10100000352E+00 0. -1.
       -3    1    3    3    0  502  0.23601304299E+03 -0.24002093021E+03  0.41839834673E+02  0.33920905850E+03  0.10100000352E+00 0.  1.
</event>
<event>
 5   0  0.3748901E-03  0.1147314E+04  0.7818609E-02  0.9160265E-01
        2   -1    0    0  501    0  0.00000000000E+00  0.00000000000E+00  0.11435358918E+04  0.11435358918E+04  0.25500000920E-02 0.  1.
       -2   -1    0    0    0  501  0.00000000000E+00  0.00000000000E+00 -0.28777618176E+03  0.28777618177E+03  0.25500000920E-02 0. -1.
    10030    2    1    2    0    0  0.00000000000E+00  0.00000000000E+00  0.85575971002E+03  0.14313120736E+04  0.11473140680E+04 0.  0.
        5    1    3    3  502    0  0.53747556098E+03 -0.17139480418E+02  0.67703239510E+03  0.86462054941E+03  0.46999998093E+01 0. -1.
       -5    1    3    3    0  502 -0.53747556098E+03  0.17139480418E+02  0.17872731492E+03  0.56669152415E+03  0.46999998093E+01 0.  1.
</event>
<event>
 5   0  0.3748901E-03  0.1099651E+04  0.7818609E-02  0.9205532E-01
       -2   -1    0    0    0  501  0.00000000000E+00  0.00000000000E+00  0.19047128110E+03  0.19047128111E+03  0.25500000920E-02 0.  1.
        2   -1    0    0  501    0  0.00000000000E+00  0.00000000000E+00 -0.15871576305E+04  0.15871576305E+04  0.25500000920E-02 0. -1.
    10030    2    1    2    0    0  0.00000000000E+00  0.00000000000E+00 -0.13966863494E+04  0.17776289116E+04  0.10996507576E+04 0.  0.
        5    1    3    3  502    0 -0.48884116569E+03  0.87115971255E+02 -0.10799662836E+04  0.11886564439E+04  0.46999998093E+01 0. -1.
       -5    1    3    3    0  502  0.48884116569E+03 -0.87115971255E+02 -0.31672006575E+03  0.58897246775E+03  0.46999998093E+01 0.  1.
</event>
<event>
 5   0  0.2257667E-03  0.1103383E+04  0.7818609E-02  0.9201900E-01
        1   -1    0    0  501    0  0.00000000000E+00  0.00000000000E+00  0.61276624218E+03  0.61276624221E+03  0.50400001928E-02 0. -1.
       -1   -1    0    0    0  501  0.00000000000E+00  0.00000000000E+00 -0.49670449761E+03  0.49670449763E+03  0.50400001928E-02 0.  1.
    10030    2    1    2    0    0  0.00000000000E+00  0.00000000000E+00  0.11606174458E+03  0.11094707398E+04  0.11033834302E+04 0.  0.
        4    1    3    3  502    0 -0.47302846528E+03  0.11679901103E+03  0.31823293203E+03  0.58195510985E+03  0.12699999809E+01 0. -1.
       -4    1    3    3    0  502  0.47302846528E+03 -0.11679901103E+03 -0.20217118745E+03  0.52751562999E+03  0.12699999809E+01 0.  1.
</event>
<event>
 5   0  0.2300702E-03  0.1095776E+04  0.7818609E-02  0.9209319E-01
        1   -1    0    0  501    0  0.00000000000E+00  0.00000000000E+00  0.10515988610E+04  0.10515988610E+04  0.50400001928E-02 0.  1.
       -1   -1    0    0    0  501  0.00000000000E+00  0.00000000000E+00 -0.28545232854E+03  0.28545232859E+03  0.50400001928E-02 0. -1.
    10030    2    1    2    0    0  0.00000000000E+00  0.00000000000E+00  0.76614653241E+03  0.13370511895E+04  0.10957761516E+04 0.  0.
        5    1    3    3  502    0 -0.35128677707E+03  0.21649977163E+03  0.82282260269E+03  0.92050729294E+03  0.46999998093E+01 0.  1.
       -5    1    3    3    0  502  0.35128677707E+03 -0.21649977163E+03 -0.56676070281E+02  0.41654389661E+03  0.46999998093E+01 0. -1.
</event>
<event>
 5   0  0.2374100E-03  0.1133821E+04  0.7818609E-02  0.9172840E-01
       -1   -1    0    0    0  501  0.00000000000E+00  0.00000000000E+00  0.14373798231E+03  0.14373798240E+03  0.50400001928E-02 0. -1.
        1   -1    0    0  501    0  0.00000000000E+00  0.00000000000E+00 -0.22359270713E+04  0.22359270713E+04  0.50400001928E-02 0.  1.
    10030    2    1    2    0    0  0.00000000000E+00  0.00000000000E+00 -0.20921890890E+04  0.23796650537E+04  0.11338212310E+04 0.  0.
        2    1    3    3  502    0  0.35891236530E+03  0.40213249254E+03 -0.67740374362E+03  0.86568149997E+03  0.25500000920E-02 0. -1.
       -2    1    3    3    0  502 -0.35891236530E+03 -0.40213249254E+03 -0.14147853454E+04  0.15139835537E+04  0.25500000920E-02 0.  1.
</event>
<event>
 5   0  0.2298958E-03  0.1098404E+04  0.7818609E-02  0.9206749E-01
       -1   -1    0    0    0  501  0.00000000000E+00  0.00000000000E+00  0.50041913500E+03  0.50041913503E+03  0.50400001928E-02 0. -1.
        1   -1    0    0  501    0  0.00000000000E+00  0.00000000000E+00 -0.60274070376E+03  0.60274070378E+03  0.50400001928E-02 0.  1.
    10030    2    1    2    0    0  0.00000000000E+00  0.00000000000E+00 -0.10232156876E+03  0.11031598388E+04  0.10984042637E+04 0.  0.
        1    1    3    3  502    0 -0.28159864161E+03 -0.64955943528E+02 -0.52020086043E+03  0.59508487191E+03  0.50400001928E-02 0.  1.
       -1    1    3    3    0  502  0.28159864161E+03  0.64955943528E+02  0.41787929167E+03  0.50807496690E+03  0.50400001928E-02 0. -1.
</event>
<event>
 5   0  0.1508625E-03  0.1087370E+04  0.7818609E-02  0.9217590E-01
       -3   -1    0    0    0  501  0.00000000000E+00  0.00000000000E+00  0.10758889738E+04  0.10758889786E+04  0.10100000352E+00 0.  1.
        3   -1    0    0  501    0  0.00000000000E+00  0.00000000000E+00 -0.27474344893E+03  0.27474346749E+03  0.10100000352E+00 0. -1.
    10030    2    1    2    0    0  0.00000000000E+00  0.00000000000E+00  0.80114552489E+03  0.13506324461E+04  0.10873701542E+04 0.  0.
        5    1    3    3  502    0 -0.24490244949E+03  0.27837356616E+03  0.89446123844E+03  0.96827271426E+03  0.46999998093E+01 0.  1.
       -5    1    3    3    0  502  0.24490244949E+03 -0.27837356616E+03 -0.93315713550E+02  0.38235973179E+03  0.46999998093E+01 0. -1.
</event>
<event>
 5   0  0.2257667E-03  0.1098325E+04  0.7818609E-02  0.9206826E-01
        1   -1    0    0  501    0  0.00000000000E+00  0.00000000000E+00  0.26996216286E+03  0.26996216291E+03  0.50400001928E-02 0.  1.
       -1   -1    0    0    0  501  0.00000000000E+00  0.00000000000E+00 -0.11171176650E+04  0.11171176650E+04  0.50400001928E-02 0. -1.
    10030    2    1    2    0    0  0.00000000000E+00  0.00000000000E+00 -0.84715550217E+03  0.13870798280E+04  0.10983250904E+04 0.  0.
        4    1    3    3  502    0 -0.31963831008E+03 -0.21013798632E+03 -0.92118663542E+03  0.99745328348E+03  0.12699999809E+01 0. -1.
       -4    1    3    3    0  502  0.31963831008E+03  0.21013798632E+03  0.74031133242E+02  0.38962654447E+03  0.12699999809E+01 0.  1.
</event>
<event>
 5   0  0.3962999E-03  0.1098999E+04  0.7818609E-02  0.9206168E-01
        2   -1    0    0  501    0  0.00000000000E+00  0.00000000000E+00  0.57355334481E+03  0.57355334481E+03  0.25500000920E-02 0. -1.
       -2   -1    0    0    0  501  0.00000000000E+00  0.00000000000E+00 -0.52645449650E+03  0.52645449650E+03  0.25500000920E-02 0.  1.
    10030    2    1    2    0    0  0.00000000000E+00  0.00000000000E+00  0.47098848311E+02  0.11000078413E+04  0.10989990671E+04 0.  0.
        3    1    3    3  502    0  0.38585381445E+03 -0.35829118618E+03 -0.13373802322E+03  0.54326937082E+03  0.10100000352E+00 0. -1.
       -3    1    3    3    0  502 -0.38585381445E+03  0.35829118618E+03  0.18083687153E+03  0.55673847049E+03  0.10100000352E+00 0.  1.
</event>
<event>
 5   0  0.3748901E-03  0.1110607E+04  0.7818609E-02  0.9194915E-01
       -2   -1    0    0    0  501  0.00000000000E+00  0.00000000000E+00  0.26169947755E+03  0.26169947757E+03  0.25500000920E-02 0.  1.
        2   -1    0    0  501    0  0.00000000000E+00  0.00000000000E+00 -0.11783046394E+04  0.11783046394E+04  0.25500000920E-02 0. -1.
    10030    2    1    2    0    0  0.00000000000E+00  0.00000000000E+00 -0.91660516180E+03  0.14400041169E+04  0.11106065163E+04 0.  0.
        5    1    3    3  502    0  0.40596561580E+03 -0.11457756046E+03 -0.92652065430E+03  0.10180366945E+04  0.46999998093E+01 0. -1.
       -5    1    3    3    0  502 -0.40596561580E+03  0.11457756046E+03  0.99154924957E+01  0.42196742239E+03  0.46999998093E+01 0.  1.
</event>
<event>
 5   0  0.3748901E-03  0.1096479E+04  0.7818609E-02  0.9208631E-01
       -2   -1    0    0    0  501  0.00000000000E+00  0.00000000000E+00  0.21107449424E+03  0.21107449426E+03  0.25500000920E-02 0. -1.
        2   -1    0    0  501    0  0.00000000000E+00  0.00000000000E+00 -0.14239824095E+04  0.14239824095E+04  0.25500000920E-02 0.  1.
    10030    2    1    2    0    0  0.00000000000E+00  0.00000000000E+00 -0.12129079152E+04  0.16350569037E+04  0.10964786672E+04 0.  0.
        5    1    3    3  502    0  0.15741415143E+03 -0.16780842881E+03  0.13556112829E+03  0.26709135769E+03  0.46999998093E+01 0. -1.
       -5    1    3    3    0  502 -0.15741415143E+03  0.16780842881E+03 -0.13484690435E+04  0.13679655461E+04  0.46999998093E+01 0.  1.
</event>
<event>
 5   0  0.2298958E-03  0.1084633E+04  0.7818609E-02  0.9220301E-01
        1   -1    0    0  501    0  0.00000000000E+00  0.00000000000E+00  0.21702072978E+04  0.21702072978E+04  0.50400001928E-02 0.  1.
       -1   -1    0    0    0  501  0.00000000000E+00  0.00000000000E+00 -0.13552022931E+03  0.13552022940E+03  0.50400001928E-02 0. -1.
    10030    2    1    2    0    0  0.00000000000E+00  0.00000000000E+00  0.20346870685E+04  0.23057275272E+04  0.10846326397E+04 0.  0.
        1    1    3    3  502    0 -0.27620414904E+03 -0.22668870305E+03  0.18845884488E+04  0.19181632155E+04  0.50400001928E-02 0.  1.
       -1    1    3    3    0  502  0.27620414904E+03  0.22668870305E+03  0.15009861972E+03  0.38756431170E+03  0.50400001928E-02 0. -1.
</event>
<event>
 5   0  0.3992414E-03  0.1098247E+04  0.7818609E-02  0.9206902E-01
        2   -1    0    0  501    0  0.00000000000E+00  0.00000000000E+00  0.15532507887E+03  0.15532507889E+03  0.25500000920E-02 0. -1.
       -2   -1    0    0    0  501  0.00000000000E+00  0.00000000000E+00 -0.19413259795E+04  0.19413259795E+04  0.25500000920E-02 0.  1.
    10030    2    1    2    0    0  0.00000000000E+00  0.00000000000E+00 -0.17860009006E+04  0.20966510583E+04  0.10982469866E+04 0.  0.
        1    1    3    3  502    0  0.12013648185E+03  0.26116957161E+03  0.18852777154E+00  0.28747583373E+03  0.50400001928E-02 0. -1.
       -1    1    3    3    0  502 -0.12013648185E+03 -0.26116957161E+03 -0.17861894284E+04  0.18091752246E+04  0.50400001928E-02 0.  1.
</event>
<event>
 5   0  0.3992414E-03  0.1081288E+04  0.7818609E-02  0.9223624E-01
       -2   -1    0    0    0  501  0.00000000000E+00  0.00000000000E+00  0.30590741624E+03  0.30590741625E+03  0.25500000920E-02 0. -1.
        2   -1    0    0  501    0  0.00000000000E+00  0.00000000000E+00 -0.95550438011E+03  0.95550438012E+03  0.25500000920E-02 0.  1.
    10030    2    1    2    0    0  0.00000000000E+00  0.00000000000E+00 -0.64959696387E+03  0.12614117964E+04  0.10812878916E+04 0.  0.
        1    1    3    3  502    0 -0.25739824944E+03 -0.19420330381E+03 -0.83105654239E+03  0.89141671439E+03  0.50400001928E-02 0.  1.
       -1    1    3    3    0  502  0.25739824944E+03  0.19420330381E+03  0.18145957852E+03  0.36999508198E+03  0.50400001928E-02 0. -1.
</event>
<event>
 5   0  0.2255788E-03  0.1117133E+04  0.7818609E-02  0.9188652E-01
       -1   -1    0    0    0  501  0.00000000000E+00  0.00000000000E+00  0.14020051390E+04  0.14020051390E+04  0.50400001928E-02 0.  1.
        1   -1    0    0  501    0  0.00000000000E+00  0.00000000000E+00 -0.22253581157E+03  0.22253581163E+03  0.50400001928E-02 0. -1.
    10030    2    1    2    0    0  0.00000000000E+00  0.00000000000E+00  0.11794693274E+04  0.16245409506E+04  0.11171326716E+04 0.  0.
        3    1    3    3  502    0 -0.23987928800E+03  0.36931147394E+03  0.90064548165E+02  0.44949379376E+03  0.10100000352E+00 0.  1.
       -3    1    3    3    0  502  0.23987928800E+03 -0.36931147394E+03  0.10894047793E+04  0.11750471569E+04  0.10100000352E+00 0. -1.
</event>
<event>
 5   0  0.3713158E-03  0.1096761E+04  0.7818609E-02  0.9208354E-01
        2   -1    0    0  501    0  0.00000000000E+00  0.00000000000E+00  0.16679470623E+04  0.16679470623E+04  0.25500000920E-02 0.  1.
       -2   -1    0    0    0  501  0.00000000000E+00  0.00000000000E+00 -0.18029427378E+03  0.18029427380E+03  0.25500000920E-02 0. -1.
    10030    2    1    2    0    0  0.00000000000E+00  0.00000000000E+00  0.14876527885E+04  0.18482413361E+04  0.10967612399E+04 0.  0.
        4    1    3    3  502    0 -0.25127609268E+03  0.38211068975E+03  0.12537752258E+04  0.13345794032E+04  0.12699999809E+01 0.  1.
       -4    1    3    3    0  502  0.25127609268E+03 -0.38211068975E+03  0.23387756272E+03  0.51366193281E+03  0.12699999809E+01 0. -1.
</event>
<event>
 5   0  0.2374100E-03  0.1101830E+04  0.7818609E-02  0.9203410E-01
       -1   -1    0    0    0  501  0.00000000000E+00  0.00000000000E+00  0.57934635167E+03  0.57934635170E+03  0.50400001928E-02 0.  1.
        1   -1    0    0  501    0  0.00000000000E+00  0.00000000000E+00 -0.52387932904E+03  0.52387932906E+03  0.50400001928E-02 0. -1.
    10030    2    1    2    0    0  0.00000000000E+00  0.00000000000E+00  0.55467022639E+02  0.11032256808E+04  0.11018304371E+04 0.  0.
        2    1    3    3  502    0  0.37479912963E+03  0.40313267101E+03  0.50505221669E+02  0.55275773665E+03  0.25500000920E-02 0.  1.
       -2    1    3    3    0  502 -0.37479912963E+03 -0.40313267101E+03  0.49618009699E+01  0.55046794410E+03  0.25500000920E-02 0. -1.
</event>
<event>
 5   0  0.3744875E-03  0.1092448E+04  0.7818609E-02  0.9212584E-01
       -2   -1    0    0    0  501  0.00000000000E+00  0.00000000000E+00  0.23522953180E+03  0.23522953182E+03  0.25500000920E-02 0.  1.
        2   -1    0    0  501    0  0.00000000000E+00  0.00000000000E+00 -0.12683801913E+04  0.12683801913E+04  0.25500000920E-02 0. -1.
    10030    2    1    2    0    0  0.00000000000E+00  0.00000000000E+00 -0.10331506595E+04  0.15036097231E+04  0.10924476712E+04 0.  0.
        2    1    3    3  502    0 -0.25143309829E+03  0.48317534595E+03 -0.46010296499E+03  0.71300193285E+03  0.25500000920E-02 0. -1.
       -2    1    3    3    0  502  0.25143309829E+03 -0.48317534595E+03 -0.57304769453E+03  0.79060779029E+03  0.25500000920E-02 0.  1.
</event>
<event>
 5   0  0.2298958E-03  0.9261603E+03  0.7818609E-02  0.9393458E-01
        1   -1    0    0  501    0  0.00000000000E+00  0.00000000000E+00  0.16243321583E+03  0.16243321591E+03  0.50400001928E-02 0.  1.
       -1   -1    0    0    0  501  0.00000000000E+00  0.00000000000E+00 -0.13201931891E+04  0.13201931891E+04  0.50400001928E-02 0. -1.
    10030    2    1    2    0    0  0.00000000000E+00  0.00000000000E+00 -0.11577599733E+04  0.14826264050E+04  0.92616029992E+03 0.  0.
        1    1    3    3  502    0 -0.64025674560E+01 -0.39821300341E+03 -0.95712575621E+03  0.10366794597E+04  0.50400001928E-02 0. -1.
       -1    1    3    3    0  502  0.64025674560E+01  0.39821300341E+03 -0.20063421708E+03  0.44594694532E+03  0.50400001928E-02 0.  1.
</event>
<event>
 5   0  0.3744875E-03  0.8957146E+03  0.7818609E-02  0.9430954E-01
       -2   -1    0    0    0  501  0.00000000000E+00  0.00000000000E+00  0.18714669809E+03  0.18714669810E+03  0.25500000920E-02 0. -1.
        2   -1    0    0  501    0  0.00000000000E+00  0.00000000000E+00 -0.10717591309E+04  0.10717591309E+04  0.25500000920E-02 0.  1.
    10030    2    1    2    0    0  0.00000000000E+00  0.00000000000E+00 -0.88461243284E+03  0.12589058290E+04  0.89571464766E+03 0.  0.
        2    1    3    3  502    0 -0.20187759417E+02 -0.44544995172E+03 -0.38362900795E+03  0.58822140463E+03  0.25500000920E-02 0. -1.
       -2    1    3    3    0  502  0.20187759417E+02  0.44544995172E+03 -0.50098342489E+03  0.67068442441E+03  0.25500000920E-02 0.  1.
</event>
<event>
 5   0  0.3748901E-03  0.1102384E+04  0.7818609E-02  0.9202872E-01
        2   -1    0    0  501    0  0.00000000000E+00  0.00000000000E+00  0.19346063766E+04  0.19346063766E+04  0.25500000920E-02 0. -1.
       -2   -1    0    0    0  501  0.00000000000E+00  0.00000000000E+00 -0.15704091366E+03  0.15704091368E+03  0.25500000920E-02 0.  1.
    10030    2    1    2    0    0  0.00000000000E+00  0.00000000000E+00  0.17775654630E+04  0.20916472903E+04  0.11023835140E+04 0.  0.
        5    1    3    3  502    0 -0.12610616778E+03 -0.17277259369E+03  0.18526047477E+04  0.18649181150E+04  0.46999998093E+01 0. -1.
       -5    1    3    3    0  502  0.12610616778E+03  0.17277259369E+03 -0.75039284694E+02  0.22672917529E+03  0.46999998093E+01 0.  1.
</event>
<event>
 5   0  0.3748901E-03  0.1103139E+04  0.7818609E-02  0.9202138E-01
        2   -1    0    0  501    0  0.00000000000E+00  0.00000000000E+00  0.70456595569E+03  0.70456595570E+03  0.25500000920E-02 0. -1.
       -2   -1    0    0    0  501  0.00000000000E+00  0.00000000000E+00 -0.43179587340E+03  0.43179587341E+03  0.25500000920E-02 0.  1.
    10030    2    1    2    0    0  0.00000000000E+00  0.00000000000E+00  0.27277008229E+03  0.11363618291E+04  0.11031385629E+04 0.  0.
        5    1    3    3  502    0  0.41008545255E+03  0.11209479145E+03 -0.22558240468E+03  0.48129495318E+03  0.46999998093E+01 0.  1.
       -5    1    3    3    0  502 -0.41008545255E+03 -0.11209479145E+03  0.49835248697E+03  0.65506687592E+03  0.46999998093E+01 0. -1.
</event>
<event>
 5   0  0.3748901E-03  0.1098689E+04  0.7818609E-02  0.9206471E-01
       -2   -1    0    0    0  501  0.00000000000E+00  0.00000000000E+00  0.49417571253E+03  0.49417571254E+03  0.25500000920E-02 0. -1.
        2   -1    0    0  501    0  0.00000000000E+00  0.00000000000E+00 -0.61067193403E+03  0.61067193404E+03  0.25500000920E-02 0.  1.
    10030    2    1    2    0    0  0.00000000000E+00  0.00000000000E+00 -0.11649622150E+03  0.11048476466E+04  0.10986887423E+04 0.  0.
        5    1    3    3  502    0  0.37722081935E+03 -0.35443940619E+03 -0.24322027394E+03  0.57192746993E+03  0.46999998093E+01 0.  1.
       -5    1    3    3    0  502 -0.37722081935E+03  0.35443940619E+03  0.12672405244E+03  0.53292017664E+03  0.46999998093E+01 0. -1.
</event>
<event>
 5   0  0.2298958E-03  0.1076601E+04  0.7818609E-02  0.9228303E-01
       -1   -1    0    0    0  501  0.00000000000E+00  0.00000000000E+00  0.65497332473E+03  0.65497332475E+03  0.50400001928E-02 0. -1.
        1   -1    0    0  501    0  0.00000000000E+00  0.00000000000E+00 -0.44241067616E+03  0.44241067619E+03  0.50400001928E-02 0.  1.
    10030    2    1    2    0    0  0.00000000000E+00  0.00000000000E+00  0.21256264857E+03  0.10973840009E+04  0.10766005601E+04 0.  0.
        1    1    3    3  502    0 -0.94233731555E+02  0.37040212720E+03 -0.28010031287E+03  0.47385010003E+03  0.50400001928E-02 0.  1.
       -1    1    3    3    0  502  0.94233731555E+02 -0.37040212720E+03  0.49266296144E+03  0.62353390092E+03  0.50400001928E-02 0. -1.
</event>
<event>
 5   0  0.2298958E-03  0.1090186E+04  0.7818609E-02  0.9214811E-01
        1   -1    0    0  501    0  0.00000000000E+00  0.00000000000E+00  0.72540564344E+03  0.72540564346E+03  0.50400001928E-02 0. -1.
       -1   -1    0    0    0  501  0.00000000000E+00  0.00000000000E+00 -0.40960003953E+03  0.40960003956E+03  0.50400001928E-02 0.  1.
    10030    2    1    2    0    0  0.00000000000E+00  0.00000000000E+00  0.31580560391E+03  0.11350056830E+04  0.10901856360E+04 0.  0.
        1    1    3    3  502    0  0.29355594490E+03  0.36552328947E+03 -0.13163839661E+03  0.48694048447E+03  0.50400001928E-02 0.  1.
       -1    1    3    3    0  502 -0.29355594490E+03 -0.36552328947E+03  0.44744400052E+03  0.64806519854E+03  0.50400001928E-02 0. -1.
</event>
<event>
 5   0  0.2255788E-03  0.1104070E+04  0.7818609E-02  0.9201234E-01
        1   -1    0    0  501    0  0.00000000000E+00  0.00000000000E+00  0.14246998568E+04  0.14246998568E+04  0.50400001928E-02 0.  1.
       -1   -1    0    0    0  501  0.00000000000E+00  0.00000000000E+00 -0.21389956621E+03  0.21389956627E+03  0.50400001928E-02 0. -1.
    10030    2    1    2    0    0  0.00000000000E+00  0.00000000000E+00  0.12108002906E+04  0.16385994231E+04  0.11040700728E+04 0.  0.
        3    1    3    3  502    0  0.37257317500E+03 -0.23445871756E+03  0.11101961307E+03  0.45399011625E+03  0.10100000352E+00 0. -1.
       -3    1    3    3    0  502 -0.37257317500E+03  0.23445871756E+03  0.10997806775E+04  0.11846093068E+04  0.10100000352E+00 0.  1.
</event>
<event>
 5   0  0.3992414E-03  0.1095782E+04  0.7818609E-02  0.9209313E-01
       -2   -1    0    0    0  501  0.00000000000E+00  0.00000000000E+00  0.33613495019E+03  0.33613495020E+03  0.25500000920E-02 0. -1.
        2   -1    0    0  501    0  0.00000000000E+00  0.00000000000E+00 -0.89304767384E+03  0.89304767385E+03  0.25500000920E-02 0.  1.
    10030    2    1    2    0    0  0.00000000000E+00  0.00000000000E+00 -0.55691272365E+03  0.12291826240E+04  0.10957819772E+04 0.  0.
        1    1    3    3  502    0  0.91540473045E+02 -0.38353398376E+03 -0.70516984879E+03  0.80792480502E+03  0.50400001928E-02 0.  1.
       -1    1    3    3    0  502 -0.91540473045E+02  0.38353398376E+03  0.14825712513E+03  0.42125781902E+03  0.50400001928E-02 0. -1.
</event>
<event>
 5   0  0.2300702E-03  0.1069313E+04  0.7818609E-02  0.9235628E-01
        1   -1    0    0  501    0  0.00000000000E+00  0.00000000000E+00  0.41044985320E+03  0.41044985323E+03  0.50400001928E-02 0. -1.
       -1   -1    0    0    0  501  0.00000000000E+00  0.00000000000E+00 -0.69644973006E+03  0.69644973008E+03  0.50400001928E-02 0.  1.
    10030    2    1    2    0    0  0.00000000000E+00  0.00000000000E+00 -0.28599987686E+03  0.11068995833E+04  0.10693132179E+04 0.  0.
        5    1    3    3  502    0  0.67550696205E+02 -0.29480648311E+03 -0.59936098425E+03  0.67136401339E+03  0.46999998093E+01 0.  1.
       -5    1    3    3    0  502 -0.67550696205E+02  0.29480648311E+03  0.31336110739E+03  0.43553556992E+03  0.46999998093E+01 0. -1.
</event>
<event>
 5   0  0.3992414E-03  0.1099142E+04  0.7818609E-02  0.9206029E-01
        2   -1    0    0  501    0  0.00000000000E+00  0.00000000000E+00  0.26289773729E+03  0.26289773730E+03  0.25500000920E-02 0. -1.
       -2   -1    0    0    0  501  0.00000000000E+00  0.00000000000E+00 -0.11488422445E+04  0.11488422445E+04  0.25500000920E-02 0.  1.
    10030    2    1    2    0    0  0.00000000000E+00  0.00000000000E+00 -0.88594450719E+03  0.14117399818E+04  0.10991415315E+04 0.  0.
        1    1    3    3  502    0  0.47130250937E+03 -0.13926347027E+03 -0.75891345461E+03  0.90414047642E+03  0.50400001928E-02 0.  1.
       -1    1    3    3    0  502 -0.47130250937E+03  0.13926347027E+03 -0.12703105258E+03  0.50759950536E+03  0.50400001928E-02 0. -1.
</event>
<event>
 5   0  0.3962999E-03  0.1103384E+04  0.7818609E-02  0.9201900E-01
       -2   -1    0    0    0  501  0.00000000000E+00  0.00000000000E+00  0.25341173429E+03  0.25341173430E+03  0.25500000920E-02 0. -1.
        2   -1    0    0  501    0  0.00000000000E+00  0.00000000000E+00 -0.12010651826E+04  0.12010651827E+04  0.25500000920E-02 0.  1.
    10030    2    1    2    0    0  0.00000000000E+00  0.00000000000E+00 -0.94765344836E+03  0.14544769170E+04  0.11033839059E+04 0.  0.
        3    1    3    3  502    0  0.31128364119E+02 -0.29473519220E+03  0.13956146233E+03  0.32759001899E+03  0.10100000352E+00 0. -1.
       -3    1    3    3    0  502 -0.31128364119E+02  0.29473519220E+03 -0.10872149107E+04  0.11268868980E+04  0.10100000352E+00 0.  1.
</event>
<event>
 5   0  0.3744875E-03  0.1094121E+04  0.7818609E-02  0.9210941E-01
       -2   -1    0    0    0  501  0.00000000000E+00  0.00000000000E+00  0.26225225050E+03  0.26225225051E+03  0.25500000920E-02 0.  1.
        2   -1    0    0  501    0  0.00000000000E+00  0.00000000000E+00 -0.11411737049E+04  0.11411737049E+04  0.25500000920E-02 0. -1.
    10030    2    1    2    0    0  0.00000000000E+00  0.00000000000E+00 -0.87892145438E+03  0.14034259554E+04  0.10941213321E+04 0.  0.
        2    1    3    3  502    0  0.46000202238E+03  0.11021842585E+03 -0.79197001603E+03  0.92247843784E+03  0.25500000920E-02 0. -1.
       -2    1    3    3    0  502 -0.46000202238E+03 -0.11021842585E+03 -0.86951438356E+02  0.48094751755E+03  0.25500000920E-02 0.  1.
</event>
<event>
 5   0  0.2374100E-03  0.1097840E+04  0.7818609E-02  0.9207300E-01
       -1   -1    0    0    0  501  0.00000000000E+00  0.00000000000E+00  0.14515977715E+03  0.14515977724E+03  0.50400001928E-02 0. -1.
        1   -1    0    0  501    0  0.00000000000E+00  0.00000000000E+00 -0.20757346874E+04  0.20757346874E+04  0.50400001928E-02 0.  1.
    10030    2    1    2    0    0  0.00000000000E+00  0.00000000000E+00 -0.19305749103E+04  0.22208944647E+04  0.10978400334E+04 0.  0.
        2    1    3    3  502    0 -0.84015673734E+02 -0.53845362837E+03 -0.83228998853E+03  0.99483544787E+03  0.25500000920E-02 0.  1.
       -2    1    3    3    0  502  0.84015673734E+02  0.53845362837E+03 -0.10982849217E+04  0.12260590168E+04  0.25500000920E-02 0. -1.
</event>
<event>
 5   0  0.3748901E-03  0.1097638E+04  0.7818609E-02  0.9207497E-01
        2   -1    0    0  501    0  0.00000000000E+00  0.00000000000E+00  0.11496343672E+04  0.11496343672E+04  0.25500000920E-02 0. -1.
       -2   -1    0    0    0  501  0.00000000000E+00  0.00000000000E+00 -0.26199844517E+03  0.26199844518E+03  0.25500000920E-02 0.  1.
    10030    2    1    2    0    0  0.00000000000E+00  0.00000000000E+00  0.88763592204E+03  0.14116328124E+04  0.10976382222E+04 0.  0.
        5    1    3    3  502    0 -0.21821875940E+03 -0.49666603448E+03  0.55052057699E+03  0.77291110255E+03  0.46999998093E+01 0. -1.
       -5    1    3    3    0  502  0.21821875940E+03  0.49666603448E+03  0.33711534505E+03  0.63872170984E+03  0.46999998093E+01 0.  1.
</event>
<event>
 5   0  0.1508625E-03  0.1012861E+04  0.7818609E-02  0.9294551E-01
       -3   -1    0    0    0  501  0.00000000000E+00  0.00000000000E+00  0.49711271050E+03  0.49711272076E+03  0.10100000352E+00 0.  1.
        3   -1    0    0  501    0  0.00000000000E+00  0.00000000000E+00 -0.51592286702E+03  0.51592287690E+03  0.10100000352E+00 0. -1.
    10030    2    1    2    0    0  0.00000000000E+00  0.00000000000E+00 -0.18810156515E+02  0.10130355977E+04  0.10128609481E+04 0.  0.
        2    1    3    3  502    0  0.15006952957E+03  0.11849041119E+03 -0.47843261442E+03  0.51522675377E+03  0.25500000920E-02 0. -1.
       -2    1    3    3    0  502 -0.15006952957E+03 -0.11849041119E+03  0.45962245791E+03  0.49780884390E+03  0.25500000920E-02 0.  1.
</event>
<event>
 5   0  0.3748901E-03  0.1097410E+04  0.7818609E-02  0.9207720E-01
       -2   -1    0    0    0  501  0.00000000000E+00  0.00000000000E+00  0.16061503232E+03  0.16061503234E+03  0.25500000920E-02 0.  1.
        2   -1    0    0  501    0  0.00000000000E+00  0.00000000000E+00 -0.18745274905E+04  0.18745274905E+04  0.25500000920E-02 0. -1.
    10030    2    1    2    0    0  0.00000000000E+00  0.00000000000E+00 -0.17139124582E+04  0.20351425229E+04  0.10974102123E+04 0.  0.
        5    1    3    3  502    0 -0.11753234867E+03  0.31778209513E+03 -0.16573078700E+04  0.16915941531E+04  0.46999998093E+01 0. -1.
       -5    1    3    3    0  502  0.11753234867E+03 -0.31778209513E+03 -0.56604588246E+02  0.34354836978E+03  0.46999998093E+01 0.  1.
</event>
<event>
 5   0  0.3992414E-03  0.1107471E+04  0.7818609E-02  0.9197940E-01
        2   -1    0    0  501    0  0.00000000000E+00  0.00000000000E+00  0.77923161335E+03  0.77923161336E+03  0.25500000920E-02 0. -1.
       -2   -1    0    0    0  501  0.00000000000E+00  0.00000000000E+00 -0.39349420705E+03  0.39349420706E+03  0.25500000920E-02 0.  1.
    10030    2    1    2    0    0  0.00000000000E+00  0.00000000000E+00  0.38573740630E+03  0.11727258204E+04  0.11074712201E+04 0.  0.
        1    1    3    3  502    0 -0.19977865765E+02  0.49600154318E+03 -0.66959120757E+02  0.50089936098E+03  0.50400001928E-02 0.  1.
       -1    1    3    3    0  502  0.19977865765E+02 -0.49600154318E+03  0.45269652706E+03  0.67182645943E+03  0.50400001928E-02 0. -1.
</event>
<event>
 5   0  0.3713158E-03  0.1090734E+04  0.7818609E-02  0.9214271E-01
       -2   -1    0    0    0  501  0.00000000000E+00  0.00000000000E+00  0.31461438481E+03  0.31461438482E+03  0.25500000920E-02 0. -1.
        2   -1    0    0  501    0  0.00000000000E+00  0.00000000000E+00 -0.94536408118E+03  0.94536408118E+03  0.25500000920E-02 0.  1.
    10030    2    1    2    0    0  0.00000000000E+00  0.00000000000E+00 -0.63074969637E+03  0.12599784660E+04  0.10907339526E+04 0.  0.
        4    1    3    3  502    0 -0.39515642381E+03  0.12285122819E+03  0.94965155981E+02  0.42457156911E+03  0.12699999809E+01 0. -1.
       -4    1    3    3    0  502  0.39515642381E+03 -0.12285122819E+03 -0.72571485235E+03  0.83540689689E+03  0.12699999809E+01 0.  1.
</event>
<event>
 5   0  0.2374100E-03  0.1103441E+04  0.7818609E-02  0.9201844E-01
        1   -1    0    0  501    0  0.00000000000E+00  0.00000000000E+00  0.85921795699E+03  0.85921795701E+03  0.50400001928E-02 0.  1.
       -1   -1    0    0    0  501  0.00000000000E+00  0.00000000000E+00 -0.35427054805E+03  0.35427054808E+03  0.50400001928E-02 0. -1.
    10030    2    1    2    0    0  0.00000000000E+00  0.00000000000E+00  0.50494740895E+03  0.12134885051E+04  0.11034411929E+04 0.  0.
        2    1    3    3  502    0  0.12104299535E+03  0.44681494750E+03  0.58257736918E+03  0.74410442487E+03  0.25500000920E-02 0.  1.
       -2    1    3    3    0  502 -0.12104299535E+03 -0.44681494750E+03 -0.77629960229E+02  0.46938408022E+03  0.25500000920E-02 0. -1.
</event>
<event>
 5   0  0.2374100E-03  0.1091126E+04  0.7818609E-02  0.9213884E-01
        1   -1    0    0  501    0  0.00000000000E+00  0.00000000000E+00  0.58951609298E+03  0.58951609300E+03  0.50400001928E-02 0. -1.
       -1   -1    0    0    0  501  0.00000000000E+00  0.00000000000E+00 -0.50488711619E+03  0.50488711622E+03  0.50400001928E-02 0.  1.
    10030    2    1    2    0    0  0.00000000000E+00  0.00000000000E+00  0.84628976790E+02  0.10944032092E+04  0.10911261708E+04 0.  0.
        2    1    3    3  502    0 -0.46600269349E+03  0.26180266334E+03  0.15191267585E+03  0.55567670993E+03  0.25500000920E-02 0. -1.
       -2    1    3    3    0  502  0.46600269349E+03 -0.26180266334E+03 -0.67283699063E+02  0.53872649929E+03  0.25500000920E-02 0.  1.
</event>
<event>
 5   0  0.3748901E-03  0.1169312E+04  0.7818609E-02  0.9140150E-01
       -2   -1    0    0    0  501  0.00000000000E+00  0.00000000000E+00  0.35982804325E+03  0.35982804326E+03  0.25500000920E-02 0.  1.
        2   -1    0    0  501    0  0.00000000000E+00  0.00000000000E+00 -0.94996064369E+03  0.94996064370E+03  0.25500000920E-02 0. -1.
    10030    2    1    2    0    0  0.00000000000E+00  0.00000000000E+00 -0.59013260044E+03  0.13097886870E+04  0.11693117285E+04 0.  0.
        5    1    3    3  502    0 -0.10770122920E+03  0.11254382721E+03  0.33613304534E+03  0.37050395677E+03  0.46999998093E+01 0.  1.
       -5    1    3    3    0  502  0.10770122920E+03 -0.11254382721E+03 -0.92626564578E+03  0.93928473019E+03  0.46999998093E+01 0. -1.
</event>
<event>
 5   0  0.3962999E-03  0.1096476E+04  0.7818609E-02  0.9208633E-01
       -2   -1    0    0    0  501  0.00000000000E+00  0.00000000000E+00  0.32549287910E+03  0.32549287911E+03  0.25500000920E-02 0.  1.
        2   -1    0    0  501    0  0.00000000000E+00  0.00000000000E+00 -0.92341517063E+03  0.92341517063E+03  0.25500000920E-02 0. -1.
    10030    2    1    2    0    0  0.00000000000E+00  0.00000000000E+00 -0.59792229152E+03  0.12489080497E+04  0.10964762879E+04 0.  0.
        3    1    3    3  502    0  0.29162851386E+03 -0.28001450244E+03 -0.72072113284E+03  0.82637417264E+03  0.10100000352E+00 0. -1.
       -3    1    3    3    0  502 -0.29162851386E+03  0.28001450244E+03  0.12279884132E+03  0.42253387711E+03  0.10100000352E+00 0.  1.
</event>
<event>
 5   0  0.2374100E-03  0.1099873E+04  0.7818609E-02  0.9205315E-01
        1   -1    0    0  501    0  0.00000000000E+00  0.00000000000E+00  0.44373105797E+03  0.44373105800E+03  0.50400001928E-02 0.  1.
       -1   -1    0    0    0  501  0.00000000000E+00  0.00000000000E+00 -0.68156217721E+03  0.68156217723E+03  0.50400001928E-02 0. -1.
    10030    2    1    2    0    0  0.00000000000E+00  0.00000000000E+00 -0.23783111925E+03  0.11252932352E+04  0.10998732763E+04 0.  0.
        2    1    3    3  502    0  0.96726363745E+02 -0.49431805379E+03 -0.34475221238E+03  0.61037727324E+03  0.25500000920E-02 0. -1.
       -2    1    3    3    0  502 -0.96726363745E+02  0.49431805379E+03  0.10692109313E+03  0.51491596199E+03  0.25500000920E-02 0.  1.
</event>
<event>
 5   0  0.3744875E-03  0.1133225E+04  0.7818609E-02  0.9173401E-01
       -2   -1    0    0    0  501  0.00000000000E+00  0.00000000000E+00  0.17386924486E+03  0.17386924488E+03  0.25500000920E-02 0. -1.
        2   -1    0    0  501    0  0.00000000000E+00  0.00000000000E+00 -0.18464995472E+04  0.18464995472E+04  0.25500000920E-02 0.  1.
    10030    2    1    2    0    0  0.00000000000E+00  0.00000000000E+00 -0.16726303023E+04  0.20203687921E+04  0.11332245707E+04 0.  0.
        2    1    3    3  502    0  0.46890481272E+03  0.31770508307E+03 -0.80862418034E+03  0.98725949387E+03  0.25500000920E-02 0.  1.
       -2    1    3    3    0  502 -0.46890481272E+03 -0.31770508307E+03 -0.86400612200E+03  0.10331092982E+04  0.25500000920E-02 0. -1.
</event>
<event>
 5   0  0.2374100E-03  0.1105159E+04  0.7818609E-02  0.9200178E-01
       -1   -1    0    0    0  501  0.00000000000E+00  0.00000000000E+00  0.75753049138E+03  0.75753049140E+03  0.50400001928E-02 0.  1.
        1   -1    0    0  501    0  0.00000000000E+00  0.00000000000E+00 -0.40307833044E+03  0.40307833047E+03  0.50400001928E-02 0. -1.
    10030    2    1    2    0    0  0.00000000000E+00  0.00000000000E+00  0.35445216094E+03  0.11606088219E+04  0.11051590397E+04 0.  0.
        2    1    3    3  502    0 -0.10889759886E+02  0.99474825269E+02 -0.39348340237E+03  0.40600863991E+03  0.25500000920E-02 0. -1.
       -2    1    3    3    0  502  0.10889759886E+02 -0.99474825269E+02  0.74793556331E+03  0.75460018196E+03  0.25500000920E-02 0.  1.
</event>
<event>
 5   0  0.2255788E-03  0.1095513E+04  0.7818609E-02  0.9209577E-01
        1   -1    0    0  501    0  0.00000000000E+00  0.00000000000E+00  0.58774948148E+03  0.58774948150E+03  0.50400001928E-02 0.  1.
       -1   -1    0    0    0  501  0.00000000000E+00  0.00000000000E+00 -0.51048455922E+03  0.51048455924E+03  0.50400001928E-02 0. -1.
    10030    2    1    2    0    0  0.00000000000E+00  0.00000000000E+00  0.77264922264E+02  0.10982340407E+04  0.10955127293E+04 0.  0.
        3    1    3    3  502    0 -0.50426039199E+03 -0.11560266101E+03  0.21906429277E+03  0.56181108278E+03  0.10100000352E+00 0. -1.
       -3    1    3    3    0  502  0.50426039199E+03  0.11560266101E+03 -0.14179937051E+03  0.53642295797E+03  0.10100000352E+00 0.  1.
</event>
<event>
 5   0  0.3992414E-03  0.1001897E+04  0.7818609E-02  0.9306467E-01
       -2   -1    0    0    0  501  0.00000000000E+00  0.00000000000E+00  0.21757534120E+03  0.21757534121E+03  0.25500000920E-02 0. -1.
        2   -1    0    0  501    0  0.00000000000E+00  0.00000000000E+00 -0.11533906236E+04  0.11533906236E+04  0.25500000920E-02 0.  1.
    10030    2    1    2    0    0  0.00000000000E+00  0.00000000000E+00 -0.93581528235E+03  0.13709659648E+04  0.10018969178E+04 0.  0.
        1    1    3    3  502    0 -0.33536937630E+03  0.21121490337E+03 -0.48674617615E+02  0.39931638132E+03  0.50400001928E-02 0. -1.
       -1    1    3    3    0  502  0.33536937630E+03 -0.21121490337E+03 -0.88714066474E+03  0.97164958345E+03  0.50400001928E-02 0.  1.
</event>
<event>
 5   0  0.2374100E-03  0.1099593E+04  0.7818609E-02  0.9205589E-01
        1   -1    0    0  501    0  0.00000000000E+00  0.00000000000E+00  0.39042744144E+03  0.39042744147E+03  0.50400001928E-02 0.  1.
       -1   -1    0    0    0  501  0.00000000000E+00  0.00000000000E+00 -0.77421870996E+03  0.77421870998E+03  0.50400001928E-02 0. -1.
    10030    2    1    2    0    0  0.00000000000E+00  0.00000000000E+00 -0.38379126852E+03  0.11646461514E+04  0.10995930703E+04 0.  0.
        2    1    3    3  502    0 -0.45994972664E+03 -0.64634224725E+02 -0.50348507514E+03  0.68500259484E+03  0.25500000920E-02 0. -1.
       -2    1    3    3    0  502  0.45994972664E+03  0.64634224725E+02  0.11969380662E+03  0.47964355660E+03  0.25500000920E-02 0.  1.
</event>
<event>
 5   0  0.3992414E-03  0.1117944E+04  0.7818609E-02  0.9187876E-01
        2   -1    0    0  501    0  0.00000000000E+00  0.00000000000E+00  0.11875669033E+04  0.11875669033E+04  0.25500000920E-02 0. -1.
       -2   -1    0    0    0  501  0.00000000000E+00  0.00000000000E+00 -0.26310093831E+03  0.26310093833E+03  0.25500000920E-02 0.  1.
    10030    2    1    2    0    0  0.00000000000E+00  0.00000000000E+00  0.92446596498E+03  0.14506678416E+04  0.11179444827E+04 0.  0.
        1    1    3    3  502    0  0.17757415439E+03 -0.52968542225E+03  0.48653488143E+03  0.74082077301E+03  0.50400001928E-02 0.  1.
       -1    1    3    3    0  502 -0.17757415439E+03  0.52968542225E+03  0.43793108355E+03  0.70984706862E+03  0.50400001928E-02 0. -1.
</event>
<event>
 5   0  0.3962999E-03  0.1092644E+04  0.7818609E-02  0.9212391E-01
        2   -1    0    0  501    0  0.00000000000E+00  0.00000000000E+00  0.53523489402E+03  0.53523489403E+03  0.25500000920E-02 0.  1.
       -2   -1    0    0    0  501  0.00000000000E+00  0.00000000000E+00 -0.55763918466E+03  0.55763918467E+03  0.25500000920E-02 0. -1.
    10030    2    1    2    0    0  0.00000000000E+00  0.00000000000E+00 -0.22404290642E+02  0.10928740787E+04  0.10926444068E+04 0.  0.
        3    1    3    3  502    0  0.23476008612E+03  0.44019181022E+03  0.21152562619E+03  0.54187104421E+03  0.10100000352E+00 0.  1.
       -3    1    3    3    0  502 -0.23476008612E+03 -0.44019181022E+03 -0.23392991683E+03  0.55100303448E+03  0.10100000352E+00 0. -1.
</event>
<event>
 5   0  0.2298958E-03  0.9908901E+03  0.7818609E-02  0.9318593E-01
        1   -1    0    0  501    0  0.00000000000E+00  0.00000000000E+00  0.23825113406E+04  0.23825113406E+04  0.50400001928E-02 0.  1.
       -1   -1    0    0    0  501  0.00000000000E+00  0.00000000000E+00 -0.10302818081E+03  0.10302818093E+03  0.50400001928E-02 0. -1.
    10030    2    1    2    0    0  0.00000000000E+00  0.00000000000E+00  0.22794831598E+04  0.24855395216E+04  0.99089012375E+03 0.  0.
        1    1    3    3  502    0  0.22670716623E+03  0.34088662916E+03  0.18396948381E+04  0.18846954477E+04  0.50400001928E-02 0.  1.
       -1    1    3    3    0  502 -0.22670716623E+03 -0.34088662916E+03  0.43978832169E+03  0.60084407385E+03  0.50400001928E-02 0. -1.
</event>
<event>
 5   0  0.2298958E-03  0.1121707E+04  0.7818609E-02  0.9184289E-01
        1   -1    0    0  501    0  0.00000000000E+00  0.00000000000E+00  0.48343952058E+03  0.48343952060E+03  0.50400001928E-02 0.  1.
       -1   -1    0    0    0  501  0.00000000000E+00  0.00000000000E+00 -0.65066401195E+03  0.65066401197E+03  0.50400001928E-02 0. -1.
    10030    2    1    2    0    0  0.00000000000E+00  0.00000000000E+00 -0.16722449137E+03  0.11341035326E+04  0.11217070884E+04 0.  0.
        1    1    3    3  502    0  0.20878212416E+02  0.33723386289E+03  0.36898898026E+03  0.50031534617E+03  0.50400001928E-02 0.  1.
       -1    1    3    3    0  502 -0.20878212416E+02 -0.33723386289E+03 -0.53621347163E+03  0.63378818640E+03  0.50400001928E-02 0. -1.
</event>
<event>
 5   0  0.3992414E-03  0.1092266E+04  0.7818609E-02  0.9212763E-01
        2   -1    0    0  501    0  0.00000000000E+00  0.00000000000E+00  0.17526383232E+04  0.17526383232E+04  0.25500000920E-02 0.  1.
       -2   -1    0    0    0  501  0.00000000000E+00  0.00000000000E+00 -0.17017854485E+03  0.17017854487E+03  0.25500000920E-02 0. -1.
    10030    2    1    2    0    0  0.00000000000E+00  0.00000000000E+00  0.15824597783E+04  0.19228168680E+04  0.10922663402E+04 0.  0.
        1    1    3    3  502    0  0.23026375866E+03 -0.45552458336E+03  0.11332056552E+04  0.12428511985E+04  0.50400001928E-02 0.  1.
       -1    1    3    3    0  502 -0.23026375866E+03  0.45552458336E+03  0.44925412313E+03  0.67996566956E+03  0.50400001928E-02 0. -1.
</event>
<event>
 5   0  0.1508625E-03  0.1068634E+04  0.7818609E-02  0.9236314E-01
        4   -1    0    0  501    0  0.00000000000E+00  0.00000000000E+00  0.83692227264E+03  0.83692323623E+03  0.12699999809E+01 0. -1.
       -4   -1    0    0    0  501  0.00000000000E+00  0.00000000000E+00 -0.34112199073E+03  0.34112435483E+03  0.12699999809E+01 0.  1.
    10030    2    1    2    0    0  0.00000000000E+00  0.00000000000E+00  0.49580028191E+03  0.11780475911E+04  0.10686338041E+04 0.  0.
        5    1    3    3  502    0 -0.43717646977E+03 -0.14573324602E+03  0.54597499522E+03  0.71447339358E+03  0.46999998093E+01 0. -1.
       -5    1    3    3    0  502  0.43717646977E+03  0.14573324602E+03 -0.50174713311E+02  0.46357419749E+03  0.46999998093E+01 0.  1.
</event>
<event>
 5   0  0.2298958E-03  0.1101811E+04  0.7818609E-02  0.9203429E-01
       -1   -1    0    0    0  501  0.00000000000E+00  0.00000000000E+00  0.49143493373E+03  0.49143493376E+03  0.50400001928E-02 0.  1.
        1   -1    0    0  501    0  0.00000000000E+00  0.00000000000E+00 -0.61757243405E+03  0.61757243407E+03  0.50400001928E-02 0. -1.
    10030    2    1    2    0    0  0.00000000000E+00  0.00000000000E+00 -0.12613750032E+03  0.11090073678E+04  0.11018106339E+04 0.  0.
        1    1    3    3  502    0 -0.55002732313E+03  0.28516678706E+02 -0.75535573300E+02  0.55592164916E+03  0.50400001928E-02 0.  1.
       -1    1    3    3    0  502  0.55002732313E+03 -0.28516678706E+02 -0.50601927024E+02  0.55308571867E+03  0.50400001928E-02 0. -1.
</event>
<event>
 5   0  0.3962999E-03  0.1104556E+04  0.7818609E-02  0.9200762E-01
       -2   -1    0    0    0  501  0.00000000000E+00  0.00000000000E+00  0.15542731713E+03  0.15542731715E+03  0.25500000920E-02 0.  1.
        2   -1    0    0  501    0  0.00000000000E+00  0.00000000000E+00 -0.19624034482E+04  0.19624034482E+04  0.25500000920E-02 0. -1.
    10030    2    1    2    0    0  0.00000000000E+00  0.00000000000E+00 -0.18069761311E+04  0.21178307653E+04  0.11045562061E+04 0.  0.
        3    1    3    3  502    0 -0.27751649645E+03  0.77293682135E+02 -0.18069312077E+04  0.18297513816E+04  0.10100000352E+00 0.  1.
       -3    1    3    3    0  502  0.27751649645E+03 -0.77293682135E+02 -0.44923384455E-01  0.28807938371E+03  0.10100000352E+00 0. -1.
</event>
<event>
 5   0  0.2257667E-03  0.1098016E+04  0.7818609E-02  0.9207128E-01
        1   -1    0    0  501    0  0.00000000000E+00  0.00000000000E+00  0.15188602056E+04  0.15188602056E+04  0.50400001928E-02 0.  1.
       -1   -1    0    0    0  501  0.00000000000E+00  0.00000000000E+00 -0.19844465747E+03  0.19844465753E+03  0.50400001928E-02 0. -1.
    10030    2    1    2    0    0  0.00000000000E+00  0.00000000000E+00  0.13204155482E+04  0.17173048632E+04  0.10980158347E+04 0.  0.
        4    1    3    3  502    0  0.21403923335E+03 -0.39404623251E+03  0.16482747037E+03  0.47776033182E+03  0.12699999809E+01 0. -1.
       -4    1    3    3    0  502 -0.21403923335E+03  0.39404623251E+03  0.11555880778E+04  0.12395445314E+04  0.12699999809E+01 0.  1.
</event>
<event>
 5   0  0.2257667E-03  0.1098057E+04  0.7818609E-02  0.9207087E-01
       -1   -1    0    0    0  501  0.00000000000E+00  0.00000000000E+00  0.30836639454E+03  0.30836639458E+03  0.50400001928E-02 0.  1.
        1   -1    0    0  501    0  0.00000000000E+00  0.00000000000E+00 -0.97751382395E+03  0.97751382396E+03  0.50400001928E-02 0. -1.
    10030    2    1    2    0    0  0.00000000000E+00  0.00000000000E+00 -0.66914742941E+03  0.12858802185E+04  0.10980572181E+04 0.  0.
        4    1    3    3  502    0  0.17482669801E+03 -0.41160848844E+03 -0.70755806284E+03  0.83703401799E+03  0.12699999809E+01 0. -1.
       -4    1    3    3    0  502 -0.17482669801E+03  0.41160848844E+03  0.38410633430E+02  0.44884620055E+03  0.12699999809E+01 0.  1.
</event>
<event>
 5   0  0.2257667E-03  0.1096047E+04  0.7818609E-02  0.9209054E-01
       -1   -1    0    0    0  501  0.00000000000E+00  0.00000000000E+00  0.67082449875E+03  0.67082449877E+03  0.50400001928E-02 0.  1.
        1   -1    0    0  501    0  0.00000000000E+00  0.00000000000E+00 -0.44770210282E+03  0.44770210284E+03  0.50400001928E-02 0. -1.
    10030    2    1    2    0    0  0.00000000000E+00  0.00000000000E+00  0.22312239594E+03  0.11185266016E+04  0.10960466025E+04 0.  0.
        4    1    3    3  502    0  0.27578131931E+03  0.38230942726E+03 -0.17365647388E+03  0.50236840871E+03  0.12699999809E+01 0. -1.
       -4    1    3    3    0  502 -0.27578131931E+03 -0.38230942726E+03  0.39677886981E+03  0.61615819290E+03  0.12699999809E+01 0.  1.
</event>
<event>
 5   0  0.3744875E-03  0.1026243E+04  0.7818609E-02  0.9280222E-01
        2   -1    0    0  501    0  0.00000000000E+00  0.00000000000E+00  0.86506390408E+03  0.86506390408E+03  0.25500000920E-02 0.  1.
       -2   -1    0    0    0  501  0.00000000000E+00  0.00000000000E+00 -0.30436299270E+03  0.30436299271E+03  0.25500000920E-02 0. -1.
    10030    2    1    2    0    0  0.00000000000E+00  0.00000000000E+00  0.56070091138E+03  0.11694268968E+04  0.10262425420E+04 0.  0.
        2    1    3    3  502    0  0.37071604240E+02  0.24971372939E+03 -0.22870159710E+03  0.34064009014E+03  0.25500000920E-02 0. -1.
       -2    1    3    3    0  502 -0.37071604240E+02 -0.24971372939E+03  0.78940250848E+03  0.82878680666E+03  0.25500000920E-02 0.  1.
</event>
<event>
 5   0  0.3713158E-03  0.1101559E+04  0.7818609E-02  0.9203674E-01
       -2   -1    0    0    0  501  0.00000000000E+00  0.00000000000E+00  0.29188597764E+03  0.29188597765E+03  0.25500000920E-02 0. -1.
        2   -1    0    0  501    0  0.00000000000E+00  0.00000000000E+00 -0.10393036177E+04  0.10393036178E+04  0.25500000920E-02 0.  1.
    10030    2    1    2    0    0  0.00000000000E+00  0.00000000000E+00 -0.74741764011E+03  0.13311895954E+04  0.11015591723E+04 0.  0.
        4    1    3    3  502    0 -0.42680634057E+03  0.30243197414E+03 -0.58206835683E+03  0.78258158441E+03  0.12699999809E+01 0.  1.
       -4    1    3    3    0  502  0.42680634057E+03 -0.30243197414E+03 -0.16534928328E+03  0.54860801099E+03  0.12699999809E+01 0. -1.
</event>
<event>
 5   0  0.3962999E-03  0.1090119E+04  0.7818609E-02  0.9214876E-01
       -2   -1    0    0    0  501  0.00000000000E+00  0.00000000000E+00  0.45673772748E+03  0.45673772749E+03  0.25500000920E-02 0. -1.
        2   -1    0    0  501    0  0.00000000000E+00  0.00000000000E+00 -0.65046075521E+03  0.65046075522E+03  0.25500000920E-02 0.  1.
    10030    2    1    2    0    0  0.00000000000E+00  0.00000000000E+00 -0.19372302773E+03  0.11071984827E+04  0.10901191993E+04 0.  0.
        3    1    3    3  502    0 -0.27118817152E+03 -0.45899240971E+03  0.18374890322E+02  0.53343669103E+03  0.10100000352E+00 0.  1.
       -3    1    3    3    0  502  0.27118817152E+03  0.45899240971E+03 -0.21209791805E+03  0.57376179167E+03  0.10100000352E+00 0. -1.
</event>
<event>
 5   0  0.2255788E-03  0.1111821E+04  0.7818609E-02  0.9193747E-01
        1   -1    0    0  501    0  0.00000000000E+00  0.00000000000E+00  0.88269589473E+03  0.88269589474E+03  0.50400001928E-02 0.  1.
       -1   -1    0    0    0  501  0.00000000000E+00  0.00000000000E+00 -0.35010502340E+03  0.35010502344E+03  0.50400001928E-02 0. -1.
    10030    2    1    2    0    0  0.00000000000E+00  0.00000000000E+00  0.53259087133E+03  0.12328009182E+04  0.11118206095E+04 0.  0.
        3    1    3    3  502    0  0.38487053824E+02  0.36923968841E+03  0.72510423821E+03  0.81461363067E+03  0.10100000352E+00 0.  1.
       -3    1    3    3    0  502 -0.38487053824E+02 -0.36923968841E+03 -0.19251336688E+03  0.41818728751E+03  0.10100000352E+00 0. -1.
</event>
<event>
 5   0  0.3962999E-03  0.1100438E+04  0.7818609E-02  0.9204765E-01
        2   -1    0    0  501    0  0.00000000000E+00  0.00000000000E+00  0.66868976269E+03  0.66868976270E+03  0.25500000920E-02 0.  1.
       -2   -1    0    0    0  501  0.00000000000E+00  0.00000000000E+00 -0.45273778509E+03  0.45273778509E+03  0.25500000920E-02 0. -1.
    10030    2    1    2    0    0  0.00000000000E+00  0.00000000000E+00  0.21595197761E+03  0.11214275478E+04  0.11004383165E+04 0.  0.
        3    1    3    3  502    0 -0.17168865018E+03 -0.35404688549E+01  0.64068109646E+03  0.66329616694E+03  0.10100000352E+00 0.  1.
       -3    1    3    3    0  502  0.17168865018E+03  0.35404688549E+01 -0.42472911885E+03  0.45813138085E+03  0.10100000352E+00 0. -1.
</event>
<event>
 5   0  0.1508625E-03  0.1077160E+04  0.7818609E-02  0.9227743E-01
       -3   -1    0    0    0  501  0.00000000000E+00  0.00000000000E+00  0.21789652310E+04  0.21789652333E+04  0.10100000352E+00 0.  1.
        3   -1    0    0  501    0  0.00000000000E+00  0.00000000000E+00 -0.13312217345E+03  0.13312221176E+03  0.10100000352E+00 0. -1.
    10030    2    1    2    0    0  0.00000000000E+00  0.00000000000E+00  0.20458430575E+04  0.23120874451E+04  0.10771604048E+04 0.  0.
        5    1    3    3  502    0 -0.17832951628E+03 -0.19959518736E+03  0.19791938956E+02  0.26842776689E+03  0.46999998093E+01 0. -1.
       -5    1    3    3    0  502  0.17832951628E+03  0.19959518736E+03  0.20260511185E+04  0.20436596782E+04  0.46999998093E+01 0.  1.
</event>
<event>
 5   0  0.3744875E-03  0.9197826E+03  0.7818609E-02  0.9401185E-01
       -2   -1    0    0    0  501  0.00000000000E+00  0.00000000000E+00  0.37593875620E+03  0.37593875621E+03  0.25500000920E-02 0. -1.
        2   -1    0    0  501    0  0.00000000000E+00  0.00000000000E+00 -0.56259160560E+03  0.56259160560E+03  0.25500000920E-02 0.  1.
    10030    2    1    2    0    0  0.00000000000E+00  0.00000000000E+00 -0.18665284940E+03  0.93853036181E+03  0.91978255792E+03 0.  0.
        2    1    3    3  502    0 -0.77285297315E+02 -0.95167619600E+02  0.35895774272E+03  0.37931590273E+03  0.25500000920E-02 0. -1.
       -2    1    3    3    0  502  0.77285297315E+02  0.95167619600E+02 -0.54561059212E+03  0.55921445908E+03  0.25500000920E-02 0.  1.
</event>
<event>
 5   0  0.2255788E-03  0.1114530E+04  0.7818609E-02  0.9191145E-01
        1   -1    0    0  501    0  0.00000000000E+00  0.00000000000E+00  0.58202420994E+03  0.58202420996E+03  0.50400001928E-02 0.  1.
       -1   -1    0    0    0  501  0.00000000000E+00  0.00000000000E+00 -0.53355905759E+03  0.53355905761E+03  0.50400001928E-02 0. -1.
    10030    2    1    2    0    0  0.00000000000E+00  0.00000000000E+00  0.48465152348E+02  0.11155832676E+04  0.11145300157E+04 0.  0.
        3    1    3    3  502    0 -0.70060928144E+02 -0.80760494006E+02  0.57166210645E+03  0.58157404103E+03  0.10100000352E+00 0.  1.
       -3    1    3    3    0  502  0.70060928144E+02  0.80760494006E+02 -0.52319695411E+03  0.53400922654E+03  0.10100000352E+00 0. -1.
</event>
<event>
 5   0  0.3748901E-03  0.1100066E+04  0.7818609E-02  0.9205127E-01
       -2   -1    0    0    0  501  0.00000000000E+00  0.00000000000E+00  0.17767427340E+03  0.17767427342E+03  0.25500000920E-02 0.  1.
        2   -1    0    0  501    0  0.00000000000E+00  0.00000000000E+00 -0.17027589176E+04  0.17027589176E+04  0.25500000920E-02 0. -1.
    10030    2    1    2    0    0  0.00000000000E+00  0.00000000000E+00 -0.15250846442E+04  0.18804331910E+04  0.11000662771E+04 0.  0.
        5    1    3    3  502    0  0.50962145126E+03 -0.20453031481E+03 -0.81571728956E+03  0.98334300208E+03  0.46999998093E+01 0. -1.
       -5    1    3    3    0  502 -0.50962145126E+03  0.20453031481E+03 -0.70936735467E+03  0.89709018896E+03  0.46999998093E+01 0.  1.
</event>
<event>
 5   0  0.2300702E-03  0.1098977E+04  0.7818609E-02  0.9206189E-01
       -1   -1    0    0    0  501  0.00000000000E+00  0.00000000000E+00  0.27944288850E+03  0.27944288855E+03  0.50400001928E-02 0.  1.
        1   -1    0    0  501    0  0.00000000000E+00  0.00000000000E+00 -0.10804993410E+04  0.10804993410E+04  0.50400001928E-02 0. -1.
    10030    2    1    2    0    0  0.00000000000E+00  0.00000000000E+00 -0.80105645246E+03  0.13599422295E+04  0.10989774464E+04 0.  0.
        5    1    3    3  502    0 -0.41680800275E+03 -0.30813894701E+03 -0.62613087267E+03  0.81285944759E+03  0.46999998093E+01 0. -1.
       -5    1    3    3    0  502  0.41680800275E+03  0.30813894701E+03 -0.17492557979E+03  0.54708278193E+03  0.46999998093E+01 0.  1.
</event>
<event>
 5   0  0.3748901E-03  0.1100516E+04  0.7818609E-02  0.9204689E-01
       -2   -1    0    0    0  501  0.00000000000E+00  0.00000000000E+00  0.52996519192E+03  0.52996519193E+03  0.25500000920E-02 0.  1.
        2   -1    0    0  501    0  0.00000000000E+00  0.00000000000E+00 -0.57132822598E+03  0.57132822599E+03  0.25500000920E-02 0. -1.
    10030    2    1    2    0    0  0.00000000000E+00  0.00000000000E+00 -0.41363034058E+02  0.11012934179E+04  0.11005163751E+04 0.  0.
        5    1    3    3  502    0 -0.37201179461E+03 -0.20195524319E+03 -0.37247387931E+03  0.56385953601E+03  0.46999998093E+01 0. -1.
       -5    1    3    3    0  502  0.37201179461E+03  0.20195524319E+03  0.33111084525E+03  0.53743388191E+03  0.46999998093E+01 0.  1.
</event>
<event>
 5   0  0.3992414E-03  0.1088621E+04  0.7818609E-02  0.9216354E-01
       -2   -1    0    0    0  501  0.00000000000E+00  0.00000000000E+00  0.31872007646E+03  0.31872007647E+03  0.25500000920E-02 0. -1.
        2   -1    0    0  501    0  0.00000000000E+00  0.00000000000E+00 -0.92957383728E+03  0.92957383728E+03  0.25500000920E-02 0.  1.
    10030    2    1    2    0    0  0.00000000000E+00  0.00000000000E+00 -0.61085376082E+03  0.12482939138E+04  0.10886208605E+04 0.  0.
        1    1    3    3  502    0 -0.45202877204E+03 -0.10889735635E+03 -0.62992809880E+03  0.78294192292E+03  0.50400001928E-02 0.  1.
       -1    1    3    3    0  502  0.45202877204E+03  0.10889735635E+03  0.19074337987E+02  0.46535199083E+03  0.50400001928E-02 0. -1.
</event>
<event>
 5   0  0.3713158E-03  0.1174318E+04  0.7818609E-02  0.9135638E-01
        2   -1    0    0  501    0  0.00000000000E+00  0.00000000000E+00  0.13853112186E+04  0.13853112186E+04  0.25500000920E-02 0. -1.
       -2   -1    0    0    0  501  0.00000000000E+00  0.00000000000E+00 -0.24886512772E+03  0.24886512773E+03  0.25500000920E-02 0.  1.
    10030    2    1    2    0    0  0.00000000000E+00  0.00000000000E+00  0.11364460909E+04  0.16341763463E+04  0.11743179354E+04 0.  0.
        4    1    3    3  502    0 -0.66032548302E+02 -0.19487731710E+03  0.13334953932E+04  0.13492772298E+04  0.12699999809E+01 0. -1.
       -4    1    3    3    0  502  0.66032548302E+02  0.19487731710E+03 -0.19704930235E+03  0.28489911655E+03  0.12699999809E+01 0.  1.
</event>
<event>
 5   0  0.2255788E-03  0.1110775E+04  0.7818609E-02  0.9194753E-01
        1   -1    0    0  501    0  0.00000000000E+00  0.00000000000E+00  0.86207656773E+03  0.86207656774E+03  0.50400001928E-02 0.  1.
       -1   -1    0    0    0  501  0.00000000000E+00  0.00000000000E+00 -0.35780514503E+03  0.35780514507E+03  0.50400001928E-02 0. -1.
    10030    2    1    2    0    0  0.00000000000E+00  0.00000000000E+00  0.50427142270E+03  0.12198817128E+04  0.11107752813E+04 0.  0.
        3    1    3    3  502    0  0.24241479210E+03  0.12350499857E+03 -0.27961073550E+03  0.39012893985E+03  0.10100000352E+00 0. -1.
       -3    1    3    3    0  502 -0.24241479210E+03 -0.12350499857E+03  0.78388215820E+03  0.82975277296E+03  0.10100000352E+00 0.  1.
</event>
<event>
 5   0  0.2257667E-03  0.1101649E+04  0.7818609E-02  0.9203586E-01
       -1   -1    0    0    0  501  0.00000000000E+00  0.00000000000E+00  0.38406060598E+03  0.38406060601E+03  0.50400001928E-02 0. -1.
        1   -1    0    0  501    0  0.00000000000E+00  0.00000000000E+00 -0.78999916198E+03  0.78999916200E+03  0.50400001928E-02 0.  1.
    10030    2    1    2    0    0  0.00000000000E+00  0.00000000000E+00 -0.40593855600E+03  0.11740597680E+04  0.11016488677E+04 0.  0.
        4    1    3    3  502    0  0.46342538703E+03 -0.25480136171E+03 -0.38836127197E+02  0.53027981383E+03  0.12699999809E+01 0. -1.
       -4    1    3    3    0  502 -0.46342538703E+03  0.25480136171E+03 -0.36710242880E+03  0.64377995418E+03  0.12699999809E+01 0.  1.
</event>
<event>
 5   0  0.3992414E-03  0.1096673E+04  0.7818609E-02  0.9208441E-01
        2   -1    0    0  501    0  0.00000000000E+00  0.00000000000E+00  0.12748246251E+04  0.12748246251E+04  0.25500000920E-02 0.  1.
       -2   -1    0    0    0  501  0.00000000000E+00  0.00000000000E+00 -0.23585425818E+03  0.23585425820E+03  0.25500000920E-02 0. -1.
    10030    2    1    2    0    0  0.00000000000E+00  0.00000000000E+00  0.10389703669E+04  0.15106788833E+04  0.10966728159E+04 0.  0.
        1    1    3    3  502    0  0.22781500157E+03  0.33910923651E+03  0.10233192611E+04  0.11018516504E+04  0.50400001928E-02 0.  1.
       -1    1    3    3    0  502 -0.22781500157E+03 -0.33910923651E+03  0.15651105772E+02  0.40882723290E+03  0.50400001928E-02 0. -1.
</event>
<event>
 5   0  0.2257667E-03  0.1045554E+04  0.7818609E-02  0.9259946E-01
        1   -1    0    0  501    0  0.00000000000E+00  0.00000000000E+00  0.33411907098E+03  0.33411907102E+03  0.50400001928E-02 0. -1.
       -1   -1    0    0    0  501  0.00000000000E+00  0.00000000000E+00 -0.81795900360E+03  0.81795900362E+03  0.50400001928E-02 0.  1.
    10030    2    1    2    0    0  0.00000000000E+00  0.00000000000E+00 -0.48383993262E+03  0.11520780746E+04  0.10455538292E+04 0.  0.
        4    1    3    3  502    0 -0.15737769755E+03  0.34731690014E+03  0.15214355879E+03  0.41054359597E+03  0.12699999809E+01 0. -1.
       -4    1    3    3    0  502  0.15737769755E+03 -0.34731690014E+03 -0.63598349141E+03  0.74153447867E+03  0.12699999809E+01 0.  1.
</event>
<event>
 5   0  0.3713158E-03  0.1170875E+04  0.7818609E-02  0.9138738E-01
       -2   -1    0    0    0  501  0.00000000000E+00  0.00000000000E+00  0.35045722453E+03  0.35045722454E+03  0.25500000920E-02 0. -1.
        2   -1    0    0  501    0  0.00000000000E+00  0.00000000000E+00 -0.97797177097E+03  0.97797177098E+03  0.25500000920E-02 0.  1.
    10030    2    1    2    0    0  0.00000000000E+00  0.00000000000E+00 -0.62751454645E+03  0.13284289955E+04  0.11708753521E+04 0.  0.
        4    1    3    3  502    0 -0.58486228820E+03 -0.17803715026E+02 -0.29238680167E+03  0.65411965504E+03  0.12699999809E+01 0.  1.
       -4    1    3    3    0  502  0.58486228820E+03  0.17803715026E+02 -0.33512774478E+03  0.67430934047E+03  0.12699999809E+01 0. -1.
</event>
<event>
 5   0  0.3748901E-03  0.1111007E+04  0.7818609E-02  0.9194529E-01
        2   -1    0    0  501    0  0.00000000000E+00  0.00000000000E+00  0.14186992500E+04  0.14186992500E+04  0.25500000920E-02 0. -1.
       -2   -1    0    0    0  501  0.00000000000E+00  0.00000000000E+00 -0.21751209538E+03  0.21751209540E+03  0.25500000920E-02 0.  1.
    10030    2    1    2    0    0  0.00000000000E+00  0.00000000000E+00  0.12011871546E+04  0.16362113454E+04  0.11110071946E+04 0.  0.
        5    1    3    3  502    0  0.40738344933E+03 -0.37376772107E+03  0.67988288230E+03  0.87631410336E+03  0.46999998093E+01 0.  1.
       -5    1    3    3    0  502 -0.40738344933E+03  0.37376772107E+03  0.52130427228E+03  0.75989724200E+03  0.46999998093E+01 0. -1.
</event>
<event>
 5   0  0.3748901E-03  0.1084777E+04  0.7818609E-02  0.9220158E-01
       -2   -1    0    0    0  501  0.00000000000E+00  0.00000000000E+00  0.71249177349E+03  0.71249177349E+03  0.25500000920E-02 0. -1.
        2   -1    0    0  501    0  0.00000000000E+00  0.00000000000E+00 -0.41289623478E+03  0.41289623479E+03  0.25500000920E-02 0.  1.
    10030    2    1    2    0    0  0.00000000000E+00  0.00000000000E+00  0.29959553871E+03  0.11253880083E+04  0.10847767892E+04 0.  0.
        5    1    3    3  502    0 -0.44635757198E+03  0.73488217427E+02 -0.16061535869E+03  0.48005727118E+03  0.46999998093E+01 0.  1.
       -5    1    3    3    0  502  0.44635757198E+03 -0.73488217427E+02  0.46021089739E+03  0.64533073710E+03  0.46999998093E+01 0. -1.
</event>
<event>
 5   0  0.2257667E-03  0.1107987E+04  0.7818609E-02  0.9197442E-01
        1   -1    0    0  501    0  0.00000000000E+00  0.00000000000E+00  0.62666947200E+03  0.62666947202E+03  0.50400001928E-02 0.  1.
       -1   -1    0    0    0  501  0.00000000000E+00  0.00000000000E+00 -0.48974587936E+03  0.48974587939E+03  0.50400001928E-02 0. -1.
    10030    2    1    2    0    0  0.00000000000E+00  0.00000000000E+00  0.13692359263E+03  0.11164153514E+04  0.11079869885E+04 0.  0.
        4    1    3    3  502    0 -0.29169795427E+03  0.41309404619E+03  0.29639662583E+03  0.58616291271E+03  0.12699999809E+01 0.  1.
       -4    1    3    3    0  502  0.29169795427E+03 -0.41309404619E+03 -0.15947303320E+03  0.53025243870E+03  0.12699999809E+01 0. -1.
</event>
<event>
 5   0  0.2257667E-03  0.1067590E+04  0.7818609E-02  0.9237369E-01
       -1   -1    0    0    0  501  0.00000000000E+00  0.00000000000E+00  0.35481171275E+03  0.35481171279E+03  0.50400001928E-02 0.  1.
        1   -1    0    0  501    0  0.00000000000E+00  0.00000000000E+00 -0.80306580319E+03  0.80306580321E+03  0.50400001928E-02 0. -1.
    10030    2    1    2    0    0  0.00000000000E+00  0.00000000000E+00 -0.44825409044E+03  0.11578775160E+04  0.10675900957E+04 0.  0.
        4    1    3    3  502    0  0.40530716064E+03  0.16452178064E+03  0.10767772181E+03  0.45048575499E+03  0.12699999809E+01 0.  1.
       -4    1    3    3    0  502 -0.40530716064E+03 -0.16452178064E+03 -0.55593181225E+03  0.70739176101E+03  0.12699999809E+01 0. -1.
</event>
<event>
 5   0  0.1508625E-03  0.1097566E+04  0.7818609E-02  0.9207567E-01
       -3   -1    0    0    0  501  0.00000000000E+00  0.00000000000E+00  0.15933295925E+03  0.15933299127E+03  0.10100000352E+00 0. -1.
        3   -1    0    0  501    0  0.00000000000E+00  0.00000000000E+00 -0.18901486187E+04  0.18901486213E+04  0.10100000352E+00 0.  1.
    10030    2    1    2    0    0  0.00000000000E+00  0.00000000000E+00 -0.17308156594E+04  0.20494816126E+04  0.10975664142E+04 0.  0.
        3    1    3    3  502    0  0.13195576417E+03  0.46641460849E+03 -0.38493510513E+03  0.61897492362E+03  0.10100000352E+00 0. -1.
       -3    1    3    3    0  502 -0.13195576417E+03 -0.46641460849E+03 -0.13458805543E+04  0.14305066890E+04  0.10100000352E+00 0.  1.
</event>
<event>
 5   0  0.2298958E-03  0.1115906E+04  0.7818609E-02  0.9189826E-01
       -1   -1    0    0    0  501  0.00000000000E+00  0.00000000000E+00  0.30613424974E+03  0.30613424979E+03  0.50400001928E-02 0. -1.
        1   -1    0    0  501    0  0.00000000000E+00  0.00000000000E+00 -0.10169114436E+04  0.10169114436E+04  0.50400001928E-02 0.  1.
    10030    2    1    2    0    0  0.00000000000E+00  0.00000000000E+00 -0.71077719384E+03  0.13230456934E+04  0.11159057700E+04 0.  0.
        1    1    3    3  502    0 -0.27080773055E+03 -0.48737005152E+03 -0.33037703041E+03  0.64808593280E+03  0.50400001928E-02 0.  1.
       -1    1    3    3    0  502  0.27080773055E+03  0.48737005152E+03 -0.38040016343E+03  0.67495976058E+03  0.50400001928E-02 0. -1.
</event>
<event>
 5   0  0.3748901E-03  0.1096684E+04  0.7818609E-02  0.9208430E-01
       -2   -1    0    0    0  501  0.00000000000E+00  0.00000000000E+00  0.17921671293E+03  0.17921671295E+03  0.25500000920E-02 0.  1.
        2   -1    0    0  501    0  0.00000000000E+00  0.00000000000E+00 -0.16777398613E+04  0.16777398613E+04  0.25500000920E-02 0. -1.
    10030    2    1    2    0    0  0.00000000000E+00  0.00000000000E+00 -0.14985231483E+04  0.18569565742E+04  0.10966841352E+04 0.  0.
        5    1    3    3  502    0  0.88872650954E+02  0.30768540068E+03  0.43534992471E+01  0.32032748373E+03  0.46999998093E+01 0.  1.
       -5    1    3    3    0  502 -0.88872650954E+02 -0.30768540068E+03 -0.15028766476E+04  0.15366290905E+04  0.46999998093E+01 0. -1.
</event>
<event>
 5   0  0.3713158E-03  0.1110689E+04  0.7818609E-02  0.9194835E-01
        2   -1    0    0  501    0  0.00000000000E+00  0.00000000000E+00  0.26077042952E+03  0.26077042953E+03  0.25500000920E-02 0. -1.
       -2   -1    0    0    0  501  0.00000000000E+00  0.00000000000E+00 -0.11826792540E+04  0.11826792540E+04  0.25500000920E-02 0.  1.
    10030    2    1    2    0    0  0.00000000000E+00  0.00000000000E+00 -0.92190882446E+03  0.14434496835E+04  0.11106894742E+04 0.  0.
        4    1    3    3  502    0  0.11328712736E+03 -0.40573299743E+03 -0.93124533496E+03  0.10220923271E+04  0.12699999809E+01 0.  1.
       -4    1    3    3    0  502 -0.11328712736E+03  0.40573299743E+03  0.93365104934E+01  0.42135735636E+03  0.12699999809E+01 0. -1.
</event>
<event>
 5   0  0.3992414E-03  0.1094893E+04  0.7818609E-02  0.9210184E-01
        2   -1    0    0  501    0  0.00000000000E+00  0.00000000000E+00  0.13822282129E+04  0.13822282129E+04  0.25500000920E-02 0. -1.
       -2   -1    0    0    0  501  0.00000000000E+00  0.00000000000E+00 -0.21682195329E+03  0.21682195331E+03  0.25500000920E-02 0.  1.
    10030    2    1    2    0    0  0.00000000000E+00  0.00000000000E+00  0.11654062596E+04  0.15990501662E+04  0.10948925445E+04 0.  0.
        1    1    3    3  502    0  0.99561103280E+02 -0.48910169342E+02 -0.20023696563E+03  0.22890928418E+03  0.50400001928E-02 0.  1.
       -1    1    3    3    0  502 -0.99561103280E+02  0.48910169342E+02  0.13656432252E+04  0.13701408820E+04  0.50400001928E-02 0. -1.
</event>
<event>
 5   0  0.3992414E-03  0.1110838E+04  0.7818609E-02  0.9194692E-01
       -2   -1    0    0    0  501  0.00000000000E+00  0.00000000000E+00  0.31023455688E+03  0.31023455689E+03  0.25500000920E-02 0.  1.
        2   -1    0    0  501    0  0.00000000000E+00  0.00000000000E+00 -0.99437723463E+03  0.99437723464E+03  0.25500000920E-02 0. -1.
    10030    2    1    2    0    0  0.00000000000E+00  0.00000000000E+00 -0.68414267776E+03  0.13046117915E+04  0.11108378473E+04 0.  0.
        1    1    3    3  502    0  0.44022054523E+03 -0.16325245086E+03 -0.69055483463E+03  0.83505177732E+03  0.50400001928E-02 0. -1.
       -1    1    3    3    0  502 -0.44022054523E+03  0.16325245086E+03  0.64121568706E+01  0.46956001420E+03  0.50400001928E-02 0.  1.
</event>
<event>
 5   0  0.2374100E-03  0.1089749E+04  0.7818609E-02  0.9215241E-01
        1   -1    0    0  501    0  0.00000000000E+00  0.00000000000E+00  0.54622915083E+03  0.54622915085E+03  0.50400001928E-02 0. -1.
       -1   -1    0    0    0  501  0.00000000000E+00  0.00000000000E+00 -0.54352305297E+03  0.54352305299E+03  0.50400001928E-02 0.  1.
    10030    2    1    2    0    0  0.00000000000E+00  0.00000000000E+00  0.27060978658E+01  0.10897522038E+04  0.10897488439E+04 0.  0.
        2    1    3    3  502    0  0.39798343465E+03  0.14775723455E+03  0.34291686506E+03  0.54572428109E+03  0.25500000920E-02 0. -1.
       -2    1    3    3    0  502 -0.39798343465E+03 -0.14775723455E+03 -0.34021076719E+03  0.54402792276E+03  0.25500000920E-02 0.  1.
</event>
<event>
 5   0  0.2300702E-03  0.1100150E+04  0.7818609E-02  0.9205046E-01
       -1   -1    0    0    0  501  0.00000000000E+00  0.00000000000E+00  0.44484061806E+03  0.44484061809E+03  0.50400001928E-02 0. -1.
        1   -1    0    0  501    0  0.00000000000E+00  0.00000000000E+00 -0.68020450417E+03  0.68020450418E+03  0.50400001928E-02 0.  1.
    10030    2    1    2    0    0  0.00000000000E+00  0.00000000000E+00 -0.23536388610E+03  0.11250451223E+04  0.11001501571E+04 0.  0.
        5    1    3    3  502    0  0.16586052215E+03 -0.49685634022E+03  0.53999618661E+02  0.52660609989E+03  0.46999998093E+01 0. -1.
       -5    1    3    3    0  502 -0.16586052215E+03  0.49685634022E+03 -0.28936350477E+03  0.59843902239E+03  0.46999998093E+01 0.  1.
</event>
<event>
 5   0  0.3748901E-03  0.1109472E+04  0.7818609E-02  0.9196009E-01
       -2   -1    0    0    0  501  0.00000000000E+00  0.00000000000E+00  0.15247025952E+03  0.15247025954E+03  0.25500000920E-02 0. -1.
        2   -1    0    0  501    0  0.00000000000E+00  0.00000000000E+00 -0.20183088461E+04  0.20183088461E+04  0.25500000920E-02 0.  1.
    10030    2    1    2    0    0  0.00000000000E+00  0.00000000000E+00 -0.18658385866E+04  0.21707791057E+04  0.11094720791E+04 0.  0.
        5    1    3    3  502    0  0.16783246024E+03 -0.47205284858E+03 -0.46698702584E+03  0.68490919023E+03  0.46999998093E+01 0. -1.
       -5    1    3    3    0  502 -0.16783246024E+03  0.47205284858E+03 -0.13988515608E+04  0.14858699155E+04  0.46999998093E+01 0.  1.
</event>
<event>
 5   0  0.2257667E-03  0.1101806E+04  0.7818609E-02  0.9203434E-01
        1   -1    0    0  501    0  0.00000000000E+00  0.00000000000E+00  0.17229658982E+04  0.17229658982E+04  0.50400001928E-02 0. -1.
       -1   -1    0    0    0  501  0.00000000000E+00  0.00000000000E+00 -0.17614623237E+03  0.17614623244E+03  0.50400001928E-02 0.  1.
    10030    2    1    2    0    0  0.00000000000E+00  0.00000000000E+00  0.15468196658E+04  0.18991121306E+04  0.11018057025E+04 0.  0.
        4    1    3    3  502    0  0.47805894995E+03 -0.17931160917E+03  0.11299956423E+04  0.12399938618E+04  0.12699999809E+01 0. -1.
       -4    1    3    3    0  502 -0.47805894995E+03  0.17931160917E+03  0.41682402351E+03  0.65911826882E+03  0.12699999809E+01 0.  1.
</event>
<event>
 5   0  0.3744875E-03  0.1109987E+04  0.7818609E-02  0.9195512E-01
        2   -1    0    0  501    0  0.00000000000E+00  0.00000000000E+00  0.93897919374E+03  0.93897919374E+03  0.25500000920E-02 0. -1.
       -2   -1    0    0    0  501  0.00000000000E+00  0.00000000000E+00 -0.32803490076E+03  0.32803490077E+03  0.25500000920E-02 0.  1.
    10030    2    1    2    0    0  0.00000000000E+00  0.00000000000E+00  0.61094429297E+03  0.12670140945E+04  0.11099872912E+04 0.  0.
        2    1    3    3  502    0 -0.50378021392E+03 -0.49387884351E+02  0.56522624521E+03  0.75875844334E+03  0.25500000920E-02 0.  1.
       -2    1    3    3    0  502  0.50378021392E+03  0.49387884351E+02  0.45718047767E+02  0.50825565118E+03  0.25500000920E-02 0. -1.
</event>
<event>
 5   0  0.2298958E-03  0.1101831E+04  0.7818609E-02  0.9203409E-01
        1   -1    0    0  501    0  0.00000000000E+00  0.00000000000E+00  0.12351166591E+04  0.12351166591E+04  0.50400001928E-02 0. -1.
       -1   -1    0    0    0  501  0.00000000000E+00  0.00000000000E+00 -0.24573199860E+03  0.24573199865E+03  0.50400001928E-02 0.  1.
    10030    2    1    2    0    0  0.00000000000E+00  0.00000000000E+00  0.98938466047E+03  0.14808486577E+04  0.11018306316E+04 0.  0.
        1    1    3    3  502    0 -0.37773216028E+03  0.28727823459E+03  0.11862182628E+03  0.48916408972E+03  0.50400001928E-02 0.  1.
       -1    1    3    3    0  502  0.37773216028E+03 -0.28727823459E+03  0.87076283419E+03  0.99168456800E+03  0.50400001928E-02 0. -1.
</event>
<event>
 5   0  0.3962999E-03  0.1099975E+04  0.7818609E-02  0.9205216E-01
       -2   -1    0    0    0  501  0.00000000000E+00  0.00000000000E+00  0.21081650580E+03  0.21081650581E+03  0.25500000920E-02 0.  1.
        2   -1    0    0  501    0  0.00000000000E+00  0.00000000000E+00 -0.14348321603E+04  0.14348321603E+04  0.25500000920E-02 0. -1.
    10030    2    1    2    0    0  0.00000000000E+00  0.00000000000E+00 -0.12240156545E+04  0.16456486661E+04  0.10999750951E+04 0.  0.
        3    1    3    3  502    0  0.28619114850E+03 -0.39244032713E+03 -0.22599790465E+03  0.53571433334E+03  0.10100000352E+00 0.  1.
       -3    1    3    3    0  502 -0.28619114850E+03  0.39244032713E+03 -0.99801774983E+03  0.11099343327E+04  0.10100000352E+00 0. -1.
</event>
<event>
 5   0  0.3748901E-03  0.1085294E+04  0.7818609E-02  0.9219645E-01
        2   -1    0    0  501    0  0.00000000000E+00  0.00000000000E+00  0.57347545350E+03  0.57347545350E+03  0.25500000920E-02 0. -1.
       -2   -1    0    0    0  501  0.00000000000E+00  0.00000000000E+00 -0.51347574463E+03  0.51347574464E+03  0.25500000920E-02 0.  1.
    10030    2    1    2    0    0  0.00000000000E+00  0.00000000000E+00  0.59999708866E+02  0.10869511981E+04  0.10852939427E+04 0.  0.
        5    1    3    3  502    0 -0.25046055944E+03  0.20717033990E+03  0.46516720600E+03  0.56749683797E+03  0.46999998093E+01 0. -1.
       -5    1    3    3    0  502  0.25046055944E+03 -0.20717033990E+03 -0.40516749713E+03  0.51945436017E+03  0.46999998093E+01 0.  1.
</event>
<event>
 5   0  0.2298958E-03  0.1105230E+04  0.7818609E-02  0.9200109E-01
       -1   -1    0    0    0  501  0.00000000000E+00  0.00000000000E+00  0.53692467402E+03  0.53692467405E+03  0.50400001928E-02 0.  1.
        1   -1    0    0  501    0  0.00000000000E+00  0.00000000000E+00 -0.56876384127E+03  0.56876384129E+03  0.50400001928E-02 0. -1.
    10030    2    1    2    0    0  0.00000000000E+00  0.00000000000E+00 -0.31839167244E+02  0.11056885153E+04  0.11052300034E+04 0.  0.
        1    1    3    3  502    0 -0.37294905982E+02 -0.89901432100E+02 -0.56012150759E+03  0.56851497852E+03  0.50400001928E-02 0. -1.
       -1    1    3    3    0  502  0.37294905982E+02  0.89901432100E+02  0.52828234035E+03  0.53717353682E+03  0.50400001928E-02 0.  1.
</event>
<event>
 5   0  0.2257667E-03  0.1166542E+04  0.7818609E-02  0.9142657E-01
       -1   -1    0    0    0  501  0.00000000000E+00  0.00000000000E+00  0.32274258200E+03  0.32274258204E+03  0.50400001928E-02 0. -1.
        1   -1    0    0  501    0  0.00000000000E+00  0.00000000000E+00 -0.10541071300E+04  0.10541071300E+04  0.50400001928E-02 0.  1.
    10030    2    1    2    0    0  0.00000000000E+00  0.00000000000E+00 -0.73136454797E+03  0.13768497120E+04  0.11665423385E+04 0.  0.
        4    1    3    3  502    0 -0.29305819942E+03  0.37011110002E+03  0.38619778079E+02  0.47366489712E+03  0.12699999809E+01 0. -1.
       -4    1    3    3    0  502  0.29305819942E+03 -0.37011110002E+03 -0.76998432605E+03  0.90318481490E+03  0.12699999809E+01 0.  1.
</event>
<event>
 5   0  0.2300702E-03  0.1084820E+04  0.7818609E-02  0.9220115E-01
        1   -1    0    0  501    0  0.00000000000E+00  0.00000000000E+00  0.61478666791E+03  0.61478666793E+03  0.50400001928E-02 0. -1.
       -1   -1    0    0    0  501  0.00000000000E+00  0.00000000000E+00 -0.47855375039E+03  0.47855375042E+03  0.50400001928E-02 0.  1.
    10030    2    1    2    0    0  0.00000000000E+00  0.00000000000E+00  0.13623291752E+03  0.10933404183E+04  0.10848197374E+04 0.  0.
        5    1    3    3  502    0  0.16187784564E+03 -0.10534822080E+03  0.57893434017E+03  0.61031937931E+03  0.46999998093E+01 0. -1.
       -5    1    3    3    0  502 -0.16187784564E+03  0.10534822080E+03 -0.44270142265E+03  0.48302103903E+03  0.46999998093E+01 0.  1.
</event>
<event>
 5   0  0.2300702E-03  0.1075809E+04  0.7818609E-02  0.9229096E-01
        1   -1    0    0  501    0  0.00000000000E+00  0.00000000000E+00  0.29163713046E+03  0.29163713050E+03  0.50400001928E-02 0. -1.
       -1   -1    0    0    0  501  0.00000000000E+00  0.00000000000E+00 -0.99212778959E+03  0.99212778960E+03  0.50400001928E-02 0.  1.
    10030    2    1    2    0    0  0.00000000000E+00  0.00000000000E+00 -0.70049065913E+03  0.12837649201E+04  0.10758090939E+04 0.  0.
        5    1    3    3  502    0  0.51111835263E+03  0.10094777388E+03 -0.19065136068E+03  0.55479947258E+03  0.46999998093E+01 0. -1.
       -5    1    3    3    0  502 -0.51111835263E+03 -0.10094777388E+03 -0.50983929845E+03  0.72896544752E+03  0.46999998093E+01 0.  1.
</event>
<event>
 5   0  0.3748901E-03  0.1098366E+04  0.7818609E-02  0.9206786E-01
        2   -1    0    0  501    0  0.00000000000E+00  0.00000000000E+00  0.11130566353E+04  0.11130566353E+04  0.25500000920E-02 0. -1.
       -2   -1    0    0    0  501  0.00000000000E+00  0.00000000000E+00 -0.27096730283E+03  0.27096730285E+03  0.25500000920E-02 0.  1.
    10030    2    1    2    0    0  0.00000000000E+00  0.00000000000E+00  0.84208933249E+03  0.13840239382E+04  0.10983659761E+04 0.  0.
        5    1    3    3  502    0  0.40786849051E+02 -0.46370734067E+03  0.53906613355E+02  0.46863213485E+03  0.46999998093E+01 0.  1.
       -5    1    3    3    0  502 -0.40786849051E+02  0.46370734067E+03  0.78818271913E+03  0.91539180332E+03  0.46999998093E+01 0. -1.
</event>
<event>
 5   0  0.3748901E-03  0.1102801E+04  0.7818609E-02  0.9202466E-01
       -2   -1    0    0    0  501  0.00000000000E+00  0.00000000000E+00  0.17911155501E+03  0.17911155503E+03  0.25500000920E-02 0. -1.
        2   -1    0    0  501    0  0.00000000000E+00  0.00000000000E+00 -0.16975036088E+04  0.16975036088E+04  0.25500000920E-02 0.  1.
    10030    2    1    2    0    0  0.00000000000E+00  0.00000000000E+00 -0.15183920538E+04  0.18766151638E+04  0.11028009993E+04 0.  0.
        5    1    3    3  502    0  0.12920923082E+03 -0.35199570980E+03 -0.14471138175E+04  0.14949101966E+04  0.46999998093E+01 0.  1.
       -5    1    3    3    0  502 -0.12920923082E+03  0.35199570980E+03 -0.71278236273E+02  0.38170496723E+03  0.46999998093E+01 0. -1.
</event>
<event>
 5   0  0.3962999E-03  0.1092609E+04  0.7818609E-02  0.9212425E-01
       -2   -1    0    0    0  501  0.00000000000E+00  0.00000000000E+00  0.46895161639E+03  0.46895161640E+03  0.25500000920E-02 0.  1.
        2   -1    0    0  501    0  0.00000000000E+00  0.00000000000E+00 -0.63641711676E+03  0.63641711677E+03  0.25500000920E-02 0. -1.
    10030    2    1    2    0    0  0.00000000000E+00  0.00000000000E+00 -0.16746550037E+03  0.11053687332E+04  0.10926094190E+04 0.  0.
        3    1    3    3  502    0 -0.57271234179E+02 -0.12680553440E+03 -0.61819094623E+03  0.63365581669E+03  0.10100000352E+00 0. -1.
       -3    1    3    3    0  502  0.57271234179E+02  0.12680553440E+03  0.45072544587E+03  0.47171291648E+03  0.10100000352E+00 0.  1.
</event>
<event>
 5   0  0.3748901E-03  0.9381435E+03  0.7818609E-02  0.9379117E-01
       -2   -1    0    0    0  501  0.00000000000E+00  0.00000000000E+00  0.18202617794E+03  0.18202617796E+03  0.25500000920E-02 0.  1.
        2   -1    0    0  501    0  0.00000000000E+00  0.00000000000E+00 -0.12087728774E+04  0.12087728774E+04  0.25500000920E-02 0. -1.
    10030    2    1    2    0    0  0.00000000000E+00  0.00000000000E+00 -0.10267466994E+04  0.13907990553E+04  0.93814350049E+03 0.  0.
        5    1    3    3  502    0 -0.35071655322E+03 -0.17927238505E+03 -0.13579933987E+03  0.41665842060E+03  0.46999998093E+01 0.  1.
       -5    1    3    3    0  502  0.35071655322E+03  0.17927238505E+03 -0.89094735954E+03  0.97414063472E+03  0.46999998093E+01 0. -1.
</event>
<event>
 5   0  0.2374100E-03  0.1111381E+04  0.7818609E-02  0.9194170E-01
        1   -1    0    0  501    0  0.00000000000E+00  0.00000000000E+00  0.95180162950E+03  0.95180162952E+03  0.50400001928E-02 0. -1.
       -1   -1    0    0    0  501  0.00000000000E+00  0.00000000000E+00 -0.32442861982E+03  0.32442861986E+03  0.50400001928E-02 0.  1.
    10030    2    1    2    0    0  0.00000000000E+00  0.00000000000E+00  0.62737300969E+03  0.12762302494E+04  0.11113805631E+04 0.  0.
        2    1    3    3  502    0  0.31815154894E+03 -0.15984079961E+03 -0.17623715822E+03  0.39727701325E+03  0.25500000920E-02 0.  1.
       -2    1    3    3    0  502 -0.31815154894E+03  0.15984079961E+03  0.80361016791E+03  0.87895323612E+03  0.25500000920E-02 0. -1.
</event>
<event>
 5   0  0.3962999E-03  0.1116796E+04  0.7818609E-02  0.9188974E-01
        2   -1    0    0  501    0  0.00000000000E+00  0.00000000000E+00  0.61041945839E+03  0.61041945840E+03  0.25500000920E-02 0.  1.
       -2   -1    0    0    0  501  0.00000000000E+00  0.00000000000E+00 -0.51080993414E+03  0.51080993415E+03  0.25500000920E-02 0. -1.
    10030    2    1    2    0    0  0.00000000000E+00  0.00000000000E+00  0.99609524246E+02  0.11212293925E+04  0.11167959945E+04 0.  0.
        3    1    3    3  502    0 -0.24300667645E+03 -0.44581464777E+03  0.28311784489E+03  0.58134212755E+03  0.10100000352E+00 0. -1.
       -3    1    3    3    0  502  0.24300667645E+03  0.44581464777E+03 -0.18350832065E+03  0.53988726500E+03  0.10100000352E+00 0.  1.
</event>
<event>
 5   0  0.3744875E-03  0.1098111E+04  0.7818609E-02  0.9207035E-01
       -2   -1    0    0    0  501  0.00000000000E+00  0.00000000000E+00  0.62583186016E+03  0.62583186017E+03  0.25500000920E-02 0. -1.
        2   -1    0    0  501    0  0.00000000000E+00  0.00000000000E+00 -0.48169762276E+03  0.48169762276E+03  0.25500000920E-02 0.  1.
    10030    2    1    2    0    0  0.00000000000E+00  0.00000000000E+00  0.14413423740E+03  0.11075294829E+04  0.10981105942E+04 0.  0.
        2    1    3    3  502    0 -0.18395671184E+03 -0.23777466994E+03 -0.39131337790E+03  0.49346025699E+03  0.25500000920E-02 0.  1.
       -2    1    3    3    0  502  0.18395671184E+03  0.23777466994E+03  0.53544761531E+03  0.61406922594E+03  0.25500000920E-02 0. -1.
</event>
<event>
 5   0  0.3962999E-03  0.1022889E+04  0.7818609E-02  0.9283791E-01
       -2   -1    0    0    0  501  0.00000000000E+00  0.00000000000E+00  0.16945604393E+03  0.16945604395E+03  0.25500000920E-02 0. -1.
        2   -1    0    0  501    0  0.00000000000E+00  0.00000000000E+00 -0.15436171756E+04  0.15436171756E+04  0.25500000920E-02 0.  1.
    10030    2    1    2    0    0  0.00000000000E+00  0.00000000000E+00 -0.13741611316E+04  0.17130732195E+04  0.10228885764E+04 0.  0.
        3    1    3    3  502    0 -0.39723081992E+03 -0.22705782251E+03 -0.10698153427E+04  0.11635516563E+04  0.10100000352E+00 0.  1.
       -3    1    3    3    0  502  0.39723081992E+03  0.22705782251E+03 -0.30434578889E+03  0.54952156325E+03  0.10100000352E+00 0. -1.
</event>
<event>
 5   0  0.1508625E-03  0.1093817E+04  0.7818609E-02  0.9211239E-01
        4   -1    0    0  501    0  0.00000000000E+00  0.00000000000E+00  0.82247002520E+03  0.82247100572E+03  0.12699999809E+01 0. -1.
       -4   -1    0    0    0  501  0.00000000000E+00  0.00000000000E+00 -0.36366942444E+03  0.36367164197E+03  0.12699999809E+01 0.  1.
    10030    2    1    2    0    0  0.00000000000E+00  0.00000000000E+00  0.45880060076E+03  0.11861426477E+04  0.10938173474E+04 0.  0.
        3    1    3    3  502    0 -0.11069817211E+03  0.38608926983E+03 -0.17313232587E+03  0.43737149204E+03  0.10100000352E+00 0.  1.
       -3    1    3    3    0  502  0.11069817211E+03 -0.38608926983E+03  0.63193292663E+03  0.74877115566E+03  0.10100000352E+00 0. -1.
</event>
<event>
 5   0  0.3744875E-03  0.1125820E+04  0.7818609E-02  0.9180385E-01
        2   -1    0    0  501    0  0.00000000000E+00  0.00000000000E+00  0.32574609822E+03  0.32574609823E+03  0.25500000920E-02 0.  1.
       -2   -1    0    0    0  501  0.00000000000E+00  0.00000000000E+00 -0.97274423936E+03  0.97274423937E+03  0.25500000920E-02 0. -1.
    10030    2    1    2    0    0  0.00000000000E+00  0.00000000000E+00 -0.64699814114E+03  0.12984903376E+04  0.11258199510E+04 0.  0.
        2    1    3    3  502    0  0.14354373051E+03  0.40680356541E+03 -0.74058926755E+03  0.85706849587E+03  0.25500000920E-02 0. -1.
       -2    1    3    3    0  502 -0.14354373051E+03 -0.40680356541E+03  0.93591126408E+02  0.44142184172E+03  0.25500000920E-02 0.  1.
</event>
<event>
 5   0  0.2257667E-03  0.9609547E+03  0.7818609E-02  0.9352437E-01
       -1   -1    0    0    0  501  0.00000000000E+00  0.00000000000E+00  0.80318330315E+03  0.80318330317E+03  0.50400001928E-02 0.  1.
        1   -1    0    0  501    0  0.00000000000E+00  0.00000000000E+00 -0.28742938491E+03  0.28742938496E+03  0.50400001928E-02 0. -1.
    10030    2    1    2    0    0  0.00000000000E+00  0.00000000000E+00  0.51575391824E+03  0.10906126881E+04  0.96095469785E+03 0.  0.
        4    1    3    3  502    0 -0.18916555156E+03 -0.42100280565E+03  0.10633178685E+03  0.47364019050E+03  0.12699999809E+01 0.  1.
       -4    1    3    3    0  502  0.18916555156E+03  0.42100280565E+03  0.40942213139E+03  0.61697249763E+03  0.12699999809E+01 0. -1.
</event>
<event>
 5   0  0.2257667E-03  0.1095061E+04  0.7818609E-02  0.9210019E-01
        1   -1    0    0  501    0  0.00000000000E+00  0.00000000000E+00  0.12996415370E+04  0.12996415370E+04  0.50400001928E-02 0.  1.
       -1   -1    0    0    0  501  0.00000000000E+00  0.00000000000E+00 -0.23067119977E+03  0.23067119982E+03  0.50400001928E-02 0. -1.
    10030    2    1    2    0    0  0.00000000000E+00  0.00000000000E+00  0.10689703372E+04  0.15303127368E+04  0.10950614095E+04 0.  0.
        4    1    3    3  502    0 -0.40404146858E+02 -0.52553115664E+03  0.74163477105E+03  0.90985671302E+03  0.12699999809E+01 0. -1.
       -4    1    3    3    0  502  0.40404146858E+02  0.52553115664E+03  0.32733556615E+03  0.62045602379E+03  0.12699999809E+01 0.  1.
</event>
<event>
 5   0  0.3713158E-03  0.1092112E+04  0.7818609E-02  0.9212914E-01
        2   -1    0    0  501    0  0.00000000000E+00  0.00000000000E+00  0.25997023633E+04  0.25997023633E+04  0.25500000920E-02 0. -1.
       -2   -1    0    0    0  501  0.00000000000E+00  0.00000000000E+00 -0.11469673382E+03  0.11469673385E+03  0.25500000920E-02 0.  1.
    10030    2    1    2    0    0  0.00000000000E+00  0.00000000000E+00  0.24850056295E+04  0.27143990972E+04  0.10921123935E+04 0.  0.
        4    1    3    3  502    0  0.32288006894E+03  0.88932783287E+02  0.23144676968E+04  0.23385728365E+04  0.12699999809E+01 0. -1.
       -4    1    3    3    0  502 -0.32288006894E+03 -0.88932783287E+02  0.17053793267E+03  0.37582626072E+03  0.12699999809E+01 0.  1.
</event>
<event>
 5   0  0.2255788E-03  0.1087392E+04  0.7818609E-02  0.9217568E-01
        1   -1    0    0  501    0  0.00000000000E+00  0.00000000000E+00  0.16824820331E+04  0.16824820331E+04  0.50400001928E-02 0.  1.
       -1   -1    0    0    0  501  0.00000000000E+00  0.00000000000E+00 -0.17569600808E+03  0.17569600816E+03  0.50400001928E-02 0. -1.
    10030    2    1    2    0    0  0.00000000000E+00  0.00000000000E+00  0.15067860250E+04  0.18581780413E+04  0.10873920672E+04 0.  0.
        3    1    3    3  502    0  0.36320189590E+03  0.20631360005E+03  0.13481192088E+04  0.14113491171E+04  0.10100000352E+00 0.  1.
       -3    1    3    3    0  502 -0.36320189590E+03 -0.20631360005E+03  0.15866681617E+03  0.44682892421E+03  0.10100000352E+00 0. -1.
</event>
<event>
 5   0  0.1508625E-03  0.1102613E+04  0.7818609E-02  0.9202649E-01
        4   -1    0    0  501    0  0.00000000000E+00  0.00000000000E+00  0.67754831716E+03  0.67754950741E+03  0.12699999809E+01 0.  1.
       -4   -1    0    0    0  501  0.00000000000E+00  0.00000000000E+00 -0.44858379490E+03  0.44858559266E+03  0.12699999809E+01 0. -1.
    10030    2    1    2    0    0  0.00000000000E+00  0.00000000000E+00  0.22896452227E+03  0.11261351001E+04  0.11026130378E+04 0.  0.
        2    1    3    3  502    0 -0.10685166230E+03  0.20182163177E+03 -0.39800879491E+03  0.45886844479E+03  0.25500000920E-02 0. -1.
       -2    1    3    3    0  502  0.10685166230E+03 -0.20182163177E+03  0.62697331718E+03  0.66726665528E+03  0.25500000920E-02 0.  1.
</event>
<event>
 5   0  0.3992414E-03  0.1104755E+04  0.7818609E-02  0.9200569E-01
       -2   -1    0    0    0  501  0.00000000000E+00  0.00000000000E+00  0.41911877778E+03  0.41911877779E+03  0.25500000920E-02 0.  1.
        2   -1    0    0  501    0  0.00000000000E+00  0.00000000000E+00 -0.72800642523E+03  0.72800642523E+03  0.25500000920E-02 0. -1.
    10030    2    1    2    0    0  0.00000000000E+00  0.00000000000E+00 -0.30888764745E+03  0.11471252030E+04  0.11047554719E+04 0.  0.
        1    1    3    3  502    0  0.58700121780E+02  0.52875858245E+03 -0.11723661199E+00  0.53200691404E+03  0.50400001928E-02 0.  1.
       -1    1    3    3    0  502 -0.58700121780E+02 -0.52875858245E+03 -0.30877041084E+03  0.61511828899E+03  0.50400001928E-02 0. -1.
</event>
<event>
 5   0  0.3962999E-03  0.1153804E+04  0.7818609E-02  0.9154281E-01
       -2   -1    0    0    0  501  0.00000000000E+00  0.00000000000E+00  0.84072840787E+03  0.84072840787E+03  0.25500000920E-02 0. -1.
        2   -1    0    0  501    0  0.00000000000E+00  0.00000000000E+00 -0.39586646252E+03  0.39586646252E+03  0.25500000920E-02 0.  1.
    10030    2    1    2    0    0  0.00000000000E+00  0.00000000000E+00  0.44486194535E+03  0.12365948704E+04  0.11538044562E+04 0.  0.
        3    1    3    3  502    0  0.34960471577E+03 -0.88204062513E+02  0.70509269992E+03  0.79193379749E+03  0.10100000352E+00 0. -1.
       -3    1    3    3    0  502 -0.34960471577E+03  0.88204062513E+02 -0.26023075457E+03  0.44466107290E+03  0.10100000352E+00 0.  1.
</event>
<event>
 5   0  0.3744875E-03  0.1100943E+04  0.7818609E-02  0.9204273E-01
       -2   -1    0    0    0  501  0.00000000000E+00  0.00000000000E+00  0.17669579079E+03  0.17669579081E+03  0.25500000920E-02 0.  1.
        2   -1    0    0  501    0  0.00000000000E+00  0.00000000000E+00 -0.17149196642E+04  0.17149196642E+04  0.25500000920E-02 0. -1.
    10030    2    1    2    0    0  0.00000000000E+00  0.00000000000E+00 -0.15382238734E+04  0.18916154550E+04  0.11009433886E+04 0.  0.
        2    1    3    3  502    0 -0.57954520180E+02 -0.54607431403E+03 -0.70338850825E+03  0.89236274933E+03  0.25500000920E-02 0. -1.
       -2    1    3    3    0  502  0.57954520180E+02  0.54607431403E+03 -0.83483536512E+03  0.99925270564E+03  0.25500000920E-02 0.  1.
</event>
<event>
 5   0  0.2298958E-03  0.1112608E+04  0.7818609E-02  0.9192990E-01
        1   -1    0    0  501    0  0.00000000000E+00  0.00000000000E+00  0.78755982818E+03  0.78755982820E+03  0.50400001928E-02 0. -1.
       -1   -1    0    0    0  501  0.00000000000E+00  0.00000000000E+00 -0.39295292066E+03  0.39295292070E+03  0.50400001928E-02 0.  1.
    10030    2    1    2    0    0  0.00000000000E+00  0.00000000000E+00  0.39460690752E+03  0.11805127489E+04  0.11126076302E+04 0.  0.
        1    1    3    3  502    0 -0.48249482166E+03  0.74089984758E+02 -0.85782210624E+02  0.49563007017E+03  0.50400001928E-02 0.  1.
       -1    1    3    3    0  502  0.48249482166E+03 -0.74089984758E+02  0.48038911814E+03  0.68488267873E+03  0.50400001928E-02 0. -1.
</event>
<event>
 5   0  0.3713158E-03  0.1102499E+04  0.7818609E-02  0.9202760E-01
        2   -1    0    0  501    0  0.00000000000E+00  0.00000000000E+00  0.27611805009E+03  0.27611805010E+03  0.25500000920E-02 0. -1.
       -2   -1    0    0    0  501  0.00000000000E+00  0.00000000000E+00 -0.11005292776E+04  0.11005292776E+04  0.25500000920E-02 0.  1.
    10030    2    1    2    0    0  0.00000000000E+00  0.00000000000E+00 -0.82441122751E+03  0.13766473277E+04  0.11024989763E+04 0.  0.
        4    1    3    3  502    0  0.20463640714E+03 -0.31724293252E+03  0.89369578947E+02  0.38795318262E+03  0.12699999809E+01 0. -1.
       -4    1    3    3    0  502 -0.20463640714E+03  0.31724293252E+03 -0.91378080646E+03  0.98869414508E+03  0.12699999809E+01 0.  1.
</event>
<event>
 5   0  0.2255788E-03  0.1097627E+04  0.7818609E-02  0.9207508E-01
       -1   -1    0    0    0  501  0.00000000000E+00  0.00000000000E+00  0.67365862258E+03  0.67365862260E+03  0.50400001928E-02 0. -1.
        1   -1    0    0  501    0  0.00000000000E+00  0.00000000000E+00 -0.44710504875E+03  0.44710504878E+03  0.50400001928E-02 0.  1.
    10030    2    1    2    0    0  0.00000000000E+00  0.00000000000E+00  0.22655357383E+03  0.11207636714E+04  0.10976268425E+04 0.  0.
        3    1    3    3  502    0 -0.39841507518E+03 -0.15165074518E+03  0.46619754107E+03  0.63172199435E+03  0.10100000352E+00 0. -1.
       -3    1    3    3    0  502  0.39841507518E+03  0.15165074518E+03 -0.23964396723E+03  0.48904167704E+03  0.10100000352E+00 0.  1.
</event>
<event>
 5   0  0.3962999E-03  0.1102247E+04  0.7818609E-02  0.9203005E-01
        2   -1    0    0  501    0  0.00000000000E+00  0.00000000000E+00  0.13838027807E+04  0.13838027807E+04  0.25500000920E-02 0.  1.
       -2   -1    0    0    0  501  0.00000000000E+00  0.00000000000E+00 -0.21949438653E+03  0.21949438654E+03  0.25500000920E-02 0. -1.
    10030    2    1    2    0    0  0.00000000000E+00  0.00000000000E+00  0.11643083942E+04  0.16032971672E+04  0.11022466919E+04 0.  0.
        3    1    3    3  502    0 -0.32044041664E+03  0.25712826174E+03  0.11164791538E+04  0.11896733647E+04  0.10100000352E+00 0.  1.
       -3    1    3    3    0  502  0.32044041664E+03 -0.25712826174E+03  0.47829240381E+02  0.41362380255E+03  0.10100000352E+00 0. -1.
</event>
<event>
 5   0  0.3962999E-03  0.1066313E+04  0.7818609E-02  0.9238662E-01
        2   -1    0    0  501    0  0.00000000000E+00  0.00000000000E+00  0.66924441242E+03  0.66924441242E+03  0.25500000920E-02 0. -1.
       -2   -1    0    0    0  501  0.00000000000E+00  0.00000000000E+00 -0.42474183520E+03  0.42474183520E+03  0.25500000920E-02 0.  1.
    10030    2    1    2    0    0  0.00000000000E+00  0.00000000000E+00  0.24450257722E+03  0.10939862476E+04  0.10663134622E+04 0.  0.
        3    1    3    3  502    0  0.79688795168E+01  0.41363990123E+03  0.46727420425E+03  0.62410468921E+03  0.10100000352E+00 0. -1.
       -3    1    3    3    0  502 -0.79688795168E+01 -0.41363990123E+03 -0.22277162703E+03  0.46988155842E+03  0.10100000352E+00 0.  1.
</event>
<event>
 5   0  0.2257667E-03  0.1094168E+04  0.7818609E-02  0.9210894E-01
        1   -1    0    0  501    0  0.00000000000E+00  0.00000000000E+00  0.13292499845E+04  0.13292499845E+04  0.50400001928E-02 0.  1.
       -1   -1    0    0    0  501  0.00000000000E+00  0.00000000000E+00 -0.22516545063E+03  0.22516545069E+03  0.50400001928E-02 0. -1.
    10030    2    1    2    0    0  0.00000000000E+00  0.00000000000E+00  0.11040845339E+04  0.15544154352E+04  0.10941684913E+04 0.  0.
        4    1    3    3  502    0  0.31318955384E+03  0.11048594827E+03  0.11696592335E+04  0.12158943937E+04  0.12699999809E+01 0.  1.
       -4    1    3    3    0  502 -0.31318955384E+03 -0.11048594827E+03 -0.65574699579E+02  0.33852104148E+03  0.12699999809E+01 0. -1.
</event>
<event>
 5   0  0.2298958E-03  0.1060452E+04  0.7818609E-02  0.9244619E-01
        1   -1    0    0  501    0  0.00000000000E+00  0.00000000000E+00  0.11093340963E+04  0.11093340963E+04  0.50400001928E-02 0. -1.
       -1   -1    0    0    0  501  0.00000000000E+00  0.00000000000E+00 -0.25343106017E+03  0.25343106022E+03  0.50400001928E-02 0.  1.
    10030    2    1    2    0    0  0.00000000000E+00  0.00000000000E+00  0.85590303608E+03  0.13627651565E+04  0.10604521981E+04 0.  0.
        1    1    3    3  502    0  0.50847770712E+03 -0.63671889472E+02  0.25299172262E+03  0.57149671905E+03  0.50400001928E-02 0.  1.
       -1    1    3    3    0  502 -0.50847770712E+03  0.63671889472E+02  0.60291131347E+03  0.79126843743E+03  0.50400001928E-02 0. -1.
</event>
<event>
 5   0  0.3992414E-03  0.1105026E+04  0.7818609E-02  0.9200307E-01
       -2   -1    0    0    0  501  0.00000000000E+00  0.00000000000E+00  0.38782509186E+03  0.38782509187E+03  0.25500000920E-02 0. -1.
        2   -1    0    0  501    0  0.00000000000E+00  0.00000000000E+00 -0.78713498390E+03  0.78713498390E+03  0.25500000920E-02 0.  1.
    10030    2    1    2    0    0  0.00000000000E+00  0.00000000000E+00 -0.39930989204E+03  0.11749600758E+04  0.11050261489E+04 0.  0.
        1    1    3    3  502    0  0.32677476542E+03  0.34313589921E+03  0.10248834740E+03  0.48479671411E+03  0.50400001928E-02 0. -1.
       -1    1    3    3    0  502 -0.32677476542E+03 -0.34313589921E+03 -0.50179823944E+03  0.69016336165E+03  0.50400001928E-02 0.  1.
</event>
<event>
 5   0  0.2257667E-03  0.1106374E+04  0.7818609E-02  0.9199002E-01
       -1   -1    0    0    0  501  0.00000000000E+00  0.00000000000E+00  0.23180717698E+03  0.23180717703E+03  0.50400001928E-02 0. -1.
        1   -1    0    0  501    0  0.00000000000E+00  0.00000000000E+00 -0.13201304881E+04  0.13201304881E+04  0.50400001928E-02 0.  1.
    10030    2    1    2    0    0  0.00000000000E+00  0.00000000000E+00 -0.10883233111E+04  0.15519376651E+04  0.11063737555E+04 0.  0.
        4    1    3    3  502    0  0.16476027953E+03 -0.19450148142E+03  0.14451373624E+03  0.29302322237E+03  0.12699999809E+01 0. -1.
       -4    1    3    3    0  502 -0.16476027953E+03  0.19450148142E+03 -0.12328370473E+04  0.12589144428E+04  0.12699999809E+01 0.  1.
</event>
<event>
 5   0  0.3748901E-03  0.1096487E+04  0.7818609E-02  0.9208622E-01
        2   -1    0    0  501    0  0.00000000000E+00  0.00000000000E+00  0.59114291829E+03  0.59114291830E+03  0.25500000920E-02 0. -1.
       -2   -1    0    0    0  501  0.00000000000E+00  0.00000000000E+00 -0.50845776185E+03  0.50845776186E+03  0.25500000920E-02 0.  1.
    10030    2    1    2    0    0  0.00000000000E+00  0.00000000000E+00  0.82685156438E+02  0.10996006802E+04  0.10964874923E+04 0.  0.
        5    1    3    3  502    0 -0.21161871512E+03 -0.50229920017E+03  0.10034966018E+03  0.55423741427E+03  0.46999998093E+01 0. -1.
       -5    1    3    3    0  502  0.21161871512E+03  0.50229920017E+03 -0.17664503743E+02  0.54536326588E+03  0.46999998093E+01 0.  1.
</event>
<event>
 5   0  0.2374100E-03  0.1068636E+04  0.7818609E-02  0.9236312E-01
       -1   -1    0    0    0  501  0.00000000000E+00  0.00000000000E+00  0.16308392383E+03  0.16308392391E+03  0.50400001928E-02 0. -1.
        1   -1    0    0  501    0  0.00000000000E+00  0.00000000000E+00 -0.17506070147E+04  0.17506070147E+04  0.50400001928E-02 0.  1.
    10030    2    1    2    0    0  0.00000000000E+00  0.00000000000E+00 -0.15875230908E+04  0.19136909386E+04  0.10686362545E+04 0.  0.
        2    1    3    3  502    0  0.12941495212E+03  0.43778250544E+03 -0.12909860159E+04  0.13693234260E+04  0.25500000920E-02 0.  1.
       -2    1    3    3    0  502 -0.12941495212E+03 -0.43778250544E+03 -0.29653707499E+03  0.54436751258E+03  0.25500000920E-02 0. -1.
</event>
<event>
 5   0  0.2300702E-03  0.1111374E+04  0.7818609E-02  0.9194177E-01
       -1   -1    0    0    0  501  0.00000000000E+00  0.00000000000E+00  0.82956441054E+03  0.82956441056E+03  0.50400001928E-02 0. -1.
        1   -1    0    0  501    0  0.00000000000E+00  0.00000000000E+00 -0.37222897234E+03  0.37222897238E+03  0.50400001928E-02 0.  1.
    10030    2    1    2    0    0  0.00000000000E+00  0.00000000000E+00  0.45733543820E+03  0.12017933829E+04  0.11113737590E+04 0.  0.
        5    1    3    3  502    0  0.43667079643E+02  0.49961275245E+03  0.48739524134E+03  0.69935393581E+03  0.46999998093E+01 0. -1.
       -5    1    3    3    0  502 -0.43667079643E+02 -0.49961275245E+03 -0.30059803142E+02  0.50243944712E+03  0.46999998093E+01 0.  1.
</event>
<event>
 5   0  0.2298958E-03  0.1087124E+04  0.7818609E-02  0.9217833E-01
        1   -1    0    0  501    0  0.00000000000E+00  0.00000000000E+00  0.64553117838E+03  0.64553117840E+03  0.50400001928E-02 0. -1.
       -1   -1    0    0    0  501  0.00000000000E+00  0.00000000000E+00 -0.45769992767E+03  0.45769992770E+03  0.50400001928E-02 0.  1.
    10030    2    1    2    0    0  0.00000000000E+00  0.00000000000E+00  0.18783125071E+03  0.11032311061E+04  0.10871238636E+04 0.  0.
        1    1    3    3  502    0  0.79039117054E+02  0.27844049111E+03 -0.37299176932E+03  0.47212196424E+03  0.50400001928E-02 0.  1.
       -1    1    3    3    0  502 -0.79039117054E+02 -0.27844049111E+03  0.56082302003E+03  0.63110914185E+03  0.50400001928E-02 0. -1.
</event>
<event>
 5   0  0.3748901E-03  0.1161730E+04  0.7818609E-02  0.9147030E-01
        2   -1    0    0  501    0  0.00000000000E+00  0.00000000000E+00  0.86571358214E+03  0.86571358215E+03  0.25500000920E-02 0. -1.
       -2   -1    0    0    0  501  0.00000000000E+00  0.00000000000E+00 -0.38974084405E+03  0.38974084406E+03  0.25500000920E-02 0.  1.
    10030    2    1    2    0    0  0.00000000000E+00  0.00000000000E+00  0.47597273809E+03  0.12554544262E+04  0.11617296453E+04 0.  0.
        5    1    3    3  502    0  0.56988438267E+03 -0.11070931461E+03  0.21756499846E+03  0.61998498410E+03  0.46999998093E+01 0.  1.
       -5    1    3    3    0  502 -0.56988438267E+03  0.11070931461E+03  0.25840773963E+03  0.63546944211E+03  0.46999998093E+01 0. -1.
</event>
<event>
 5   0  0.2374100E-03  0.1104037E+04  0.7818609E-02  0.9201266E-01
        1   -1    0    0  501    0  0.00000000000E+00  0.00000000000E+00  0.10098219168E+03  0.10098219181E+03  0.50400001928E-02 0.  1.
       -1   -1    0    0    0  501  0.00000000000E+00  0.00000000000E+00 -0.30176050716E+04  0.30176050716E+04  0.50400001928E-02 0. -1.
    10030    2    1    2    0    0  0.00000000000E+00  0.00000000000E+00 -0.29166228799E+04  0.31185872634E+04  0.11040369088E+04 0.  0.
        2    1    3    3  502    0  0.27897070239E+03 -0.42996100954E+03 -0.87918845597E+03  0.10176755198E+04  0.25500000920E-02 0. -1.
       -2    1    3    3    0  502 -0.27897070239E+03  0.42996100954E+03 -0.20374344240E+04  0.21009117436E+04  0.25500000920E-02 0.  1.
</event>
<event>
 5   0  0.2255788E-03  0.1101138E+04  0.7818609E-02  0.9204084E-01
        1   -1    0    0  501    0  0.00000000000E+00  0.00000000000E+00  0.46326072526E+03  0.46326072529E+03  0.50400001928E-02 0.  1.
       -1   -1    0    0    0  501  0.00000000000E+00  0.00000000000E+00 -0.65433151432E+03  0.65433151434E+03  0.50400001928E-02 0. -1.
    10030    2    1    2    0    0  0.00000000000E+00  0.00000000000E+00 -0.19107078906E+03  0.11175922396E+04  0.11011377605E+04 0.  0.
        3    1    3    3  502    0 -0.22527898124E+02  0.24249684722E+03  0.40561827177E+03  0.47311565151E+03  0.10100000352E+00 0.  1.
       -3    1    3    3    0  502  0.22527898124E+02 -0.24249684722E+03 -0.59668906083E+03  0.64447658811E+03  0.10100000352E+00 0. -1.
</event>
<event>
 5   0  0.3962999E-03  0.1099861E+04  0.7818609E-02  0.9205327E-01
        2   -1    0    0  501    0  0.00000000000E+00  0.00000000000E+00  0.15438863605E+04  0.15438863605E+04  0.25500000920E-02 0.  1.
       -2   -1    0    0    0  501  0.00000000000E+00  0.00000000000E+00 -0.19588454750E+03  0.19588454751E+03  0.25500000920E-02 0. -1.
    10030    2    1    2    0    0  0.00000000000E+00  0.00000000000E+00  0.13480018130E+04  0.17397709080E+04  0.10998608660E+04 0.  0.
        3    1    3    3  502    0  0.27486020778E+03 -0.14381308539E+03  0.13922770034E+04  0.14264170505E+04  0.10100000352E+00 0.  1.
       -3    1    3    3    0  502 -0.27486020778E+03  0.14381308539E+03 -0.44275190434E+02  0.31335385755E+03  0.10100000352E+00 0. -1.
</event>
<event>
 5   0  0.3748901E-03  0.1095993E+04  0.7818609E-02  0.9209106E-01
       -2   -1    0    0    0  501  0.00000000000E+00  0.00000000000E+00  0.20329350815E+03  0.20329350816E+03  0.25500000920E-02 0.  1.
        2   -1    0    0  501    0  0.00000000000E+00  0.00000000000E+00 -0.14771763939E+04  0.14771763939E+04  0.25500000920E-02 0. -1.
    10030    2    1    2    0    0  0.00000000000E+00  0.00000000000E+00 -0.12738828857E+04  0.16804699021E+04  0.10959933782E+04 0.  0.
        5    1    3    3  502    0 -0.29187017713E+03  0.44230183317E+03 -0.85082872266E+03  0.10023725441E+04  0.46999998093E+01 0. -1.
       -5    1    3    3    0  502  0.29187017713E+03 -0.44230183317E+03 -0.42305416308E+03  0.67809735792E+03  0.46999998093E+01 0.  1.
</event>
<event>
 5   0  0.3992414E-03  0.1042710E+04  0.7818609E-02  0.9262903E-01
        2   -1    0    0  501    0  0.00000000000E+00  0.00000000000E+00  0.15351453068E+04  0.15351453068E+04  0.25500000920E-02 0. -1.
       -2   -1    0    0    0  501  0.00000000000E+00  0.00000000000E+00 -0.17705878873E+03  0.17705878875E+03  0.25500000920E-02 0.  1.
    10030    2    1    2    0    0  0.00000000000E+00  0.00000000000E+00  0.13580865181E+04  0.17122040955E+04  0.10427098706E+04 0.  0.
        1    1    3    3  502    0  0.17844471200E+03 -0.11659349943E+03 -0.10223495065E+03  0.23640758133E+03  0.50400001928E-02 0.  1.
       -1    1    3    3    0  502 -0.17844471200E+03  0.11659349943E+03  0.14603214687E+04  0.14757965142E+04  0.50400001928E-02 0. -1.
</event>
<event>
 5   0  0.2257667E-03  0.1159072E+04  0.7818609E-02  0.9149455E-01
       -1   -1    0    0    0  501  0.00000000000E+00  0.00000000000E+00  0.19063049330E+03  0.19063049336E+03  0.50400001928E-02 0. -1.
        1   -1    0    0  501    0  0.00000000000E+00  0.00000000000E+00 -0.17618487659E+04  0.17618487659E+04  0.50400001928E-02 0.  1.
    10030    2    1    2    0    0  0.00000000000E+00  0.00000000000E+00 -0.15712182726E+04  0.19524792592E+04  0.11590722142E+04 0.  0.
        4    1    3    3  502    0 -0.54037582433E+03  0.20198470515E+03 -0.87874086111E+03  0.10511855053E+04  0.12699999809E+01 0.  1.
       -4    1    3    3    0  502  0.54037582433E+03 -0.20198470515E+03 -0.69247741146E+03  0.90129375395E+03  0.12699999809E+01 0. -1.
</event>
<event>
 5   0  0.2255788E-03  0.1110546E+04  0.7818609E-02  0.9194974E-01
       -1   -1    0    0    0  501  0.00000000000E+00  0.00000000000E+00  0.57479803834E+03  0.57479803836E+03  0.50400001928E-02 0. -1.
        1   -1    0    0  501    0  0.00000000000E+00  0.00000000000E+00 -0.53641107372E+03  0.53641107374E+03  0.50400001928E-02 0.  1.
    10030    2    1    2    0    0  0.00000000000E+00  0.00000000000E+00  0.38386964625E+02  0.11112091121E+04  0.11105458711E+04 0.  0.
        3    1    3    3  502    0 -0.19951647172E+03  0.46346381237E+03 -0.21272607791E+03  0.54759284353E+03  0.10100000352E+00 0.  1.
       -3    1    3    3    0  502  0.19951647172E+03 -0.46346381237E+03  0.25111304254E+03  0.56361626857E+03  0.10100000352E+00 0. -1.
</event>
<event>
 5   0  0.2298958E-03  0.1107991E+04  0.7818609E-02  0.9197438E-01
        1   -1    0    0  501    0  0.00000000000E+00  0.00000000000E+00  0.11797746932E+04  0.11797746932E+04  0.50400001928E-02 0.  1.
       -1   -1    0    0    0  501  0.00000000000E+00  0.00000000000E+00 -0.26014363570E+03  0.26014363575E+03  0.50400001928E-02 0. -1.
    10030    2    1    2    0    0  0.00000000000E+00  0.00000000000E+00  0.91963105751E+03  0.14399183290E+04  0.11079907545E+04 0.  0.
        1    1    3    3  502    0  0.48507849373E+02 -0.18174298377E+03  0.11370023809E+04  0.11524573475E+04  0.50400001928E-02 0.  1.
       -1    1    3    3    0  502 -0.48507849373E+02  0.18174298377E+03 -0.21737132340E+03  0.28746098146E+03  0.50400001928E-02 0. -1.
</event>
<event>
 5   0  0.3744875E-03  0.1096608E+04  0.7818609E-02  0.9208504E-01
       -2   -1    0    0    0  501  0.00000000000E+00  0.00000000000E+00  0.32881689243E+03  0.32881689244E+03  0.25500000920E-02 0. -1.
        2   -1    0    0  501    0  0.00000000000E+00  0.00000000000E+00 -0.91430038777E+03  0.91430038777E+03  0.25500000920E-02 0.  1.
    10030    2    1    2    0    0  0.00000000000E+00  0.00000000000E+00 -0.58548349534E+03  0.12431172802E+04  0.10966082478E+04 0.  0.
        2    1    3    3  502    0 -0.30714108950E+03 -0.37284442942E+03 -0.58679905126E+03  0.76005377703E+03  0.25500000920E-02 0. -1.
       -2    1    3    3    0  502  0.30714108950E+03  0.37284442942E+03  0.13155559243E+01  0.48306350318E+03  0.25500000920E-02 0.  1.
</event>
<event>
 5   0  0.2298958E-03  0.1098221E+04  0.7818609E-02  0.9206927E-01
       -1   -1    0    0    0  501  0.00000000000E+00  0.00000000000E+00  0.42746952024E+03  0.42746952027E+03  0.50400001928E-02 0.  1.
        1   -1    0    0  501    0  0.00000000000E+00  0.00000000000E+00 -0.70536623894E+03  0.70536623896E+03  0.50400001928E-02 0. -1.
    10030    2    1    2    0    0  0.00000000000E+00  0.00000000000E+00 -0.27789671870E+03  0.11328357592E+04  0.10982214126E+04 0.  0.
        1    1    3    3  502    0 -0.21284524489E+03 -0.21779141294E+03 -0.61028164865E+03  0.68204097276E+03  0.50400001928E-02 0. -1.
       -1    1    3    3    0  502  0.21284524489E+03  0.21779141294E+03  0.33238492995E+03  0.45079478647E+03  0.50400001928E-02 0.  1.
</event>
<event>
 5   0  0.1508625E-03  0.1085944E+04  0.7818609E-02  0.9219001E-01
        4   -1    0    0  501    0  0.00000000000E+00  0.00000000000E+00  0.26554194631E+03  0.26554498329E+03  0.12699999809E+01 0. -1.
       -4   -1    0    0    0  501  0.00000000000E+00  0.00000000000E+00 -0.11102424693E+04  0.11102431957E+04  0.12699999809E+01 0.  1.
    10030    2    1    2    0    0  0.00000000000E+00  0.00000000000E+00 -0.84470052303E+03  0.13757881790E+04  0.10859438935E+04 0.  0.
        2    1    3    3  502    0 -0.19532530466E+02 -0.78711276550E+02 -0.11025281012E+04  0.11055067611E+04  0.25500000920E-02 0.  1.
       -2    1    3    3    0  502  0.19532530466E+02  0.78711276550E+02  0.25782757818E+03  0.27028141793E+03  0.25500000920E-02 0. -1.
</event>
<event>
 5   0  0.2257667E-03  0.1096539E+04  0.7818609E-02  0.9208571E-01
        1   -1    0    0  501    0  0.00000000000E+00  0.00000000000E+00  0.97272465099E+03  0.97272465100E+03  0.50400001928E-02 0.  1.
       -1   -1    0    0    0  501  0.00000000000E+00  0.00000000000E+00 -0.30902851299E+03  0.30902851303E+03  0.50400001928E-02 0. -1.
    10030    2    1    2    0    0  0.00000000000E+00  0.00000000000E+00  0.66369613800E+03  0.12817531640E+04  0.10965393791E+04 0.  0.
        4    1    3    3  502    0 -0.31503395144E+03 -0.33228453311E+03  0.68434422743E+03  0.82340028906E+03  0.12699999809E+01 0.  1.
       -4    1    3    3    0  502  0.31503395144E+03  0.33228453311E+03 -0.20648089429E+02  0.45835287498E+03  0.12699999809E+01 0. -1.
</event>
<event>
 5   0  0.3992414E-03  0.1101735E+04  0.7818609E-02  0.9203502E-01
        2   -1    0    0  501    0  0.00000000000E+00  0.00000000000E+00  0.21895872459E+04  0.21895872459E+04  0.25500000920E-02 0. -1.
       -2   -1    0    0    0  501  0.00000000000E+00  0.00000000000E+00 -0.13859015505E+03  0.13859015507E+03  0.25500000920E-02 0.  1.
    10030    2    1    2    0    0  0.00000000000E+00  0.00000000000E+00  0.20509970909E+04  0.23281774010E+04  0.11017354237E+04 0.  0.
        1    1    3    3  502    0  0.48730238341E+03 -0.18248759870E+03  0.64342624984E+03  0.82750388251E+03  0.50400001928E-02 0.  1.
       -1    1    3    3    0  502 -0.48730238341E+03  0.18248759870E+03  0.14075708410E+04  0.15006735185E+04  0.50400001928E-02 0. -1.
</event>
<event>
 5   0  0.3962999E-03  0.1078188E+04  0.7818609E-02  0.9226716E-01
       -2   -1    0    0    0  501  0.00000000000E+00  0.00000000000E+00  0.71446556476E+03  0.71446556476E+03  0.25500000920E-02 0.  1.
        2   -1    0    0  501    0  0.00000000000E+00  0.00000000000E+00 -0.40676856861E+03  0.40676856861E+03  0.25500000920E-02 0. -1.
    10030    2    1    2    0    0  0.00000000000E+00  0.00000000000E+00  0.30769699615E+03  0.11212341334E+04  0.10781876184E+04 0.  0.
        3    1    3    3  502    0  0.82263551001E+02 -0.43117438999E+03  0.47930258696E+03  0.64993047818E+03  0.10100000352E+00 0.  1.
       -3    1    3    3    0  502 -0.82263551001E+02  0.43117438999E+03 -0.17160559081E+03  0.47130365520E+03  0.10100000352E+00 0. -1.
</event>
<event>
 5   0  0.2374100E-03  0.1097257E+04  0.7818609E-02  0.9207870E-01
        1   -1    0    0  501    0  0.00000000000E+00  0.00000000000E+00  0.17248949742E+04  0.17248949742E+04  0.50400001928E-02 0.  1.
       -1   -1    0    0    0  501  0.00000000000E+00  0.00000000000E+00 -0.17449942750E+03  0.17449942758E+03  0.50400001928E-02 0. -1.
    10030    2    1    2    0    0  0.00000000000E+00  0.00000000000E+00  0.15503955467E+04  0.18993944018E+04  0.10972569172E+04 0.  0.
        2    1    3    3  502    0  0.20227805484E+03  0.47994544472E+03  0.47672959840E+03  0.70607021703E+03  0.25500000920E-02 0. -1.
       -2    1    3    3    0  502 -0.20227805484E+03 -0.47994544472E+03  0.10736659483E+04  0.11933241847E+04  0.25500000920E-02 0.  1.
</event>
<event>
 5   0  0.1508625E-03  0.1096035E+04  0.7818609E-02  0.9209065E-01
        3   -1    0    0  501    0  0.00000000000E+00  0.00000000000E+00  0.22354683063E+03  0.22354685344E+03  0.10100000352E+00 0.  1.
       -3   -1    0    0    0  501  0.00000000000E+00  0.00000000000E+00 -0.13434470937E+04  0.13434470975E+04  0.10100000352E+00 0. -1.
    10030    2    1    2    0    0  0.00000000000E+00  0.00000000000E+00 -0.11199002630E+04  0.15669939509E+04  0.10960353293E+04 0.  0.
        4    1    3    3  502    0 -0.31210000183E+03 -0.73656297636E+02 -0.11953036169E+04  0.12375718205E+04  0.12699999809E+01 0. -1.
       -4    1    3    3    0  502  0.31210000183E+03  0.73656297636E+02  0.75403353897E+02  0.32942213041E+03  0.12699999809E+01 0.  1.
</event>
<event>
 5   0  0.2300702E-03  0.1163586E+04  0.7818609E-02  0.9145340E-01
       -1   -1    0    0    0  501  0.00000000000E+00  0.00000000000E+00  0.29068395614E+03  0.29068395619E+03  0.50400001928E-02 0. -1.
        1   -1    0    0  501    0  0.00000000000E+00  0.00000000000E+00 -0.11644371689E+04  0.11644371689E+04  0.50400001928E-02 0.  1.
    10030    2    1    2    0    0  0.00000000000E+00  0.00000000000E+00 -0.87375321278E+03  0.14551211251E+04  0.11635861859E+04 0.  0.
        5    1    3    3  502    0 -0.23994374377E+03 -0.25761279759E+03 -0.10160895902E+04  0.10753592418E+04  0.46999998093E+01 0.  1.
       -5    1    3    3    0  502  0.23994374377E+03  0.25761279759E+03  0.14233637744E+03  0.37976188328E+03  0.46999998093E+01 0. -1.
</event>
<event>
 5   0  0.3748901E-03  0.1099076E+04  0.7818609E-02  0.9206093E-01
       -2   -1    0    0    0  501  0.00000000000E+00  0.00000000000E+00  0.52853315971E+03  0.52853315972E+03  0.25500000920E-02 0. -1.
        2   -1    0    0  501    0  0.00000000000E+00  0.00000000000E+00 -0.57137805783E+03  0.57137805784E+03  0.25500000920E-02 0.  1.
    10030    2    1    2    0    0  0.00000000000E+00  0.00000000000E+00 -0.42844898120E+02  0.10999112176E+04  0.10990764310E+04 0.  0.
        5    1    3    3  502    0 -0.26927448637E+03 -0.35652950031E+03 -0.34158437627E+03  0.56242689277E+03  0.46999998093E+01 0.  1.
       -5    1    3    3    0  502  0.26927448637E+03  0.35652950031E+03  0.29873947815E+03  0.53748432480E+03  0.46999998093E+01 0. -1.
</event>
<event>
 5   0  0.3992414E-03  0.1039239E+04  0.7818609E-02  0.9266525E-01
       -2   -1    0    0    0  501  0.00000000000E+00  0.00000000000E+00  0.14082461337E+03  0.14082461339E+03  0.25500000920E-02 0. -1.
        2   -1    0    0  501    0  0.00000000000E+00  0.00000000000E+00 -0.19173098943E+04  0.19173098943E+04  0.25500000920E-02 0.  1.
    10030    2    1    2    0    0  0.00000000000E+00  0.00000000000E+00 -0.17764852810E+04  0.20581345077E+04  0.10392389997E+04 0.  0.
        1    1    3    3  502    0 -0.18626763262E+03 -0.45371887384E+03 -0.12280916839E+04  0.13224090258E+04  0.50400001928E-02 0.  1.
       -1    1    3    3    0  502  0.18626763262E+03  0.45371887384E+03 -0.54839359711E+03  0.73572548197E+03  0.50400001928E-02 0. -1.
</event>
<event>
 5   0  0.2300702E-03  0.1136500E+04  0.7818609E-02  0.9170329E-01
        1   -1    0    0  501    0  0.00000000000E+00  0.00000000000E+00  0.34331131373E+03  0.34331131377E+03  0.50400001928E-02 0. -1.
       -1   -1    0    0    0  501  0.00000000000E+00  0.00000000000E+00 -0.94056863719E+03  0.94056863720E+03  0.50400001928E-02 0.  1.
    10030    2    1    2    0    0  0.00000000000E+00  0.00000000000E+00 -0.59725732346E+03  0.12838799510E+04  0.11364996340E+04 0.  0.
        5    1    3    3  502    0 -0.21756739532E+03  0.46456142745E+02  0.29204558152E+03  0.36715998746E+03  0.46999998093E+01 0. -1.
       -5    1    3    3    0  502  0.21756739532E+03 -0.46456142745E+02 -0.88930290498E+03  0.91671996352E+03  0.46999998093E+01 0.  1.
</event>
<event>
 5   0  0.2374100E-03  0.1100215E+04  0.7818609E-02  0.9204982E-01
       -1   -1    0    0    0  501  0.00000000000E+00  0.00000000000E+00  0.89661137673E+03  0.89661137674E+03  0.50400001928E-02 0.  1.
        1   -1    0    0  501    0  0.00000000000E+00  0.00000000000E+00 -0.33751327120E+03  0.33751327124E+03  0.50400001928E-02 0. -1.
    10030    2    1    2    0    0  0.00000000000E+00  0.00000000000E+00  0.55909810552E+03  0.12341246480E+04  0.11002149586E+04 0.  0.
        2    1    3    3  502    0  0.45571406061E+03 -0.18100170363E+03 -0.16316648200E+00  0.49034370434E+03  0.25500000920E-02 0. -1.
       -2    1    3    3    0  502 -0.45571406061E+03  0.18100170363E+03  0.55926127200E+03  0.74378094364E+03  0.25500000920E-02 0.  1.
</event>
<event>
 5   0  0.3713158E-03  0.1138682E+04  0.7818609E-02  0.9168289E-01
        2   -1    0    0  501    0  0.00000000000E+00  0.00000000000E+00  0.17433332229E+04  0.17433332229E+04  0.25500000920E-02 0.  1.
       -2   -1    0    0    0  501  0.00000000000E+00  0.00000000000E+00 -0.18593642161E+03  0.18593642163E+03  0.25500000920E-02 0. -1.
    10030    2    1    2    0    0  0.00000000000E+00  0.00000000000E+00  0.15573968013E+04  0.19292696445E+04  0.11386819418E+04 0.  0.
        4    1    3    3  502    0 -0.51139771664E+03 -0.24074910624E+03  0.66304116457E+03  0.87127088529E+03  0.12699999809E+01 0. -1.
       -4    1    3    3    0  502  0.51139771664E+03  0.24074910624E+03  0.89435563673E+03  0.10579987593E+04  0.12699999809E+01 0.  1.
</event>
<event>
 5   0  0.3992414E-03  0.1149095E+04  0.7818609E-02  0.9158619E-01
       -2   -1    0    0    0  501  0.00000000000E+00  0.00000000000E+00  0.26886627421E+03  0.26886627422E+03  0.25500000920E-02 0.  1.
        2   -1    0    0  501    0  0.00000000000E+00  0.00000000000E+00 -0.12277657246E+04  0.12277657246E+04  0.25500000920E-02 0. -1.
    10030    2    1    2    0    0  0.00000000000E+00  0.00000000000E+00 -0.95889945041E+03  0.14966319988E+04  0.11490949412E+04 0.  0.
        1    1    3    3  502    0  0.16794223937E+03 -0.17487124164E+03  0.19897273467E+03  0.31364740726E+03  0.50400001928E-02 0.  1.
       -1    1    3    3    0  502 -0.16794223937E+03  0.17487124164E+03 -0.11578721851E+04  0.11829845916E+04  0.50400001928E-02 0. -1.
</event>
<event>
 5   0  0.3748901E-03  0.1102256E+04  0.7818609E-02  0.9202996E-01
        2   -1    0    0  501    0  0.00000000000E+00  0.00000000000E+00  0.94830153119E+03  0.94830153120E+03  0.25500000920E-02 0. -1.
       -2   -1    0    0    0  501  0.00000000000E+00  0.00000000000E+00 -0.32030101774E+03  0.32030101775E+03  0.25500000920E-02 0.  1.
    10030    2    1    2    0    0  0.00000000000E+00  0.00000000000E+00  0.62800051345E+03  0.12686025489E+04  0.11022557699E+04 0.  0.
        5    1    3    3  502    0 -0.18905361932E+03  0.16966723016E+03 -0.24888020616E+03  0.35565669821E+03  0.46999998093E+01 0.  1.
       -5    1    3    3    0  502  0.18905361932E+03 -0.16966723016E+03  0.87688071961E+03  0.91294585074E+03  0.46999998093E+01 0. -1.
</event>
<event>
 5   0  0.3748901E-03  0.1100525E+04  0.7818609E-02  0.9204680E-01
        2   -1    0    0  501    0  0.00000000000E+00  0.00000000000E+00  0.20039119080E+04  0.20039119080E+04  0.25500000920E-02 0. -1.
       -2   -1    0    0    0  501  0.00000000000E+00  0.00000000000E+00 -0.15109892858E+03  0.15109892860E+03  0.25500000920E-02 0.  1.
    10030    2    1    2    0    0  0.00000000000E+00  0.00000000000E+00  0.18528129794E+04  0.21550108366E+04  0.11005252242E+04 0.  0.
        5    1    3    3  502    0  0.18342856846E+03  0.43992257292E+03  0.38803929081E+03  0.61463362348E+03  0.46999998093E+01 0.  1.
       -5    1    3    3    0  502 -0.18342856846E+03 -0.43992257292E+03  0.14647736886E+04  0.15403772131E+04  0.46999998093E+01 0. -1.
</event>
<event>
 5   0  0.3748901E-03  0.1104643E+04  0.7818609E-02  0.9200678E-01
        2   -1    0    0  501    0  0.00000000000E+00  0.00000000000E+00  0.17616007726E+04  0.17616007726E+04  0.25500000920E-02 0.  1.
       -2   -1    0    0    0  501  0.00000000000E+00  0.00000000000E+00 -0.17317156011E+03  0.17317156013E+03  0.25500000920E-02 0. -1.
    10030    2    1    2    0    0  0.00000000000E+00  0.00000000000E+00  0.15884292124E+04  0.19347723327E+04  0.11046432077E+04 0.  0.
        5    1    3    3  502    0 -0.22520721612E+03  0.50427721710E+03  0.80266220823E+03  0.97432156519E+03  0.46999998093E+01 0.  1.
       -5    1    3    3    0  502  0.22520721612E+03 -0.50427721710E+03  0.78576700421E+03  0.96045076750E+03  0.46999998093E+01 0. -1.
</event>
<event>
 5   0  0.2300702E-03  0.1102691E+04  0.7818609E-02  0.9202573E-01
       -1   -1    0    0    0  501  0.00000000000E+00  0.00000000000E+00  0.35595398157E+03  0.35595398160E+03  0.50400001928E-02 0.  1.
        1   -1    0    0  501    0  0.00000000000E+00  0.00000000000E+00 -0.85399242394E+03  0.85399242395E+03  0.50400001928E-02 0. -1.
    10030    2    1    2    0    0  0.00000000000E+00  0.00000000000E+00 -0.49803844237E+03  0.12099464056E+04  0.11026912597E+04 0.  0.
        5    1    3    3  502    0  0.22896136413E+03 -0.39814634616E+03 -0.58366954644E+03  0.74272205344E+03  0.46999998093E+01 0.  1.
       -5    1    3    3    0  502 -0.22896136413E+03  0.39814634616E+03  0.85631104068E+02  0.46722435212E+03  0.46999998093E+01 0. -1.
</event>
<event>
 5   0  0.3992414E-03  0.1092190E+04  0.7818609E-02  0.9212837E-01
        2   -1    0    0  501    0  0.00000000000E+00  0.00000000000E+00  0.46028855903E+03  0.46028855904E+03  0.25500000920E-02 0.  1.
       -2   -1    0    0    0  501  0.00000000000E+00  0.00000000000E+00 -0.64789754419E+03  0.64789754420E+03  0.25500000920E-02 0. -1.
    10030    2    1    2    0    0  0.00000000000E+00  0.00000000000E+00 -0.18760898516E+03  0.11081861032E+04  0.10921901428E+04 0.  0.
        1    1    3    3  502    0 -0.51066871402E+03  0.11402806058E+03  0.64801527379E+02  0.52724204314E+03  0.50400001928E-02 0.  1.
       -1    1    3    3    0  502  0.51066871402E+03 -0.11402806058E+03 -0.25241051254E+03  0.58094406009E+03  0.50400001928E-02 0. -1.
</event>
<event>
 5   0  0.2374100E-03  0.1102980E+04  0.7818609E-02  0.9202292E-01
       -1   -1    0    0    0  501  0.00000000000E+00  0.00000000000E+00  0.36486520864E+03  0.36486520867E+03  0.50400001928E-02 0.  1.
        1   -1    0    0  501    0  0.00000000000E+00  0.00000000000E+00 -0.83357193347E+03  0.83357193348E+03  0.50400001928E-02 0. -1.
    10030    2    1    2    0    0  0.00000000000E+00  0.00000000000E+00 -0.46870672483E+03  0.11984371422E+04  0.11029803216E+04 0.  0.
        2    1    3    3  502    0 -0.20772666371E+03  0.34328519871E+03 -0.64544397924E+03  0.75999541105E+03  0.25500000920E-02 0.  1.
       -2    1    3    3    0  502  0.20772666371E+03 -0.34328519871E+03  0.17673725441E+03  0.43844173111E+03  0.25500000920E-02 0. -1.
</event>
<event>
 5   0  0.2374100E-03  0.1094870E+04  0.7818609E-02  0.9210206E-01
        1   -1    0    0  501    0  0.00000000000E+00  0.00000000000E+00  0.93362185276E+03  0.93362185277E+03  0.50400001928E-02 0. -1.
       -1   -1    0    0    0  501  0.00000000000E+00  0.00000000000E+00 -0.32099201318E+03  0.32099201322E+03  0.50400001928E-02 0.  1.
    10030    2    1    2    0    0  0.00000000000E+00  0.00000000000E+00  0.61262983957E+03  0.12546138660E+04  0.10948701441E+04 0.  0.
        2    1    3    3  502    0 -0.24196123356E+03 -0.17589511019E+03  0.83168420978E+03  0.88384554824E+03  0.25500000920E-02 0. -1.
       -2    1    3    3    0  502  0.24196123356E+03  0.17589511019E+03 -0.21905437021E+03  0.37076831775E+03  0.25500000920E-02 0.  1.
</event>
<event>
 5   0  0.2255788E-03  0.1092208E+04  0.7818609E-02  0.9212820E-01
       -1   -1    0    0    0  501  0.00000000000E+00  0.00000000000E+00  0.45501395195E+03  0.45501395198E+03  0.50400001928E-02 0. -1.
        1   -1    0    0  501    0  0.00000000000E+00  0.00000000000E+00 -0.65542943044E+03  0.65542943046E+03  0.50400001928E-02 0.  1.
    10030    2    1    2    0    0  0.00000000000E+00  0.00000000000E+00 -0.20041547849E+03  0.11104433824E+04  0.10922079205E+04 0.  0.
        3    1    3    3  502    0 -0.39607370843E+03 -0.22186826242E+03  0.20838857244E+03  0.49952549055E+03  0.10100000352E+00 0. -1.
       -3    1    3    3    0  502  0.39607370843E+03  0.22186826242E+03 -0.40880405093E+03  0.61091789189E+03  0.10100000352E+00 0.  1.
</event>
<event>
 5   0  0.3992414E-03  0.1113580E+04  0.7818609E-02  0.9192056E-01
       -2   -1    0    0    0  501  0.00000000000E+00  0.00000000000E+00  0.52087186480E+03  0.52087186480E+03  0.25500000920E-02 0. -1.
        2   -1    0    0  501    0  0.00000000000E+00  0.00000000000E+00 -0.59518479933E+03  0.59518479934E+03  0.25500000920E-02 0.  1.
    10030    2    1    2    0    0  0.00000000000E+00  0.00000000000E+00 -0.74312934537E+02  0.11160566641E+04  0.11135798424E+04 0.  0.
        1    1    3    3  502    0  0.34315814160E+03  0.34473940486E+03 -0.30870605535E+03  0.57610953477E+03  0.50400001928E-02 0.  1.
       -1    1    3    3    0  502 -0.34315814160E+03 -0.34473940486E+03  0.23439312082E+03  0.53994712938E+03  0.50400001928E-02 0. -1.
</event>
<event>
 5   0  0.2257667E-03  0.1089065E+04  0.7818609E-02  0.9215916E-01
        1   -1    0    0  501    0  0.00000000000E+00  0.00000000000E+00  0.68027488547E+03  0.68027488549E+03  0.50400001928E-02 0.  1.
       -1   -1    0    0    0  501  0.00000000000E+00  0.00000000000E+00 -0.43587604970E+03  0.43587604973E+03  0.50400001928E-02 0. -1.
    10030    2    1    2    0    0  0.00000000000E+00  0.00000000000E+00  0.24439883577E+03  0.11161509352E+04  0.10890647911E+04 0.  0.
        4    1    3    3  502    0  0.26792348495E+03 -0.14022573691E+03 -0.34190724547E+03  0.45645200019E+03  0.12699999809E+01 0. -1.
       -4    1    3    3    0  502 -0.26792348495E+03  0.14022573691E+03  0.58630608124E+03  0.65969893503E+03  0.12699999809E+01 0.  1.
</event>
<event>
 5   0  0.2257667E-03  0.1100519E+04  0.7818609E-02  0.9204686E-01
        1   -1    0    0  501    0  0.00000000000E+00  0.00000000000E+00  0.75107715023E+03  0.75107715025E+03  0.50400001928E-02 0. -1.
       -1   -1    0    0    0  501  0.00000000000E+00  0.00000000000E+00 -0.40313530574E+03  0.40313530577E+03  0.50400001928E-02 0.  1.
    10030    2    1    2    0    0  0.00000000000E+00  0.00000000000E+00  0.34794184449E+03  0.11542124560E+04  0.11005193622E+04 0.  0.
        4    1    3    3  502    0 -0.50770638389E+03  0.14383419793E+03  0.33756200023E+03  0.62642139622E+03  0.12699999809E+01 0.  1.
       -4    1    3    3    0  502  0.50770638389E+03 -0.14383419793E+03  0.10379844259E+02  0.52779105980E+03  0.12699999809E+01 0. -1.
</event>
<event>
 5   0  0.2300702E-03  0.1095489E+04  0.7818609E-02  0.9209600E-01
       -1   -1    0    0    0  501  0.00000000000E+00  0.00000000000E+00  0.56495656149E+03  0.56495656151E+03  0.50400001928E-02 0. -1.
        1   -1    0    0  501    0  0.00000000000E+00  0.00000000000E+00 -0.53105696685E+03  0.53105696687E+03  0.50400001928E-02 0.  1.
    10030    2    1    2    0    0  0.00000000000E+00  0.00000000000E+00  0.33899594640E+02  0.10960135284E+04  0.10954891473E+04 0.  0.
        5    1    3    3  502    0  0.27709913387E+02 -0.29540329786E+03 -0.44367375670E+03  0.53375972129E+03  0.46999998093E+01 0.  1.
       -5    1    3    3    0  502 -0.27709913387E+02  0.29540329786E+03  0.47757335134E+03  0.56225380710E+03  0.46999998093E+01 0. -1.
</event>
<event>
 5   0  0.3744875E-03  0.1108385E+04  0.7818609E-02  0.9197057E-01
        2   -1    0    0  501    0  0.00000000000E+00  0.00000000000E+00  0.87489562921E+03  0.87489562921E+03  0.25500000920E-02 0.  1.
       -2   -1    0    0    0  501  0.00000000000E+00  0.00000000000E+00 -0.35104693521E+03  0.35104693522E+03  0.25500000920E-02 0. -1.
    10030    2    1    2    0    0  0.00000000000E+00  0.00000000000E+00  0.52384869400E+03  0.12259425644E+04  0.11083851844E+04 0.  0.
        2    1    3    3  502    0  0.10643330891E+03  0.11357640365E+03 -0.32637349095E+03  0.36158996711E+03  0.25500000920E-02 0. -1.
       -2    1    3    3    0  502 -0.10643330891E+03 -0.11357640365E+03  0.85022218495E+03  0.86435259732E+03  0.25500000920E-02 0.  1.
</event>
<event>
 5   0  0.3713158E-03  0.1127426E+04  0.7818609E-02  0.9178865E-01
       -2   -1    0    0    0  501  0.00000000000E+00  0.00000000000E+00  0.35019557592E+03  0.35019557593E+03  0.25500000920E-02 0.  1.
        2   -1    0    0  501    0  0.00000000000E+00  0.00000000000E+00 -0.90741457101E+03  0.90741457102E+03  0.25500000920E-02 0. -1.
    10030    2    1    2    0    0  0.00000000000E+00  0.00000000000E+00 -0.55721899509E+03  0.12576101469E+04  0.11274263937E+04 0.  0.
        4    1    3    3  502    0 -0.19923440397E+03 -0.64983982327E+02  0.30512738368E+03  0.37016428630E+03  0.12699999809E+01 0.  1.
       -4    1    3    3    0  502  0.19923440397E+03  0.64983982327E+02 -0.86234637877E+03  0.88744586064E+03  0.12699999809E+01 0. -1.
</event>
<event>
 5   0  0.3748901E-03  0.1083024E+04  0.7818609E-02  0.9221897E-01
       -2   -1    0    0    0  501  0.00000000000E+00  0.00000000000E+00  0.39346813427E+03  0.39346813428E+03  0.25500000920E-02 0. -1.
        2   -1    0    0  501    0  0.00000000000E+00  0.00000000000E+00 -0.74525840946E+03  0.74525840946E+03  0.25500000920E-02 0.  1.
    10030    2    1    2    0    0  0.00000000000E+00  0.00000000000E+00 -0.35179027519E+03  0.11387265437E+04  0.10830243505E+04 0.  0.
        5    1    3    3  502    0  0.50468008679E+03 -0.17671752340E+03 -0.86169883632E+02  0.54164417464E+03  0.46999998093E+01 0. -1.
       -5    1    3    3    0  502 -0.50468008679E+03  0.17671752340E+03 -0.26562039156E+03  0.59708236910E+03  0.46999998093E+01 0.  1.
</event>
<event>
 5   0  0.3962999E-03  0.1100315E+04  0.7818609E-02  0.9204885E-01
       -2   -1    0    0    0  501  0.00000000000E+00  0.00000000000E+00  0.31214513488E+03  0.31214513489E+03  0.25500000920E-02 0.  1.
        2   -1    0    0  501    0  0.00000000000E+00  0.00000000000E+00 -0.96965530412E+03  0.96965530412E+03  0.25500000920E-02 0. -1.
    10030    2    1    2    0    0  0.00000000000E+00  0.00000000000E+00 -0.65751016924E+03  0.12818004390E+04  0.11003148380E+04 0.  0.
        3    1    3    3  502    0 -0.11333467974E+03 -0.19516396814E+03  0.25573760961E+03  0.34107984294E+03  0.10100000352E+00 0.  1.
       -3    1    3    3    0  502  0.11333467974E+03  0.19516396814E+03 -0.91324777885E+03  0.94072059607E+03  0.10100000352E+00 0. -1.
</event>
<event>
 5   0  0.3748901E-03  0.1140575E+04  0.7818609E-02  0.9166523E-01
       -2   -1    0    0    0  501  0.00000000000E+00  0.00000000000E+00  0.38207446819E+03  0.38207446820E+03  0.25500000920E-02 0.  1.
        2   -1    0    0  501    0  0.00000000000E+00  0.00000000000E+00 -0.85121605481E+03  0.85121605481E+03  0.25500000920E-02 0. -1.
    10030    2    1    2    0    0  0.00000000000E+00  0.00000000000E+00 -0.46914158662E+03  0.12332905230E+04  0.11405751557E+04 0.  0.
        5    1    3    3  502    0 -0.15124355135E+03  0.53601101204E+03 -0.36710433793E+03  0.66706079316E+03  0.46999998093E+01 0. -1.
       -5    1    3    3    0  502  0.15124355135E+03 -0.53601101204E+03 -0.10203724869E+03  0.56622972985E+03  0.46999998093E+01 0.  1.
</event>
<event>
 5   0  0.3744875E-03  0.1102553E+04  0.7818609E-02  0.9202707E-01
       -2   -1    0    0    0  501  0.00000000000E+00  0.00000000000E+00  0.31560939669E+03  0.31560939670E+03  0.25500000920E-02 0. -1.
        2   -1    0    0  501    0  0.00000000000E+00  0.00000000000E+00 -0.96291794844E+03  0.96291794845E+03  0.25500000920E-02 0.  1.
    10030    2    1    2    0    0  0.00000000000E+00  0.00000000000E+00 -0.64730855175E+03  0.12785273451E+04  0.11025533144E+04 0.  0.
        2    1    3    3  502    0  0.17860874335E+03  0.17722857380E+03  0.24513792468E+03  0.35128856044E+03  0.25500000920E-02 0. -1.
       -2    1    3    3    0  502 -0.17860874335E+03 -0.17722857380E+03 -0.89244647643E+03  0.92723878471E+03  0.25500000920E-02 0.  1.
</event>
<event>
 5   0  0.2298958E-03  0.1102426E+04  0.7818609E-02  0.9202831E-01
       -1   -1    0    0    0  501  0.00000000000E+00  0.00000000000E+00  0.29926181033E+03  0.29926181037E+03  0.50400001928E-02 0. -1.
        1   -1    0    0  501    0  0.00000000000E+00  0.00000000000E+00 -0.10152840484E+04  0.10152840484E+04  0.50400001928E-02 0.  1.
    10030    2    1    2    0    0  0.00000000000E+00  0.00000000000E+00 -0.71602223809E+03  0.13145458588E+04  0.11024259474E+04 0.  0.
        1    1    3    3  502    0  0.42271896802E+03 -0.15166267766E+03  0.23081289513E+02  0.44969505187E+03  0.50400001928E-02 0. -1.
       -1    1    3    3    0  502 -0.42271896802E+03  0.15166267766E+03 -0.73910352760E+03  0.86485080694E+03  0.50400001928E-02 0.  1.
</event>
<event>
 5   0  0.2257667E-03  0.1105553E+04  0.7818609E-02  0.9199796E-01
       -1   -1    0    0    0  501  0.00000000000E+00  0.00000000000E+00  0.37462814941E+03  0.37462814945E+03  0.50400001928E-02 0.  1.
        1   -1    0    0  501    0  0.00000000000E+00  0.00000000000E+00 -0.81564096276E+03  0.81564096278E+03  0.50400001928E-02 0. -1.
    10030    2    1    2    0    0  0.00000000000E+00  0.00000000000E+00 -0.44101281335E+03  0.11902691122E+04  0.11055533718E+04 0.  0.
        4    1    3    3  502    0  0.39202397228E+03 -0.15681240584E+03  0.16360603383E+03  0.45281505350E+03  0.12699999809E+01 0.  1.
       -4    1    3    3    0  502 -0.39202397228E+03  0.15681240584E+03 -0.60461884718E+03  0.73745405873E+03  0.12699999809E+01 0. -1.
</event>
<event>
 5   0  0.3713158E-03  0.1102820E+04  0.7818609E-02  0.9202447E-01
        2   -1    0    0  501    0  0.00000000000E+00  0.00000000000E+00  0.56971908339E+03  0.56971908339E+03  0.25500000920E-02 0.  1.
       -2   -1    0    0    0  501  0.00000000000E+00  0.00000000000E+00 -0.53368950915E+03  0.53368950916E+03  0.25500000920E-02 0. -1.
    10030    2    1    2    0    0  0.00000000000E+00  0.00000000000E+00  0.36029574235E+02  0.11034085926E+04  0.11028201993E+04 0.  0.
        4    1    3    3  502    0  0.24755671620E+03  0.27021839145E+03 -0.39421131695E+03  0.53824388722E+03  0.12699999809E+01 0. -1.
       -4    1    3    3    0  502 -0.24755671620E+03 -0.27021839145E+03  0.43024089118E+03  0.56516470534E+03  0.12699999809E+01 0.  1.
</event>
<event>
 5   0  0.3713158E-03  0.1099969E+04  0.7818609E-02  0.9205222E-01
       -2   -1    0    0    0  501  0.00000000000E+00  0.00000000000E+00  0.75157341545E+03  0.75157341545E+03  0.25500000920E-02 0.  1.
        2   -1    0    0  501    0  0.00000000000E+00  0.00000000000E+00 -0.40246619016E+03  0.40246619017E+03  0.25500000920E-02 0. -1.
    10030    2    1    2    0    0  0.00000000000E+00  0.00000000000E+00  0.34910722528E+03  0.11540396056E+04  0.10999688889E+04 0.  0.
        4    1    3    3  502    0 -0.27369439728E+03 -0.49682456989E+02  0.67232761851E+03  0.72760085840E+03  0.12699999809E+01 0.  1.
       -4    1    3    3    0  502  0.27369439728E+03  0.49682456989E+02 -0.32322039323E+03  0.42643874722E+03  0.12699999809E+01 0. -1.
</event>
<event>
 5   0  0.2374100E-03  0.1101635E+04  0.7818609E-02  0.9203600E-01
        1   -1    0    0  501    0  0.00000000000E+00  0.00000000000E+00  0.10710690119E+04  0.10710690119E+04  0.50400001928E-02 0. -1.
       -1   -1    0    0    0  501  0.00000000000E+00  0.00000000000E+00 -0.28326809928E+03  0.28326809933E+03  0.50400001928E-02 0.  1.
    10030    2    1    2    0    0  0.00000000000E+00  0.00000000000E+00  0.78780091265E+03  0.13543371113E+04  0.11016345733E+04 0.  0.
        2    1    3    3  502    0  0.16673478440E+03 -0.51435650240E+03  0.26474684753E+03  0.60204152114E+03  0.25500000920E-02 0.  1.
       -2    1    3    3    0  502 -0.16673478440E+03  0.51435650240E+03  0.52305406512E+03  0.75229559014E+03  0.25500000920E-02 0. -1.
</event>
<event>
 5   0  0.1508625E-03  0.1101155E+04  0.7818609E-02  0.9204067E-01
        4   -1    0    0  501    0  0.00000000000E+00  0.00000000000E+00  0.26877391110E+03  0.26877691156E+03  0.12699999809E+01 0. -1.
       -4   -1    0    0    0  501  0.00000000000E+00  0.00000000000E+00 -0.11278364201E+04  0.11278371351E+04  0.12699999809E+01 0.  1.
    10030    2    1    2    0    0  0.00000000000E+00  0.00000000000E+00 -0.85906250900E+03  0.13966140467E+04  0.11011550304E+04 0.  0.
        1    1    3    3  502    0 -0.17167942213E+03 -0.32160293843E+03  0.93768138680E+02  0.37642361489E+03  0.50400001928E-02 0. -1.
       -1    1    3    3    0  502  0.17167942213E+03  0.32160293843E+03 -0.95283064768E+03  0.10201904318E+04  0.50400001928E-02 0.  1.
</event>
<event>
 5   0  0.3744875E-03  0.1098248E+04  0.7818609E-02  0.9206901E-01
        2   -1    0    0  501    0  0.00000000000E+00  0.00000000000E+00  0.90361837922E+03  0.90361837923E+03  0.25500000920E-02 0.  1.
       -2   -1    0    0    0  501  0.00000000000E+00  0.00000000000E+00 -0.33369976380E+03  0.33369976381E+03  0.25500000920E-02 0. -1.
    10030    2    1    2    0    0  0.00000000000E+00  0.00000000000E+00  0.56991861543E+03  0.12373181430E+04  0.10982481317E+04 0.  0.
        2    1    3    3  502    0 -0.31159942260E+03  0.71533051851E+02  0.78795347771E+03  0.85034220212E+03  0.25500000920E-02 0.  1.
       -2    1    3    3    0  502  0.31159942260E+03 -0.71533051851E+02 -0.21803486228E+03  0.38697594091E+03  0.25500000920E-02 0. -1.
</event>
<event>
 5   0  0.3962999E-03  0.1046213E+04  0.7818609E-02  0.9259262E-01
       -2   -1    0    0    0  501  0.00000000000E+00  0.00000000000E+00  0.14065944456E+03  0.14065944459E+03  0.25500000920E-02 0.  1.
        2   -1    0    0  501    0  0.00000000000E+00  0.00000000000E+00 -0.19454122777E+04  0.19454122777E+04  0.25500000920E-02 0. -1.
    10030    2    1    2    0    0  0.00000000000E+00  0.00000000000E+00 -0.18047528331E+04  0.20860717223E+04  0.10462133826E+04 0.  0.
        3    1    3    3  502    0 -0.12468226083E+03  0.50797379406E+03 -0.88724901906E+03  0.10299484811E+04  0.10100000352E+00 0.  1.
       -3    1    3    3    0  502  0.12468226083E+03 -0.50797379406E+03 -0.91750381408E+03  0.10561232412E+04  0.10100000352E+00 0. -1.
</event>
<event>
 5   0  0.1508625E-03  0.1079551E+04  0.7818609E-02  0.9225355E-01
       -3   -1    0    0    0  501  0.00000000000E+00  0.00000000000E+00  0.19494808918E+04  0.19494808944E+04  0.10100000352E+00 0. -1.
        3   -1    0    0  501    0  0.00000000000E+00  0.00000000000E+00 -0.14945394964E+03  0.14945398377E+03  0.10100000352E+00 0.  1.
    10030    2    1    2    0    0  0.00000000000E+00  0.00000000000E+00  0.18000269422E+04  0.20989348782E+04  0.10795511245E+04 0.  0.
        5    1    3    3  502    0  0.20054496193E+02 -0.42533266132E+03  0.15449284281E+04  0.16025404811E+04  0.46999998093E+01 0. -1.
       -5    1    3    3    0  502 -0.20054496193E+02  0.42533266132E+03  0.25509851408E+03  0.49639439712E+03  0.46999998093E+01 0.  1.
</event>
<event>
 5   0  0.3744875E-03  0.1099034E+04  0.7818609E-02  0.9206134E-01
        2   -1    0    0  501    0  0.00000000000E+00  0.00000000000E+00  0.19612864538E+04  0.19612864538E+04  0.25500000920E-02 0. -1.
       -2   -1    0    0    0  501  0.00000000000E+00  0.00000000000E+00 -0.15396464823E+03  0.15396464825E+03  0.25500000920E-02 0.  1.
    10030    2    1    2    0    0  0.00000000000E+00  0.00000000000E+00  0.18073218056E+04  0.21152511020E+04  0.10990337191E+04 0.  0.
        2    1    3    3  502    0 -0.53770689495E+03 -0.54602709857E+02  0.10947601322E+04  0.12209053640E+04  0.25500000920E-02 0. -1.
       -2    1    3    3    0  502  0.53770689495E+03  0.54602709857E+02  0.71256167341E+03  0.89434573808E+03  0.25500000920E-02 0.  1.
</event>
<event>
 5   0  0.3992414E-03  0.1108909E+04  0.7818609E-02  0.9196552E-01
       -2   -1    0    0    0  501  0.00000000000E+00  0.00000000000E+00  0.24225813472E+03  0.24225813473E+03  0.25500000920E-02 0. -1.
        2   -1    0    0  501    0  0.00000000000E+00  0.00000000000E+00 -0.12689759833E+04  0.12689759833E+04  0.25500000920E-02 0.  1.
    10030    2    1    2    0    0  0.00000000000E+00  0.00000000000E+00 -0.10267178485E+04  0.15112341180E+04  0.11089089317E+04 0.  0.
        1    1    3    3  502    0  0.19259800764E+03  0.48577613727E+03 -0.76592918449E+03  0.92721085184E+03  0.50400001928E-02 0.  1.
       -1    1    3    3    0  502 -0.19259800764E+03 -0.48577613727E+03 -0.26078866405E+03  0.58402326616E+03  0.50400001928E-02 0. -1.
</event>
<event>
 5   0  0.2255788E-03  0.1080616E+04  0.7818609E-02  0.9224293E-01
       -1   -1    0    0    0  501  0.00000000000E+00  0.00000000000E+00  0.19631192228E+03  0.19631192234E+03  0.50400001928E-02 0. -1.
        1   -1    0    0  501    0  0.00000000000E+00  0.00000000000E+00 -0.14870870492E+04  0.14870870492E+04  0.50400001928E-02 0.  1.
    10030    2    1    2    0    0  0.00000000000E+00  0.00000000000E+00 -0.12907751269E+04  0.16833989715E+04  0.10806163376E+04 0.  0.
        3    1    3    3  502    0  0.35431925413E+03 -0.37504362948E+03 -0.89528462740E+03  0.10333123594E+04  0.10100000352E+00 0.  1.
       -3    1    3    3    0  502 -0.35431925413E+03  0.37504362948E+03 -0.39549049950E+03  0.65008661212E+03  0.10100000352E+00 0. -1.
</event>
<event>
 5   0  0.3748901E-03  0.1105632E+04  0.7818609E-02  0.9199720E-01
       -2   -1    0    0    0  501  0.00000000000E+00  0.00000000000E+00  0.38666011972E+03  0.38666011973E+03  0.25500000920E-02 0. -1.
        2   -1    0    0  501    0  0.00000000000E+00  0.00000000000E+00 -0.79037222994E+03  0.79037222994E+03  0.25500000920E-02 0.  1.
    10030    2    1    2    0    0  0.00000000000E+00  0.00000000000E+00 -0.40371211022E+03  0.11770323497E+04  0.11056318032E+04 0.  0.
        5    1    3    3  502    0 -0.42541394076E+03  0.35291379227E+03 -0.19373691880E+03  0.58573137996E+03  0.46999998093E+01 0.  1.
       -5    1    3    3    0  502  0.42541394076E+03 -0.35291379227E+03 -0.20997519142E+03  0.59130096971E+03  0.46999998093E+01 0. -1.
</event>
<event>
 5   0  0.3713158E-03  0.1094347E+04  0.7818609E-02  0.9210720E-01
        2   -1    0    0  501    0  0.00000000000E+00  0.00000000000E+00  0.14917938509E+04  0.14917938509E+04  0.25500000920E-02 0. -1.
       -2   -1    0    0    0  501  0.00000000000E+00  0.00000000000E+00 -0.20069704973E+03  0.20069704975E+03  0.25500000920E-02 0.  1.
    10030    2    1    2    0    0  0.00000000000E+00  0.00000000000E+00  0.12910968011E+04  0.16924909006E+04  0.10943466081E+04 0.  0.
        4    1    3    3  502    0 -0.50842608130E+03 -0.47520683412E+02  0.34153015389E+03  0.61432870226E+03  0.12699999809E+01 0.  1.
       -4    1    3    3    0  502  0.50842608130E+03  0.47520683412E+02  0.94956664724E+03  0.10781621984E+04  0.12699999809E+01 0. -1.
</event>
<event>
 5   0  0.3744875E-03  0.1128268E+04  0.7818609E-02  0.9178070E-01
       -2   -1    0    0    0  501  0.00000000000E+00  0.00000000000E+00  0.27731985736E+03  0.27731985738E+03  0.25500000920E-02 0.  1.
        2   -1    0    0  501    0  0.00000000000E+00  0.00000000000E+00 -0.11475808756E+04  0.11475808756E+04  0.25500000920E-02 0. -1.
    10030    2    1    2    0    0  0.00000000000E+00  0.00000000000E+00 -0.87026101822E+03  0.14249007330E+04  0.11282676362E+04 0.  0.
        2    1    3    3  502    0  0.48821205033E+03  0.26833454203E+03 -0.54732735815E+03  0.78097482003E+03  0.25500000920E-02 0. -1.
       -2    1    3    3    0  502 -0.48821205033E+03 -0.26833454203E+03 -0.32293366006E+03  0.64392591293E+03  0.25500000920E-02 0.  1.
</event>
<event>
 5   0  0.2255788E-03  0.1097434E+04  0.7818609E-02  0.9207696E-01
        1   -1    0    0  501    0  0.00000000000E+00  0.00000000000E+00  0.14073458781E+04  0.14073458781E+04  0.50400001928E-02 0. -1.
       -1   -1    0    0    0  501  0.00000000000E+00  0.00000000000E+00 -0.21394203766E+03  0.21394203772E+03  0.50400001928E-02 0.  1.
    10030    2    1    2    0    0  0.00000000000E+00  0.00000000000E+00  0.11934038404E+04  0.16212879158E+04  0.10974341801E+04 0.  0.
        3    1    3    3  502    0  0.66354227232E+02  0.42517672615E+03  0.10996769561E+04  0.11808757554E+04  0.10100000352E+00 0. -1.
       -3    1    3    3    0  502 -0.66354227232E+02 -0.42517672615E+03  0.93726884355E+02  0.44041216035E+03  0.10100000352E+00 0.  1.
</event>
<event>
 5   0  0.2300702E-03  0.1102560E+04  0.7818609E-02  0.9202700E-01
       -1   -1    0    0    0  501  0.00000000000E+00  0.00000000000E+00  0.48639744472E+03  0.48639744474E+03  0.50400001928E-02 0. -1.
        1   -1    0    0  501    0  0.00000000000E+00  0.00000000000E+00 -0.62481773385E+03  0.62481773387E+03  0.50400001928E-02 0.  1.
    10030    2    1    2    0    0  0.00000000000E+00  0.00000000000E+00 -0.13842028913E+03  0.11112151786E+04  0.11025602010E+04 0.  0.
        5    1    3    3  502    0 -0.53636691446E+03  0.62687423865E+02  0.42422501157E+02  0.54170189094E+03  0.46999998093E+01 0. -1.
       -5    1    3    3    0  502  0.53636691446E+03 -0.62687423865E+02 -0.18084279028E+03  0.56951328767E+03  0.46999998093E+01 0.  1.
</event>
<event>
 5   0  0.3992414E-03  0.1124814E+04  0.7818609E-02  0.9181338E-01
       -2   -1    0    0    0  501  0.00000000000E+00  0.00000000000E+00  0.59457141190E+03  0.59457141191E+03  0.25500000920E-02 0.  1.
        2   -1    0    0  501    0  0.00000000000E+00  0.00000000000E+00 -0.53198288711E+03  0.53198288712E+03  0.25500000920E-02 0. -1.
    10030    2    1    2    0    0  0.00000000000E+00  0.00000000000E+00  0.62588524789E+02  0.11265542990E+04  0.11248143248E+04 0.  0.
        1    1    3    3  502    0 -0.41517925049E+03  0.24376552918E+03 -0.25985521966E+03  0.54710161622E+03  0.50400001928E-02 0. -1.
       -1    1    3    3    0  502  0.41517925049E+03 -0.24376552918E+03  0.32244374445E+03  0.57945268281E+03  0.50400001928E-02 0.  1.
</event>
<event>
 5   0  0.3748901E-03  0.1093568E+04  0.7818609E-02  0.9211484E-01
       -2   -1    0    0    0  501  0.00000000000E+00  0.00000000000E+00  0.48904258336E+03  0.48904258337E+03  0.25500000920E-02 0. -1.
        2   -1    0    0  501    0  0.00000000000E+00  0.00000000000E+00 -0.61134270899E+03  0.61134270900E+03  0.25500000920E-02 0.  1.
    10030    2    1    2    0    0  0.00000000000E+00  0.00000000000E+00 -0.12230012563E+03  0.11003852924E+04  0.10935677715E+04 0.  0.
        5    1    3    3  502    0  0.28626813748E+03 -0.16870731730E+03 -0.49806770816E+03  0.59875298526E+03  0.46999998093E+01 0.  1.
       -5    1    3    3    0  502 -0.28626813748E+03  0.16870731730E+03  0.37576758253E+03  0.50163230710E+03  0.46999998093E+01 0. -1.
</event>
<event>
 5   0  0.3748901E-03  0.1108308E+04  0.7818609E-02  0.9197132E-01
        2   -1    0    0  501    0  0.00000000000E+00  0.00000000000E+00  0.49549713897E+03  0.49549713897E+03  0.25500000920E-02 0.  1.
       -2   -1    0    0    0  501  0.00000000000E+00  0.00000000000E+00 -0.61975435765E+03  0.61975435765E+03  0.25500000920E-02 0. -1.
    10030    2    1    2    0    0  0.00000000000E+00  0.00000000000E+00 -0.12425721868E+03  0.11152514966E+04  0.11083077390E+04 0.  0.
        5    1    3    3  502    0  0.22691511663E+03 -0.24783626382E+03 -0.50551506087E+03  0.60702623550E+03  0.46999998093E+01 0. -1.
       -5    1    3    3    0  502 -0.22691511663E+03  0.24783626382E+03  0.38125784219E+03  0.50822526113E+03  0.46999998093E+01 0.  1.
</event>
<event>
 5   0  0.2257667E-03  0.1093842E+04  0.7818609E-02  0.9211215E-01
       -1   -1    0    0    0  501  0.00000000000E+00  0.00000000000E+00  0.33335524331E+03  0.33335524335E+03  0.50400001928E-02 0.  1.
        1   -1    0    0  501    0  0.00000000000E+00  0.00000000000E+00 -0.89730807012E+03  0.89730807014E+03  0.50400001928E-02 0. -1.
    10030    2    1    2    0    0  0.00000000000E+00  0.00000000000E+00 -0.56395282681E+03  0.12306633135E+04  0.10938415792E+04 0.  0.
        4    1    3    3  502    0  0.10154457238E+03  0.50031880565E+03 -0.61246206436E+02  0.51418179486E+03  0.12699999809E+01 0.  1.
       -4    1    3    3    0  502 -0.10154457238E+03 -0.50031880565E+03 -0.50270662038E+03  0.71648151863E+03  0.12699999809E+01 0. -1.
</event>
<event>
 5   0  0.2257667E-03  0.1102139E+04  0.7818609E-02  0.9203110E-01
        1   -1    0    0  501    0  0.00000000000E+00  0.00000000000E+00  0.96584475540E+03  0.96584475542E+03  0.50400001928E-02 0. -1.
       -1   -1    0    0    0  501  0.00000000000E+00  0.00000000000E+00 -0.31441652387E+03  0.31441652391E+03  0.50400001928E-02 0.  1.
    10030    2    1    2    0    0  0.00000000000E+00  0.00000000000E+00  0.65142823153E+03  0.12802612793E+04  0.11021389216E+04 0.  0.
        4    1    3    3  502    0  0.54549484268E+02 -0.48330018683E+03  0.24765607547E+02  0.48700068279E+03  0.12699999809E+01 0.  1.
       -4    1    3    3    0  502 -0.54549484268E+02  0.48330018683E+03  0.62666262398E+03  0.79326059654E+03  0.12699999809E+01 0. -1.
</event>
<event>
 5   0  0.2374100E-03  0.1104020E+04  0.7818609E-02  0.9201283E-01
        1   -1    0    0  501    0  0.00000000000E+00  0.00000000000E+00  0.36192977844E+03  0.36192977847E+03  0.50400001928E-02 0. -1.
       -1   -1    0    0    0  501  0.00000000000E+00  0.00000000000E+00 -0.84191735118E+03  0.84191735119E+03  0.50400001928E-02 0.  1.
    10030    2    1    2    0    0  0.00000000000E+00  0.00000000000E+00 -0.47998757274E+03  0.12038471297E+04  0.11040198556E+04 0.  0.
        2    1    3    3  502    0  0.38222160286E+03 -0.27393707895E+03 -0.55523708102E+03  0.72761465973E+03  0.25500000920E-02 0.  1.
       -2    1    3    3    0  502 -0.38222160286E+03  0.27393707895E+03  0.75249508276E+02  0.47623246993E+03  0.25500000920E-02 0. -1.
</event>
<event>
 5   0  0.3992414E-03  0.1087367E+04  0.7818609E-02  0.9217593E-01
        2   -1    0    0  501    0  0.00000000000E+00  0.00000000000E+00  0.23229925930E+03  0.23229925931E+03  0.25500000920E-02 0.  1.
       -2   -1    0    0    0  501  0.00000000000E+00  0.00000000000E+00 -0.12724614488E+04  0.12724614488E+04  0.25500000920E-02 0. -1.
    10030    2    1    2    0    0  0.00000000000E+00  0.00000000000E+00 -0.10401621895E+04  0.15047607081E+04  0.10873671911E+04 0.  0.
        1    1    3    3  502    0 -0.28502337584E+03  0.30060610703E+03 -0.10073667921E+04  0.10892154104E+04  0.50400001928E-02 0. -1.
       -1    1    3    3    0  502  0.28502337584E+03 -0.30060610703E+03 -0.32795397405E+02  0.41554529774E+03  0.50400001928E-02 0.  1.
</event>
<event>
 5   0  0.3748901E-03  0.1107298E+04  0.7818609E-02  0.9198108E-01
       -2   -1    0    0    0  501  0.00000000000E+00  0.00000000000E+00  0.47508179580E+03  0.47508179580E+03  0.25500000920E-02 0.  1.
        2   -1    0    0  501    0  0.00000000000E+00  0.00000000000E+00 -0.64520888170E+03  0.64520888171E+03  0.25500000920E-02 0. -1.
    10030    2    1    2    0    0  0.00000000000E+00  0.00000000000E+00 -0.17012708590E+03  0.11202906775E+04  0.11072976008E+04 0.  0.
        5    1    3    3  502    0  0.21013779722E+03 -0.50941645075E+03 -0.13899845821E+03  0.56833588264E+03  0.46999998093E+01 0. -1.
       -5    1    3    3    0  502 -0.21013779722E+03  0.50941645075E+03 -0.31128627698E+02  0.55195479487E+03  0.46999998093E+01 0.  1.
</event>
<event>
 5   0  0.3962999E-03  0.1090519E+04  0.7818609E-02  0.9214482E-01
        2   -1    0    0  501    0  0.00000000000E+00  0.00000000000E+00  0.56193319342E+03  0.56193319342E+03  0.25500000920E-02 0.  1.
       -2   -1    0    0    0  501  0.00000000000E+00  0.00000000000E+00 -0.52908068038E+03  0.52908068038E+03  0.25500000920E-02 0. -1.
    10030    2    1    2    0    0  0.00000000000E+00  0.00000000000E+00  0.32852513041E+02  0.10910138738E+04  0.10905191356E+04 0.  0.
        3    1    3    3  502    0 -0.90712728089E+02  0.49963933930E+03 -0.18225819483E+03  0.53952416832E+03  0.10100000352E+00 0.  1.
       -3    1    3    3    0  502  0.90712728089E+02 -0.49963933930E+03  0.21511070787E+03  0.55148970549E+03  0.10100000352E+00 0. -1.
</event>
<event>
 5   0  0.2257667E-03  0.1101040E+04  0.7818609E-02  0.9204179E-01
       -1   -1    0    0    0  501  0.00000000000E+00  0.00000000000E+00  0.48677646613E+03  0.48677646616E+03  0.50400001928E-02 0. -1.
        1   -1    0    0  501    0  0.00000000000E+00  0.00000000000E+00 -0.62261072331E+03  0.62261072334E+03  0.50400001928E-02 0.  1.
    10030    2    1    2    0    0  0.00000000000E+00  0.00000000000E+00 -0.13583425718E+03  0.11093871895E+04  0.11010399588E+04 0.  0.
        4    1    3    3  502    0 -0.19179089606E+03 -0.47125289769E+03  0.14393288812E+03  0.52875450880E+03  0.12699999809E+01 0. -1.
       -4    1    3    3    0  502  0.19179089606E+03  0.47125289769E+03 -0.27976714530E+03  0.58063268069E+03  0.12699999809E+01 0.  1.
</event>
<event>
 5   0  0.3992414E-03  0.1097776E+04  0.7818609E-02  0.9207362E-01
        2   -1    0    0  501    0  0.00000000000E+00  0.00000000000E+00  0.12860461450E+04  0.12860461450E+04  0.25500000920E-02 0.  1.
       -2   -1    0    0    0  501  0.00000000000E+00  0.00000000000E+00 -0.23426700362E+03  0.23426700363E+03  0.25500000920E-02 0. -1.
    10030    2    1    2    0    0  0.00000000000E+00  0.00000000000E+00  0.10517791414E+04  0.15203131486E+04  0.10977762557E+04 0.  0.
        1    1    3    3  502    0  0.27340226589E+03 -0.43738865651E+03  0.78579612411E+03  0.93996445919E+03  0.50400001928E-02 0. -1.
       -1    1    3    3    0  502 -0.27340226589E+03  0.43738865651E+03  0.26598301726E+03  0.58034868944E+03  0.50400001928E-02 0.  1.
</event>
<event>
 5   0  0.2257667E-03  0.1095393E+04  0.7818609E-02  0.9209694E-01
        1   -1    0    0  501    0  0.00000000000E+00  0.00000000000E+00  0.39293650189E+03  0.39293650193E+03  0.50400001928E-02 0.  1.
       -1   -1    0    0    0  501  0.00000000000E+00  0.00000000000E+00 -0.76340909376E+03  0.76340909378E+03  0.50400001928E-02 0. -1.
    10030    2    1    2    0    0  0.00000000000E+00  0.00000000000E+00 -0.37047259187E+03  0.11563455957E+04  0.10953927129E+04 0.  0.
        4    1    3    3  502    0 -0.12126435286E+03 -0.31863094893E+03  0.26726354547E+03  0.43319988518E+03  0.12699999809E+01 0.  1.
       -4    1    3    3    0  502  0.12126435286E+03  0.31863094893E+03 -0.63773613733E+03  0.72314571052E+03  0.12699999809E+01 0. -1.
</event>
<event>
 5   0  0.3962999E-03  0.1105110E+04  0.7818609E-02  0.9200226E-01
        2   -1    0    0  501    0  0.00000000000E+00  0.00000000000E+00  0.10025678126E+04  0.10025678126E+04  0.25500000920E-02 0.  1.
       -2   -1    0    0    0  501  0.00000000000E+00  0.00000000000E+00 -0.30453494029E+03  0.30453494030E+03  0.25500000920E-02 0. -1.
    10030    2    1    2    0    0  0.00000000000E+00  0.00000000000E+00  0.69803287235E+03  0.13071027530E+04  0.11051098207E+04 0.  0.
        3    1    3    3  502    0  0.16193796258E+03 -0.11036865657E+03 -0.26204961645E+03  0.32722340345E+03  0.10100000352E+00 0. -1.
       -3    1    3    3    0  502 -0.16193796258E+03  0.11036865657E+03  0.96008248880E+03  0.97987934951E+03  0.10100000352E+00 0.  1.
</event>
<event>
 5   0  0.3713158E-03  0.1081661E+04  0.7818609E-02  0.9223253E-01
        2   -1    0    0  501    0  0.00000000000E+00  0.00000000000E+00  0.15983751512E+04  0.15983751512E+04  0.25500000920E-02 0.  1.
       -2   -1    0    0    0  501  0.00000000000E+00  0.00000000000E+00 -0.18299672610E+03  0.18299672612E+03  0.25500000920E-02 0. -1.
    10030    2    1    2    0    0  0.00000000000E+00  0.00000000000E+00  0.14153784251E+04  0.17813718773E+04  0.10816606118E+04 0.  0.
        4    1    3    3  502    0  0.15470163749E+03  0.26842927817E+03 -0.22364350750E+02  0.31062622411E+03  0.12699999809E+01 0. -1.
       -4    1    3    3    0  502 -0.15470163749E+03 -0.26842927817E+03  0.14377427758E+04  0.14707456532E+04  0.12699999809E+01 0.  1.
</event>
<event>
 5   0  0.2298958E-03  0.1102631E+04  0.7818609E-02  0.9202632E-01
        1   -1    0    0  501    0  0.00000000000E+00  0.00000000000E+00  0.56579117736E+03  0.56579117738E+03  0.50400001928E-02 0.  1.
       -1   -1    0    0    0  501  0.00000000000E+00  0.00000000000E+00 -0.53720980082E+03  0.53720980084E+03  0.50400001928E-02 0. -1.
    10030    2    1    2    0    0  0.00000000000E+00  0.00000000000E+00  0.28581376542E+02  0.11030009782E+04  0.11026306103E+04 0.  0.
        1    1    3    3  502    0  0.39639119017E+03 -0.35387741883E+03  0.16128684851E+03  0.55530950895E+03  0.50400001928E-02 0.  1.
       -1    1    3    3    0  502 -0.39639119017E+03  0.35387741883E+03 -0.13270547197E+03  0.54769146928E+03  0.50400001928E-02 0. -1.
</event>
<event>
 5   0  0.3992414E-03  0.1134140E+04  0.7818609E-02  0.9172541E-01
       -2   -1    0    0    0  501  0.00000000000E+00  0.00000000000E+00  0.56915179362E+03  0.56915179363E+03  0.25500000920E-02 0. -1.
        2   -1    0    0  501    0  0.00000000000E+00  0.00000000000E+00 -0.56499544917E+03  0.56499544918E+03  0.25500000920E-02 0.  1.
    10030    2    1    2    0    0  0.00000000000E+00  0.00000000000E+00  0.41563444539E+01  0.11341472428E+04  0.11341396268E+04 0.  0.
        1    1    3    3  502    0  0.59392651901E+02  0.42015373728E+03 -0.37410452776E+03  0.56569501304E+03  0.50400001928E-02 0.  1.
       -1    1    3    3    0  502 -0.59392651901E+02 -0.42015373728E+03  0.37826087222E+03  0.56845222977E+03  0.50400001928E-02 0. -1.
</event>
<event>
 5   0  0.2300702E-03  0.1097071E+04  0.7818609E-02  0.9208051E-01
        1   -1    0    0  501    0  0.00000000000E+00  0.00000000000E+00  0.32583329577E+03  0.32583329581E+03  0.50400001928E-02 0.  1.
       -1   -1    0    0    0  501  0.00000000000E+00  0.00000000000E+00 -0.92345150628E+03  0.92345150629E+03  0.50400001928E-02 0. -1.
    10030    2    1    2    0    0  0.00000000000E+00  0.00000000000E+00 -0.59761821051E+03  0.12492848021E+04  0.10970710967E+04 0.  0.
        5    1    3    3  502    0  0.34308668333E+02 -0.39582494802E+03  0.13183350399E+03  0.41863664074E+03  0.46999998093E+01 0.  1.
       -5    1    3    3    0  502 -0.34308668333E+02  0.39582494802E+03 -0.72945171450E+03  0.83064816136E+03  0.46999998093E+01 0. -1.
</event>
<event>
 5   0  0.2300702E-03  0.1110223E+04  0.7818609E-02  0.9195285E-01
       -1   -1    0    0    0  501  0.00000000000E+00  0.00000000000E+00  0.44080212958E+03  0.44080212961E+03  0.50400001928E-02 0.  1.
        1   -1    0    0  501    0  0.00000000000E+00  0.00000000000E+00 -0.69906340960E+03  0.69906340962E+03  0.50400001928E-02 0. -1.
    10030    2    1    2    0    0  0.00000000000E+00  0.00000000000E+00 -0.25826128002E+03  0.11398655392E+04  0.11102227519E+04 0.  0.
        5    1    3    3  502    0  0.30451248798E+02 -0.28710924447E+03 -0.61588551485E+03  0.68021765209E+03  0.46999998093E+01 0. -1.
       -5    1    3    3    0  502 -0.30451248798E+02  0.28710924447E+03  0.35762423484E+03  0.45964788714E+03  0.46999998093E+01 0.  1.
</event>
<event>
 5   0  0.2257667E-03  0.1090661E+04  0.7818609E-02  0.9214342E-01
       -1   -1    0    0    0  501  0.00000000000E+00  0.00000000000E+00  0.13659237474E+04  0.13659237474E+04  0.50400001928E-02 0. -1.
        1   -1    0    0  501    0  0.00000000000E+00  0.00000000000E+00 -0.21771750070E+03  0.21771750076E+03  0.50400001928E-02 0.  1.
    10030    2    1    2    0    0  0.00000000000E+00  0.00000000000E+00  0.11482062467E+04  0.15836412482E+04  0.10906612755E+04 0.  0.
        4    1    3    3  502    0 -0.87542999354E+02  0.42741560500E+03  0.10491449807E+04  0.11362458711E+04  0.12699999809E+01 0. -1.
       -4    1    3    3    0  502  0.87542999354E+02 -0.42741560500E+03  0.99061266025E+02  0.44739537711E+03  0.12699999809E+01 0.  1.
</event>
<event>
 5   0  0.2255788E-03  0.1094476E+04  0.7818609E-02  0.9210593E-01
        1   -1    0    0  501    0  0.00000000000E+00  0.00000000000E+00  0.62552597736E+03  0.62552597738E+03  0.50400001928E-02 0.  1.
       -1   -1    0    0    0  501  0.00000000000E+00  0.00000000000E+00 -0.47874807061E+03  0.47874807064E+03  0.50400001928E-02 0. -1.
    10030    2    1    2    0    0  0.00000000000E+00  0.00000000000E+00  0.14677790675E+03  0.11042740480E+04  0.10944758651E+04 0.  0.
        3    1    3    3  502    0  0.31817655068E+03 -0.13410070435E+02  0.52240473500E+03  0.61181930726E+03  0.10100000352E+00 0.  1.
       -3    1    3    3    0  502 -0.31817655068E+03  0.13410070435E+02 -0.37562682825E+03  0.49245474075E+03  0.10100000352E+00 0. -1.
</event>
<event>
 5   0  0.2255788E-03  0.1091014E+04  0.7818609E-02  0.9213995E-01
       -1   -1    0    0    0  501  0.00000000000E+00  0.00000000000E+00  0.35014971401E+03  0.35014971405E+03  0.50400001928E-02 0.  1.
        1   -1    0    0  501    0  0.00000000000E+00  0.00000000000E+00 -0.84985869245E+03  0.84985869247E+03  0.50400001928E-02 0. -1.
    10030    2    1    2    0    0  0.00000000000E+00  0.00000000000E+00 -0.49970897844E+03  0.12000084065E+04  0.10910138004E+04 0.  0.
        3    1    3    3  502    0 -0.29665331413E+02 -0.52756396821E+03 -0.39894700645E+03  0.66208949289E+03  0.10100000352E+00 0.  1.
       -3    1    3    3    0  502  0.29665331413E+02  0.52756396821E+03 -0.10076197199E+03  0.53791891363E+03  0.10100000352E+00 0. -1.
</event>
<event>
 5   0  0.2257667E-03  0.1100879E+04  0.7818609E-02  0.9204336E-01
        1   -1    0    0  501    0  0.00000000000E+00  0.00000000000E+00  0.28519135018E+03  0.28519135022E+03  0.50400001928E-02 0. -1.
       -1   -1    0    0    0  501  0.00000000000E+00  0.00000000000E+00 -0.10623867989E+04  0.10623867989E+04  0.50400001928E-02 0.  1.
    10030    2    1    2    0    0  0.00000000000E+00  0.00000000000E+00 -0.77719544870E+03  0.13475781491E+04  0.11008787865E+04 0.  0.
        4    1    3    3  502    0  0.34840759814E+03 -0.98891334127E+02 -0.89599069032E+03  0.96642034356E+03  0.12699999809E+01 0.  1.
       -4    1    3    3    0  502 -0.34840759814E+03  0.98891334127E+02  0.11879524161E+03  0.38115780556E+03  0.12699999809E+01 0. -1.
</event>
<event>
 5   0  0.2255788E-03  0.1098280E+04  0.7818609E-02  0.9206870E-01
        1   -1    0    0  501    0  0.00000000000E+00  0.00000000000E+00  0.10218828847E+04  0.10218828847E+04  0.50400001928E-02 0. -1.
       -1   -1    0    0    0  501  0.00000000000E+00  0.00000000000E+00 -0.29509700773E+03  0.29509700777E+03  0.50400001928E-02 0.  1.
    10030    2    1    2    0    0  0.00000000000E+00  0.00000000000E+00  0.72678587693E+03  0.13169798924E+04  0.10982797122E+04 0.  0.
        3    1    3    3  502    0 -0.14702539755E+03 -0.42361659400E+03  0.74351345197E+03  0.86826248894E+03  0.10100000352E+00 0. -1.
       -3    1    3    3    0  502  0.14702539755E+03  0.42361659400E+03 -0.16727575044E+02  0.44871740350E+03  0.10100000352E+00 0.  1.
</event>
<event>
 5   0  0.2298958E-03  0.1122449E+04  0.7818609E-02  0.9183584E-01
       -1   -1    0    0    0  501  0.00000000000E+00  0.00000000000E+00  0.90449861859E+03  0.90449861860E+03  0.50400001928E-02 0.  1.
        1   -1    0    0  501    0  0.00000000000E+00  0.00000000000E+00 -0.34822927105E+03  0.34822927109E+03  0.50400001928E-02 0. -1.
    10030    2    1    2    0    0  0.00000000000E+00  0.00000000000E+00  0.55626934754E+03  0.12527278897E+04  0.11224489203E+04 0.  0.
        1    1    3    3  502    0 -0.22196747229E+03 -0.69676923684E+02 -0.29187772198E+03  0.37325197530E+03  0.50400001928E-02 0. -1.
       -1    1    3    3    0  502  0.22196747229E+03  0.69676923684E+02  0.84814706951E+03  0.87947591440E+03  0.50400001928E-02 0.  1.
</event>
<event>
 5   0  0.2300702E-03  0.1101241E+04  0.7818609E-02  0.9203983E-01
        1   -1    0    0  501    0  0.00000000000E+00  0.00000000000E+00  0.59039316567E+03  0.59039316569E+03  0.50400001928E-02 0. -1.
       -1   -1    0    0    0  501  0.00000000000E+00  0.00000000000E+00 -0.51352707980E+03  0.51352707982E+03  0.50400001928E-02 0.  1.
    10030    2    1    2    0    0  0.00000000000E+00  0.00000000000E+00  0.76866085869E+02  0.11039202455E+04  0.11012408970E+04 0.  0.
        5    1    3    3  502    0 -0.28412107408E+03  0.12378687703E+03  0.49463679203E+03  0.58372563906E+03  0.46999998093E+01 0. -1.
       -5    1    3    3    0  502  0.28412107408E+03 -0.12378687703E+03 -0.41777070616E+03  0.52019460646E+03  0.46999998093E+01 0.  1.
</event>
<event>
 5   0  0.3962999E-03  0.1101811E+04  0.7818609E-02  0.9203429E-01
        2   -1    0    0  501    0  0.00000000000E+00  0.00000000000E+00  0.11800852635E+04  0.11800852635E+04  0.25500000920E-02 0.  1.
       -2   -1    0    0    0  501  0.00000000000E+00  0.00000000000E+00 -0.25718206496E+03  0.25718206498E+03  0.25500000920E-02 0. -1.
    10030    2    1    2    0    0  0.00000000000E+00  0.00000000000E+00  0.92290319854E+03  0.14372673285E+04  0.11018108094E+04 0.  0.
        3    1    3    3  502    0  0.16541323793E+03  0.29750842468E+03  0.10264857081E+04  0.10814553718E+04  0.10100000352E+00 0.  1.
       -3    1    3    3    0  502 -0.16541323793E+03 -0.29750842468E+03 -0.10358250956E+03  0.35581195670E+03  0.10100000352E+00 0. -1.
</event>
<event>
 5   0  0.3744875E-03  0.1098586E+04  0.7818609E-02  0.9206571E-01
        2   -1    0    0  501    0  0.00000000000E+00  0.00000000000E+00  0.77360974224E+03  0.77360974224E+03  0.25500000920E-02 0.  1.
       -2   -1    0    0    0  501  0.00000000000E+00  0.00000000000E+00 -0.39001943003E+03  0.39001943003E+03  0.25500000920E-02 0. -1.
    10030    2    1    2    0    0  0.00000000000E+00  0.00000000000E+00  0.38359031221E+03  0.11636291723E+04  0.10985860562E+04 0.  0.
        2    1    3    3  502    0 -0.22242344226E+03 -0.24289309946E+03 -0.27383842955E+03  0.42831849241E+03  0.25500000920E-02 0. -1.
       -2    1    3    3    0  502  0.22242344226E+03  0.24289309946E+03  0.65742874176E+03  0.73531067987E+03  0.25500000920E-02 0.  1.
</event>
<event>
 5   0  0.2300702E-03  0.1106448E+04  0.7818609E-02  0.9198930E-01
       -1   -1    0    0    0  501  0.00000000000E+00  0.00000000000E+00  0.29367583747E+03  0.29367583752E+03  0.50400001928E-02 0.  1.
        1   -1    0    0  501    0  0.00000000000E+00  0.00000000000E+00 -0.10421579735E+04  0.10421579735E+04  0.50400001928E-02 0. -1.
    10030    2    1    2    0    0  0.00000000000E+00  0.00000000000E+00 -0.74848213603E+03  0.13358338110E+04  0.11064476774E+04 0.  0.
        5    1    3    3  502    0  0.44558128401E+03 -0.31417434076E+03 -0.48740949302E+03  0.73132639836E+03  0.46999998093E+01 0. -1.
       -5    1    3    3    0  502 -0.44558128401E+03  0.31417434076E+03 -0.26107264301E+03  0.60450741267E+03  0.46999998093E+01 0.  1.
</event>
<event>
 5   0  0.3962999E-03  0.1102355E+04  0.7818609E-02  0.9202899E-01
        2   -1    0    0  501    0  0.00000000000E+00  0.00000000000E+00  0.64477858292E+03  0.64477858292E+03  0.25500000920E-02 0. -1.
       -2   -1    0    0    0  501  0.00000000000E+00  0.00000000000E+00 -0.47116434470E+03  0.47116434471E+03  0.25500000920E-02 0.  1.
    10030    2    1    2    0    0  0.00000000000E+00  0.00000000000E+00  0.17361423822E+03  0.11159429276E+04  0.11023550762E+04 0.  0.
        3    1    3    3  502    0  0.27566386231E+03  0.25951397973E+01 -0.39635929262E+03  0.48280223569E+03  0.10100000352E+00 0.  1.
       -3    1    3    3    0  502 -0.27566386231E+03 -0.25951397973E+01  0.56997353084E+03  0.63314069194E+03  0.10100000352E+00 0. -1.
</event>
<event>
 5   0  0.3992414E-03  0.1095494E+04  0.7818609E-02  0.9209595E-01
        2   -1    0    0  501    0  0.00000000000E+00  0.00000000000E+00  0.11325943949E+04  0.11325943949E+04  0.25500000920E-02 0. -1.
       -2   -1    0    0    0  501  0.00000000000E+00  0.00000000000E+00 -0.26490233805E+03  0.26490233806E+03  0.25500000920E-02 0.  1.
    10030    2    1    2    0    0  0.00000000000E+00  0.00000000000E+00  0.86769205686E+03  0.13974967330E+04  0.10954942324E+04 0.  0.
        1    1    3    3  502    0 -0.18159675228E+03  0.50869155738E+03  0.54994259874E+03  0.77083159181E+03  0.50400001928E-02 0.  1.
       -1    1    3    3    0  502  0.18159675228E+03 -0.50869155738E+03  0.31774945811E+03  0.62666514116E+03  0.50400001928E-02 0. -1.
</event>
<event>
 5   0  0.3713158E-03  0.1099136E+04  0.7818609E-02  0.9206034E-01
        2   -1    0    0  501    0  0.00000000000E+00  0.00000000000E+00  0.81774620560E+03  0.81774620561E+03  0.25500000920E-02 0. -1.
       -2   -1    0    0    0  501  0.00000000000E+00  0.00000000000E+00 -0.36933846805E+03  0.36933846806E+03  0.25500000920E-02 0.  1.
    10030    2    1    2    0    0  0.00000000000E+00  0.00000000000E+00  0.44840773756E+03  0.11870846737E+04  0.10991362624E+04 0.  0.
        4    1    3    3  502    0 -0.18127700143E+03 -0.51755690754E+03  0.18530808578E+03  0.57884989708E+03  0.12699999809E+01 0. -1.
       -4    1    3    3    0  502  0.18127700143E+03  0.51755690754E+03  0.26309965178E+03  0.60823477659E+03  0.12699999809E+01 0.  1.
</event>
<event>
 5   0  0.3744875E-03  0.1097518E+04  0.7818609E-02  0.9207614E-01
       -2   -1    0    0    0  501  0.00000000000E+00  0.00000000000E+00  0.80592339370E+03  0.80592339370E+03  0.25500000920E-02 0. -1.
        2   -1    0    0  501    0  0.00000000000E+00  0.00000000000E+00 -0.37365423132E+03  0.37365423132E+03  0.25500000920E-02 0.  1.
    10030    2    1    2    0    0  0.00000000000E+00  0.00000000000E+00  0.43226916238E+03  0.11795776250E+04  0.10975184485E+04 0.  0.
        2    1    3    3  502    0 -0.18865124576E+03 -0.35105680406E+03 -0.18930587967E+03  0.44121070736E+03  0.25500000920E-02 0.  1.
       -2    1    3    3    0  502  0.18865124576E+03  0.35105680406E+03  0.62157504205E+03  0.73836691767E+03  0.25500000920E-02 0. -1.
</event>
<event>
 5   0  0.2300702E-03  0.1100045E+04  0.7818609E-02  0.9205148E-01
        1   -1    0    0  501    0  0.00000000000E+00  0.00000000000E+00  0.94095693883E+03  0.94095693885E+03  0.50400001928E-02 0.  1.
       -1   -1    0    0    0  501  0.00000000000E+00  0.00000000000E+00 -0.32150760233E+03  0.32150760237E+03  0.50400001928E-02 0. -1.
    10030    2    1    2    0    0  0.00000000000E+00  0.00000000000E+00  0.61944933650E+03  0.12624645412E+04  0.11000451070E+04 0.  0.
        5    1    3    3  502    0 -0.11550317524E+03  0.44813806912E+03  0.65081755345E+03  0.79859519806E+03  0.46999998093E+01 0.  1.
       -5    1    3    3    0  502  0.11550317524E+03 -0.44813806912E+03 -0.31368216952E+02  0.46386934315E+03  0.46999998093E+01 0. -1.
</event>
<event>
 5   0  0.3744875E-03  0.1090218E+04  0.7818609E-02  0.9214779E-01
        2   -1    0    0  501    0  0.00000000000E+00  0.00000000000E+00  0.15688386548E+04  0.15688386548E+04  0.25500000920E-02 0. -1.
       -2   -1    0    0    0  501  0.00000000000E+00  0.00000000000E+00 -0.18940374115E+03  0.18940374116E+03  0.25500000920E-02 0.  1.
    10030    2    1    2    0    0  0.00000000000E+00  0.00000000000E+00  0.13794349137E+04  0.17582423960E+04  0.10902181626E+04 0.  0.
        2    1    3    3  502    0 -0.33118239349E+02 -0.15449215762E+03 -0.15166384074E+03  0.21901270543E+03  0.25500000920E-02 0.  1.
       -2    1    3    3    0  502  0.33118239349E+02  0.15449215762E+03  0.15310987544E+04  0.15392296906E+04  0.25500000920E-02 0. -1.
</event>
<event>
 5   0  0.2300702E-03  0.1095152E+04  0.7818609E-02  0.9209930E-01
        1   -1    0    0  501    0  0.00000000000E+00  0.00000000000E+00  0.44560559459E+03  0.44560559462E+03  0.50400001928E-02 0. -1.
       -1   -1    0    0    0  501  0.00000000000E+00  0.00000000000E+00 -0.67288111088E+03  0.67288111090E+03  0.50400001928E-02 0.  1.
    10030    2    1    2    0    0  0.00000000000E+00  0.00000000000E+00 -0.22727551630E+03  0.11184867055E+04  0.10951522041E+04 0.  0.
        5    1    3    3  502    0 -0.21907775815E+03  0.10184171596E+02  0.39876811480E+03  0.45512292938E+03  0.46999998093E+01 0. -1.
       -5    1    3    3    0  502  0.21907775815E+03 -0.10184171596E+02 -0.62604363109E+03  0.66336377614E+03  0.46999998093E+01 0.  1.
</event>
<event>
 5   0  0.2374100E-03  0.1059652E+04  0.7818609E-02  0.9245435E-01
        1   -1    0    0  501    0  0.00000000000E+00  0.00000000000E+00  0.47905798596E+03  0.47905798599E+03  0.50400001928E-02 0.  1.
       -1   -1    0    0    0  501  0.00000000000E+00  0.00000000000E+00 -0.58597444504E+03  0.58597444506E+03  0.50400001928E-02 0. -1.
    10030    2    1    2    0    0  0.00000000000E+00  0.00000000000E+00 -0.10691645908E+03  0.10650324311E+04  0.10596522779E+04 0.  0.
        2    1    3    3  502    0  0.83400549278E+02  0.36305169137E+03 -0.43213842581E+03  0.57053115716E+03  0.25500000920E-02 0. -1.
       -2    1    3    3    0  502 -0.83400549278E+02 -0.36305169137E+03  0.32522196673E+03  0.49450127389E+03  0.25500000920E-02 0.  1.
</event>
<event>
 5   0  0.2374100E-03  0.1079055E+04  0.7818609E-02  0.9225850E-01
        1   -1    0    0  501    0  0.00000000000E+00  0.00000000000E+00  0.43468068880E+03  0.43468068883E+03  0.50400001928E-02 0. -1.
       -1   -1    0    0    0  501  0.00000000000E+00  0.00000000000E+00 -0.66966341642E+03  0.66966341644E+03  0.50400001928E-02 0.  1.
    10030    2    1    2    0    0  0.00000000000E+00  0.00000000000E+00 -0.23498272762E+03  0.11043441053E+04  0.10790546884E+04 0.  0.
        2    1    3    3  502    0  0.16960895778E+03 -0.11395472011E+03  0.39354784282E+03  0.44343295028E+03  0.25500000920E-02 0. -1.
       -2    1    3    3    0  502 -0.16960895778E+03  0.11395472011E+03 -0.62853057045E+03  0.66091115499E+03  0.25500000920E-02 0.  1.
</event>
<event>
 5   0  0.2374100E-03  0.1092162E+04  0.7818609E-02  0.9212865E-01
        1   -1    0    0  501    0  0.00000000000E+00  0.00000000000E+00  0.87093544721E+03  0.87093544722E+03  0.50400001928E-02 0.  1.
       -1   -1    0    0    0  501  0.00000000000E+00  0.00000000000E+00 -0.34239556669E+03  0.34239556672E+03  0.50400001928E-02 0. -1.
    10030    2    1    2    0    0  0.00000000000E+00  0.00000000000E+00  0.52853988052E+03  0.12133310139E+04  0.10921619587E+04 0.  0.
        2    1    3    3  502    0 -0.46766885085E+03  0.18828441953E+03  0.31132375165E+02  0.50510830668E+03  0.25500000920E-02 0.  1.
       -2    1    3    3    0  502  0.46766885085E+03 -0.18828441953E+03  0.49740750536E+03  0.70822270726E+03  0.25500000920E-02 0. -1.
</event>
<event>
 5   0  0.3992414E-03  0.1086315E+04  0.7818609E-02  0.9218634E-01
       -2   -1    0    0    0  501  0.00000000000E+00  0.00000000000E+00  0.17307371403E+03  0.17307371404E+03  0.25500000920E-02 0. -1.
        2   -1    0    0  501    0  0.00000000000E+00  0.00000000000E+00 -0.17045922962E+04  0.17045922962E+04  0.25500000920E-02 0.  1.
    10030    2    1    2    0    0  0.00000000000E+00  0.00000000000E+00 -0.15315185821E+04  0.18776660102E+04  0.10863150917E+04 0.  0.
        1    1    3    3  502    0  0.19097246463E+03  0.27597613160E+03 -0.15039341469E+04  0.15409254445E+04  0.50400001928E-02 0.  1.
       -1    1    3    3    0  502 -0.19097246463E+03 -0.27597613160E+03 -0.27584435244E+02  0.33674056565E+03  0.50400001928E-02 0. -1.
</event>
<event>
 5   0  0.3713158E-03  0.1104672E+04  0.7818609E-02  0.9200650E-01
       -2   -1    0    0    0  501  0.00000000000E+00  0.00000000000E+00  0.65980654812E+03  0.65980654812E+03  0.25500000920E-02 0.  1.
        2   -1    0    0  501    0  0.00000000000E+00  0.00000000000E+00 -0.46237073762E+03  0.46237073763E+03  0.25500000920E-02 0. -1.
    10030    2    1    2    0    0  0.00000000000E+00  0.00000000000E+00  0.19743581050E+03  0.11221772858E+04  0.11046723321E+04 0.  0.
        4    1    3    3  502    0 -0.51753710256E+03 -0.10035706089E+03  0.26612442717E+03  0.59054213722E+03  0.12699999809E+01 0.  1.
       -4    1    3    3    0  502  0.51753710256E+03  0.10035706089E+03 -0.68688616668E+02  0.53163514853E+03  0.12699999809E+01 0. -1.
</event>
<event>
 5   0  0.2255788E-03  0.1085797E+04  0.7818609E-02  0.9219147E-01
       -1   -1    0    0    0  501  0.00000000000E+00  0.00000000000E+00  0.42667284816E+03  0.42667284819E+03  0.50400001928E-02 0.  1.
        1   -1    0    0  501    0  0.00000000000E+00  0.00000000000E+00 -0.69078341512E+03  0.69078341513E+03  0.50400001928E-02 0. -1.
    10030    2    1    2    0    0  0.00000000000E+00  0.00000000000E+00 -0.26411056695E+03  0.11174562633E+04  0.10857965320E+04 0.  0.
        3    1    3    3  502    0  0.27133323524E+03 -0.31445236917E+03 -0.49187299493E+03  0.64377097664E+03  0.10100000352E+00 0. -1.
       -3    1    3    3    0  502 -0.27133323524E+03  0.31445236917E+03  0.22776242798E+03  0.47368528668E+03  0.10100000352E+00 0.  1.
</event>
<event>
 5   0  0.3962999E-03  0.1115557E+04  0.7818609E-02  0.9190160E-01
       -2   -1    0    0    0  501  0.00000000000E+00  0.00000000000E+00  0.17463721996E+03  0.17463721998E+03  0.25500000920E-02 0. -1.
        2   -1    0    0  501    0  0.00000000000E+00  0.00000000000E+00 -0.17815043507E+04  0.17815043507E+04  0.25500000920E-02 0.  1.
    10030    2    1    2    0    0  0.00000000000E+00  0.00000000000E+00 -0.16068671307E+04  0.19561415706E+04  0.11155572010E+04 0.  0.
        3    1    3    3  502    0  0.48361496195E+03  0.19631330751E+03 -0.45850141156E+03  0.69472721317E+03  0.10100000352E+00 0. -1.
       -3    1    3    3    0  502 -0.48361496195E+03 -0.19631330751E+03 -0.11483657191E+04  0.12614143575E+04  0.10100000352E+00 0.  1.
</event>
<event>
 5   0  0.2255788E-03  0.1094332E+04  0.7818609E-02  0.9210734E-01
       -1   -1    0    0    0  501  0.00000000000E+00  0.00000000000E+00  0.18229230680E+03  0.18229230686E+03  0.50400001928E-02 0. -1.
        1   -1    0    0  501    0  0.00000000000E+00  0.00000000000E+00 -0.16423646010E+04  0.16423646010E+04  0.50400001928E-02 0.  1.
    10030    2    1    2    0    0  0.00000000000E+00  0.00000000000E+00 -0.14600722942E+04  0.18246569079E+04  0.10943316349E+04 0.  0.
        3    1    3    3  502    0 -0.24499485837E+03 -0.21958117733E+02  0.84907188898E+02  0.26021890879E+03  0.10100000352E+00 0. -1.
       -3    1    3    3    0  502  0.24499485837E+03  0.21958117733E+02 -0.15449794831E+04  0.15644379991E+04  0.10100000352E+00 0.  1.
</event>
<event>
 5   0  0.2374100E-03  0.1101616E+04  0.7818609E-02  0.9203619E-01
       -1   -1    0    0    0  501  0.00000000000E+00  0.00000000000E+00  0.72044479122E+03  0.72044479124E+03  0.50400001928E-02 0.  1.
        1   -1    0    0  501    0  0.00000000000E+00  0.00000000000E+00 -0.42111375373E+03  0.42111375376E+03  0.50400001928E-02 0. -1.
    10030    2    1    2    0    0  0.00000000000E+00  0.00000000000E+00  0.29933103750E+03  0.11415585450E+04  0.11016155598E+04 0.  0.
        2    1    3    3  502    0 -0.14982850448E+03  0.15735707436E+03 -0.37482810583E+03  0.43325043397E+03  0.25500000920E-02 0. -1.
       -2    1    3    3    0  502  0.14982850448E+03 -0.15735707436E+03  0.67415914333E+03  0.70830811103E+03  0.25500000920E-02 0.  1.
</event>
<event>
 5   0  0.3744875E-03  0.1101372E+04  0.7818609E-02  0.9203855E-01
        2   -1    0    0  501    0  0.00000000000E+00  0.00000000000E+00  0.18192694200E+04  0.18192694200E+04  0.25500000920E-02 0.  1.
       -2   -1    0    0    0  501  0.00000000000E+00  0.00000000000E+00 -0.16669069692E+03  0.16669069694E+03  0.25500000920E-02 0. -1.
    10030    2    1    2    0    0  0.00000000000E+00  0.00000000000E+00  0.16525787231E+04  0.19859601170E+04  0.11013723939E+04 0.  0.
        2    1    3    3  502    0  0.17190531697E+03 -0.24543399792E+03 -0.68174670984E+01  0.29972614701E+03  0.25500000920E-02 0. -1.
       -2    1    3    3    0  502 -0.17190531697E+03  0.24543399792E+03  0.16593961902E+04  0.16862339700E+04  0.25500000920E-02 0.  1.
</event>
<event>
 5   0  0.2300702E-03  0.1128658E+04  0.7818609E-02  0.9177701E-01
        1   -1    0    0  501    0  0.00000000000E+00  0.00000000000E+00  0.27831564100E+04  0.27831564100E+04  0.50400001928E-02 0. -1.
       -1   -1    0    0    0  501  0.00000000000E+00  0.00000000000E+00 -0.11442665438E+03  0.11442665449E+03  0.50400001928E-02 0.  1.
    10030    2    1    2    0    0  0.00000000000E+00  0.00000000000E+00  0.26687297556E+04  0.28975830645E+04  0.11286581002E+04 0.  0.
        5    1    3    3  502    0  0.10668612991E+03  0.55412426588E+03  0.13423004077E+04  0.14561003080E+04  0.46999998093E+01 0. -1.
       -5    1    3    3    0  502 -0.10668612991E+03 -0.55412426588E+03  0.13264293479E+04  0.14414827565E+04  0.46999998093E+01 0.  1.
</event>
<event>
 5   0  0.2298958E-03  0.1101373E+04  0.7818609E-02  0.9203855E-01
       -1   -1    0    0    0  501  0.00000000000E+00  0.00000000000E+00  0.23622858611E+03  0.23622858616E+03  0.50400001928E-02 0.  1.
        1   -1    0    0  501    0  0.00000000000E+00  0.00000000000E+00 -0.12837370334E+04  0.12837370334E+04  0.50400001928E-02 0. -1.
    10030    2    1    2    0    0  0.00000000000E+00  0.00000000000E+00 -0.10475084473E+04  0.15199656196E+04  0.11013725698E+04 0.  0.
        1    1    3    3  502    0 -0.28177614245E+03  0.39297939151E+03 -0.16012666595E+03  0.50938310316E+03  0.50400001928E-02 0.  1.
       -1    1    3    3    0  502  0.28177614245E+03 -0.39297939151E+03 -0.88738178135E+03  0.10105825164E+04  0.50400001928E-02 0. -1.
</event>
<event>
 5   0  0.3713158E-03  0.1105424E+04  0.7818609E-02  0.9199921E-01
        2   -1    0    0  501    0  0.00000000000E+00  0.00000000000E+00  0.94998325562E+03  0.94998325562E+03  0.25500000920E-02 0. -1.
       -2   -1    0    0    0  501  0.00000000000E+00  0.00000000000E+00 -0.32157463527E+03  0.32157463528E+03  0.25500000920E-02 0.  1.
    10030    2    1    2    0    0  0.00000000000E+00  0.00000000000E+00  0.62840862034E+03  0.12715578909E+04  0.11054239349E+04 0.  0.
        4    1    3    3  502    0  0.31970892775E+02 -0.55110440255E+03  0.28268751218E+03  0.62020322713E+03  0.12699999809E+01 0. -1.
       -4    1    3    3    0  502 -0.31970892775E+02  0.55110440255E+03  0.34572110816E+03  0.65135466378E+03  0.12699999809E+01 0.  1.
</event>
<event>
 5   0  0.2298958E-03  0.1100415E+04  0.7818609E-02  0.9204788E-01
       -1   -1    0    0    0  501  0.00000000000E+00  0.00000000000E+00  0.28736488248E+03  0.28736488253E+03  0.50400001928E-02 0. -1.
        1   -1    0    0  501    0  0.00000000000E+00  0.00000000000E+00 -0.10534622234E+04  0.10534622234E+04  0.50400001928E-02 0.  1.
    10030    2    1    2    0    0  0.00000000000E+00  0.00000000000E+00 -0.76609734095E+03  0.13408271060E+04  0.11004145547E+04 0.  0.
        1    1    3    3  502    0 -0.52848119557E+03  0.82402712314E+02 -0.22584436116E+03  0.58059302146E+03  0.50400001928E-02 0. -1.
       -1    1    3    3    0  502  0.52848119557E+03 -0.82402712314E+02 -0.54025297978E+03  0.76023408451E+03  0.50400001928E-02 0.  1.
</event>
<event>
 5   0  0.3713158E-03  0.1050681E+04  0.7818609E-02  0.9254641E-01
        2   -1    0    0  501    0  0.00000000000E+00  0.00000000000E+00  0.26791287239E+04  0.26791287239E+04  0.25500000920E-02 0. -1.
       -2   -1    0    0    0  501  0.00000000000E+00  0.00000000000E+00 -0.10301215167E+03  0.10301215170E+03  0.25500000920E-02 0.  1.
    10030    2    1    2    0    0  0.00000000000E+00  0.00000000000E+00  0.25761165723E+04  0.27821408756E+04  0.10506813304E+04 0.  0.
        4    1    3    3  502    0 -0.10295724944E+03 -0.50392131902E+03  0.15713298108E+04  0.16533650166E+04  0.12699999809E+01 0.  1.
       -4    1    3    3    0  502  0.10295724944E+03  0.50392131902E+03  0.10047867615E+04  0.11287758590E+04  0.12699999809E+01 0. -1.
</event>
<event>
 5   0  0.3748901E-03  0.1099749E+04  0.7818609E-02  0.9205437E-01
        2   -1    0    0  501    0  0.00000000000E+00  0.00000000000E+00  0.13145249839E+04  0.13145249839E+04  0.25500000920E-02 0.  1.
       -2   -1    0    0    0  501  0.00000000000E+00  0.00000000000E+00 -0.23001605371E+03  0.23001605373E+03  0.25500000920E-02 0. -1.
    10030    2    1    2    0    0  0.00000000000E+00  0.00000000000E+00  0.10845089302E+04  0.15445410376E+04  0.10997487883E+04 0.  0.
        5    1    3    3  502    0 -0.27794130331E+03 -0.41715687420E+03  0.85963672867E+03  0.99512241511E+03  0.46999998093E+01 0.  1.
       -5    1    3    3    0  502  0.27794130331E+03  0.41715687420E+03  0.22487220154E+03  0.54941862254E+03  0.46999998093E+01 0. -1.
</event>
<event>
 5   0  0.2257667E-03  0.1181913E+04  0.7818609E-02  0.9128837E-01
        1   -1    0    0  501    0  0.00000000000E+00  0.00000000000E+00  0.86223068716E+03  0.86223068717E+03  0.50400001928E-02 0. -1.
       -1   -1    0    0    0  501  0.00000000000E+00  0.00000000000E+00 -0.40503040766E+03  0.40503040769E+03  0.50400001928E-02 0.  1.
    10030    2    1    2    0    0  0.00000000000E+00  0.00000000000E+00  0.45720027950E+03  0.12672610949E+04  0.11819131047E+04 0.  0.
        4    1    3    3  502    0 -0.58758995848E+03  0.39752704544E+02  0.17622836400E+03  0.61473594820E+03  0.12699999809E+01 0.  1.
       -4    1    3    3    0  502  0.58758995848E+03 -0.39752704544E+02  0.28097191550E+03  0.65252514667E+03  0.12699999809E+01 0. -1.
</event>
<event>
 5   0  0.3748901E-03  0.1095217E+04  0.7818609E-02  0.9209866E-01
       -2   -1    0    0    0  501  0.00000000000E+00  0.00000000000E+00  0.25398621812E+03  0.25398621813E+03  0.25500000920E-02 0.  1.
        2   -1    0    0  501    0  0.00000000000E+00  0.00000000000E+00 -0.11806744587E+04  0.11806744587E+04  0.25500000920E-02 0. -1.
    10030    2    1    2    0    0  0.00000000000E+00  0.00000000000E+00 -0.92668824057E+03  0.14346606768E+04  0.10952169476E+04 0.  0.
        5    1    3    3  502    0  0.38057567281E+03  0.28665582126E+03 -0.81688902665E+03  0.94569507478E+03  0.46999998093E+01 0. -1.
       -5    1    3    3    0  502 -0.38057567281E+03 -0.28665582126E+03 -0.10979921392E+03  0.48896560204E+03  0.46999998093E+01 0.  1.
</event>
<event>
 5   0  0.1508625E-03  0.1096073E+04  0.7818609E-02  0.9209028E-01
        4   -1    0    0  501    0  0.00000000000E+00  0.00000000000E+00  0.59760247173E+03  0.59760382120E+03  0.12699999809E+01 0. -1.
       -4   -1    0    0    0  501  0.00000000000E+00  0.00000000000E+00 -0.50257880124E+03  0.50258040586E+03  0.12699999809E+01 0.  1.
    10030    2    1    2    0    0  0.00000000000E+00  0.00000000000E+00  0.95023670485E+02  0.11001842271E+04  0.10960729152E+04 0.  0.
        4    1    3    3  502    0 -0.43319446094E+02  0.53643000410E+03  0.15138246583E+03  0.55906349154E+03  0.12699999809E+01 0. -1.
       -4    1    3    3    0  502  0.43319446094E+02 -0.53643000410E+03 -0.56358795350E+02  0.54112073553E+03  0.12699999809E+01 0.  1.
</event>
<event>
 5   0  0.3744875E-03  0.1072164E+04  0.7818609E-02  0.9232756E-01
        2   -1    0    0  501    0  0.00000000000E+00  0.00000000000E+00  0.49752010796E+03  0.49752010797E+03  0.25500000920E-02 0. -1.
       -2   -1    0    0    0  501  0.00000000000E+00  0.00000000000E+00 -0.57763231519E+03  0.57763231519E+03  0.25500000920E-02 0.  1.
    10030    2    1    2    0    0  0.00000000000E+00  0.00000000000E+00 -0.80112207225E+02  0.10751524232E+04  0.10721635917E+04 0.  0.
        2    1    3    3  502    0  0.34144995533E+02 -0.35495001203E+03  0.36134503045E+03  0.50766684232E+03  0.25500000920E-02 0. -1.
       -2    1    3    3    0  502 -0.34144995533E+02  0.35495001203E+03 -0.44145723768E+03  0.56748558084E+03  0.25500000920E-02 0.  1.
</event>
<event>
 5   0  0.2255788E-03  0.1114954E+04  0.7818609E-02  0.9190738E-01
        1   -1    0    0  501    0  0.00000000000E+00  0.00000000000E+00  0.48965643754E+03  0.48965643757E+03  0.50400001928E-02 0.  1.
       -1   -1    0    0    0  501  0.00000000000E+00  0.00000000000E+00 -0.63469126347E+03  0.63469126349E+03  0.50400001928E-02 0. -1.
    10030    2    1    2    0    0  0.00000000000E+00  0.00000000000E+00 -0.14503482593E+03  0.11243477011E+04  0.11149541032E+04 0.  0.
        3    1    3    3  502    0  0.26354623936E+03 -0.48536820043E+03  0.38952797897E+01  0.55231702280E+03  0.10100000352E+00 0. -1.
       -3    1    3    3    0  502 -0.26354623936E+03  0.48536820043E+03 -0.14893010572E+03  0.57203067825E+03  0.10100000352E+00 0.  1.
</event>
</LesHouchesEvents>
