<LesHouchesEvents version="3.0">
<header>
<!--
#*********************************************************************
#                                                                    *
#                        MadGraph5_aMC@NLO                           *
#                                                                    *
#                           Going Beyond                             *
#                                                                    *
#                   http://madgraph.hep.uiuc.edu                     *
#                   http://madgraph.phys.ucl.ac.be                   *
#                   http://amcatnlo.cern.ch                          *
#                                                                    *
#                     The MadGraph5_aMC@NLO team                     *
#                                                                    *
#....................................................................*
#                                                                    *
# This file contains all the information necessary to reproduce      *
# the events generated:                                              *
#                                                                    *
# 1. software version                                                *
# 2. proc_card          : code generation info including model       *
# 3. param_card         : model primary parameters in the LH format  *
# 4. run_card           : running parameters (collider and cuts)     *
# 5. pythia_card        : present only if pythia has been run        *
# 6. pgs_card           : present only if pgs has been run           *
# 7. delphes_cards      : present only if delphes has been run       *
#                                                                    *
#                                                                    *
#*********************************************************************
-->
<MGVersion>
#5.2.2.3
</MGVersion>
<MG5ProcCard>
#************************************************************
#*                     MadGraph5_aMC@NLO                    *
#*                                                          *
#*                *                       *                 *
#*                  *        * *        *                   *
#*                    * * * * 5 * * * *                     *
#*                  *        * *        *                   *
#*                *                       *                 *
#*                                                          *
#*                                                          *
#*         VERSION 2.2.3                 2015-02-10         *
#*                                                          *
#*    The MadGraph5_aMC@NLO Development Team - Find us at   *
#*    https://server06.fynu.ucl.ac.be/projects/madgraph     *
#*                                                          *
#************************************************************
#*                                                          *
#*               Command File for MadGraph5_aMC@NLO         *
#*                                                          *
#*     run as ./bin/mg5_aMC  filename                       *
#*                                                          *
#************************************************************
set group_subprocesses Auto
set ignore_six_quark_processes False
set loop_optimized_output True
set gauge unitary
set complex_mass_scheme False
import model sm
define p = g u c d s u~ c~ d~ s~
define j = g u c d s u~ c~ d~ s~
define l+ = e+ mu+
define l- = e- mu-
define vl = ve vm vt
define vl~ = ve~ vm~ vt~
import model Zprime_UFO
generate p p > zph, zph > j j
add process p p > zph, zph > b b~
output Dijet_signal
</MG5ProcCard>
<MGProcCard>
#*********************************************************************
#                        MadGraph/MadEvent                           *
#                   http://madgraph.hep.uiuc.edu                     *
#                                                                    *
#                          proc_card.dat                             *
#*********************************************************************
#                                                                    *
#            This Files is generated by MADGRAPH 5                   *
#                                                                    *
# WARNING: This Files is generated for MADEVENT (compatibility issue)*
#          This files is NOT a valid MG4 proc_card.dat               *
#          Running this in MG4 will NEVER reproduce the result of MG5*
#                                                                    *
#*********************************************************************
#*********************************************************************
# Process(es) requested : mg2 input                                  *
#*********************************************************************
# Begin PROCESS # This is TAG. Do not modify this line
p p > zph , zph > j j           #Process
# Be carefull the coupling are here in MG5 convention
          
end_coup           # End the couplings input

done               # this tells MG there are no more procs
# End PROCESS  # This is TAG. Do not modify this line
#*********************************************************************
# Model information                                                  *
#*********************************************************************
# Begin MODEL  # This is TAG. Do not modify this line
Zprime_UFO
# End   MODEL  # This is TAG. Do not modify this line
#*********************************************************************
# Start multiparticle definitions                                    *
#*********************************************************************
# Begin MULTIPARTICLES # This is TAG. Do not modify this line

# End  MULTIPARTICLES # This is TAG. Do not modify this line
</MGProcCard>
<MGRunCard>
#*********************************************************************
#                       MadGraph5_aMC@NLO                            *
#                                                                    *
#                     run_card.dat MadEvent                          *
#                                                                    *
#  This file is used to set the parameters of the run.               *
#                                                                    *
#  Some notation/conventions:                                        *
#                                                                    *
#   Lines starting with a '# ' are info or comments                  *
#                                                                    *
#   mind the format:   value    = variable     ! comment             *
#*********************************************************************
#
#*******************                                                 
# Running parameters
#*******************                                                 
#                                                                    
#*********************************************************************
# Tag name for the run (one word)                                    *
#*********************************************************************
  tag_1     = run_tag ! name of the run 
#*********************************************************************
# Run to generate the grid pack                                      *
#*********************************************************************
  .false.     = gridpack  !True = setting up the grid pack
#*********************************************************************
# Number of events and rnd seed                                      *
# Warning: Do not generate more than 1M events in a single run       *
# If you want to run Pythia, avoid more than 50k events in a run.    *
#*********************************************************************
  2000 = nevents ! Number of unweighted events requested 
 669 = iseed   ! rnd seed (0=assigned automatically=default))
#*********************************************************************
# Collider type and energy                                           *
# lpp: 0=No PDF, 1=proton, -1=antiproton, 2=photon from proton,      *
#                                         3=photon from electron     *
#*********************************************************************
        1     = lpp1    ! beam 1 type 
        1     = lpp2    ! beam 2 type
     4000     = ebeam1  ! beam 1 total energy in GeV
     4000     = ebeam2  ! beam 2 total energy in GeV
#*********************************************************************
# Beam polarization from -100 (left-handed) to 100 (right-handed)    *
#*********************************************************************
        0     = polbeam1 ! beam polarization for beam 1
        0     = polbeam2 ! beam polarization for beam 2
#*********************************************************************
# PDF CHOICE: this automatically fixes also alpha_s and its evol.    *
#*********************************************************************
 'nn23lo1'    = pdlabel     ! PDF set                                     
 230000    = lhaid     ! if pdlabel=lhapdf, this is the lhapdf number
#*********************************************************************
# Renormalization and factorization scales                           *
#*********************************************************************
 F        = fixed_ren_scale  ! if .true. use fixed ren scale
 F        = fixed_fac_scale  ! if .true. use fixed fac scale
 91.1880  = scale            ! fixed ren scale
 91.1880  = dsqrt_q2fact1    ! fixed fact scale for pdf1
 91.1880  = dsqrt_q2fact2    ! fixed fact scale for pdf2
 1        = scalefact        ! scale factor for event-by-event scales
#*********************************************************************
# Matching - Warning! ickkw > 1 is still beta
#*********************************************************************
 0        = ickkw            ! 0 no matching, 1 MLM, 2 CKKW matching
 1        = highestmult      ! for ickkw=2, highest mult group
 1        = ktscheme         ! for ickkw=1, 1 Durham kT, 2 Pythia pTE
 1        = alpsfact         ! scale factor for QCD emission vx
 F        = chcluster        ! cluster only according to channel diag
 T        = pdfwgt           ! for ickkw=1, perform pdf reweighting
 5        = asrwgtflavor     ! highest quark flavor for a_s reweight
 T        = clusinfo         ! include clustering tag in output
 3.0      = lhe_version       ! Change the way clustering information pass to shower.        
#*********************************************************************
#**********************************************************
#
#**********************************************************
# Automatic ptj and mjj cuts if xqcut > 0
# (turn off for VBF and single top processes)
#**********************************************************
   T  = auto_ptj_mjj  ! Automatic setting of ptj and mjj
#**********************************************************
#                                                                    
#**********************************
# BW cutoff (M+/-bwcutoff*Gamma)
#**********************************
  15  = bwcutoff      ! (M+/-bwcutoff*Gamma)
#**********************************************************
# Apply pt/E/eta/dr/mij cuts on decay products or not
# (note that etmiss/ptll/ptheavy/ht/sorted cuts always apply)
#**********************************************************
   T  = cut_decays    ! Cut decay products 
#*************************************************************
# Number of helicities to sum per event (0 = all helicities)
# 0 gives more stable result, but longer run time (needed for
# long decay chains e.g.).
# Use >=2 if most helicities contribute, e.g. pure QCD.
#*************************************************************
   0  = nhel          ! Number of helicities used per event
#*******************                                                 
# Standard Cuts
#*******************                                                 
#                                                                    
#*********************************************************************
# Minimum and maximum pt's (for max, -1 means no cut)                *
#*********************************************************************
 20  = ptj       ! minimum pt for the jets 
  0  = ptb       ! minimum pt for the b 
 10  = pta       ! minimum pt for the photons 
 10  = ptl       ! minimum pt for the charged leptons 
  0  = misset    ! minimum missing Et (sum of neutrino's momenta)
  0  = ptheavy   ! minimum pt for one heavy final state
 1.0 = ptonium   ! minimum pt for the quarkonium states
 -1  = ptjmax    ! maximum pt for the jets
 -1  = ptbmax    ! maximum pt for the b
 -1  = ptamax    ! maximum pt for the photons
 -1  = ptlmax    ! maximum pt for the charged leptons
 -1  = missetmax ! maximum missing Et (sum of neutrino's momenta)
#*********************************************************************
# Minimum and maximum E's (in the center of mass frame)              *
#*********************************************************************
  0  = ej     ! minimum E for the jets 
  0  = eb     ! minimum E for the b 
  0  = ea     ! minimum E for the photons 
  0  = el     ! minimum E for the charged leptons 
 -1   = ejmax ! maximum E for the jets
 -1   = ebmax ! maximum E for the b
 -1   = eamax ! maximum E for the photons
 -1   = elmax ! maximum E for the charged leptons
#*********************************************************************
# Maximum and minimum absolute rapidity (for max, -1 means no cut)   *
#*********************************************************************
   5  = etaj    ! max rap for the jets 
  -1  = etab    ! max rap for the b
 2.5  = etaa    ! max rap for the photons 
 2.5  = etal    ! max rap for the charged leptons 
 0.6  = etaonium ! max rap for the quarkonium states
   0  = etajmin ! min rap for the jets
   0  = etabmin ! min rap for the b
   0  = etaamin ! min rap for the photons
   0  = etalmin ! main rap for the charged leptons
#*********************************************************************
# Minimum and maximum DeltaR distance                                *
#*********************************************************************
 0.4 = drjj    ! min distance between jets 
 0   = drbb    ! min distance between b's 
 0.4 = drll    ! min distance between leptons 
 0.4 = draa    ! min distance between gammas 
 0   = drbj    ! min distance between b and jet 
 0.4 = draj    ! min distance between gamma and jet 
 0.4 = drjl    ! min distance between jet and lepton 
 0   = drab    ! min distance between gamma and b 
 0   = drbl    ! min distance between b and lepton 
 0.4 = dral    ! min distance between gamma and lepton 
 -1  = drjjmax ! max distance between jets
 -1  = drbbmax ! max distance between b's
 -1  = drllmax ! max distance between leptons
 -1  = draamax ! max distance between gammas
 -1  = drbjmax ! max distance between b and jet
 -1  = drajmax ! max distance between gamma and jet
 -1  = drjlmax ! max distance between jet and lepton
 -1  = drabmax ! max distance between gamma and b
 -1  = drblmax ! max distance between b and lepton
 -1  = dralmax ! maxdistance between gamma and lepton
#*********************************************************************
# Minimum and maximum invariant mass for pairs                       *
# WARNING: for four lepton final state mmll cut require to have      *
#          different lepton masses for each flavor!                  *           
#*********************************************************************
 0   = mmjj    ! min invariant mass of a jet pair 
 0   = mmbb    ! min invariant mass of a b pair 
 0   = mmaa    ! min invariant mass of gamma gamma pair
 0   = mmll    ! min invariant mass of l+l- (same flavour) lepton pair
 -1  = mmjjmax ! max invariant mass of a jet pair
 -1  = mmbbmax ! max invariant mass of a b pair
 -1  = mmaamax ! max invariant mass of gamma gamma pair
 -1  = mmllmax ! max invariant mass of l+l- (same flavour) lepton pair
#*********************************************************************
# Minimum and maximum invariant mass for all letpons                 *
#*********************************************************************
 0   = mmnl    ! min invariant mass for all letpons (l+- and vl) 
 -1  = mmnlmax ! max invariant mass for all letpons (l+- and vl) 
#*********************************************************************
# Minimum and maximum pt for 4-momenta sum of leptons                *
#*********************************************************************
 0   = ptllmin  ! Minimum pt for 4-momenta sum of leptons(l and vl)
 -1  = ptllmax  ! Maximum pt for 4-momenta sum of leptons(l and vl)
#*********************************************************************
# Inclusive cuts                                                     *
#*********************************************************************
 0  = xptj ! minimum pt for at least one jet  
 0  = xptb ! minimum pt for at least one b 
 0  = xpta ! minimum pt for at least one photon 
 0  = xptl ! minimum pt for at least one charged lepton 
#*********************************************************************
# Control the pt's of the jets sorted by pt                          *
#*********************************************************************
 0   = ptj1min ! minimum pt for the leading jet in pt
 0   = ptj2min ! minimum pt for the second jet in pt
 0   = ptj3min ! minimum pt for the third jet in pt
 0   = ptj4min ! minimum pt for the fourth jet in pt
 -1  = ptj1max ! maximum pt for the leading jet in pt 
 -1  = ptj2max ! maximum pt for the second jet in pt
 -1  = ptj3max ! maximum pt for the third jet in pt
 -1  = ptj4max ! maximum pt for the fourth jet in pt
 0   = cutuse  ! reject event if fails any (0) / all (1) jet pt cuts
#*********************************************************************
# Control the pt's of leptons sorted by pt                           *
#*********************************************************************
 0   = ptl1min ! minimum pt for the leading lepton in pt
 0   = ptl2min ! minimum pt for the second lepton in pt
 0   = ptl3min ! minimum pt for the third lepton in pt
 0   = ptl4min ! minimum pt for the fourth lepton in pt
 -1  = ptl1max ! maximum pt for the leading lepton in pt 
 -1  = ptl2max ! maximum pt for the second lepton in pt
 -1  = ptl3max ! maximum pt for the third lepton in pt
 -1  = ptl4max ! maximum pt for the fourth lepton in pt
#*********************************************************************
# Control the Ht(k)=Sum of k leading jets                            *
#*********************************************************************
 0   = htjmin ! minimum jet HT=Sum(jet pt)
 -1  = htjmax ! maximum jet HT=Sum(jet pt)
 0   = ihtmin  !inclusive Ht for all partons (including b)
 -1  = ihtmax  !inclusive Ht for all partons (including b)
 0   = ht2min ! minimum Ht for the two leading jets
 0   = ht3min ! minimum Ht for the three leading jets
 0   = ht4min ! minimum Ht for the four leading jets
 -1  = ht2max ! maximum Ht for the two leading jets
 -1  = ht3max ! maximum Ht for the three leading jets
 -1  = ht4max ! maximum Ht for the four leading jets
#***********************************************************************
# Photon-isolation cuts, according to hep-ph/9801442                   *
# When ptgmin=0, all the other parameters are ignored                  *
# When ptgmin>0, pta and draj are not going to be used                 *
#***********************************************************************
   0 = ptgmin ! Min photon transverse momentum
 0.4 = R0gamma ! Radius of isolation code
 1.0 = xn ! n parameter of eq.(3.4) in hep-ph/9801442
 1.0 = epsgamma ! epsilon_gamma parameter of eq.(3.4) in hep-ph/9801442
 .true. = isoEM ! isolate photons from EM energy (photons and leptons)
#*********************************************************************
# WBF cuts                                                           *
#*********************************************************************
 0   = xetamin ! minimum rapidity for two jets in the WBF case  
 0   = deltaeta ! minimum rapidity for two jets in the WBF case 
#*********************************************************************
# KT DURHAM CUT                                                      *
#*********************************************************************
 -1    =  ktdurham        
 0.4  =  dparameter 
#*********************************************************************
# maximal pdg code for quark to be considered as a light jet         *
# (otherwise b cuts are applied)                                     *
#*********************************************************************
 4 = maxjetflavor    ! Maximum jet pdg code
#*********************************************************************
# Jet measure cuts                                                   *
#*********************************************************************
 0   = xqcut   ! minimum kt jet measure between partons
#*********************************************************************
#
#*********************************************************************
# Store info for systematics studies                                 *
# WARNING: If use_syst is T, matched Pythia output is                *
#          meaningful ONLY if plotted taking matchscale              *
#          reweighting into account!                                 *
#*********************************************************************
   F  = use_syst      ! Enable systematics studies
#
#**************************************
# Parameter of the systematics study
#  will be used by SysCalc (if installed)
#**************************************                                  
#
0.5 1 2 = sys_scalefact  # factorization/renormalization scale factor
0.5 1 2 = sys_alpsfact  # \alpha_s emission scale factors
30 50 = sys_matchscale # variation of merging scale
# PDF sets and number of members (0 or none for all members).
CT10nlo.LHgrid = sys_pdf # matching scales
# MSTW2008nlo68cl.LHgrid 1  = sys_pdf
</MGRunCard>
<slha>
######################################################################
## PARAM_CARD AUTOMATICALY GENERATED BY MG5 FOLLOWING UFO MODEL   ####
######################################################################
##                                                                  ##
##  Width set on Auto will be computed following the information    ##
##        present in the decay.py files of the model.               ##
##        See  arXiv:1402.1178 for more details.                    ##
##                                                                  ##
######################################################################

###################################
## INFORMATION FOR CKMBLOCK
###################################
Block ckmblock 
    1 2.277360e-01 # cabi 

###################################
## INFORMATION FOR FRBLOCK
###################################
Block frblock 
    1 2.000000e-01 # gz 

###################################
## INFORMATION FOR MASS
###################################
Block mass 
    1 5.040000e-03 # MD 
    2 2.550000e-03 # MU 
    3 1.010000e-01 # MS 
    4 1.270000e+00 # MC 
    5 4.700000e+00 # MB 
    6 1.720000e+02 # MT 
   11 5.110000e-04 # Me 
   13 1.056600e-01 # MM 
   15 1.777000e+00 # MTA 
   23 9.118760e+01 # MZ 
   25 1.200000e+02 # MH 
  10030 2.400000e+03 # MZph 
  10031 3.000000e+02 # MZpl 
## Dependent parameters, given by model restrictions.
## Those values should be edited following the 
## analytical expression. MG5 ignores those values 
## but they are important for interfacing the output of MG5
## to external program such as Pythia.
  12 0.000000 # ve : 0.0 
  14 0.000000 # vm : 0.0 
  16 0.000000 # vt : 0.0 
  21 0.000000 # g : 0.0 
  22 0.000000 # a : 0.0 
  24 79.824360 # w+ : cmath.sqrt(MZ__exp__2/2. + cmath.sqrt(MZ__exp__4/4. - (aEW*cmath.pi*MZ__exp__2)/(Gf*sqrt__2))) 

###################################
## INFORMATION FOR SMINPUTS
###################################
Block sminputs 
    1 1.279000e+02 # aEWM1 
    2 1.166370e-05 # Gf 
    3 1.184000e-01 # aS 

###################################
## INFORMATION FOR YUKAWA
###################################
Block yukawa 
    1 5.040000e-03 # ymdo 
    2 2.550000e-03 # ymup 
    3 1.010000e-01 # yms 
    4 1.270000e+00 # ymc 
    5 4.700000e+00 # ymb 
    6 1.720000e+02 # ymt 
   11 5.110000e-04 # yme 
   13 1.056600e-01 # ymm 
   15 1.777000e+00 # ymtau 

###################################
## INFORMATION FOR DECAY
###################################
DECAY   6 1.508336e+00 # WT 
DECAY  23 2.495200e+00 # WZ 
DECAY  24 2.085000e+00 # WW 
DECAY  25 5.753088e-03 # WH 
## Dependent parameters, given by model restrictions.
## Those values should be edited following the 
## analytical expression. MG5 ignores those values 
## but they are important for interfacing the output of MG5
## to external program such as Pythia.
DECAY  1 0.000000 # d : 0.0 
DECAY  2 0.000000 # u : 0.0 
DECAY  3 0.000000 # s : 0.0 
DECAY  4 0.000000 # c : 0.0 
DECAY  5 0.000000 # b : 0.0 
DECAY  11 0.000000 # e- : 0.0 
DECAY  12 0.000000 # ve : 0.0 
DECAY  13 0.000000 # mu- : 0.0 
DECAY  14 0.000000 # vm : 0.0 
DECAY  15 0.000000 # ta- : 0.0 
DECAY  16 0.000000 # vt : 0.0 
DECAY  21 0.000000 # g : 0.0 
DECAY  22 0.000000 # a : 0.0 
DECAY  10030 0.308725 # zph : (gz__exp__2*MZph*(5 + cmath.sqrt(1 - (4*MT__exp__2)/MZph__exp__2)))/(144.*cmath.pi) 
DECAY  10031 0.132629 # zpl : (5*gz__exp__2*MZpl)/(144.*cmath.pi) 
#===========================================================
# QUANTUM NUMBERS OF NEW STATE(S) (NON SM PDG CODE)
#===========================================================

Block QNUMBERS 10030  # zph 
        1 0  # 3 times electric charge
        2 3  # number of spin states (2S+1)
        3 1  # colour rep (1: singlet, 3: triplet, 8: octet)
        4 0  # Particle/Antiparticle distinction (0=own anti)
Block QNUMBERS 10031  # zpl 
        1 0  # 3 times electric charge
        2 3  # number of spin states (2S+1)
        3 1  # colour rep (1: singlet, 3: triplet, 8: octet)
        4 0  # Particle/Antiparticle distinction (0=own anti)
</slha>
## END BANNER##
<MGGenerationInfo>
#  Number of Events        :         3942
#  Integrated weight (pb)  :  0.35867E-03
#  Max wgt                 :  0.13361E-06
#  Average wgt             :  0.90987E-07
</MGGenerationInfo>
</header>
<init>
     2212     2212  0.40000000000E+04  0.40000000000E+04 0 0  247000  247000 2   1
  0.35893589517E-03  0.76444629214E-06  0.13360570000E-06   0
</init>
<event>
 5   0  0.1275948E-06  0.2399614E+04  0.7818609E-02  0.8439648E-01
       -2   -1    0    0    0  501  0.00000000000E+00  0.00000000000E+00  0.12118483095E+04  0.12118483095E+04  0.25500000920E-02 0. -1.
        2   -1    0    0  501    0  0.00000000000E+00  0.00000000000E+00 -0.11878851744E+04  0.11878851744E+04  0.25500000920E-02 0.  1.
    10030    2    1    2    0    0  0.00000000000E+00  0.00000000000E+00  0.23963135078E+02  0.23997334839E+04  0.23996138360E+04 0.  0.
        1    1    3    3  502    0 -0.10635488968E+04  0.56100489287E+02 -0.54054314789E+03  0.11943493691E+04  0.50400001928E-02 0.  1.
       -1    1    3    3    0  502  0.10635488968E+04 -0.56100489287E+02  0.56450628296E+03  0.12053841148E+04  0.50400001928E-02 0. -1.
</event>
<event>
 5   0  0.1275948E-06  0.2400010E+04  0.7818609E-02  0.8439500E-01
        2   -1    0    0  501    0  0.00000000000E+00  0.00000000000E+00  0.18813303514E+04  0.18813303514E+04  0.25500000920E-02 0.  1.
       -2   -1    0    0    0  501  0.00000000000E+00  0.00000000000E+00 -0.76542216391E+03  0.76542216391E+03  0.25500000920E-02 0. -1.
    10030    2    1    2    0    0  0.00000000000E+00  0.00000000000E+00  0.11159081875E+04  0.26467525153E+04  0.24000099571E+04 0.  0.
        1    1    3    3  502    0 -0.37673009920E+01  0.37094601729E+03 -0.70060019111E+03  0.79275202183E+03  0.50400001928E-02 0. -1.
       -1    1    3    3    0  502  0.37673009920E+01 -0.37094601729E+03  0.18165083786E+04  0.18540004935E+04  0.50400001928E-02 0.  1.
</event>
<event>
 5   0  0.1308662E-06  0.2400121E+04  0.7818609E-02  0.8439458E-01
       -2   -1    0    0    0  501  0.00000000000E+00  0.00000000000E+00  0.60157988620E+03  0.60157988621E+03  0.25500000920E-02 0.  1.
        2   -1    0    0  501    0  0.00000000000E+00  0.00000000000E+00 -0.23939386313E+04  0.23939386313E+04  0.25500000920E-02 0. -1.
    10030    2    1    2    0    0  0.00000000000E+00  0.00000000000E+00 -0.17923587451E+04  0.29955185175E+04  0.24001211048E+04 0.  0.
        3    1    3    3  502    0 -0.14611177484E+03  0.10861247703E+04 -0.15064965153E+04  0.18629405326E+04  0.10100000352E+00 0. -1.
       -3    1    3    3    0  502  0.14611177484E+03 -0.10861247703E+04 -0.28586222986E+03  0.11325779849E+04  0.10100000352E+00 0.  1.
</event>
<event>
 5   0  0.1275948E-06  0.2401294E+04  0.7818609E-02  0.8439019E-01
       -2   -1    0    0    0  501  0.00000000000E+00  0.00000000000E+00  0.19081306054E+04  0.19081306054E+04  0.25500000920E-02 0. -1.
        2   -1    0    0  501    0  0.00000000000E+00  0.00000000000E+00 -0.75547924832E+03  0.75547924832E+03  0.25500000920E-02 0.  1.
    10030    2    1    2    0    0  0.00000000000E+00  0.00000000000E+00  0.11526513571E+04  0.26636098537E+04  0.24012938808E+04 0.  0.
        1    1    3    3  502    0 -0.10797886781E+04  0.23650930908E+02 -0.54173905005E+01  0.10800612501E+04  0.50400001928E-02 0. -1.
       -1    1    3    3    0  502  0.10797886781E+04 -0.23650930908E+02  0.11580687476E+04  0.15835486036E+04  0.50400001928E-02 0.  1.
</event>
<event>
 5   0  0.1308662E-06  0.2398497E+04  0.7818609E-02  0.8440066E-01
       -2   -1    0    0    0  501  0.00000000000E+00  0.00000000000E+00  0.62863665596E+03  0.62863665596E+03  0.25500000920E-02 0. -1.
        2   -1    0    0  501    0  0.00000000000E+00  0.00000000000E+00 -0.22878036247E+04  0.22878036247E+04  0.25500000920E-02 0.  1.
    10030    2    1    2    0    0  0.00000000000E+00  0.00000000000E+00 -0.16591669688E+04  0.29164402807E+04  0.23984972130E+04 0.  0.
        3    1    3    3  502    0  0.78352673543E+03 -0.90138190747E+03 -0.69753321026E+03  0.13830965541E+04  0.10100000352E+00 0.  1.
       -3    1    3    3    0  502 -0.78352673543E+03  0.90138190747E+03 -0.96163375850E+03  0.15333437266E+04  0.10100000352E+00 0. -1.
</event>
<event>
 5   0  0.5527286E-07  0.2398667E+04  0.7818609E-02  0.8440003E-01
        1   -1    0    0  501    0  0.00000000000E+00  0.00000000000E+00  0.14708270737E+04  0.14708270737E+04  0.50400001928E-02 0.  1.
       -1   -1    0    0    0  501  0.00000000000E+00  0.00000000000E+00 -0.97795364965E+03  0.97795364966E+03  0.50400001928E-02 0. -1.
    10030    2    1    2    0    0  0.00000000000E+00  0.00000000000E+00  0.49287342405E+03  0.24487807234E+04  0.23986668837E+04 0.  0.
        1    1    3    3  502    0  0.69205327293E+03  0.36622511151E+03  0.11739005138E+04  0.14110637765E+04  0.50400001928E-02 0.  1.
       -1    1    3    3    0  502 -0.69205327293E+03 -0.36622511151E+03 -0.68102708976E+03  0.10377169469E+04  0.50400001928E-02 0. -1.
</event>
<event>
 5   0  0.5510176E-07  0.2399874E+04  0.7818609E-02  0.8439551E-01
       -1   -1    0    0    0  501  0.00000000000E+00  0.00000000000E+00  0.11234792902E+04  0.11234792902E+04  0.50400001928E-02 0. -1.
        1   -1    0    0  501    0  0.00000000000E+00  0.00000000000E+00 -0.12815978736E+04  0.12815978736E+04  0.50400001928E-02 0.  1.
    10030    2    1    2    0    0  0.00000000000E+00  0.00000000000E+00 -0.15811858339E+03  0.24050771639E+04  0.23998738879E+04 0.  0.
        3    1    3    3  502    0  0.49306464277E+03  0.73811916606E+02  0.10147684318E+04  0.11306263403E+04  0.10100000352E+00 0. -1.
       -3    1    3    3    0  502 -0.49306464277E+03 -0.73811916606E+02 -0.11728870152E+04  0.12744508236E+04  0.10100000352E+00 0.  1.
</event>
<event>
 5   0  0.1275948E-06  0.2401003E+04  0.7818609E-02  0.8439128E-01
        2   -1    0    0  501    0  0.00000000000E+00  0.00000000000E+00  0.13627944931E+04  0.13627944931E+04  0.25500000920E-02 0.  1.
       -2   -1    0    0    0  501  0.00000000000E+00  0.00000000000E+00 -0.10575356529E+04  0.10575356529E+04  0.25500000920E-02 0. -1.
    10030    2    1    2    0    0  0.00000000000E+00  0.00000000000E+00  0.30525884012E+03  0.24203301460E+04  0.24010029272E+04 0.  0.
        1    1    3    3  502    0  0.78292967080E+03  0.61262593928E+03  0.83103586103E+03  0.12957275999E+04  0.50400001928E-02 0.  1.
       -1    1    3    3    0  502 -0.78292967080E+03 -0.61262593928E+03 -0.52577702091E+03  0.11246025461E+04  0.50400001928E-02 0. -1.
</event>
<event>
 5   0  0.5690124E-07  0.2400098E+04  0.7818609E-02  0.8439467E-01
        1   -1    0    0  501    0  0.00000000000E+00  0.00000000000E+00  0.44398066410E+03  0.44398066413E+03  0.50400001928E-02 0. -1.
       -1   -1    0    0    0  501  0.00000000000E+00  0.00000000000E+00 -0.32436487604E+04  0.32436487604E+04  0.50400001928E-02 0.  1.
    10030    2    1    2    0    0  0.00000000000E+00  0.00000000000E+00 -0.27996680963E+04  0.36876294246E+04  0.24000977737E+04 0.  0.
        2    1    3    3  502    0  0.90662264920E+03  0.62110558594E+03 -0.21404929192E+04  0.24061269115E+04  0.25500000920E-02 0.  1.
       -2    1    3    3    0  502 -0.90662264920E+03 -0.62110558594E+03 -0.65917517714E+03  0.12815025131E+04  0.25500000920E-02 0. -1.
</event>
<event>
 5   0  0.1275948E-06  0.2399914E+04  0.7818609E-02  0.8439536E-01
        2   -1    0    0  501    0  0.00000000000E+00  0.00000000000E+00  0.87663258702E+03  0.87663258702E+03  0.25500000920E-02 0. -1.
       -2   -1    0    0    0  501  0.00000000000E+00  0.00000000000E+00 -0.16425311325E+04  0.16425311325E+04  0.25500000920E-02 0.  1.
    10030    2    1    2    0    0  0.00000000000E+00  0.00000000000E+00 -0.76589854551E+03  0.25191637196E+04  0.23999135951E+04 0.  0.
        1    1    3    3  502    0 -0.32926976073E+03  0.36553643243E+03  0.76590243437E+03  0.91029775225E+03  0.50400001928E-02 0. -1.
       -1    1    3    3    0  502  0.32926976073E+03 -0.36553643243E+03 -0.15318009799E+04  0.16088659673E+04  0.50400001928E-02 0.  1.
</event>
<event>
 5   0  0.4483375E-07  0.2400396E+04  0.7818609E-02  0.8439355E-01
        4   -1    0    0  501    0  0.00000000000E+00  0.00000000000E+00  0.90698470315E+03  0.90698559231E+03  0.12699999809E+01 0.  1.
       -4   -1    0    0    0  501  0.00000000000E+00  0.00000000000E+00 -0.15882006812E+04  0.15882011889E+04  0.12699999809E+01 0. -1.
    10030    2    1    2    0    0  0.00000000000E+00  0.00000000000E+00 -0.68121597802E+03  0.24951867813E+04  0.24003961891E+04 0.  0.
        5    1    3    3  502    0  0.48883851643E+03  0.84994580843E+03  0.37888280649E+03  0.10511637567E+04  0.46999998093E+01 0.  1.
       -5    1    3    3    0  502 -0.48883851643E+03 -0.84994580843E+03 -0.10600987845E+04  0.14440230245E+04  0.46999998093E+01 0. -1.
</event>
<event>
 5   0  0.1307477E-06  0.2402359E+04  0.7818609E-02  0.8438621E-01
       -2   -1    0    0    0  501  0.00000000000E+00  0.00000000000E+00  0.67750301780E+03  0.67750301781E+03  0.25500000920E-02 0.  1.
        2   -1    0    0  501    0  0.00000000000E+00  0.00000000000E+00 -0.21296329733E+04  0.21296329733E+04  0.25500000920E-02 0. -1.
    10030    2    1    2    0    0  0.00000000000E+00  0.00000000000E+00 -0.14521299555E+04  0.28071359911E+04  0.24023594787E+04 0.  0.
        5    1    3    3  502    0 -0.11208877769E+04  0.63090879831E+02 -0.22696626124E+03  0.11453844949E+04  0.46999998093E+01 0. -1.
       -5    1    3    3    0  502  0.11208877769E+04 -0.63090879831E+02 -0.12251636943E+04  0.16617514962E+04  0.46999998093E+01 0.  1.
</event>
<event>
 5   0  0.5452384E-07  0.2398730E+04  0.7818609E-02  0.8439979E-01
       -1   -1    0    0    0  501  0.00000000000E+00  0.00000000000E+00  0.58169826788E+03  0.58169826790E+03  0.50400001928E-02 0. -1.
        1   -1    0    0  501    0  0.00000000000E+00  0.00000000000E+00 -0.24728917085E+04  0.24728917085E+04  0.50400001928E-02 0.  1.
    10030    2    1    2    0    0  0.00000000000E+00  0.00000000000E+00 -0.18911934406E+04  0.30545899764E+04  0.23987303504E+04 0.  0.
        5    1    3    3  502    0  0.11097069285E+04  0.12810968503E+03 -0.38966025096E+03  0.11830971049E+04  0.46999998093E+01 0.  1.
       -5    1    3    3    0  502 -0.11097069285E+04 -0.12810968503E+03 -0.15015331897E+04  0.18714928715E+04  0.46999998093E+01 0. -1.
</event>
<event>
 5   0  0.5527286E-07  0.2398247E+04  0.7818609E-02  0.8440160E-01
        1   -1    0    0  501    0  0.00000000000E+00  0.00000000000E+00  0.14199245987E+04  0.14199245987E+04  0.50400001928E-02 0. -1.
       -1   -1    0    0    0  501  0.00000000000E+00  0.00000000000E+00 -0.10126577455E+04  0.10126577455E+04  0.50400001928E-02 0.  1.
    10030    2    1    2    0    0  0.00000000000E+00  0.00000000000E+00  0.40726685320E+03  0.24325823442E+04  0.23982473958E+04 0.  0.
        1    1    3    3  502    0 -0.37909882895E+03  0.60136446918E+03 -0.77587434154E+03  0.10523004043E+04  0.50400001928E-02 0.  1.
       -1    1    3    3    0  502  0.37909882895E+03 -0.60136446918E+03  0.11831411947E+04  0.13802819399E+04  0.50400001928E-02 0. -1.
</event>
<event>
 5   0  0.5510176E-07  0.2399567E+04  0.7818609E-02  0.8439666E-01
        1   -1    0    0  501    0  0.00000000000E+00  0.00000000000E+00  0.15985230748E+04  0.15985230748E+04  0.50400001928E-02 0. -1.
       -1   -1    0    0    0  501  0.00000000000E+00  0.00000000000E+00 -0.90050618558E+03  0.90050618560E+03  0.50400001928E-02 0.  1.
    10030    2    1    2    0    0  0.00000000000E+00  0.00000000000E+00  0.69801688923E+03  0.24990292604E+04  0.23995665581E+04 0.  0.
        3    1    3    3  502    0  0.12235371680E+03 -0.26158286642E+03 -0.86377097060E+03  0.91076688998E+03  0.10100000352E+00 0.  1.
       -3    1    3    3    0  502 -0.12235371680E+03  0.26158286642E+03  0.15617878598E+04  0.15882623704E+04  0.10100000352E+00 0. -1.
</event>
<event>
 5   0  0.5510176E-07  0.2401347E+04  0.7818609E-02  0.8439000E-01
       -1   -1    0    0    0  501  0.00000000000E+00  0.00000000000E+00  0.72178569883E+03  0.72178569885E+03  0.50400001928E-02 0.  1.
        1   -1    0    0  501    0  0.00000000000E+00  0.00000000000E+00 -0.19972913452E+04  0.19972913452E+04  0.50400001928E-02 0. -1.
    10030    2    1    2    0    0  0.00000000000E+00  0.00000000000E+00 -0.12755056464E+04  0.27190770441E+04  0.24013465634E+04 0.  0.
        3    1    3    3  502    0  0.12560758074E+03 -0.65987054967E+03 -0.17646237139E+04  0.18881481055E+04  0.10100000352E+00 0. -1.
       -3    1    3    3    0  502 -0.12560758074E+03  0.65987054967E+03  0.48911806752E+03  0.83092893851E+03  0.10100000352E+00 0.  1.
</event>
<event>
 5   0  0.1275948E-06  0.2399869E+04  0.7818609E-02  0.8439553E-01
       -2   -1    0    0    0  501  0.00000000000E+00  0.00000000000E+00  0.77007440530E+03  0.77007440531E+03  0.25500000920E-02 0.  1.
        2   -1    0    0  501    0  0.00000000000E+00  0.00000000000E+00 -0.18697449535E+04  0.18697449535E+04  0.25500000920E-02 0. -1.
    10030    2    1    2    0    0  0.00000000000E+00  0.00000000000E+00 -0.10996705481E+04  0.26398193588E+04  0.23998689407E+04 0.  0.
        1    1    3    3  502    0  0.53203526347E+03 -0.70461272286E+03 -0.14436716623E+04  0.16922554415E+04  0.50400001928E-02 0. -1.
       -1    1    3    3    0  502 -0.53203526347E+03  0.70461272286E+03  0.34400111412E+03  0.94756391727E+03  0.50400001928E-02 0.  1.
</event>
<event>
 5   0  0.5363690E-07  0.2396261E+04  0.7818609E-02  0.8440905E-01
       -1   -1    0    0    0  501  0.00000000000E+00  0.00000000000E+00  0.12460153363E+04  0.12460153363E+04  0.50400001928E-02 0. -1.
        1   -1    0    0  501    0  0.00000000000E+00  0.00000000000E+00 -0.11520862576E+04  0.11520862576E+04  0.50400001928E-02 0.  1.
    10030    2    1    2    0    0  0.00000000000E+00  0.00000000000E+00  0.93929078684E+02  0.23981015939E+04  0.23962613761E+04 0.  0.
        4    1    3    3  502    0  0.90449349227E+03 -0.78332233695E+03 -0.14833766249E+02  0.11966302748E+04  0.12699999809E+01 0.  1.
       -4    1    3    3    0  502 -0.90449349227E+03  0.78332233695E+03  0.10876284493E+03  0.12014713190E+04  0.12699999809E+01 0. -1.
</event>
<event>
 5   0  0.5527286E-07  0.2400960E+04  0.7818609E-02  0.8439144E-01
       -1   -1    0    0    0  501  0.00000000000E+00  0.00000000000E+00  0.18055489236E+04  0.18055489236E+04  0.50400001928E-02 0. -1.
        1   -1    0    0  501    0  0.00000000000E+00  0.00000000000E+00 -0.79817953162E+03  0.79817953164E+03  0.50400001928E-02 0.  1.
    10030    2    1    2    0    0  0.00000000000E+00  0.00000000000E+00  0.10073693920E+04  0.26037284553E+04  0.24009599699E+04 0.  0.
        1    1    3    3  502    0 -0.11496401586E+04 -0.24190746428E+03  0.77143807132E+03  0.14054566565E+04  0.50400001928E-02 0. -1.
       -1    1    3    3    0  502  0.11496401586E+04  0.24190746428E+03  0.23593132070E+03  0.11982717987E+04  0.50400001928E-02 0.  1.
</event>
<event>
 5   0  0.1336057E-06  0.2400250E+04  0.7818609E-02  0.8439410E-01
        2   -1    0    0  501    0  0.00000000000E+00  0.00000000000E+00  0.12389137725E+04  0.12389137725E+04  0.25500000920E-02 0.  1.
       -2   -1    0    0    0  501  0.00000000000E+00  0.00000000000E+00 -0.11625510072E+04  0.11625510072E+04  0.25500000920E-02 0. -1.
    10030    2    1    2    0    0  0.00000000000E+00  0.00000000000E+00  0.76362765309E+02  0.24014647797E+04  0.24002503654E+04 0.  0.
        2    1    3    3  502    0 -0.28829860361E+03  0.63397690626E+03 -0.93968595368E+03  0.11696377619E+04  0.25500000920E-02 0. -1.
       -2    1    3    3    0  502  0.28829860361E+03 -0.63397690626E+03  0.10160487190E+04  0.12318270178E+04  0.25500000920E-02 0.  1.
</event>
<event>
 5   0  0.5510176E-07  0.2399790E+04  0.7818609E-02  0.8439582E-01
       -1   -1    0    0    0  501  0.00000000000E+00  0.00000000000E+00  0.13140084795E+04  0.13140084796E+04  0.50400001928E-02 0. -1.
        1   -1    0    0  501    0  0.00000000000E+00  0.00000000000E+00 -0.10956917241E+04  0.10956917241E+04  0.50400001928E-02 0.  1.
    10030    2    1    2    0    0  0.00000000000E+00  0.00000000000E+00  0.21831675541E+03  0.24097002037E+04  0.23997901713E+04 0.  0.
        3    1    3    3  502    0 -0.60151296849E+02  0.25117400648E+03 -0.10674490866E+04  0.10982504827E+04  0.10100000352E+00 0.  1.
       -3    1    3    3    0  502  0.60151296849E+02 -0.25117400648E+03  0.12857658420E+04  0.13114497210E+04  0.10100000352E+00 0. -1.
</event>
<event>
 5   0  0.1308662E-06  0.2400707E+04  0.7818609E-02  0.8439239E-01
        2   -1    0    0  501    0  0.00000000000E+00  0.00000000000E+00  0.12080111582E+04  0.12080111582E+04  0.25500000920E-02 0. -1.
       -2   -1    0    0    0  501  0.00000000000E+00  0.00000000000E+00 -0.11927445373E+04  0.11927445373E+04  0.25500000920E-02 0.  1.
    10030    2    1    2    0    0  0.00000000000E+00  0.00000000000E+00  0.15266620866E+02  0.24007556955E+04  0.24007071541E+04 0.  0.
        3    1    3    3  502    0  0.60333711091E+03 -0.99543310014E+03  0.30080467516E+03  0.12022421508E+04  0.10100000352E+00 0.  1.
       -3    1    3    3    0  502 -0.60333711091E+03  0.99543310014E+03 -0.28553805430E+03  0.11985135447E+04  0.10100000352E+00 0. -1.
</event>
<event>
 5   0  0.5527286E-07  0.2400022E+04  0.7818609E-02  0.8439495E-01
       -1   -1    0    0    0  501  0.00000000000E+00  0.00000000000E+00  0.12053428058E+04  0.12053428058E+04  0.50400001928E-02 0.  1.
        1   -1    0    0  501    0  0.00000000000E+00  0.00000000000E+00 -0.11947028112E+04  0.11947028112E+04  0.50400001928E-02 0. -1.
    10030    2    1    2    0    0  0.00000000000E+00  0.00000000000E+00  0.10639994603E+02  0.24000456170E+04  0.24000220320E+04 0.  0.
        1    1    3    3  502    0 -0.20452383816E+03 -0.11777081591E+04 -0.10051076500E+03  0.11995536346E+04  0.50400001928E-02 0. -1.
       -1    1    3    3    0  502  0.20452383816E+03  0.11777081591E+04  0.11115075960E+03  0.12004919824E+04  0.50400001928E-02 0.  1.
</event>
<event>
 5   0  0.1336057E-06  0.2400141E+04  0.7818609E-02  0.8439451E-01
        2   -1    0    0  501    0  0.00000000000E+00  0.00000000000E+00  0.15956642000E+04  0.15956642000E+04  0.25500000920E-02 0. -1.
       -2   -1    0    0    0  501  0.00000000000E+00  0.00000000000E+00 -0.90255150865E+03  0.90255150866E+03  0.25500000920E-02 0.  1.
    10030    2    1    2    0    0  0.00000000000E+00  0.00000000000E+00  0.69311269137E+03  0.24982157087E+04  0.24001409384E+04 0.  0.
        2    1    3    3  502    0 -0.77452922059E+03 -0.77211458856E+03  0.86082299313E+03  0.13917875833E+04  0.25500000920E-02 0. -1.
       -2    1    3    3    0  502  0.77452922059E+03  0.77211458856E+03 -0.16771030176E+03  0.11064281254E+04  0.25500000920E-02 0.  1.
</event>
<event>
 5   0  0.5690124E-07  0.2400822E+04  0.7818609E-02  0.8439196E-01
        1   -1    0    0  501    0  0.00000000000E+00  0.00000000000E+00  0.14321641637E+04  0.14321641637E+04  0.50400001928E-02 0.  1.
       -1   -1    0    0    0  501  0.00000000000E+00  0.00000000000E+00 -0.10061598157E+04  0.10061598157E+04  0.50400001928E-02 0. -1.
    10030    2    1    2    0    0  0.00000000000E+00  0.00000000000E+00  0.42600434798E+03  0.24383239794E+04  0.24008215519E+04 0.  0.
        2    1    3    3  502    0  0.11571214779E+04 -0.27540952405E+03  0.48592320935E+02  0.11904376230E+04  0.25500000920E-02 0. -1.
       -2    1    3    3    0  502 -0.11571214779E+04  0.27540952405E+03  0.37741202705E+03  0.12478863565E+04  0.25500000920E-02 0.  1.
</event>
<event>
 5   0  0.1308662E-06  0.2399929E+04  0.7818609E-02  0.8439530E-01
       -2   -1    0    0    0  501  0.00000000000E+00  0.00000000000E+00  0.79559040554E+03  0.79559040555E+03  0.25500000920E-02 0. -1.
        2   -1    0    0  501    0  0.00000000000E+00  0.00000000000E+00 -0.18098689860E+04  0.18098689860E+04  0.25500000920E-02 0.  1.
    10030    2    1    2    0    0  0.00000000000E+00  0.00000000000E+00 -0.10142785805E+04  0.26054593915E+04  0.23999286661E+04 0.  0.
        3    1    3    3  502    0  0.10379083137E+04 -0.59589755233E+03 -0.60157645960E+03  0.13394931158E+04  0.10100000352E+00 0. -1.
       -3    1    3    3    0  502 -0.10379083137E+04  0.59589755233E+03 -0.41270212085E+03  0.12659662757E+04  0.10100000352E+00 0.  1.
</event>
<event>
 5   0  0.1307477E-06  0.2397635E+04  0.7818609E-02  0.8440389E-01
       -2   -1    0    0    0  501  0.00000000000E+00  0.00000000000E+00  0.11417825676E+04  0.11417825676E+04  0.25500000920E-02 0. -1.
        2   -1    0    0  501    0  0.00000000000E+00  0.00000000000E+00 -0.12587017507E+04  0.12587017507E+04  0.25500000920E-02 0.  1.
    10030    2    1    2    0    0  0.00000000000E+00  0.00000000000E+00 -0.11691918311E+03  0.24004843183E+04  0.23976352656E+04 0.  0.
        5    1    3    3  502    0  0.29867210114E+02 -0.10294493048E+04  0.55585219418E+03  0.11703211838E+04  0.46999998093E+01 0. -1.
       -5    1    3    3    0  502 -0.29867210114E+02  0.10294493048E+04 -0.67277137729E+03  0.12301631345E+04  0.46999998093E+01 0.  1.
</event>
<event>
 5   0  0.5690124E-07  0.2400248E+04  0.7818609E-02  0.8439411E-01
        1   -1    0    0  501    0  0.00000000000E+00  0.00000000000E+00  0.26062502789E+04  0.26062502789E+04  0.50400001928E-02 0. -1.
       -1   -1    0    0    0  501  0.00000000000E+00  0.00000000000E+00 -0.55263224466E+03  0.55263224468E+03  0.50400001928E-02 0.  1.
    10030    2    1    2    0    0  0.00000000000E+00  0.00000000000E+00  0.20536180342E+04  0.31588825236E+04  0.24002482720E+04 0.  0.
        2    1    3    3  502    0 -0.98733610140E+03 -0.45451372965E+02  0.19226998801E+04  0.21618679963E+04  0.25500000920E-02 0. -1.
       -2    1    3    3    0  502  0.98733610140E+03  0.45451372965E+02  0.13091815407E+03  0.99701452722E+03  0.25500000920E-02 0.  1.
</event>
<event>
 5   0  0.1308662E-06  0.2402629E+04  0.7818609E-02  0.8438520E-01
       -2   -1    0    0    0  501  0.00000000000E+00  0.00000000000E+00  0.62340783494E+03  0.62340783495E+03  0.25500000920E-02 0.  1.
        2   -1    0    0  501    0  0.00000000000E+00  0.00000000000E+00 -0.23149477372E+04  0.23149477372E+04  0.25500000920E-02 0. -1.
    10030    2    1    2    0    0  0.00000000000E+00  0.00000000000E+00 -0.16915399022E+04  0.29383555721E+04  0.24026290241E+04 0.  0.
        3    1    3    3  502    0  0.67207126569E+03 -0.56074495219E+03 -0.18520651252E+04  0.20484774653E+04  0.10100000352E+00 0. -1.
       -3    1    3    3    0  502 -0.67207126569E+03  0.56074495219E+03  0.16052522300E+03  0.88987810682E+03  0.10100000352E+00 0.  1.
</event>
<event>
 5   0  0.1275948E-06  0.2399585E+04  0.7818609E-02  0.8439659E-01
       -2   -1    0    0    0  501  0.00000000000E+00  0.00000000000E+00  0.78549954454E+03  0.78549954454E+03  0.25500000920E-02 0. -1.
        2   -1    0    0  501    0  0.00000000000E+00  0.00000000000E+00 -0.18325941138E+04  0.18325941138E+04  0.25500000920E-02 0.  1.
    10030    2    1    2    0    0  0.00000000000E+00  0.00000000000E+00 -0.10470945693E+04  0.26180936583E+04  0.23995848322E+04 0.  0.
        1    1    3    3  502    0  0.41242826860E+02  0.10696062816E+03 -0.18266051174E+04  0.18301988421E+04  0.50400001928E-02 0.  1.
       -1    1    3    3    0  502 -0.41242826860E+02 -0.10696062816E+03  0.77951054814E+03  0.78789481622E+03  0.50400001928E-02 0. -1.
</event>
<event>
 5   0  0.5452384E-07  0.2399886E+04  0.7818609E-02  0.8439546E-01
       -1   -1    0    0    0  501  0.00000000000E+00  0.00000000000E+00  0.94408440604E+03  0.94408440606E+03  0.50400001928E-02 0. -1.
        1   -1    0    0  501    0  0.00000000000E+00  0.00000000000E+00 -0.15251419238E+04  0.15251419238E+04  0.50400001928E-02 0.  1.
    10030    2    1    2    0    0  0.00000000000E+00  0.00000000000E+00 -0.58105751774E+03  0.24692263298E+04  0.23998855867E+04 0.  0.
        5    1    3    3  502    0  0.80260141176E+03 -0.45268180883E+03 -0.10813394107E+04  0.14207064642E+04  0.46999998093E+01 0.  1.
       -5    1    3    3    0  502 -0.80260141176E+03  0.45268180883E+03  0.50028189300E+03  0.10485198656E+04  0.46999998093E+01 0. -1.
</event>
<event>
 5   0  0.1308662E-06  0.2401216E+04  0.7818609E-02  0.8439048E-01
       -2   -1    0    0    0  501  0.00000000000E+00  0.00000000000E+00  0.62260037652E+03  0.62260037653E+03  0.25500000920E-02 0.  1.
        2   -1    0    0  501    0  0.00000000000E+00  0.00000000000E+00 -0.23152242114E+04  0.23152242114E+04  0.25500000920E-02 0. -1.
    10030    2    1    2    0    0  0.00000000000E+00  0.00000000000E+00 -0.16926238349E+04  0.29378245880E+04  0.24012159135E+04 0.  0.
        3    1    3    3  502    0  0.81273852158E+03 -0.51995722995E+03 -0.17205265163E+04  0.19725899039E+04  0.10100000352E+00 0. -1.
       -3    1    3    3    0  502 -0.81273852158E+03  0.51995722995E+03  0.27902681437E+02  0.96523468403E+03  0.10100000352E+00 0.  1.
</event>
<event>
 5   0  0.5363690E-07  0.2399742E+04  0.7818609E-02  0.8439600E-01
       -1   -1    0    0    0  501  0.00000000000E+00  0.00000000000E+00  0.11875020729E+04  0.11875020729E+04  0.50400001928E-02 0. -1.
        1   -1    0    0  501    0  0.00000000000E+00  0.00000000000E+00 -0.12123684988E+04  0.12123684988E+04  0.50400001928E-02 0.  1.
    10030    2    1    2    0    0  0.00000000000E+00  0.00000000000E+00 -0.24866425871E+02  0.23998705717E+04  0.23997417406E+04 0.  0.
        4    1    3    3  502    0  0.87991877293E+03 -0.81436487302E+03  0.34911689409E+02  0.11994447183E+04  0.12699999809E+01 0. -1.
       -4    1    3    3    0  502 -0.87991877293E+03  0.81436487302E+03 -0.59778115280E+02  0.12004258533E+04  0.12699999809E+01 0.  1.
</event>
<event>
 5   0  0.5527286E-07  0.2400675E+04  0.7818609E-02  0.8439251E-01
       -1   -1    0    0    0  501  0.00000000000E+00  0.00000000000E+00  0.13467973381E+04  0.13467973381E+04  0.50400001928E-02 0.  1.
        1   -1    0    0  501    0  0.00000000000E+00  0.00000000000E+00 -0.10698046264E+04  0.10698046264E+04  0.50400001928E-02 0. -1.
    10030    2    1    2    0    0  0.00000000000E+00  0.00000000000E+00  0.27699271167E+03  0.24166019645E+04  0.24006749244E+04 0.  0.
        1    1    3    3  502    0  0.95606546758E+03  0.18392009802E+01  0.86908374161E+03  0.12920414509E+04  0.50400001928E-02 0. -1.
       -1    1    3    3    0  502 -0.95606546758E+03 -0.18392009802E+01 -0.59209102995E+03  0.11245605136E+04  0.50400001928E-02 0.  1.
</event>
<event>
 5   0  0.5510176E-07  0.2395863E+04  0.7818609E-02  0.8441054E-01
        1   -1    0    0  501    0  0.00000000000E+00  0.00000000000E+00  0.29681971428E+04  0.29681971428E+04  0.50400001928E-02 0. -1.
       -1   -1    0    0    0  501  0.00000000000E+00  0.00000000000E+00 -0.48347199357E+03  0.48347199360E+03  0.50400001928E-02 0.  1.
    10030    2    1    2    0    0  0.00000000000E+00  0.00000000000E+00  0.24847251493E+04  0.34516691364E+04  0.23958632599E+04 0.  0.
        3    1    3    3  502    0  0.11580058661E+04 -0.55355490142E+02  0.16769567714E+04  0.20386823783E+04  0.10100000352E+00 0. -1.
       -3    1    3    3    0  502 -0.11580058661E+04  0.55355490142E+02  0.80776837784E+03  0.14129867581E+04  0.10100000352E+00 0.  1.
</event>
<event>
 5   0  0.1291468E-06  0.2398349E+04  0.7818609E-02  0.8440122E-01
        2   -1    0    0  501    0  0.00000000000E+00  0.00000000000E+00  0.70671463611E+03  0.70671463612E+03  0.25500000920E-02 0. -1.
       -2   -1    0    0    0  501  0.00000000000E+00  0.00000000000E+00 -0.20347952735E+04  0.20347952735E+04  0.25500000920E-02 0.  1.
    10030    2    1    2    0    0  0.00000000000E+00  0.00000000000E+00 -0.13280806374E+04  0.27415099097E+04  0.23983491000E+04 0.  0.
        4    1    3    3  502    0 -0.46537084934E+03 -0.99725441914E+03 -0.11950645351E+03  0.11069642312E+04  0.12699999809E+01 0. -1.
       -4    1    3    3    0  502  0.46537084934E+03  0.99725441914E+03 -0.12085741839E+04  0.16345456784E+04  0.12699999809E+01 0.  1.
</event>
<event>
 5   0  0.1291468E-06  0.2399370E+04  0.7818609E-02  0.8439740E-01
        2   -1    0    0  501    0  0.00000000000E+00  0.00000000000E+00  0.86369686830E+03  0.86369686831E+03  0.25500000920E-02 0. -1.
       -2   -1    0    0    0  501  0.00000000000E+00  0.00000000000E+00 -0.16663759376E+04  0.16663759376E+04  0.25500000920E-02 0.  1.
    10030    2    1    2    0    0  0.00000000000E+00  0.00000000000E+00 -0.80267906932E+03  0.25300728059E+04  0.23993696495E+04 0.  0.
        4    1    3    3  502    0  0.46329143087E+02  0.89173045998E+03  0.44349909143E+03  0.99700685041E+03  0.12699999809E+01 0. -1.
       -4    1    3    3    0  502 -0.46329143087E+02 -0.89173045998E+03 -0.12461781608E+04  0.15330659555E+04  0.12699999809E+01 0.  1.
</event>
<event>
 5   0  0.5690124E-07  0.2399085E+04  0.7818609E-02  0.8439846E-01
       -1   -1    0    0    0  501  0.00000000000E+00  0.00000000000E+00  0.13072695829E+04  0.13072695829E+04  0.50400001928E-02 0. -1.
        1   -1    0    0  501    0  0.00000000000E+00  0.00000000000E+00 -0.11006923466E+04  0.11006923466E+04  0.50400001928E-02 0.  1.
    10030    2    1    2    0    0  0.00000000000E+00  0.00000000000E+00  0.20657723627E+03  0.24079619295E+04  0.23990845128E+04 0.  0.
        2    1    3    3  502    0 -0.33530620440E+03 -0.85926805030E+02 -0.10494768198E+04  0.11050860880E+04  0.25500000920E-02 0.  1.
       -2    1    3    3    0  502  0.33530620440E+03  0.85926805030E+02  0.12560540561E+04  0.13028758415E+04  0.25500000920E-02 0. -1.
</event>
<event>
 5   0  0.5510176E-07  0.2404175E+04  0.7818609E-02  0.8437942E-01
        1   -1    0    0  501    0  0.00000000000E+00  0.00000000000E+00  0.69188800786E+03  0.69188800788E+03  0.50400001928E-02 0. -1.
       -1   -1    0    0    0  501  0.00000000000E+00  0.00000000000E+00 -0.20885090420E+04  0.20885090420E+04  0.50400001928E-02 0.  1.
    10030    2    1    2    0    0  0.00000000000E+00  0.00000000000E+00 -0.13966210341E+04  0.27803970499E+04  0.24041750024E+04 0.  0.
        3    1    3    3  502    0  0.20515373247E+03  0.69917905682E+03 -0.18039960922E+04  0.19455953635E+04  0.10100000352E+00 0.  1.
       -3    1    3    3    0  502 -0.20515373247E+03 -0.69917905682E+03  0.40737505810E+03  0.83480168639E+03  0.10100000352E+00 0. -1.
</event>
<event>
 5   0  0.5452384E-07  0.2401986E+04  0.7818609E-02  0.8438761E-01
        1   -1    0    0  501    0  0.00000000000E+00  0.00000000000E+00  0.99840609944E+03  0.99840609946E+03  0.50400001928E-02 0. -1.
       -1   -1    0    0    0  501  0.00000000000E+00  0.00000000000E+00 -0.14446863618E+04  0.14446863618E+04  0.50400001928E-02 0.  1.
    10030    2    1    2    0    0  0.00000000000E+00  0.00000000000E+00 -0.44628026233E+03  0.24430924612E+04  0.24019855748E+04 0.  0.
        5    1    3    3  502    0 -0.36463832787E+03 -0.57354649650E+03 -0.12302598579E+04  0.14055170230E+04  0.46999998093E+01 0.  1.
       -5    1    3    3    0  502  0.36463832787E+03  0.57354649650E+03  0.78397959560E+03  0.10375754383E+04  0.46999998093E+01 0. -1.
</event>
<event>
 5   0  0.1336057E-06  0.2399553E+04  0.7818609E-02  0.8439671E-01
        2   -1    0    0  501    0  0.00000000000E+00  0.00000000000E+00  0.17824342255E+04  0.17824342255E+04  0.25500000920E-02 0.  1.
       -2   -1    0    0    0  501  0.00000000000E+00  0.00000000000E+00 -0.80758289318E+03  0.80758289319E+03  0.25500000920E-02 0. -1.
    10030    2    1    2    0    0  0.00000000000E+00  0.00000000000E+00  0.97485133230E+03  0.25900171187E+04  0.23995527823E+04 0.  0.
        2    1    3    3  502    0  0.11579455308E+04  0.12976725546E+03  0.79610801779E+03  0.14111928886E+04  0.25500000920E-02 0.  1.
       -2    1    3    3    0  502 -0.11579455308E+04 -0.12976725546E+03  0.17874331451E+03  0.11788242301E+04  0.25500000920E-02 0. -1.
</event>
<event>
 5   0  0.1308662E-06  0.2400261E+04  0.7818609E-02  0.8439406E-01
        2   -1    0    0  501    0  0.00000000000E+00  0.00000000000E+00  0.29082048737E+04  0.29082048737E+04  0.25500000920E-02 0.  1.
       -2   -1    0    0    0  501  0.00000000000E+00  0.00000000000E+00 -0.49525833112E+03  0.49525833112E+03  0.25500000920E-02 0. -1.
    10030    2    1    2    0    0  0.00000000000E+00  0.00000000000E+00  0.24129465426E+04  0.34034632048E+04  0.24002605628E+04 0.  0.
        3    1    3    3  502    0  0.57379438832E+03  0.55829911341E+03  0.24742357437E+04  0.26005346423E+04  0.10100000352E+00 0.  1.
       -3    1    3    3    0  502 -0.57379438832E+03 -0.55829911341E+03 -0.61289201165E+02  0.80292856250E+03  0.10100000352E+00 0. -1.
</event>
<event>
 5   0  0.1275948E-06  0.2399821E+04  0.7818609E-02  0.8439570E-01
        2   -1    0    0  501    0  0.00000000000E+00  0.00000000000E+00  0.20525123529E+04  0.20525123529E+04  0.25500000920E-02 0.  1.
       -2   -1    0    0    0  501  0.00000000000E+00  0.00000000000E+00 -0.70147471585E+03  0.70147471586E+03  0.25500000920E-02 0. -1.
    10030    2    1    2    0    0  0.00000000000E+00  0.00000000000E+00  0.13510376371E+04  0.27539870688E+04  0.23998212597E+04 0.  0.
        1    1    3    3  502    0  0.33912888254E+03  0.75297105826E+03 -0.32347696486E+03  0.88691102168E+03  0.50400001928E-02 0. -1.
       -1    1    3    3    0  502 -0.33912888254E+03 -0.75297105826E+03  0.16745146019E+04  0.18670760471E+04  0.50400001928E-02 0.  1.
</event>
<event>
 5   0  0.1336057E-06  0.2399708E+04  0.7818609E-02  0.8439613E-01
       -2   -1    0    0    0  501  0.00000000000E+00  0.00000000000E+00  0.13058838505E+04  0.13058838505E+04  0.25500000920E-02 0. -1.
        2   -1    0    0  501    0  0.00000000000E+00  0.00000000000E+00 -0.11024332482E+04  0.11024332482E+04  0.25500000920E-02 0.  1.
    10030    2    1    2    0    0  0.00000000000E+00  0.00000000000E+00  0.20345060231E+03  0.24083170987E+04  0.23997081281E+04 0.  0.
        2    1    3    3  502    0 -0.97928158537E+03  0.69263481648E+03  0.71378391308E+02  0.12015948931E+04  0.25500000920E-02 0. -1.
       -2    1    3    3    0  502  0.97928158537E+03 -0.69263481648E+03  0.13207221101E+03  0.12067222055E+04  0.25500000920E-02 0.  1.
</event>
<event>
 5   0  0.1308662E-06  0.2400102E+04  0.7818609E-02  0.8439465E-01
        2   -1    0    0  501    0  0.00000000000E+00  0.00000000000E+00  0.26612481973E+04  0.26612481973E+04  0.25500000920E-02 0.  1.
       -2   -1    0    0    0  501  0.00000000000E+00  0.00000000000E+00 -0.54114547447E+03  0.54114547447E+03  0.25500000920E-02 0. -1.
    10030    2    1    2    0    0  0.00000000000E+00  0.00000000000E+00  0.21201027228E+04  0.32023936718E+04  0.24001020132E+04 0.  0.
        3    1    3    3  502    0 -0.24549860550E+03  0.69027946761E+03  0.23282204188E+04  0.24407715251E+04  0.10100000352E+00 0.  1.
       -3    1    3    3    0  502  0.24549860550E+03 -0.69027946761E+03 -0.20811769603E+03  0.76162214668E+03  0.10100000352E+00 0. -1.
</event>
<event>
 5   0  0.5510176E-07  0.2397818E+04  0.7818609E-02  0.8440321E-01
       -1   -1    0    0    0  501  0.00000000000E+00  0.00000000000E+00  0.10533388543E+04  0.10533388544E+04  0.50400001928E-02 0. -1.
        1   -1    0    0  501    0  0.00000000000E+00  0.00000000000E+00 -0.13645966839E+04  0.13645966839E+04  0.50400001928E-02 0.  1.
    10030    2    1    2    0    0  0.00000000000E+00  0.00000000000E+00 -0.31125782952E+03  0.24179355382E+04  0.23978179311E+04 0.  0.
        3    1    3    3  502    0  0.16377631866E+03  0.72964330721E+03  0.78934636777E+03  0.10873222783E+04  0.10100000352E+00 0. -1.
       -3    1    3    3    0  502 -0.16377631866E+03 -0.72964330721E+03 -0.11006041973E+04  0.13306132600E+04  0.10100000352E+00 0.  1.
</event>
<event>
 5   0  0.1307477E-06  0.2400317E+04  0.7818609E-02  0.8439385E-01
        2   -1    0    0  501    0  0.00000000000E+00  0.00000000000E+00  0.11417865888E+04  0.11417865888E+04  0.25500000920E-02 0. -1.
       -2   -1    0    0    0  501  0.00000000000E+00  0.00000000000E+00 -0.12615145054E+04  0.12615145054E+04  0.25500000920E-02 0.  1.
    10030    2    1    2    0    0  0.00000000000E+00  0.00000000000E+00 -0.11972791662E+03  0.24033010941E+04  0.24003169322E+04 0.  0.
        5    1    3    3  502    0  0.74422410039E+03  0.83715210948E+03  0.37156045686E+03  0.11801577984E+04  0.46999998093E+01 0. -1.
       -5    1    3    3    0  502 -0.74422410039E+03 -0.83715210948E+03 -0.49128837348E+03  0.12231432957E+04  0.46999998093E+01 0.  1.
</event>
<event>
 5   0  0.5452384E-07  0.2401383E+04  0.7818609E-02  0.8438986E-01
       -1   -1    0    0    0  501  0.00000000000E+00  0.00000000000E+00  0.74515029409E+03  0.74515029410E+03  0.50400001928E-02 0. -1.
        1   -1    0    0  501    0  0.00000000000E+00  0.00000000000E+00 -0.19347239511E+04  0.19347239511E+04  0.50400001928E-02 0.  1.
    10030    2    1    2    0    0  0.00000000000E+00  0.00000000000E+00 -0.11895736570E+04  0.26798742452E+04  0.24013830358E+04 0.  0.
        5    1    3    3  502    0 -0.66968946437E+03 -0.71880751096E+03  0.17553228315E+03  0.99799894235E+03  0.46999998093E+01 0. -1.
       -5    1    3    3    0  502  0.66968946437E+03  0.71880751096E+03 -0.13651059402E+04  0.16818753029E+04  0.46999998093E+01 0.  1.
</event>
<event>
 5   0  0.5510176E-07  0.2399563E+04  0.7818609E-02  0.8439667E-01
       -1   -1    0    0    0  501  0.00000000000E+00  0.00000000000E+00  0.54135048077E+03  0.54135048079E+03  0.50400001928E-02 0. -1.
        1   -1    0    0  501    0  0.00000000000E+00  0.00000000000E+00 -0.26590450220E+04  0.26590450220E+04  0.50400001928E-02 0.  1.
    10030    2    1    2    0    0  0.00000000000E+00  0.00000000000E+00 -0.21176945412E+04  0.32003955027E+04  0.23995627110E+04 0.  0.
        3    1    3    3  502    0 -0.71643688695E+03 -0.91588504343E+02  0.21890529694E+03  0.75471173725E+03  0.10100000352E+00 0. -1.
       -3    1    3    3    0  502  0.71643688695E+03  0.91588504343E+02 -0.23365998381E+04  0.24456837655E+04  0.10100000352E+00 0.  1.
</event>
<event>
 5   0  0.1308662E-06  0.2397951E+04  0.7818609E-02  0.8440271E-01
       -2   -1    0    0    0  501  0.00000000000E+00  0.00000000000E+00  0.11702139152E+04  0.11702139152E+04  0.25500000920E-02 0.  1.
        2   -1    0    0  501    0  0.00000000000E+00  0.00000000000E+00 -0.12284444482E+04  0.12284444482E+04  0.25500000920E-02 0. -1.
    10030    2    1    2    0    0  0.00000000000E+00  0.00000000000E+00 -0.58230533004E+02  0.23986583635E+04  0.23979514486E+04 0.  0.
        3    1    3    3  502    0 -0.91237195405E+03  0.77198678647E+03  0.66603047957E+02  0.11970054959E+04  0.10100000352E+00 0.  1.
       -3    1    3    3    0  502  0.91237195405E+03 -0.77198678647E+03 -0.12483358096E+03  0.12016528676E+04  0.10100000352E+00 0. -1.
</event>
<event>
 5   0  0.5527286E-07  0.2397224E+04  0.7818609E-02  0.8440543E-01
        1   -1    0    0  501    0  0.00000000000E+00  0.00000000000E+00  0.20132533348E+04  0.20132533349E+04  0.50400001928E-02 0. -1.
       -1   -1    0    0    0  501  0.00000000000E+00  0.00000000000E+00 -0.71360680653E+03  0.71360680655E+03  0.50400001928E-02 0.  1.
    10030    2    1    2    0    0  0.00000000000E+00  0.00000000000E+00  0.12996465283E+04  0.27268601414E+04  0.23972244643E+04 0.  0.
        1    1    3    3  502    0  0.81173637005E+03 -0.49717848197E+02  0.16514004624E+04  0.18407909403E+04  0.50400001928E-02 0. -1.
       -1    1    3    3    0  502 -0.81173637005E+03  0.49717848197E+02 -0.35175393406E+03  0.88606920105E+03  0.50400001928E-02 0.  1.
</event>
<event>
 5   0  0.5510176E-07  0.2400518E+04  0.7818609E-02  0.8439310E-01
        1   -1    0    0  501    0  0.00000000000E+00  0.00000000000E+00  0.15260923859E+04  0.15260923859E+04  0.50400001928E-02 0.  1.
       -1   -1    0    0    0  501  0.00000000000E+00  0.00000000000E+00 -0.94399396255E+03  0.94399396256E+03  0.50400001928E-02 0. -1.
    10030    2    1    2    0    0  0.00000000000E+00  0.00000000000E+00  0.58209842336E+03  0.24700863485E+04  0.24005182762E+04 0.  0.
        3    1    3    3  502    0  0.45372472000E+03 -0.91847502527E+02  0.14305352469E+04  0.15035734728E+04  0.10100000352E+00 0.  1.
       -3    1    3    3    0  502 -0.45372472000E+03  0.91847502527E+02 -0.84843682350E+03  0.96651287572E+03  0.10100000352E+00 0. -1.
</event>
<event>
 5   0  0.5363690E-07  0.2400412E+04  0.7818609E-02  0.8439349E-01
        1   -1    0    0  501    0  0.00000000000E+00  0.00000000000E+00  0.21989504295E+04  0.21989504295E+04  0.50400001928E-02 0. -1.
       -1   -1    0    0    0  501  0.00000000000E+00  0.00000000000E+00 -0.65508260678E+03  0.65508260679E+03  0.50400001928E-02 0.  1.
    10030    2    1    2    0    0  0.00000000000E+00  0.00000000000E+00  0.15438678227E+04  0.28540330363E+04  0.24004117810E+04 0.  0.
        4    1    3    3  502    0  0.72818803575E+03  0.38975522513E+03 -0.26344927824E+03  0.86693372644E+03  0.12699999809E+01 0.  1.
       -4    1    3    3    0  502 -0.72818803575E+03 -0.38975522513E+03  0.18073171009E+04  0.19870993098E+04  0.12699999809E+01 0. -1.
</event>
<event>
 5   0  0.5452384E-07  0.2400352E+04  0.7818609E-02  0.8439372E-01
       -1   -1    0    0    0  501  0.00000000000E+00  0.00000000000E+00  0.56995953321E+03  0.56995953323E+03  0.50400001928E-02 0. -1.
        1   -1    0    0  501    0  0.00000000000E+00  0.00000000000E+00 -0.25272356481E+04  0.25272356481E+04  0.50400001928E-02 0.  1.
    10030    2    1    2    0    0  0.00000000000E+00  0.00000000000E+00 -0.19572761149E+04  0.30971951813E+04  0.24003516828E+04 0.  0.
        5    1    3    3  502    0  0.39332379043E+03 -0.10724181422E+04 -0.14538076694E+04  0.18488815823E+04  0.46999998093E+01 0.  1.
       -5    1    3    3    0  502 -0.39332379043E+03  0.10724181422E+04 -0.50346844548E+03  0.12483135990E+04  0.46999998093E+01 0. -1.
</event>
<event>
 5   0  0.1291468E-06  0.2399638E+04  0.7818609E-02  0.8439639E-01
        2   -1    0    0  501    0  0.00000000000E+00  0.00000000000E+00  0.11715187533E+04  0.11715187533E+04  0.25500000920E-02 0. -1.
       -2   -1    0    0    0  501  0.00000000000E+00  0.00000000000E+00 -0.12288028230E+04  0.12288028230E+04  0.25500000920E-02 0.  1.
    10030    2    1    2    0    0  0.00000000000E+00  0.00000000000E+00 -0.57284069675E+02  0.24003215763E+04  0.23996379321E+04 0.  0.
        4    1    3    3  502    0 -0.21757334082E+03  0.11608009846E+04  0.18300003387E+03  0.11951099153E+04  0.12699999809E+01 0. -1.
       -4    1    3    3    0  502  0.21757334082E+03 -0.11608009846E+04 -0.24028410354E+03  0.12052116610E+04  0.12699999809E+01 0.  1.
</event>
<event>
 5   0  0.1275948E-06  0.2400210E+04  0.7818609E-02  0.8439425E-01
        2   -1    0    0  501    0  0.00000000000E+00  0.00000000000E+00  0.21723028850E+04  0.21723028850E+04  0.25500000920E-02 0.  1.
       -2   -1    0    0    0  501  0.00000000000E+00  0.00000000000E+00 -0.66300722998E+03  0.66300722999E+03  0.25500000920E-02 0. -1.
    10030    2    1    2    0    0  0.00000000000E+00  0.00000000000E+00  0.15092956550E+04  0.28353101150E+04  0.24002104228E+04 0.  0.
        1    1    3    3  502    0  0.84541074391E+03 -0.85157717417E+03  0.77673196272E+03  0.14294109106E+04  0.50400001928E-02 0. -1.
       -1    1    3    3    0  502 -0.84541074391E+03  0.85157717417E+03  0.73256369227E+03  0.14058992043E+04  0.50400001928E-02 0.  1.
</event>
<event>
 5   0  0.5363690E-07  0.2400661E+04  0.7818609E-02  0.8439256E-01
        1   -1    0    0  501    0  0.00000000000E+00  0.00000000000E+00  0.19160313776E+04  0.19160313776E+04  0.50400001928E-02 0.  1.
       -1   -1    0    0    0  501  0.00000000000E+00  0.00000000000E+00 -0.75196734958E+03  0.75196734960E+03  0.50400001928E-02 0. -1.
    10030    2    1    2    0    0  0.00000000000E+00  0.00000000000E+00  0.11640640280E+04  0.26679987272E+04  0.24006607730E+04 0.  0.
        4    1    3    3  502    0  0.11781936623E+04  0.20202078201E+03  0.46110948414E+03  0.12812401303E+04  0.12699999809E+01 0. -1.
       -4    1    3    3    0  502 -0.11781936623E+04 -0.20202078201E+03  0.70295454387E+03  0.13867585969E+04  0.12699999809E+01 0.  1.
</event>
<event>
 5   0  0.1336057E-06  0.2399964E+04  0.7818609E-02  0.8439517E-01
        2   -1    0    0  501    0  0.00000000000E+00  0.00000000000E+00  0.17004743910E+04  0.17004743910E+04  0.25500000920E-02 0.  1.
       -2   -1    0    0    0  501  0.00000000000E+00  0.00000000000E+00 -0.84679686466E+03  0.84679686467E+03  0.25500000920E-02 0. -1.
    10030    2    1    2    0    0  0.00000000000E+00  0.00000000000E+00  0.85367752638E+03  0.25472712557E+04  0.23999636520E+04 0.  0.
        2    1    3    3  502    0  0.60306161902E+03 -0.42520708248E+03 -0.57753772315E+03  0.93703479177E+03  0.25500000920E-02 0. -1.
       -2    1    3    3    0  502 -0.60306161902E+03  0.42520708248E+03  0.14312152495E+04  0.16102364639E+04  0.25500000920E-02 0.  1.
</event>
<event>
 5   0  0.5452384E-07  0.2389179E+04  0.7818609E-02  0.8443566E-01
        1   -1    0    0  501    0  0.00000000000E+00  0.00000000000E+00  0.18925006464E+04  0.18925006465E+04  0.50400001928E-02 0. -1.
       -1   -1    0    0    0  501  0.00000000000E+00  0.00000000000E+00 -0.75405231068E+03  0.75405231070E+03  0.50400001928E-02 0.  1.
    10030    2    1    2    0    0  0.00000000000E+00  0.00000000000E+00  0.11384483358E+04  0.26465529572E+04  0.23891793448E+04 0.  0.
        5    1    3    3  502    0  0.52287704274E+03  0.81891453335E+03  0.13390736880E+04  0.16544370180E+04  0.46999998093E+01 0. -1.
       -5    1    3    3    0  502 -0.52287704274E+03 -0.81891453335E+03 -0.20062535220E+03  0.99211593915E+03  0.46999998093E+01 0.  1.
</event>
<event>
 5   0  0.1336057E-06  0.2399755E+04  0.7818609E-02  0.8439595E-01
        2   -1    0    0  501    0  0.00000000000E+00  0.00000000000E+00  0.10092091096E+04  0.10092091096E+04  0.25500000920E-02 0. -1.
       -2   -1    0    0    0  501  0.00000000000E+00  0.00000000000E+00 -0.14265686764E+04  0.14265686764E+04  0.25500000920E-02 0.  1.
    10030    2    1    2    0    0  0.00000000000E+00  0.00000000000E+00 -0.41735956674E+03  0.24357777860E+04  0.23997550739E+04 0.  0.
        2    1    3    3  502    0 -0.75889724098E+03  0.49459081900E+03 -0.10073592963E+04  0.13547390348E+04  0.25500000920E-02 0.  1.
       -2    1    3    3    0  502  0.75889724098E+03 -0.49459081900E+03  0.58999972956E+03  0.10810387512E+04  0.25500000920E-02 0. -1.
</event>
<event>
 5   0  0.5363690E-07  0.2399853E+04  0.7818609E-02  0.8439559E-01
        1   -1    0    0  501    0  0.00000000000E+00  0.00000000000E+00  0.96977882632E+03  0.96977882633E+03  0.50400001928E-02 0. -1.
       -1   -1    0    0    0  501  0.00000000000E+00  0.00000000000E+00 -0.14846926193E+04  0.14846926193E+04  0.50400001928E-02 0.  1.
    10030    2    1    2    0    0  0.00000000000E+00  0.00000000000E+00 -0.51491379299E+03  0.24544714456E+04  0.23998528837E+04 0.  0.
        4    1    3    3  502    0  0.25713823616E+03 -0.11084007962E+03 -0.14508096264E+04  0.14775844411E+04  0.12699999809E+01 0.  1.
       -4    1    3    3    0  502 -0.25713823616E+03  0.11084007962E+03  0.93589583339E+03  0.97688700452E+03  0.12699999809E+01 0. -1.
</event>
<event>
 5   0  0.5363690E-07  0.2399968E+04  0.7818609E-02  0.8439516E-01
       -1   -1    0    0    0  501  0.00000000000E+00  0.00000000000E+00  0.94010517567E+03  0.94010517568E+03  0.50400001928E-02 0. -1.
        1   -1    0    0  501    0  0.00000000000E+00  0.00000000000E+00 -0.15317020933E+04  0.15317020933E+04  0.50400001928E-02 0.  1.
    10030    2    1    2    0    0  0.00000000000E+00  0.00000000000E+00 -0.59159691766E+03  0.24718072690E+04  0.23999675544E+04 0.  0.
        4    1    3    3  502    0  0.85687096927E+03 -0.55441414894E+03 -0.94584614048E+03  0.13914846175E+04  0.12699999809E+01 0. -1.
       -4    1    3    3    0  502 -0.85687096927E+03  0.55441414894E+03  0.35424922281E+03  0.10803226515E+04  0.12699999809E+01 0.  1.
</event>
<event>
 5   0  0.5690124E-07  0.2400524E+04  0.7818609E-02  0.8439307E-01
       -1   -1    0    0    0  501  0.00000000000E+00  0.00000000000E+00  0.72368219990E+03  0.72368219991E+03  0.50400001928E-02 0. -1.
        1   -1    0    0  501    0  0.00000000000E+00  0.00000000000E+00 -0.19906928129E+04  0.19906928129E+04  0.50400001928E-02 0.  1.
    10030    2    1    2    0    0  0.00000000000E+00  0.00000000000E+00 -0.12670106130E+04  0.27143750128E+04  0.24005240713E+04 0.  0.
        2    1    3    3  502    0 -0.46996306009E+03 -0.64827523083E+03  0.37754742217E+03  0.88525030853E+03  0.25500000920E-02 0. -1.
       -2    1    3    3    0  502  0.46996306009E+03  0.64827523083E+03 -0.16445580351E+04  0.18291247043E+04  0.25500000920E-02 0.  1.
</event>
<event>
 5   0  0.1291468E-06  0.2401426E+04  0.7818609E-02  0.8438970E-01
       -2   -1    0    0    0  501  0.00000000000E+00  0.00000000000E+00  0.13054589006E+04  0.13054589006E+04  0.25500000920E-02 0. -1.
        2   -1    0    0  501    0  0.00000000000E+00  0.00000000000E+00 -0.11043714020E+04  0.11043714020E+04  0.25500000920E-02 0.  1.
    10030    2    1    2    0    0  0.00000000000E+00  0.00000000000E+00  0.20108749855E+03  0.24098303026E+04  0.24014258067E+04 0.  0.
        4    1    3    3  502    0 -0.94342383896E+03  0.74203612851E+03  0.13296327711E+03  0.12076203882E+04  0.12699999809E+01 0.  1.
       -4    1    3    3    0  502  0.94342383896E+03 -0.74203612851E+03  0.68124221440E+02  0.12022099144E+04  0.12699999809E+01 0. -1.
</event>
<event>
 5   0  0.4483375E-07  0.2399552E+04  0.7818609E-02  0.8439671E-01
       -3   -1    0    0    0  501  0.00000000000E+00  0.00000000000E+00  0.16880828084E+04  0.16880828114E+04  0.10100000352E+00 0. -1.
        3   -1    0    0  501    0  0.00000000000E+00  0.00000000000E+00 -0.85272054653E+03  0.85272055251E+03  0.10100000352E+00 0.  1.
    10030    2    1    2    0    0  0.00000000000E+00  0.00000000000E+00  0.83536226190E+03  0.25408033640E+04  0.23995523803E+04 0.  0.
        2    1    3    3  502    0  0.21640105585E+03  0.70123011479E+03  0.14227168118E+04  0.16008360995E+04  0.25500000920E-02 0. -1.
       -2    1    3    3    0  502 -0.21640105585E+03 -0.70123011479E+03 -0.58735454994E+03  0.93996726443E+03  0.25500000920E-02 0.  1.
</event>
<event>
 5   0  0.1307477E-06  0.2399976E+04  0.7818609E-02  0.8439512E-01
       -2   -1    0    0    0  501  0.00000000000E+00  0.00000000000E+00  0.18141049658E+04  0.18141049658E+04  0.25500000920E-02 0. -1.
        2   -1    0    0  501    0  0.00000000000E+00  0.00000000000E+00 -0.79376424690E+03  0.79376424691E+03  0.25500000920E-02 0.  1.
    10030    2    1    2    0    0  0.00000000000E+00  0.00000000000E+00  0.10203407189E+04  0.26078692128E+04  0.23999763849E+04 0.  0.
        5    1    3    3  502    0 -0.53952611383E+03 -0.24620910134E+03  0.16437228227E+04  0.17474421756E+04  0.46999998093E+01 0. -1.
       -5    1    3    3    0  502  0.53952611383E+03  0.24620910134E+03 -0.62338210374E+03  0.86042703720E+03  0.46999998093E+01 0.  1.
</event>
<event>
 5   0  0.1307477E-06  0.2400134E+04  0.7818609E-02  0.8439453E-01
        2   -1    0    0  501    0  0.00000000000E+00  0.00000000000E+00  0.11765783894E+04  0.11765783894E+04  0.25500000920E-02 0.  1.
       -2   -1    0    0    0  501  0.00000000000E+00  0.00000000000E+00 -0.12240248646E+04  0.12240248646E+04  0.25500000920E-02 0. -1.
    10030    2    1    2    0    0  0.00000000000E+00  0.00000000000E+00 -0.47446475276E+02  0.24006032540E+04  0.24001343327E+04 0.  0.
        5    1    3    3  502    0 -0.42491613383E+03  0.83395683926E+03 -0.77493680583E+03  0.12151489100E+04  0.46999998093E+01 0. -1.
       -5    1    3    3    0  502  0.42491613383E+03 -0.83395683926E+03  0.72749033056E+03  0.11854543440E+04  0.46999998093E+01 0.  1.
</event>
<event>
 5   0  0.1291468E-06  0.2399543E+04  0.7818609E-02  0.8439675E-01
        2   -1    0    0  501    0  0.00000000000E+00  0.00000000000E+00  0.20806498591E+04  0.20806498591E+04  0.25500000920E-02 0.  1.
       -2   -1    0    0    0  501  0.00000000000E+00  0.00000000000E+00 -0.69182787970E+03  0.69182787971E+03  0.25500000920E-02 0. -1.
    10030    2    1    2    0    0  0.00000000000E+00  0.00000000000E+00  0.13888219794E+04  0.27724777388E+04  0.23995429402E+04 0.  0.
        4    1    3    3  502    0 -0.47362461317E+03  0.10835232263E+03 -0.57307347410E+03  0.75131572567E+03  0.12699999809E+01 0. -1.
       -4    1    3    3    0  502  0.47362461317E+03 -0.10835232263E+03  0.19618954535E+04  0.20211620131E+04  0.12699999809E+01 0.  1.
</event>
<event>
 5   0  0.5363690E-07  0.2400007E+04  0.7818609E-02  0.8439501E-01
        1   -1    0    0  501    0  0.00000000000E+00  0.00000000000E+00  0.87931643087E+03  0.87931643089E+03  0.50400001928E-02 0. -1.
       -1   -1    0    0    0  501  0.00000000000E+00  0.00000000000E+00 -0.16376455269E+04  0.16376455269E+04  0.50400001928E-02 0.  1.
    10030    2    1    2    0    0  0.00000000000E+00  0.00000000000E+00 -0.75832909604E+03  0.25169619578E+04  0.24000071831E+04 0.  0.
        4    1    3    3  502    0 -0.54851401156E+03 -0.42978376963E+03  0.64538998927E+03  0.94979553624E+03  0.12699999809E+01 0. -1.
       -4    1    3    3    0  502  0.54851401156E+03  0.42978376963E+03 -0.14037190853E+04  0.15671664216E+04  0.12699999809E+01 0.  1.
</event>
<event>
 5   0  0.5690124E-07  0.2399126E+04  0.7818609E-02  0.8439831E-01
        1   -1    0    0  501    0  0.00000000000E+00  0.00000000000E+00  0.19436629277E+04  0.19436629277E+04  0.50400001928E-02 0. -1.
       -1   -1    0    0    0  501  0.00000000000E+00  0.00000000000E+00 -0.74032993298E+03  0.74032993299E+03  0.50400001928E-02 0.  1.
    10030    2    1    2    0    0  0.00000000000E+00  0.00000000000E+00  0.12033329947E+04  0.26839928607E+04  0.23991263785E+04 0.  0.
        2    1    3    3  502    0  0.14411752882E+03 -0.12650557809E+03 -0.72307107699E+03  0.74806771470E+03  0.25500000920E-02 0.  1.
       -2    1    3    3    0  502 -0.14411752882E+03  0.12650557809E+03  0.19264040717E+04  0.19359251460E+04  0.25500000920E-02 0. -1.
</event>
<event>
 5   0  0.1336057E-06  0.2400172E+04  0.7818609E-02  0.8439439E-01
       -2   -1    0    0    0  501  0.00000000000E+00  0.00000000000E+00  0.12537731230E+04  0.12537731230E+04  0.25500000920E-02 0. -1.
        2   -1    0    0  501    0  0.00000000000E+00  0.00000000000E+00 -0.11486977578E+04  0.11486977578E+04  0.25500000920E-02 0.  1.
    10030    2    1    2    0    0  0.00000000000E+00  0.00000000000E+00  0.10507536528E+03  0.24024708808E+04  0.24001719731E+04 0.  0.
        2    1    3    3  502    0 -0.26830325961E+03  0.89086428153E+03 -0.70619927611E+03  0.11680510369E+04  0.25500000920E-02 0.  1.
       -2    1    3    3    0  502  0.26830325961E+03 -0.89086428153E+03  0.81127464139E+03  0.12344198439E+04  0.25500000920E-02 0. -1.
</event>
<event>
 5   0  0.5690124E-07  0.2399892E+04  0.7818609E-02  0.8439544E-01
        1   -1    0    0  501    0  0.00000000000E+00  0.00000000000E+00  0.14764881774E+04  0.14764881774E+04  0.50400001928E-02 0.  1.
       -1   -1    0    0    0  501  0.00000000000E+00  0.00000000000E+00 -0.97519935824E+03  0.97519935825E+03  0.50400001928E-02 0. -1.
    10030    2    1    2    0    0  0.00000000000E+00  0.00000000000E+00  0.50128881915E+03  0.24516875356E+04  0.23998919335E+04 0.  0.
        2    1    3    3  502    0  0.43651601746E+02 -0.11847470394E+04  0.43995252663E+03  0.12645510015E+04  0.25500000920E-02 0.  1.
       -2    1    3    3    0  502 -0.43651601746E+02  0.11847470394E+04  0.61336292521E+02  0.11871365341E+04  0.25500000920E-02 0. -1.
</event>
<event>
 5   0  0.1308662E-06  0.2399935E+04  0.7818609E-02  0.8439528E-01
        2   -1    0    0  501    0  0.00000000000E+00  0.00000000000E+00  0.16924015208E+04  0.16924015208E+04  0.25500000920E-02 0.  1.
       -2   -1    0    0    0  501  0.00000000000E+00  0.00000000000E+00 -0.85081559301E+03  0.85081559301E+03  0.25500000920E-02 0. -1.
    10030    2    1    2    0    0  0.00000000000E+00  0.00000000000E+00  0.84158592783E+03  0.25432171139E+04  0.23999346688E+04 0.  0.
        3    1    3    3  502    0  0.29978028162E+03  0.13445647002E+03 -0.80222272325E+03  0.86689564971E+03  0.10100000352E+00 0. -1.
       -3    1    3    3    0  502 -0.29978028162E+03 -0.13445647002E+03  0.16438086511E+04  0.16763214641E+04  0.10100000352E+00 0.  1.
</event>
<event>
 5   0  0.1307477E-06  0.2400088E+04  0.7818609E-02  0.8439471E-01
        2   -1    0    0  501    0  0.00000000000E+00  0.00000000000E+00  0.84612752909E+03  0.84612752910E+03  0.25500000920E-02 0.  1.
       -2   -1    0    0    0  501  0.00000000000E+00  0.00000000000E+00 -0.17019954346E+04  0.17019954346E+04  0.25500000920E-02 0. -1.
    10030    2    1    2    0    0  0.00000000000E+00  0.00000000000E+00 -0.85586790555E+03  0.25481229637E+04  0.24000876581E+04 0.  0.
        5    1    3    3  502    0 -0.54225476018E+03  0.15059154950E+03  0.69732825800E+03  0.89610648314E+03  0.46999998093E+01 0.  1.
       -5    1    3    3    0  502  0.54225476018E+03 -0.15059154950E+03 -0.15531961636E+04  0.16520164806E+04  0.46999998093E+01 0. -1.
</event>
<event>
 5   0  0.5452384E-07  0.2400919E+04  0.7818609E-02  0.8439160E-01
       -1   -1    0    0    0  501  0.00000000000E+00  0.00000000000E+00  0.14724615824E+04  0.14724615824E+04  0.50400001928E-02 0. -1.
        1   -1    0    0  501    0  0.00000000000E+00  0.00000000000E+00 -0.97870318350E+03  0.97870318351E+03  0.50400001928E-02 0.  1.
    10030    2    1    2    0    0  0.00000000000E+00  0.00000000000E+00  0.49375839891E+03  0.24511647659E+04  0.24009188560E+04 0.  0.
        5    1    3    3  502    0 -0.27496020395E+03  0.39967230335E+03  0.13679209841E+04  0.14514031048E+04  0.46999998093E+01 0. -1.
       -5    1    3    3    0  502  0.27496020395E+03 -0.39967230335E+03 -0.87416258517E+03  0.99976166117E+03  0.46999998093E+01 0.  1.
</event>
<event>
 5   0  0.5510176E-07  0.2402110E+04  0.7818609E-02  0.8438714E-01
       -1   -1    0    0    0  501  0.00000000000E+00  0.00000000000E+00  0.62391501820E+03  0.62391501822E+03  0.50400001928E-02 0.  1.
        1   -1    0    0  501    0  0.00000000000E+00  0.00000000000E+00 -0.23120663509E+04  0.23120663509E+04  0.50400001928E-02 0. -1.
    10030    2    1    2    0    0  0.00000000000E+00  0.00000000000E+00 -0.16881513327E+04  0.29359813691E+04  0.24021098388E+04 0.  0.
        3    1    3    3  502    0 -0.77776446110E+03 -0.64285543519E+03 -0.47872897250E+02  0.10101843851E+04  0.10100000352E+00 0.  1.
       -3    1    3    3    0  502  0.77776446110E+03  0.64285543519E+03 -0.16402784355E+04  0.19257969840E+04  0.10100000352E+00 0. -1.
</event>
<event>
 5   0  0.1308662E-06  0.2399885E+04  0.7818609E-02  0.8439547E-01
        2   -1    0    0  501    0  0.00000000000E+00  0.00000000000E+00  0.90325115775E+03  0.90325115776E+03  0.25500000920E-02 0.  1.
       -2   -1    0    0    0  501  0.00000000000E+00  0.00000000000E+00 -0.15940879268E+04  0.15940879268E+04  0.25500000920E-02 0. -1.
    10030    2    1    2    0    0  0.00000000000E+00  0.00000000000E+00 -0.69083676902E+03  0.24973390845E+04  0.23998848018E+04 0.  0.
        3    1    3    3  502    0  0.52630991776E+02  0.81666254568E+03  0.56780266265E+03  0.99604598725E+03  0.10100000352E+00 0.  1.
       -3    1    3    3    0  502 -0.52630991776E+02 -0.81666254568E+03 -0.12586394317E+04  0.15012930973E+04  0.10100000352E+00 0. -1.
</event>
<event>
 5   0  0.1275948E-06  0.2401787E+04  0.7818609E-02  0.8438835E-01
       -2   -1    0    0    0  501  0.00000000000E+00  0.00000000000E+00  0.16509123442E+04  0.16509123442E+04  0.25500000920E-02 0. -1.
        2   -1    0    0  501    0  0.00000000000E+00  0.00000000000E+00 -0.87354421276E+03  0.87354421276E+03  0.25500000920E-02 0.  1.
    10030    2    1    2    0    0  0.00000000000E+00  0.00000000000E+00  0.77736813148E+03  0.25244565570E+04  0.24017867716E+04 0.  0.
        1    1    3    3  502    0  0.78008189276E+01 -0.61389327060E+03 -0.69612406140E+03  0.92817805907E+03  0.50400001928E-02 0.  1.
       -1    1    3    3    0  502 -0.78008189276E+01  0.61389327060E+03  0.14734921929E+04  0.15962784979E+04  0.50400001928E-02 0. -1.
</event>
<event>
 5   0  0.1275948E-06  0.2400524E+04  0.7818609E-02  0.8439308E-01
       -2   -1    0    0    0  501  0.00000000000E+00  0.00000000000E+00  0.20033198457E+04  0.20033198457E+04  0.25500000920E-02 0. -1.
        2   -1    0    0  501    0  0.00000000000E+00  0.00000000000E+00 -0.71912047874E+03  0.71912047874E+03  0.25500000920E-02 0.  1.
    10030    2    1    2    0    0  0.00000000000E+00  0.00000000000E+00  0.12841993669E+04  0.27224403244E+04  0.24005235483E+04 0.  0.
        1    1    3    3  502    0  0.19540583106E+03 -0.34315343231E+03  0.19275392780E+04  0.19675734764E+04  0.50400001928E-02 0. -1.
       -1    1    3    3    0  502 -0.19540583106E+03  0.34315343231E+03 -0.64333991109E+03  0.75486684796E+03  0.50400001928E-02 0.  1.
</event>
<event>
 5   0  0.1336057E-06  0.2400339E+04  0.7818609E-02  0.8439377E-01
       -2   -1    0    0    0  501  0.00000000000E+00  0.00000000000E+00  0.15025102295E+04  0.15025102295E+04  0.25500000920E-02 0.  1.
        2   -1    0    0  501    0  0.00000000000E+00  0.00000000000E+00 -0.95866662394E+03  0.95866662395E+03  0.25500000920E-02 0. -1.
    10030    2    1    2    0    0  0.00000000000E+00  0.00000000000E+00  0.54384360557E+03  0.24611768535E+04  0.24003386504E+04 0.  0.
        2    1    3    3  502    0 -0.78608636419E+03 -0.28490249991E+03 -0.61089141694E+03  0.10355141379E+04  0.25500000920E-02 0.  1.
       -2    1    3    3    0  502  0.78608636419E+03  0.28490249991E+03  0.11547350225E+04  0.14256627156E+04  0.25500000920E-02 0. -1.
</event>
<event>
 5   0  0.5527286E-07  0.2398951E+04  0.7818609E-02  0.8439896E-01
       -1   -1    0    0    0  501  0.00000000000E+00  0.00000000000E+00  0.91769048260E+03  0.91769048261E+03  0.50400001928E-02 0. -1.
        1   -1    0    0  501    0  0.00000000000E+00  0.00000000000E+00 -0.15677850049E+04  0.15677850049E+04  0.50400001928E-02 0.  1.
    10030    2    1    2    0    0  0.00000000000E+00  0.00000000000E+00 -0.65009452227E+03  0.24854754875E+04  0.23989509188E+04 0.  0.
        1    1    3    3  502    0 -0.34884159643E+03 -0.11418417524E+04 -0.44430009359E+03  0.12739292053E+04  0.50400001928E-02 0.  1.
       -1    1    3    3    0  502  0.34884159643E+03  0.11418417524E+04 -0.20579442867E+03  0.12115462822E+04  0.50400001928E-02 0. -1.
</event>
<event>
 5   0  0.1275948E-06  0.2400222E+04  0.7818609E-02  0.8439420E-01
       -2   -1    0    0    0  501  0.00000000000E+00  0.00000000000E+00  0.62779207822E+03  0.62779207822E+03  0.25500000920E-02 0. -1.
        2   -1    0    0  501    0  0.00000000000E+00  0.00000000000E+00 -0.22941777213E+04  0.22941777213E+04  0.25500000920E-02 0.  1.
    10030    2    1    2    0    0  0.00000000000E+00  0.00000000000E+00 -0.16663856431E+04  0.29219697996E+04  0.24002221559E+04 0.  0.
        1    1    3    3  502    0 -0.64859709944E+03  0.86284710925E+03 -0.19469948351E+03  0.10968551501E+04  0.50400001928E-02 0. -1.
       -1    1    3    3    0  502  0.64859709944E+03 -0.86284710925E+03 -0.14716861596E+04  0.18251146495E+04  0.50400001928E-02 0.  1.
</event>
<event>
 5   0  0.1291468E-06  0.2400112E+04  0.7818609E-02  0.8439462E-01
        2   -1    0    0  501    0  0.00000000000E+00  0.00000000000E+00  0.54099330856E+03  0.54099330856E+03  0.25500000920E-02 0. -1.
       -2   -1    0    0    0  501  0.00000000000E+00  0.00000000000E+00 -0.26620192794E+04  0.26620192794E+04  0.25500000920E-02 0.  1.
    10030    2    1    2    0    0  0.00000000000E+00  0.00000000000E+00 -0.21210259708E+04  0.32030125879E+04  0.24001121785E+04 0.  0.
        4    1    3    3  502    0  0.10184872438E+04 -0.63279075229E+03 -0.11257903169E+04  0.16447327602E+04  0.12699999809E+01 0.  1.
       -4    1    3    3    0  502 -0.10184872438E+04  0.63279075229E+03 -0.99523565391E+03  0.15582798278E+04  0.12699999809E+01 0. -1.
</event>
<event>
 5   0  0.1308662E-06  0.2400049E+04  0.7818609E-02  0.8439485E-01
       -2   -1    0    0    0  501  0.00000000000E+00  0.00000000000E+00  0.93519106040E+03  0.93519106041E+03  0.25500000920E-02 0.  1.
        2   -1    0    0  501    0  0.00000000000E+00  0.00000000000E+00 -0.15398556985E+04  0.15398556986E+04  0.25500000920E-02 0. -1.
    10030    2    1    2    0    0  0.00000000000E+00  0.00000000000E+00 -0.60466463814E+03  0.24750467590E+04  0.24000494025E+04 0.  0.
        3    1    3    3  502    0  0.39625340122E+01  0.76466387613E+03  0.65140938170E+03  0.10045201531E+04  0.10100000352E+00 0.  1.
       -3    1    3    3    0  502 -0.39625340122E+01 -0.76466387613E+03 -0.12560740198E+04  0.14705266059E+04  0.10100000352E+00 0. -1.
</event>
<event>
 5   0  0.5452384E-07  0.2399859E+04  0.7818609E-02  0.8439556E-01
       -1   -1    0    0    0  501  0.00000000000E+00  0.00000000000E+00  0.10507675400E+04  0.10507675400E+04  0.50400001928E-02 0.  1.
        1   -1    0    0  501    0  0.00000000000E+00  0.00000000000E+00 -0.13702654894E+04  0.13702654894E+04  0.50400001928E-02 0. -1.
    10030    2    1    2    0    0  0.00000000000E+00  0.00000000000E+00 -0.31949794943E+03  0.24210330294E+04  0.23998587437E+04 0.  0.
        5    1    3    3  502    0 -0.33748562329E+03  0.97595300014E+03  0.45672996279E+03  0.11291612610E+04  0.46999998093E+01 0.  1.
       -5    1    3    3    0  502  0.33748562329E+03 -0.97595300014E+03 -0.77622791221E+03  0.12918717684E+04  0.46999998093E+01 0. -1.
</event>
<event>
 5   0  0.5690124E-07  0.2397516E+04  0.7818609E-02  0.8440434E-01
       -1   -1    0    0    0  501  0.00000000000E+00  0.00000000000E+00  0.10514353326E+04  0.10514353326E+04  0.50400001928E-02 0.  1.
        1   -1    0    0  501    0  0.00000000000E+00  0.00000000000E+00 -0.13667230322E+04  0.13667230322E+04  0.50400001928E-02 0. -1.
    10030    2    1    2    0    0  0.00000000000E+00  0.00000000000E+00 -0.31528769960E+03  0.24181583649E+04  0.23975161197E+04 0.  0.
        2    1    3    3  502    0  0.15387099431E+03  0.59817285766E+03 -0.11938812983E+04  0.13441873400E+04  0.25500000920E-02 0. -1.
       -2    1    3    3    0  502 -0.15387099431E+03 -0.59817285766E+03  0.87859359874E+03  0.10739710249E+04  0.25500000920E-02 0.  1.
</event>
<event>
 5   0  0.1275948E-06  0.2404234E+04  0.7818609E-02  0.8437920E-01
        2   -1    0    0  501    0  0.00000000000E+00  0.00000000000E+00  0.13735986271E+04  0.13735986271E+04  0.25500000920E-02 0.  1.
       -2   -1    0    0    0  501  0.00000000000E+00  0.00000000000E+00 -0.10520433804E+04  0.10520433804E+04  0.25500000920E-02 0. -1.
    10030    2    1    2    0    0  0.00000000000E+00  0.00000000000E+00  0.32155524669E+03  0.24256420075E+04  0.24042340510E+04 0.  0.
        1    1    3    3  502    0  0.13793546133E+03  0.71213858037E+03 -0.80636003032E+03  0.10846123951E+04  0.50400001928E-02 0. -1.
       -1    1    3    3    0  502 -0.13793546133E+03 -0.71213858037E+03  0.11279152770E+04  0.13410296124E+04  0.50400001928E-02 0.  1.
</event>
<event>
 5   0  0.1291468E-06  0.2399442E+04  0.7818609E-02  0.8439712E-01
        2   -1    0    0  501    0  0.00000000000E+00  0.00000000000E+00  0.12529911203E+04  0.12529911203E+04  0.25500000920E-02 0.  1.
       -2   -1    0    0    0  501  0.00000000000E+00  0.00000000000E+00 -0.11487158859E+04  0.11487158859E+04  0.25500000920E-02 0. -1.
    10030    2    1    2    0    0  0.00000000000E+00  0.00000000000E+00  0.10427523440E+03  0.24017070063E+04  0.23994422726E+04 0.  0.
        4    1    3    3  502    0  0.64984776626E+03 -0.88644574920E+03 -0.42919151127E+03  0.11799555720E+04  0.12699999809E+01 0. -1.
       -4    1    3    3    0  502 -0.64984776626E+03  0.88644574920E+03  0.53346674567E+03  0.12217514343E+04  0.12699999809E+01 0.  1.
</event>
<event>
 5   0  0.1308662E-06  0.2400636E+04  0.7818609E-02  0.8439265E-01
        2   -1    0    0  501    0  0.00000000000E+00  0.00000000000E+00  0.16787509502E+04  0.16787509503E+04  0.25500000920E-02 0. -1.
       -2   -1    0    0    0  501  0.00000000000E+00  0.00000000000E+00 -0.85823554940E+03  0.85823554940E+03  0.25500000920E-02 0.  1.
    10030    2    1    2    0    0  0.00000000000E+00  0.00000000000E+00  0.82051540085E+03  0.25369864997E+04  0.24006363690E+04 0.  0.
        3    1    3    3  502    0 -0.83003625660E+03  0.55436365558E+03 -0.29430569704E+03  0.10406224596E+04  0.10100000352E+00 0.  1.
       -3    1    3    3    0  502  0.83003625660E+03 -0.55436365558E+03  0.11148210979E+04  0.14963640401E+04  0.10100000352E+00 0. -1.
</event>
<event>
 5   0  0.5527286E-07  0.2400469E+04  0.7818609E-02  0.8439328E-01
       -1   -1    0    0    0  501  0.00000000000E+00  0.00000000000E+00  0.12743594380E+04  0.12743594380E+04  0.50400001928E-02 0. -1.
        1   -1    0    0  501    0  0.00000000000E+00  0.00000000000E+00 -0.11304214191E+04  0.11304214191E+04  0.50400001928E-02 0.  1.
    10030    2    1    2    0    0  0.00000000000E+00  0.00000000000E+00  0.14393801883E+03  0.24047808571E+04  0.24004692911E+04 0.  0.
        1    1    3    3  502    0  0.73870146926E+03 -0.45690435494E+03 -0.75784344027E+03  0.11527220525E+04  0.50400001928E-02 0.  1.
       -1    1    3    3    0  502 -0.73870146926E+03  0.45690435494E+03  0.90178145910E+03  0.12520588046E+04  0.50400001928E-02 0. -1.
</event>
<event>
 5   0  0.1336057E-06  0.2400526E+04  0.7818609E-02  0.8439307E-01
        2   -1    0    0  501    0  0.00000000000E+00  0.00000000000E+00  0.12392027723E+04  0.12392027723E+04  0.25500000920E-02 0. -1.
       -2   -1    0    0    0  501  0.00000000000E+00  0.00000000000E+00 -0.11625465822E+04  0.11625465822E+04  0.25500000920E-02 0.  1.
    10030    2    1    2    0    0  0.00000000000E+00  0.00000000000E+00  0.76656190027E+02  0.24017493545E+04  0.24005257321E+04 0.  0.
        2    1    3    3  502    0  0.27975111313E+03 -0.13266735405E+02  0.12060537971E+04  0.12381447625E+04  0.25500000920E-02 0. -1.
       -2    1    3    3    0  502 -0.27975111313E+03  0.13266735405E+02 -0.11293976071E+04  0.11636045919E+04  0.25500000920E-02 0.  1.
</event>
<event>
 5   0  0.5527286E-07  0.2399986E+04  0.7818609E-02  0.8439509E-01
       -1   -1    0    0    0  501  0.00000000000E+00  0.00000000000E+00  0.83915555881E+03  0.83915555882E+03  0.50400001928E-02 0.  1.
        1   -1    0    0  501    0  0.00000000000E+00  0.00000000000E+00 -0.17159900740E+04  0.17159900740E+04  0.50400001928E-02 0. -1.
    10030    2    1    2    0    0  0.00000000000E+00  0.00000000000E+00 -0.87683451520E+03  0.25551456328E+04  0.23999855079E+04 0.  0.
        1    1    3    3  502    0 -0.61048493968E+03  0.94970625494E+03 -0.87133714089E+03  0.14261354232E+04  0.50400001928E-02 0. -1.
       -1    1    3    3    0  502  0.61048493968E+03 -0.94970625494E+03 -0.54973743135E+01  0.11290102096E+04  0.50400001928E-02 0.  1.
</event>
<event>
 5   0  0.5690124E-07  0.2400451E+04  0.7818609E-02  0.8439335E-01
        1   -1    0    0  501    0  0.00000000000E+00  0.00000000000E+00  0.22415719370E+04  0.22415719370E+04  0.50400001928E-02 0. -1.
       -1   -1    0    0    0  501  0.00000000000E+00  0.00000000000E+00 -0.64264798021E+03  0.64264798023E+03  0.50400001928E-02 0.  1.
    10030    2    1    2    0    0  0.00000000000E+00  0.00000000000E+00  0.15989239568E+04  0.28842199173E+04  0.24004513558E+04 0.  0.
        2    1    3    3  502    0  0.10671674825E+04  0.53797863964E+03  0.66634528830E+03  0.13683141071E+04  0.25500000920E-02 0. -1.
       -2    1    3    3    0  502 -0.10671674825E+04 -0.53797863964E+03  0.93257866851E+03  0.15159058102E+04  0.25500000920E-02 0.  1.
</event>
<event>
 5   0  0.1307477E-06  0.2403197E+04  0.7818609E-02  0.8438308E-01
       -2   -1    0    0    0  501  0.00000000000E+00  0.00000000000E+00  0.57786926739E+03  0.57786926739E+03  0.25500000920E-02 0.  1.
        2   -1    0    0  501    0  0.00000000000E+00  0.00000000000E+00 -0.24985568542E+04  0.24985568542E+04  0.25500000920E-02 0. -1.
    10030    2    1    2    0    0  0.00000000000E+00  0.00000000000E+00 -0.19206875868E+04  0.30764261216E+04  0.24031972194E+04 0.  0.
        5    1    3    3  502    0 -0.57646013419E+03  0.72387306551E+03 -0.19415671960E+04  0.21508146754E+04  0.46999998093E+01 0. -1.
       -5    1    3    3    0  502  0.57646013419E+03 -0.72387306551E+03  0.20879609176E+02  0.92561144621E+03  0.46999998093E+01 0.  1.
</event>
<event>
 5   0  0.5527286E-07  0.2399804E+04  0.7818609E-02  0.8439577E-01
       -1   -1    0    0    0  501  0.00000000000E+00  0.00000000000E+00  0.70080480329E+03  0.70080480331E+03  0.50400001928E-02 0.  1.
        1   -1    0    0  501    0  0.00000000000E+00  0.00000000000E+00 -0.20544455370E+04  0.20544455370E+04  0.50400001928E-02 0. -1.
    10030    2    1    2    0    0  0.00000000000E+00  0.00000000000E+00 -0.13536407337E+04  0.27552503403E+04  0.23998044091E+04 0.  0.
        1    1    3    3  502    0  0.10726180281E+04 -0.52772131736E+03 -0.79594839859E+03  0.14361521773E+04  0.50400001928E-02 0. -1.
       -1    1    3    3    0  502 -0.10726180281E+04  0.52772131736E+03 -0.55769233513E+03  0.13190981630E+04  0.50400001928E-02 0.  1.
</event>
<event>
 5   0  0.1291468E-06  0.2399654E+04  0.7818609E-02  0.8439633E-01
        2   -1    0    0  501    0  0.00000000000E+00  0.00000000000E+00  0.18331166165E+04  0.18331166165E+04  0.25500000920E-02 0.  1.
       -2   -1    0    0    0  501  0.00000000000E+00  0.00000000000E+00 -0.78532081662E+03  0.78532081662E+03  0.25500000920E-02 0. -1.
    10030    2    1    2    0    0  0.00000000000E+00  0.00000000000E+00  0.10477957999E+04  0.26184374331E+04  0.23996538402E+04 0.  0.
        4    1    3    3  502    0  0.11182164364E+04 -0.41112405065E+03  0.67879851075E+03  0.13712038560E+04  0.12699999809E+01 0.  1.
       -4    1    3    3    0  502 -0.11182164364E+04  0.41112405065E+03  0.36899728910E+03  0.12472335771E+04  0.12699999809E+01 0. -1.
</event>
<event>
 5   0  0.4483375E-07  0.2400411E+04  0.7818609E-02  0.8439350E-01
        3   -1    0    0  501    0  0.00000000000E+00  0.00000000000E+00  0.21074812568E+04  0.21074812592E+04  0.10100000352E+00 0.  1.
       -3   -1    0    0    0  501  0.00000000000E+00  0.00000000000E+00 -0.68351425468E+03  0.68351426215E+03  0.10100000352E+00 0. -1.
    10030    2    1    2    0    0  0.00000000000E+00  0.00000000000E+00  0.14239670021E+04  0.27909955214E+04  0.24004112100E+04 0.  0.
        2    1    3    3  502    0  0.88247895647E+03  0.55710592586E+03  0.22779120681E+02  0.10438654174E+04  0.25500000920E-02 0.  1.
       -2    1    3    3    0  502 -0.88247895647E+03 -0.55710592586E+03  0.14011878815E+04  0.17471301040E+04  0.25500000920E-02 0. -1.
</event>
<event>
 5   0  0.1308662E-06  0.2402962E+04  0.7818609E-02  0.8438395E-01
       -2   -1    0    0    0  501  0.00000000000E+00  0.00000000000E+00  0.10779787128E+04  0.10779787128E+04  0.25500000920E-02 0.  1.
        2   -1    0    0  501    0  0.00000000000E+00  0.00000000000E+00 -0.13391332188E+04  0.13391332188E+04  0.25500000920E-02 0. -1.
    10030    2    1    2    0    0  0.00000000000E+00  0.00000000000E+00 -0.26115450602E+03  0.24171119316E+04  0.24029624246E+04 0.  0.
        3    1    3    3  502    0  0.41701517497E+03 -0.58770163630E+03  0.83646930602E+03  0.11040723616E+04  0.10100000352E+00 0.  1.
       -3    1    3    3    0  502 -0.41701517497E+03  0.58770163630E+03 -0.10976238120E+04  0.13130395700E+04  0.10100000352E+00 0. -1.
</event>
<event>
 5   0  0.1308662E-06  0.2400358E+04  0.7818609E-02  0.8439370E-01
       -2   -1    0    0    0  501  0.00000000000E+00  0.00000000000E+00  0.11748354440E+04  0.11748354440E+04  0.25500000920E-02 0. -1.
        2   -1    0    0  501    0  0.00000000000E+00  0.00000000000E+00 -0.12260692384E+04  0.12260692384E+04  0.25500000920E-02 0.  1.
    10030    2    1    2    0    0  0.00000000000E+00  0.00000000000E+00 -0.51233794359E+02  0.24009046824E+04  0.24003579717E+04 0.  0.
        3    1    3    3  502    0 -0.11900959286E+04  0.10554145832E+03  0.88260995621E+02  0.11980222587E+04  0.10100000352E+00 0. -1.
       -3    1    3    3    0  502  0.11900959286E+04 -0.10554145832E+03 -0.13949478998E+03  0.12028824238E+04  0.10100000352E+00 0.  1.
</event>
<event>
 5   0  0.5510176E-07  0.2401358E+04  0.7818609E-02  0.8438995E-01
       -1   -1    0    0    0  501  0.00000000000E+00  0.00000000000E+00  0.11582529675E+04  0.11582529675E+04  0.50400001928E-02 0. -1.
        1   -1    0    0  501    0  0.00000000000E+00  0.00000000000E+00 -0.12446588506E+04  0.12446588506E+04  0.50400001928E-02 0.  1.
    10030    2    1    2    0    0  0.00000000000E+00  0.00000000000E+00 -0.86405883030E+02  0.24029118181E+04  0.24013577886E+04 0.  0.
        3    1    3    3  502    0  0.19991488083E+03  0.11424524058E+04 -0.35399424453E+03  0.12126315988E+04  0.10100000352E+00 0.  1.
       -3    1    3    3    0  502 -0.19991488083E+03 -0.11424524058E+04  0.26758836150E+03  0.11902802193E+04  0.10100000352E+00 0. -1.
</event>
<event>
 5   0  0.1336057E-06  0.2393704E+04  0.7818609E-02  0.8441864E-01
        2   -1    0    0  501    0  0.00000000000E+00  0.00000000000E+00  0.20013211596E+04  0.20013211596E+04  0.25500000920E-02 0.  1.
       -2   -1    0    0    0  501  0.00000000000E+00  0.00000000000E+00 -0.71575454582E+03  0.71575454582E+03  0.25500000920E-02 0. -1.
    10030    2    1    2    0    0  0.00000000000E+00  0.00000000000E+00  0.12855666138E+04  0.27170757055E+04  0.23937040065E+04 0.  0.
        2    1    3    3  502    0  0.12871877836E+03  0.44383959277E+01  0.19934321311E+04  0.19975885173E+04  0.25500000920E-02 0.  1.
       -2    1    3    3    0  502 -0.12871877836E+03 -0.44383959277E+01 -0.70786551731E+03  0.71948718811E+03  0.25500000920E-02 0. -1.
</event>
<event>
 5   0  0.1291468E-06  0.2399149E+04  0.7818609E-02  0.8439822E-01
       -2   -1    0    0    0  501  0.00000000000E+00  0.00000000000E+00  0.14625238530E+04  0.14625238530E+04  0.25500000920E-02 0.  1.
        2   -1    0    0  501    0  0.00000000000E+00  0.00000000000E+00 -0.98390139053E+03  0.98390139053E+03  0.25500000920E-02 0. -1.
    10030    2    1    2    0    0  0.00000000000E+00  0.00000000000E+00  0.47862246246E+03  0.24464252435E+04  0.23991492264E+04 0.  0.
        4    1    3    3  502    0 -0.51451016725E+03  0.83993491441E+03 -0.45884539375E+03  0.10866241673E+04  0.12699999809E+01 0.  1.
       -4    1    3    3    0  502  0.51451016725E+03 -0.83993491441E+03  0.93746785621E+03  0.13598010762E+04  0.12699999809E+01 0. -1.
</event>
<event>
 5   0  0.1291468E-06  0.2400855E+04  0.7818609E-02  0.8439183E-01
        2   -1    0    0  501    0  0.00000000000E+00  0.00000000000E+00  0.26650966911E+04  0.26650966911E+04  0.25500000920E-02 0.  1.
       -2   -1    0    0    0  501  0.00000000000E+00  0.00000000000E+00 -0.54070319547E+03  0.54070319547E+03  0.25500000920E-02 0. -1.
    10030    2    1    2    0    0  0.00000000000E+00  0.00000000000E+00  0.21243934956E+04  0.32057998865E+04  0.24008550952E+04 0.  0.
        4    1    3    3  502    0  0.46874231387E+03  0.10363819510E+04  0.15745276962E+04  0.19424072653E+04  0.12699999809E+01 0.  1.
       -4    1    3    3    0  502 -0.46874231387E+03 -0.10363819510E+04  0.54986579938E+03  0.12633926212E+04  0.12699999809E+01 0. -1.
</event>
<event>
 5   0  0.5363690E-07  0.2399934E+04  0.7818609E-02  0.8439528E-01
       -1   -1    0    0    0  501  0.00000000000E+00  0.00000000000E+00  0.81221382878E+03  0.81221382880E+03  0.50400001928E-02 0. -1.
        1   -1    0    0  501    0  0.00000000000E+00  0.00000000000E+00 -0.17728350987E+04  0.17728350987E+04  0.50400001928E-02 0.  1.
    10030    2    1    2    0    0  0.00000000000E+00  0.00000000000E+00 -0.96062126995E+03  0.25850489275E+04  0.23999343186E+04 0.  0.
        4    1    3    3  502    0  0.98056722778E+03 -0.80293162951E+02 -0.12202944708E+04  0.15675073488E+04  0.12699999809E+01 0.  1.
       -4    1    3    3    0  502 -0.98056722778E+03  0.80293162951E+02  0.25967320090E+03  0.10175415787E+04  0.12699999809E+01 0. -1.
</event>
<event>
 5   0  0.5510176E-07  0.2400262E+04  0.7818609E-02  0.8439406E-01
       -1   -1    0    0    0  501  0.00000000000E+00  0.00000000000E+00  0.70014785213E+03  0.70014785215E+03  0.50400001928E-02 0.  1.
        1   -1    0    0  501    0  0.00000000000E+00  0.00000000000E+00 -0.20571567196E+04  0.20571567196E+04  0.50400001928E-02 0. -1.
    10030    2    1    2    0    0  0.00000000000E+00  0.00000000000E+00 -0.13570088674E+04  0.27573045717E+04  0.24002615347E+04 0.  0.
        3    1    3    3  502    0 -0.10104421742E+04 -0.63576168044E+03 -0.53721475763E+03  0.13091164989E+04  0.10100000352E+00 0. -1.
       -3    1    3    3    0  502  0.10104421742E+04  0.63576168044E+03 -0.81979410981E+03  0.14481880728E+04  0.10100000352E+00 0.  1.
</event>
<event>
 5   0  0.5527286E-07  0.2401316E+04  0.7818609E-02  0.8439011E-01
        1   -1    0    0  501    0  0.00000000000E+00  0.00000000000E+00  0.17044521810E+04  0.17044521810E+04  0.50400001928E-02 0.  1.
       -1   -1    0    0    0  501  0.00000000000E+00  0.00000000000E+00 -0.84577278793E+03  0.84577278794E+03  0.50400001928E-02 0. -1.
    10030    2    1    2    0    0  0.00000000000E+00  0.00000000000E+00  0.85867939311E+03  0.25502249690E+04  0.24013157003E+04 0.  0.
        1    1    3    3  502    0  0.80437958718E+03 -0.48023664599E+03 -0.36817759159E+03  0.10065825825E+04  0.50400001928E-02 0. -1.
       -1    1    3    3    0  502 -0.80437958718E+03  0.48023664599E+03  0.12268569847E+04  0.15436423865E+04  0.50400001928E-02 0.  1.
</event>
<event>
 5   0  0.5363690E-07  0.2400136E+04  0.7818609E-02  0.8439452E-01
       -1   -1    0    0    0  501  0.00000000000E+00  0.00000000000E+00  0.88041772675E+03  0.88041772676E+03  0.50400001928E-02 0. -1.
        1   -1    0    0  501    0  0.00000000000E+00  0.00000000000E+00 -0.16357731808E+04  0.16357731808E+04  0.50400001928E-02 0.  1.
    10030    2    1    2    0    0  0.00000000000E+00  0.00000000000E+00 -0.75535545404E+03  0.25161909076E+04  0.24001364172E+04 0.  0.
        4    1    3    3  502    0  0.60997623895E+03  0.10027602128E+04 -0.11545727007E+03  0.11793773996E+04  0.12699999809E+01 0.  1.
       -4    1    3    3    0  502 -0.60997623895E+03 -0.10027602128E+04 -0.63989818397E+03  0.13368135080E+04  0.12699999809E+01 0. -1.
</event>
<event>
 5   0  0.5527286E-07  0.2397736E+04  0.7818609E-02  0.8440352E-01
       -1   -1    0    0    0  501  0.00000000000E+00  0.00000000000E+00  0.13764290625E+04  0.13764290625E+04  0.50400001928E-02 0. -1.
        1   -1    0    0  501    0  0.00000000000E+00  0.00000000000E+00 -0.10442125891E+04  0.10442125891E+04  0.50400001928E-02 0.  1.
    10030    2    1    2    0    0  0.00000000000E+00  0.00000000000E+00  0.33221647340E+03  0.24206416517E+04  0.23977360615E+04 0.  0.
        1    1    3    3  502    0 -0.39333911980E+03  0.38936432220E+03 -0.90751914238E+03  0.10629728277E+04  0.50400001928E-02 0.  1.
       -1    1    3    3    0  502  0.39333911980E+03 -0.38936432220E+03  0.12397356158E+04  0.13576688240E+04  0.50400001928E-02 0. -1.
</event>
<event>
 5   0  0.1336057E-06  0.2400059E+04  0.7818609E-02  0.8439482E-01
        2   -1    0    0  501    0  0.00000000000E+00  0.00000000000E+00  0.16004544101E+04  0.16004544101E+04  0.25500000920E-02 0. -1.
       -2   -1    0    0    0  501  0.00000000000E+00  0.00000000000E+00 -0.89978856874E+03  0.89978856875E+03  0.25500000920E-02 0.  1.
    10030    2    1    2    0    0  0.00000000000E+00  0.00000000000E+00  0.70066584136E+03  0.25002429789E+04  0.24000588185E+04 0.  0.
        2    1    3    3  502    0  0.11003995212E+04 -0.36963398091E+03  0.33392844402E+02  0.11613024878E+04  0.25500000920E-02 0.  1.
       -2    1    3    3    0  502 -0.11003995212E+04  0.36963398091E+03  0.66727299696E+03  0.13389404911E+04  0.25500000920E-02 0. -1.
</event>
<event>
 5   0  0.5363690E-07  0.2400856E+04  0.7818609E-02  0.8439183E-01
        1   -1    0    0  501    0  0.00000000000E+00  0.00000000000E+00  0.18004275063E+04  0.18004275063E+04  0.50400001928E-02 0. -1.
       -1   -1    0    0    0  501  0.00000000000E+00  0.00000000000E+00 -0.80038067365E+03  0.80038067366E+03  0.50400001928E-02 0.  1.
    10030    2    1    2    0    0  0.00000000000E+00  0.00000000000E+00  0.10000468327E+04  0.26008081800E+04  0.24008559977E+04 0.  0.
        4    1    3    3  502    0 -0.45462866002E+03 -0.10783308075E+04  0.78977136969E+03  0.14118161985E+04  0.12699999809E+01 0. -1.
       -4    1    3    3    0  502  0.45462866002E+03  0.10783308075E+04  0.21027546299E+03  0.11889919815E+04  0.12699999809E+01 0.  1.
</event>
<event>
 5   0  0.1291468E-06  0.2399527E+04  0.7818609E-02  0.8439681E-01
        2   -1    0    0  501    0  0.00000000000E+00  0.00000000000E+00  0.13520342199E+04  0.13520342199E+04  0.25500000920E-02 0.  1.
       -2   -1    0    0    0  501  0.00000000000E+00  0.00000000000E+00 -0.10646422521E+04  0.10646422521E+04  0.25500000920E-02 0. -1.
    10030    2    1    2    0    0  0.00000000000E+00  0.00000000000E+00  0.28739196782E+03  0.24166764720E+04  0.23995272507E+04 0.  0.
        4    1    3    3  502    0 -0.11790787854E+04 -0.32327497634E+02 -0.77324683169E+02  0.11820543849E+04  0.12699999809E+01 0.  1.
       -4    1    3    3    0  502  0.11790787854E+04  0.32327497634E+02  0.36471665099E+03  0.12346220870E+04  0.12699999809E+01 0. -1.
</event>
<event>
 5   0  0.5527286E-07  0.2401030E+04  0.7818609E-02  0.8439118E-01
        1   -1    0    0  501    0  0.00000000000E+00  0.00000000000E+00  0.21254687123E+04  0.21254687123E+04  0.50400001928E-02 0.  1.
       -1   -1    0    0    0  501  0.00000000000E+00  0.00000000000E+00 -0.67807918968E+03  0.67807918970E+03  0.50400001928E-02 0. -1.
    10030    2    1    2    0    0  0.00000000000E+00  0.00000000000E+00  0.14473895226E+04  0.28035479020E+04  0.24010298642E+04 0.  0.
        1    1    3    3  502    0 -0.27515431585E+03 -0.11670834403E+03 -0.63394192534E+03  0.70086596424E+03  0.50400001928E-02 0. -1.
       -1    1    3    3    0  502  0.27515431585E+03  0.11670834403E+03  0.20813314480E+04  0.21026819378E+04  0.50400001928E-02 0.  1.
</event>
<event>
 5   0  0.5510176E-07  0.2403278E+04  0.7818609E-02  0.8438278E-01
        1   -1    0    0  501    0  0.00000000000E+00  0.00000000000E+00  0.54568737685E+03  0.54568737687E+03  0.50400001928E-02 0. -1.
       -1   -1    0    0    0  501  0.00000000000E+00  0.00000000000E+00 -0.26460860904E+04  0.26460860904E+04  0.50400001928E-02 0.  1.
    10030    2    1    2    0    0  0.00000000000E+00  0.00000000000E+00 -0.21003987135E+04  0.31917734673E+04  0.24032775767E+04 0.  0.
        3    1    3    3  502    0 -0.53031669465E+03 -0.10782845757E+04 -0.10522329616E+04  0.15972249805E+04  0.10100000352E+00 0.  1.
       -3    1    3    3    0  502  0.53031669465E+03  0.10782845757E+04 -0.10481657519E+04  0.15945484867E+04  0.10100000352E+00 0. -1.
</event>
<event>
 5   0  0.1336057E-06  0.2399767E+04  0.7818609E-02  0.8439591E-01
        2   -1    0    0  501    0  0.00000000000E+00  0.00000000000E+00  0.19291400324E+04  0.19291400324E+04  0.25500000920E-02 0.  1.
       -2   -1    0    0    0  501  0.00000000000E+00  0.00000000000E+00 -0.74630174523E+03  0.74630174523E+03  0.25500000920E-02 0. -1.
    10030    2    1    2    0    0  0.00000000000E+00  0.00000000000E+00  0.11828382872E+04  0.26754417777E+04  0.23997671329E+04 0.  0.
        2    1    3    3  502    0  0.35351907995E+03  0.11079772662E+04  0.92050807664E+03  0.14832142399E+04  0.25500000920E-02 0. -1.
       -2    1    3    3    0  502 -0.35351907995E+03 -0.11079772662E+04  0.26233021058E+03  0.11922275377E+04  0.25500000920E-02 0.  1.
</event>
<event>
 5   0  0.1308662E-06  0.2401650E+04  0.7818609E-02  0.8438886E-01
       -2   -1    0    0    0  501  0.00000000000E+00  0.00000000000E+00  0.68460998612E+03  0.68460998612E+03  0.25500000920E-02 0. -1.
        2   -1    0    0  501    0  0.00000000000E+00  0.00000000000E+00 -0.21062798047E+04  0.21062798047E+04  0.25500000920E-02 0.  1.
    10030    2    1    2    0    0  0.00000000000E+00  0.00000000000E+00 -0.14216698186E+04  0.27908897908E+04  0.24016495896E+04 0.  0.
        3    1    3    3  502    0 -0.31879208187E+03  0.45282336790E+03 -0.19490294818E+04  0.20261770222E+04  0.10100000352E+00 0.  1.
       -3    1    3    3    0  502  0.31879208187E+03 -0.45282336790E+03  0.52735966321E+03  0.76471276867E+03  0.10100000352E+00 0. -1.
</event>
<event>
 5   0  0.1307477E-06  0.2398849E+04  0.7818609E-02  0.8439935E-01
       -2   -1    0    0    0  501  0.00000000000E+00  0.00000000000E+00  0.86301164222E+03  0.86301164222E+03  0.25500000920E-02 0. -1.
        2   -1    0    0  501    0  0.00000000000E+00  0.00000000000E+00 -0.16669755104E+04  0.16669755104E+04  0.25500000920E-02 0.  1.
    10030    2    1    2    0    0  0.00000000000E+00  0.00000000000E+00 -0.80396386815E+03  0.25299871526E+04  0.23988491180E+04 0.  0.
        5    1    3    3  502    0  0.40619678299E+03  0.86404082524E+02 -0.15887217369E+04  0.16421085041E+04  0.46999998093E+01 0.  1.
       -5    1    3    3    0  502 -0.40619678299E+03 -0.86404082524E+02  0.78475786871E+03  0.88787864851E+03  0.46999998093E+01 0. -1.
</event>
<event>
 5   0  0.5363690E-07  0.2397882E+04  0.7818609E-02  0.8440297E-01
        1   -1    0    0  501    0  0.00000000000E+00  0.00000000000E+00  0.12568418687E+04  0.12568418687E+04  0.50400001928E-02 0.  1.
       -1   -1    0    0    0  501  0.00000000000E+00  0.00000000000E+00 -0.11437078915E+04  0.11437078915E+04  0.50400001928E-02 0. -1.
    10030    2    1    2    0    0  0.00000000000E+00  0.00000000000E+00  0.11313397715E+03  0.24005497602E+04  0.23978823688E+04 0.  0.
        4    1    3    3  502    0  0.44621325023E+03  0.66350539648E+03 -0.83779831428E+03  0.11581249087E+04  0.12699999809E+01 0. -1.
       -4    1    3    3    0  502 -0.44621325023E+03 -0.66350539648E+03  0.95093229143E+03  0.12424248515E+04  0.12699999809E+01 0.  1.
</event>
<event>
 5   0  0.5527286E-07  0.2400015E+04  0.7818609E-02  0.8439498E-01
       -1   -1    0    0    0  501  0.00000000000E+00  0.00000000000E+00  0.83784307042E+03  0.83784307044E+03  0.50400001928E-02 0. -1.
        1   -1    0    0  501    0  0.00000000000E+00  0.00000000000E+00 -0.17187210091E+04  0.17187210091E+04  0.50400001928E-02 0.  1.
    10030    2    1    2    0    0  0.00000000000E+00  0.00000000000E+00 -0.88087793870E+03  0.25565640796E+04  0.24000154062E+04 0.  0.
        1    1    3    3  502    0 -0.44321379935E+03 -0.34737071782E+03 -0.15692359108E+04  0.16672151125E+04  0.50400001928E-02 0.  1.
       -1    1    3    3    0  502  0.44321379935E+03  0.34737071782E+03  0.68835797208E+03  0.88934896710E+03  0.50400001928E-02 0. -1.
</event>
<event>
 5   0  0.5510176E-07  0.2399824E+04  0.7818609E-02  0.8439569E-01
        1   -1    0    0  501    0  0.00000000000E+00  0.00000000000E+00  0.11754991185E+04  0.11754991185E+04  0.50400001928E-02 0. -1.
       -1   -1    0    0    0  501  0.00000000000E+00  0.00000000000E+00 -0.12248319735E+04  0.12248319735E+04  0.50400001928E-02 0.  1.
    10030    2    1    2    0    0  0.00000000000E+00  0.00000000000E+00 -0.49332854996E+02  0.24003310921E+04  0.23998240813E+04 0.  0.
        3    1    3    3  502    0 -0.58285500669E+02 -0.26248012498E+02  0.11737948540E+04  0.11755341455E+04  0.10100000352E+00 0. -1.
       -3    1    3    3    0  502  0.58285500669E+02  0.26248012498E+02 -0.12231277090E+04  0.12247969466E+04  0.10100000352E+00 0.  1.
</event>
<event>
 5   0  0.1308662E-06  0.2399897E+04  0.7818609E-02  0.8439542E-01
        2   -1    0    0  501    0  0.00000000000E+00  0.00000000000E+00  0.21524631610E+04  0.21524631610E+04  0.25500000920E-02 0.  1.
       -2   -1    0    0    0  501  0.00000000000E+00  0.00000000000E+00 -0.66894331013E+03  0.66894331014E+03  0.25500000920E-02 0. -1.
    10030    2    1    2    0    0  0.00000000000E+00  0.00000000000E+00  0.14835198508E+04  0.28214064711E+04  0.23998965243E+04 0.  0.
        3    1    3    3  502    0 -0.10525071354E+04  0.24976432879E+03  0.13119536295E+03  0.10896631238E+04  0.10100000352E+00 0. -1.
       -3    1    3    3    0  502  0.10525071354E+04 -0.24976432879E+03  0.13523244879E+04  0.17317433472E+04  0.10100000352E+00 0.  1.
</event>
<event>
 5   0  0.1336057E-06  0.2400233E+04  0.7818609E-02  0.8439416E-01
        2   -1    0    0  501    0  0.00000000000E+00  0.00000000000E+00  0.21036230588E+04  0.21036230588E+04  0.25500000920E-02 0.  1.
       -2   -1    0    0    0  501  0.00000000000E+00  0.00000000000E+00 -0.68466602519E+03  0.68466602520E+03  0.25500000920E-02 0. -1.
    10030    2    1    2    0    0  0.00000000000E+00  0.00000000000E+00  0.14189570336E+04  0.27882890840E+04  0.24002326872E+04 0.  0.
        2    1    3    3  502    0 -0.79284378814E+03  0.69115388145E+03  0.13808261533E+04  0.17357925641E+04  0.25500000920E-02 0.  1.
       -2    1    3    3    0  502  0.79284378814E+03 -0.69115388145E+03  0.38130880339E+02  0.10524965198E+04  0.25500000920E-02 0. -1.
</event>
<event>
 5   0  0.5690124E-07  0.2390044E+04  0.7818609E-02  0.8443240E-01
        1   -1    0    0  501    0  0.00000000000E+00  0.00000000000E+00  0.10317868324E+04  0.10317868324E+04  0.50400001928E-02 0. -1.
       -1   -1    0    0    0  501  0.00000000000E+00  0.00000000000E+00 -0.13840816705E+04  0.13840816706E+04  0.50400001928E-02 0.  1.
    10030    2    1    2    0    0  0.00000000000E+00  0.00000000000E+00 -0.35229483818E+03  0.24158685029E+04  0.23900437173E+04 0.  0.
        2    1    3    3  502    0  0.10636245732E+04 -0.22694559704E+03  0.32445704034E+03  0.11349334376E+04  0.25500000920E-02 0. -1.
       -2    1    3    3    0  502 -0.10636245732E+04  0.22694559704E+03 -0.67675187852E+03  0.12809350654E+04  0.25500000920E-02 0.  1.
</event>
<event>
 5   0  0.5690124E-07  0.2400101E+04  0.7818609E-02  0.8439466E-01
        1   -1    0    0  501    0  0.00000000000E+00  0.00000000000E+00  0.19362582637E+04  0.19362582637E+04  0.50400001928E-02 0. -1.
       -1   -1    0    0    0  501  0.00000000000E+00  0.00000000000E+00 -0.74376526535E+03  0.74376526537E+03  0.50400001928E-02 0.  1.
    10030    2    1    2    0    0  0.00000000000E+00  0.00000000000E+00  0.11924929983E+04  0.26800235290E+04  0.24001013656E+04 0.  0.
        2    1    3    3  502    0 -0.10824861766E+04 -0.19440420063E+03  0.11324057163E+04  0.15785791150E+04  0.25500000920E-02 0. -1.
       -2    1    3    3    0  502  0.10824861766E+04  0.19440420063E+03  0.60087281977E+02  0.11014444141E+04  0.25500000920E-02 0.  1.
</event>
<event>
 5   0  0.1275948E-06  0.2396972E+04  0.7818609E-02  0.8440638E-01
       -2   -1    0    0    0  501  0.00000000000E+00  0.00000000000E+00  0.65169659241E+03  0.65169659241E+03  0.25500000920E-02 0. -1.
        2   -1    0    0  501    0  0.00000000000E+00  0.00000000000E+00 -0.22040456419E+04  0.22040456419E+04  0.25500000920E-02 0.  1.
    10030    2    1    2    0    0  0.00000000000E+00  0.00000000000E+00 -0.15523490495E+04  0.28557422343E+04  0.23969722855E+04 0.  0.
        1    1    3    3  502    0 -0.53430974406E+03  0.89513572256E+03 -0.14806250626E+04  0.18108024300E+04  0.50400001928E-02 0.  1.
       -1    1    3    3    0  502  0.53430974406E+03 -0.89513572256E+03 -0.71723986918E+02  0.10449398044E+04  0.50400001928E-02 0. -1.
</event>
<event>
 5   0  0.5510176E-07  0.2399635E+04  0.7818609E-02  0.8439640E-01
       -1   -1    0    0    0  501  0.00000000000E+00  0.00000000000E+00  0.10586160062E+04  0.10586160062E+04  0.50400001928E-02 0. -1.
        1   -1    0    0  501    0  0.00000000000E+00  0.00000000000E+00 -0.13598533163E+04  0.13598533163E+04  0.50400001928E-02 0.  1.
    10030    2    1    2    0    0  0.00000000000E+00  0.00000000000E+00 -0.30123731006E+03  0.24184693225E+04  0.23996353779E+04 0.  0.
        3    1    3    3  502    0 -0.15035633028E+03 -0.37625991577E+03 -0.12888113563E+04  0.13510045421E+04  0.10100000352E+00 0.  1.
       -3    1    3    3    0  502  0.15035633028E+03  0.37625991577E+03  0.98757404629E+03  0.10674647804E+04  0.10100000352E+00 0. -1.
</event>
<event>
 5   0  0.1275948E-06  0.2400443E+04  0.7818609E-02  0.8439338E-01
       -2   -1    0    0    0  501  0.00000000000E+00  0.00000000000E+00  0.97959791922E+03  0.97959791923E+03  0.25500000920E-02 0. -1.
        2   -1    0    0  501    0  0.00000000000E+00  0.00000000000E+00 -0.14705340303E+04  0.14705340303E+04  0.25500000920E-02 0.  1.
    10030    2    1    2    0    0  0.00000000000E+00  0.00000000000E+00 -0.49093611106E+03  0.24501319495E+04  0.24004433559E+04 0.  0.
        1    1    3    3  502    0 -0.41246121808E+03  0.46986066250E+03 -0.12911941485E+04  0.14345994660E+04  0.50400001928E-02 0.  1.
       -1    1    3    3    0  502  0.41246121808E+03 -0.46986066250E+03  0.80025803745E+03  0.10155324835E+04  0.50400001928E-02 0. -1.
</event>
<event>
 5   0  0.5690124E-07  0.2402430E+04  0.7818609E-02  0.8438594E-01
       -1   -1    0    0    0  501  0.00000000000E+00  0.00000000000E+00  0.85867851153E+03  0.85867851154E+03  0.50400001928E-02 0. -1.
        1   -1    0    0  501    0  0.00000000000E+00  0.00000000000E+00 -0.16803937984E+04  0.16803937984E+04  0.50400001928E-02 0.  1.
    10030    2    1    2    0    0  0.00000000000E+00  0.00000000000E+00 -0.82171528687E+03  0.25390723100E+04  0.24024304740E+04 0.  0.
        2    1    3    3  502    0  0.24203046611E+03 -0.27009123837E+03 -0.16211496881E+04  0.16612207363E+04  0.25500000920E-02 0.  1.
       -2    1    3    3    0  502 -0.24203046611E+03  0.27009123837E+03  0.79943440119E+03  0.87785157366E+03  0.25500000920E-02 0. -1.
</event>
<event>
 5   0  0.5363690E-07  0.2399915E+04  0.7818609E-02  0.8439535E-01
        1   -1    0    0  501    0  0.00000000000E+00  0.00000000000E+00  0.13531332910E+04  0.13531332910E+04  0.50400001928E-02 0. -1.
       -1   -1    0    0    0  501  0.00000000000E+00  0.00000000000E+00 -0.10641214119E+04  0.10641214119E+04  0.50400001928E-02 0.  1.
    10030    2    1    2    0    0  0.00000000000E+00  0.00000000000E+00  0.28901187909E+03  0.24172547028E+04  0.23999150885E+04 0.  0.
        4    1    3    3  502    0 -0.60193355112E+03 -0.98979040415E+03  0.45963615577E+03  0.12463049598E+04  0.12699999809E+01 0.  1.
       -4    1    3    3    0  502  0.60193355112E+03  0.98979040415E+03 -0.17062427668E+03  0.11709497431E+04  0.12699999809E+01 0. -1.
</event>
<event>
 5   0  0.1291468E-06  0.2399619E+04  0.7818609E-02  0.8439646E-01
        2   -1    0    0  501    0  0.00000000000E+00  0.00000000000E+00  0.14894543999E+04  0.14894543999E+04  0.25500000920E-02 0. -1.
       -2   -1    0    0    0  501  0.00000000000E+00  0.00000000000E+00 -0.96649022735E+03  0.96649022735E+03  0.25500000920E-02 0.  1.
    10030    2    1    2    0    0  0.00000000000E+00  0.00000000000E+00  0.52296417250E+03  0.24559446272E+04  0.23996192377E+04 0.  0.
        4    1    3    3  502    0 -0.90080470872E+03 -0.60086579182E+03  0.79038347904E+03  0.13405955691E+04  0.12699999809E+01 0. -1.
       -4    1    3    3    0  502  0.90080470872E+03  0.60086579182E+03 -0.26741930654E+03  0.11153490581E+04  0.12699999809E+01 0.  1.
</event>
<event>
 5   0  0.1336057E-06  0.2400741E+04  0.7818609E-02  0.8439226E-01
        2   -1    0    0  501    0  0.00000000000E+00  0.00000000000E+00  0.14986103321E+04  0.14986103321E+04  0.25500000920E-02 0.  1.
       -2   -1    0    0    0  501  0.00000000000E+00  0.00000000000E+00 -0.96148357812E+03  0.96148357813E+03  0.25500000920E-02 0. -1.
    10030    2    1    2    0    0  0.00000000000E+00  0.00000000000E+00  0.53712675396E+03  0.24600939102E+04  0.24007409059E+04 0.  0.
        2    1    3    3  502    0  0.24394633569E+03  0.16699709859E+03  0.14607222635E+04  0.14903380075E+04  0.25500000920E-02 0.  1.
       -2    1    3    3    0  502 -0.24394633569E+03 -0.16699709859E+03 -0.92359550951E+03  0.96975590270E+03  0.25500000920E-02 0. -1.
</event>
<event>
 5   0  0.5452384E-07  0.2400302E+04  0.7818609E-02  0.8439391E-01
        1   -1    0    0  501    0  0.00000000000E+00  0.00000000000E+00  0.46469326261E+03  0.46469326263E+03  0.50400001928E-02 0.  1.
       -1   -1    0    0    0  501  0.00000000000E+00  0.00000000000E+00 -0.30995976195E+04  0.30995976195E+04  0.50400001928E-02 0. -1.
    10030    2    1    2    0    0  0.00000000000E+00  0.00000000000E+00 -0.26349043568E+04  0.35642908821E+04  0.24003017565E+04 0.  0.
        5    1    3    3  502    0  0.17613481063E+03  0.44844397697E+03  0.31477021064E+03  0.57552397648E+03  0.46999998093E+01 0.  1.
       -5    1    3    3    0  502 -0.17613481063E+03 -0.44844397697E+03 -0.29496745675E+04  0.29887669056E+04  0.46999998093E+01 0. -1.
</event>
<event>
 5   0  0.1307477E-06  0.2402552E+04  0.7818609E-02  0.8438549E-01
        2   -1    0    0  501    0  0.00000000000E+00  0.00000000000E+00  0.12631482333E+04  0.12631482333E+04  0.25500000920E-02 0. -1.
       -2   -1    0    0    0  501  0.00000000000E+00  0.00000000000E+00 -0.11424348231E+04  0.11424348231E+04  0.25500000920E-02 0.  1.
    10030    2    1    2    0    0  0.00000000000E+00  0.00000000000E+00  0.12071341019E+03  0.24055830563E+04  0.24025524164E+04 0.  0.
        5    1    3    3  502    0 -0.36129221455E+03 -0.56809714485E+02 -0.10853257285E+04  0.11453005872E+04  0.46999998093E+01 0.  1.
       -5    1    3    3    0  502  0.36129221455E+03  0.56809714485E+02  0.12060391387E+04  0.12602824692E+04  0.46999998093E+01 0. -1.
</event>
<event>
 5   0  0.1336057E-06  0.2399314E+04  0.7818609E-02  0.8439760E-01
       -2   -1    0    0    0  501  0.00000000000E+00  0.00000000000E+00  0.82266747364E+03  0.82266747364E+03  0.25500000920E-02 0.  1.
        2   -1    0    0  501    0  0.00000000000E+00  0.00000000000E+00 -0.17494027047E+04  0.17494027047E+04  0.25500000920E-02 0. -1.
    10030    2    1    2    0    0  0.00000000000E+00  0.00000000000E+00 -0.92673523106E+03  0.25720701783E+04  0.23993138215E+04 0.  0.
        2    1    3    3  502    0  0.29719280889E+03  0.19282885187E+03 -0.16920480077E+04  0.17287373983E+04  0.25500000920E-02 0. -1.
       -2    1    3    3    0  502 -0.29719280889E+03 -0.19282885187E+03  0.76531277667E+03  0.84333278005E+03  0.25500000920E-02 0.  1.
</event>
<event>
 5   0  0.4483375E-07  0.2398904E+04  0.7818609E-02  0.8439914E-01
       -4   -1    0    0    0  501  0.00000000000E+00  0.00000000000E+00  0.14190959597E+04  0.14190965279E+04  0.12699999809E+01 0.  1.
        4   -1    0    0  501    0  0.00000000000E+00  0.00000000000E+00 -0.10138024320E+04  0.10138032275E+04  0.12699999809E+01 0. -1.
    10030    2    1    2    0    0  0.00000000000E+00  0.00000000000E+00  0.40529352765E+03  0.24328997554E+04  0.23989035780E+04 0.  0.
        1    1    3    3  502    0  0.68241884419E+03 -0.82997230848E+02  0.11994801908E+04  0.13825110297E+04  0.50400001928E-02 0.  1.
       -1    1    3    3    0  502 -0.68241884419E+03  0.82997230848E+02 -0.79418666310E+03  0.10503887257E+04  0.50400001928E-02 0. -1.
</event>
<event>
 5   0  0.5510176E-07  0.2399831E+04  0.7818609E-02  0.8439567E-01
        1   -1    0    0  501    0  0.00000000000E+00  0.00000000000E+00  0.15039139650E+04  0.15039139650E+04  0.50400001928E-02 0.  1.
       -1   -1    0    0    0  501  0.00000000000E+00  0.00000000000E+00 -0.95736697393E+03  0.95736697395E+03  0.50400001928E-02 0. -1.
    10030    2    1    2    0    0  0.00000000000E+00  0.00000000000E+00  0.54654699105E+03  0.24612809389E+04  0.23998312955E+04 0.  0.
        3    1    3    3  502    0 -0.69767404756E+03 -0.67575372890E+03 -0.44932776115E+03  0.10701811183E+04  0.10100000352E+00 0. -1.
       -3    1    3    3    0  502  0.69767404756E+03  0.67575372890E+03  0.99587475220E+03  0.13910998207E+04  0.10100000352E+00 0.  1.
</event>
<event>
 5   0  0.1275948E-06  0.2400520E+04  0.7818609E-02  0.8439309E-01
        2   -1    0    0  501    0  0.00000000000E+00  0.00000000000E+00  0.16388251347E+04  0.16388251347E+04  0.25500000920E-02 0. -1.
       -2   -1    0    0    0  501  0.00000000000E+00  0.00000000000E+00 -0.87905909356E+03  0.87905909357E+03  0.25500000920E-02 0.  1.
    10030    2    1    2    0    0  0.00000000000E+00  0.00000000000E+00  0.75976604109E+03  0.25178842282E+04  0.24005200581E+04 0.  0.
        1    1    3    3  502    0  0.72099260476E+02 -0.96389339961E+03  0.11262450586E+04  0.14841552214E+04  0.50400001928E-02 0. -1.
       -1    1    3    3    0  502 -0.72099260476E+02  0.96389339961E+03 -0.36647901754E+03  0.10337290068E+04  0.50400001928E-02 0.  1.
</event>
<event>
 5   0  0.5510176E-07  0.2401344E+04  0.7818609E-02  0.8439001E-01
       -1   -1    0    0    0  501  0.00000000000E+00  0.00000000000E+00  0.15058462339E+04  0.15058462339E+04  0.50400001928E-02 0. -1.
        1   -1    0    0  501    0  0.00000000000E+00  0.00000000000E+00 -0.95734416928E+03  0.95734416930E+03  0.50400001928E-02 0.  1.
    10030    2    1    2    0    0  0.00000000000E+00  0.00000000000E+00  0.54850206461E+03  0.24631904032E+04  0.24013438837E+04 0.  0.
        3    1    3    3  502    0  0.42506200331E+03  0.29325313065E+03 -0.83761151314E+03  0.98400618008E+03  0.10100000352E+00 0.  1.
       -3    1    3    3    0  502 -0.42506200331E+03 -0.29325313065E+03  0.13861135778E+04  0.14791842231E+04  0.10100000352E+00 0. -1.
</event>
<event>
 5   0  0.1336057E-06  0.2400439E+04  0.7818609E-02  0.8439339E-01
       -2   -1    0    0    0  501  0.00000000000E+00  0.00000000000E+00  0.11392991997E+04  0.11392991997E+04  0.25500000920E-02 0.  1.
        2   -1    0    0  501    0  0.00000000000E+00  0.00000000000E+00 -0.12643977474E+04  0.12643977474E+04  0.25500000920E-02 0. -1.
    10030    2    1    2    0    0  0.00000000000E+00  0.00000000000E+00 -0.12509854776E+03  0.24036969471E+04  0.24004394112E+04 0.  0.
        2    1    3    3  502    0 -0.30288212374E+03  0.59841556198E+03  0.93413485088E+03  0.11499768195E+04  0.25500000920E-02 0.  1.
       -2    1    3    3    0  502  0.30288212374E+03 -0.59841556198E+03 -0.10592333986E+04  0.12537201277E+04  0.25500000920E-02 0. -1.
</event>
<event>
 5   0  0.1308662E-06  0.2394215E+04  0.7818609E-02  0.8441672E-01
        2   -1    0    0  501    0  0.00000000000E+00  0.00000000000E+00  0.18208856556E+04  0.18208856556E+04  0.25500000920E-02 0.  1.
       -2   -1    0    0    0  501  0.00000000000E+00  0.00000000000E+00 -0.78701622408E+03  0.78701622408E+03  0.25500000920E-02 0. -1.
    10030    2    1    2    0    0  0.00000000000E+00  0.00000000000E+00  0.10338694315E+04  0.26079018797E+04  0.23942151559E+04 0.  0.
        3    1    3    3  502    0  0.17085408074E+03  0.38233412179E+03 -0.70462842353E+03  0.81967781660E+03  0.10100000352E+00 0. -1.
       -3    1    3    3    0  502 -0.17085408074E+03 -0.38233412179E+03  0.17384978550E+04  0.17882240631E+04  0.10100000352E+00 0.  1.
</event>
<event>
 5   0  0.1275948E-06  0.2404188E+04  0.7818609E-02  0.8437937E-01
       -2   -1    0    0    0  501  0.00000000000E+00  0.00000000000E+00  0.78729554318E+03  0.78729554318E+03  0.25500000920E-02 0. -1.
        2   -1    0    0  501    0  0.00000000000E+00  0.00000000000E+00 -0.18354356512E+04  0.18354356512E+04  0.25500000920E-02 0.  1.
    10030    2    1    2    0    0  0.00000000000E+00  0.00000000000E+00 -0.10481401080E+04  0.26227311944E+04  0.24041882688E+04 0.  0.
        1    1    3    3  502    0  0.48476875355E+03 -0.24833568541E+03  0.64495585893E+03  0.84417973030E+03  0.50400001928E-02 0. -1.
       -1    1    3    3    0  502 -0.48476875355E+03  0.24833568541E+03 -0.16930959670E+04  0.17785514641E+04  0.50400001928E-02 0.  1.
</event>
<event>
 5   0  0.1307477E-06  0.2405310E+04  0.7818609E-02  0.8437518E-01
       -2   -1    0    0    0  501  0.00000000000E+00  0.00000000000E+00  0.15010331230E+04  0.15010331230E+04  0.25500000920E-02 0. -1.
        2   -1    0    0  501    0  0.00000000000E+00  0.00000000000E+00 -0.96358906124E+03  0.96358906124E+03  0.25500000920E-02 0.  1.
    10030    2    1    2    0    0  0.00000000000E+00  0.00000000000E+00  0.53744406175E+03  0.24646221842E+04  0.24053100406E+04 0.  0.
        5    1    3    3  502    0  0.17099061294E+03 -0.16822122348E+02 -0.95093891187E+03  0.96634759669E+03  0.46999998093E+01 0.  1.
       -5    1    3    3    0  502 -0.17099061294E+03  0.16822122348E+02  0.14883829736E+04  0.14982745875E+04  0.46999998093E+01 0. -1.
</event>
<event>
 5   0  0.5363690E-07  0.2401150E+04  0.7818609E-02  0.8439073E-01
        1   -1    0    0  501    0  0.00000000000E+00  0.00000000000E+00  0.13718333467E+04  0.13718333467E+04  0.50400001928E-02 0. -1.
       -1   -1    0    0    0  501  0.00000000000E+00  0.00000000000E+00 -0.10506965297E+04  0.10506965297E+04  0.50400001928E-02 0.  1.
    10030    2    1    2    0    0  0.00000000000E+00  0.00000000000E+00  0.32113681705E+03  0.24225298764E+04  0.24011501717E+04 0.  0.
        4    1    3    3  502    0  0.28388724076E+03 -0.52804273975E+03 -0.88886524026E+03  0.10721493034E+04  0.12699999809E+01 0.  1.
       -4    1    3    3    0  502 -0.28388724076E+03  0.52804273975E+03  0.12100020573E+04  0.13503805730E+04  0.12699999809E+01 0. -1.
</event>
<event>
 5   0  0.5452384E-07  0.2400917E+04  0.7818609E-02  0.8439160E-01
       -1   -1    0    0    0  501  0.00000000000E+00  0.00000000000E+00  0.13674589607E+04  0.13674589607E+04  0.50400001928E-02 0.  1.
        1   -1    0    0  501    0  0.00000000000E+00  0.00000000000E+00 -0.10538529946E+04  0.10538529946E+04  0.50400001928E-02 0. -1.
    10030    2    1    2    0    0  0.00000000000E+00  0.00000000000E+00  0.31360596603E+03  0.24213119553E+04  0.24009170921E+04 0.  0.
        5    1    3    3  502    0  0.30921278807E+03  0.23157525435E+03  0.13030488325E+04  0.13591166236E+04  0.46999998093E+01 0.  1.
       -5    1    3    3    0  502 -0.30921278807E+03 -0.23157525435E+03 -0.98944286645E+03  0.10621953317E+04  0.46999998093E+01 0. -1.
</event>
<event>
 5   0  0.1291468E-06  0.2400568E+04  0.7818609E-02  0.8439291E-01
        2   -1    0    0  501    0  0.00000000000E+00  0.00000000000E+00  0.27023807162E+04  0.27023807162E+04  0.25500000920E-02 0. -1.
       -2   -1    0    0    0  501  0.00000000000E+00  0.00000000000E+00 -0.53311583379E+03  0.53311583380E+03  0.25500000920E-02 0.  1.
    10030    2    1    2    0    0  0.00000000000E+00  0.00000000000E+00  0.21692648825E+04  0.32354965500E+04  0.24005682234E+04 0.  0.
        4    1    3    3  502    0 -0.11486170372E+04 -0.45503696200E+02  0.61912518805E+03  0.13056451647E+04  0.12699999809E+01 0.  1.
       -4    1    3    3    0  502  0.11486170372E+04  0.45503696200E+02  0.15501396944E+04  0.19298513854E+04  0.12699999809E+01 0. -1.
</event>
<event>
 5   0  0.5363690E-07  0.2418908E+04  0.7818609E-02  0.8432459E-01
       -1   -1    0    0    0  501  0.00000000000E+00  0.00000000000E+00  0.32385375293E+04  0.32385375293E+04  0.50400001928E-02 0. -1.
        1   -1    0    0  501    0  0.00000000000E+00  0.00000000000E+00 -0.45167876676E+03  0.45167876679E+03  0.50400001928E-02 0.  1.
    10030    2    1    2    0    0  0.00000000000E+00  0.00000000000E+00  0.27868587625E+04  0.36902162961E+04  0.24189077183E+04 0.  0.
        4    1    3    3  502    0 -0.37023266949E+03  0.91349815197E+03  0.32419439691E+03  0.10376197392E+04  0.12699999809E+01 0.  1.
       -4    1    3    3    0  502  0.37023266949E+03 -0.91349815197E+03  0.24626643656E+04  0.26525965569E+04  0.12699999809E+01 0. -1.
</event>
<event>
 5   0  0.5527286E-07  0.2400698E+04  0.7818609E-02  0.8439242E-01
       -1   -1    0    0    0  501  0.00000000000E+00  0.00000000000E+00  0.12538995703E+04  0.12538995703E+04  0.50400001928E-02 0. -1.
        1   -1    0    0  501    0  0.00000000000E+00  0.00000000000E+00 -0.11490851576E+04  0.11490851576E+04  0.50400001928E-02 0.  1.
    10030    2    1    2    0    0  0.00000000000E+00  0.00000000000E+00  0.10481441271E+03  0.24029847279E+04  0.24006977197E+04 0.  0.
        1    1    3    3  502    0 -0.18994008698E+03  0.17773194813E+03  0.12253475434E+04  0.12526541758E+04  0.50400001928E-02 0. -1.
       -1    1    3    3    0  502  0.18994008698E+03 -0.17773194813E+03 -0.11205331307E+04  0.11503305521E+04  0.50400001928E-02 0.  1.
</event>
<event>
 5   0  0.1275948E-06  0.2399814E+04  0.7818609E-02  0.8439573E-01
        2   -1    0    0  501    0  0.00000000000E+00  0.00000000000E+00  0.21088690681E+04  0.21088690681E+04  0.25500000920E-02 0. -1.
       -2   -1    0    0    0  501  0.00000000000E+00  0.00000000000E+00 -0.68272485113E+03  0.68272485113E+03  0.25500000920E-02 0.  1.
    10030    2    1    2    0    0  0.00000000000E+00  0.00000000000E+00  0.14261442170E+04  0.27915939193E+04  0.23998144267E+04 0.  0.
        1    1    3    3  502    0 -0.11008353281E+04 -0.20553280360E+03  0.12143457688E+04  0.16518831070E+04  0.50400001928E-02 0.  1.
       -1    1    3    3    0  502  0.11008353281E+04  0.20553280360E+03  0.21179844823E+03  0.11397108123E+04  0.50400001928E-02 0. -1.
</event>
<event>
 5   0  0.5452384E-07  0.2400269E+04  0.7818609E-02  0.8439403E-01
       -1   -1    0    0    0  501  0.00000000000E+00  0.00000000000E+00  0.12373106022E+04  0.12373106022E+04  0.50400001928E-02 0. -1.
        1   -1    0    0  501    0  0.00000000000E+00  0.00000000000E+00 -0.11640754863E+04  0.11640754863E+04  0.50400001928E-02 0.  1.
    10030    2    1    2    0    0  0.00000000000E+00  0.00000000000E+00  0.73235115907E+02  0.24013860884E+04  0.24002691023E+04 0.  0.
        5    1    3    3  502    0  0.30934016774E+03  0.57266445216E+03 -0.97214970196E+03  0.11699286505E+04  0.46999998093E+01 0.  1.
       -5    1    3    3    0  502 -0.30934016774E+03 -0.57266445216E+03  0.10453848179E+04  0.12314574380E+04  0.46999998093E+01 0. -1.
</event>
<event>
 5   0  0.1291468E-06  0.2399661E+04  0.7818609E-02  0.8439630E-01
       -2   -1    0    0    0  501  0.00000000000E+00  0.00000000000E+00  0.64452401516E+03  0.64452401516E+03  0.25500000920E-02 0.  1.
        2   -1    0    0  501    0  0.00000000000E+00  0.00000000000E+00 -0.22335757561E+04  0.22335757561E+04  0.25500000920E-02 0. -1.
    10030    2    1    2    0    0  0.00000000000E+00  0.00000000000E+00 -0.15890517409E+04  0.28780997713E+04  0.23996609881E+04 0.  0.
        4    1    3    3  502    0 -0.75907647556E+03  0.53467105241E+02 -0.19071293625E+04  0.20533387069E+04  0.12699999809E+01 0. -1.
       -4    1    3    3    0  502  0.75907647556E+03 -0.53467105241E+02  0.31807762153E+03  0.82476106438E+03  0.12699999809E+01 0.  1.
</event>
<event>
 5   0  0.1275948E-06  0.2402802E+04  0.7818609E-02  0.8438455E-01
       -2   -1    0    0    0  501  0.00000000000E+00  0.00000000000E+00  0.61879882208E+03  0.61879882208E+03  0.25500000920E-02 0. -1.
        2   -1    0    0  501    0  0.00000000000E+00  0.00000000000E+00 -0.23325255978E+04  0.23325255978E+04  0.25500000920E-02 0.  1.
    10030    2    1    2    0    0  0.00000000000E+00  0.00000000000E+00 -0.17137267757E+04  0.29513244199E+04  0.24028017749E+04 0.  0.
        1    1    3    3  502    0 -0.30131346138E+03  0.24576876480E+03  0.53937370374E+03  0.66491810027E+03  0.50400001928E-02 0. -1.
       -1    1    3    3    0  502  0.30131346138E+03 -0.24576876480E+03 -0.22531004795E+04  0.22864063196E+04  0.50400001928E-02 0.  1.
</event>
<event>
 5   0  0.1308662E-06  0.2400975E+04  0.7818609E-02  0.8439139E-01
        2   -1    0    0  501    0  0.00000000000E+00  0.00000000000E+00  0.12442230674E+04  0.12442230674E+04  0.25500000920E-02 0. -1.
       -2   -1    0    0    0  501  0.00000000000E+00  0.00000000000E+00 -0.11582889094E+04  0.11582889094E+04  0.25500000920E-02 0.  1.
    10030    2    1    2    0    0  0.00000000000E+00  0.00000000000E+00  0.85934157974E+02  0.24025119768E+04  0.24009746186E+04 0.  0.
        3    1    3    3  502    0  0.35413541126E+03  0.97035177736E+03  0.65505746032E+03  0.12231495198E+04  0.10100000352E+00 0. -1.
       -3    1    3    3    0  502 -0.35413541126E+03 -0.97035177736E+03 -0.56912330235E+03  0.11793624569E+04  0.10100000352E+00 0.  1.
</event>
<event>
 5   0  0.1336057E-06  0.2399741E+04  0.7818609E-02  0.8439601E-01
       -2   -1    0    0    0  501  0.00000000000E+00  0.00000000000E+00  0.75383476110E+03  0.75383476110E+03  0.25500000920E-02 0.  1.
        2   -1    0    0  501    0  0.00000000000E+00  0.00000000000E+00 -0.19098207987E+04  0.19098207987E+04  0.25500000920E-02 0. -1.
    10030    2    1    2    0    0  0.00000000000E+00  0.00000000000E+00 -0.11559860376E+04  0.26636555598E+04  0.23997410740E+04 0.  0.
        2    1    3    3  502    0  0.70499918015E+03 -0.70221748414E+03  0.16623430597E+03  0.10088444298E+04  0.25500000920E-02 0.  1.
       -2    1    3    3    0  502 -0.70499918015E+03  0.70221748414E+03 -0.13222203436E+04  0.16548111300E+04  0.25500000920E-02 0. -1.
</event>
<event>
 5   0  0.1275948E-06  0.2394771E+04  0.7818609E-02  0.8441464E-01
       -2   -1    0    0    0  501  0.00000000000E+00  0.00000000000E+00  0.63303936783E+03  0.63303936783E+03  0.25500000920E-02 0.  1.
        2   -1    0    0  501    0  0.00000000000E+00  0.00000000000E+00 -0.22648394736E+04  0.22648394736E+04  0.25500000920E-02 0. -1.
    10030    2    1    2    0    0  0.00000000000E+00  0.00000000000E+00 -0.16318001058E+04  0.28978788415E+04  0.23947714285E+04 0.  0.
        1    1    3    3  502    0  0.20912336092E+03  0.37183301729E+03 -0.21697584772E+04  0.22112992159E+04  0.50400001928E-02 0. -1.
       -1    1    3    3    0  502 -0.20912336092E+03 -0.37183301729E+03  0.53795837141E+03  0.68657962555E+03  0.50400001928E-02 0.  1.
</event>
<event>
 5   0  0.1307477E-06  0.2399481E+04  0.7818609E-02  0.8439698E-01
       -2   -1    0    0    0  501  0.00000000000E+00  0.00000000000E+00  0.68622516964E+03  0.68622516965E+03  0.25500000920E-02 0.  1.
        2   -1    0    0  501    0  0.00000000000E+00  0.00000000000E+00 -0.20975284097E+04  0.20975284098E+04  0.25500000920E-02 0. -1.
    10030    2    1    2    0    0  0.00000000000E+00  0.00000000000E+00 -0.14113032401E+04  0.27837535794E+04  0.23994806011E+04 0.  0.
        5    1    3    3  502    0 -0.22583862741E+03 -0.11712847988E+04 -0.55688307472E+03  0.13164543343E+04  0.46999998093E+01 0.  1.
       -5    1    3    3    0  502  0.22583862741E+03  0.11712847988E+04 -0.85442016539E+03  0.14672992451E+04  0.46999998093E+01 0. -1.
</event>
<event>
 5   0  0.1336057E-06  0.2400416E+04  0.7818609E-02  0.8439348E-01
        2   -1    0    0  501    0  0.00000000000E+00  0.00000000000E+00  0.25195429182E+04  0.25195429182E+04  0.25500000920E-02 0. -1.
       -2   -1    0    0    0  501  0.00000000000E+00  0.00000000000E+00 -0.57173059657E+03  0.57173059657E+03  0.25500000920E-02 0.  1.
    10030    2    1    2    0    0  0.00000000000E+00  0.00000000000E+00  0.19478123216E+04  0.30912735148E+04  0.24004164436E+04 0.  0.
        2    1    3    3  502    0  0.97498280884E+03 -0.67618494833E+03  0.12067188104E+04  0.16923320741E+04  0.25500000920E-02 0. -1.
       -2    1    3    3    0  502 -0.97498280884E+03  0.67618494833E+03  0.74109351128E+03  0.13989414406E+04  0.25500000920E-02 0.  1.
</event>
<event>
 5   0  0.5510176E-07  0.2399496E+04  0.7818609E-02  0.8439692E-01
        1   -1    0    0  501    0  0.00000000000E+00  0.00000000000E+00  0.12884456993E+04  0.12884456993E+04  0.50400001928E-02 0.  1.
       -1   -1    0    0    0  501  0.00000000000E+00  0.00000000000E+00 -0.11171566918E+04  0.11171566918E+04  0.50400001928E-02 0. -1.
    10030    2    1    2    0    0  0.00000000000E+00  0.00000000000E+00  0.17128900745E+03  0.24056023911E+04  0.23994963930E+04 0.  0.
        3    1    3    3  502    0  0.58764476148E+02 -0.11978879709E+04  0.53832537421E+02  0.12005360498E+04  0.10100000352E+00 0. -1.
       -3    1    3    3    0  502 -0.58764476148E+02  0.11978879709E+04  0.11745647003E+03  0.12050663414E+04  0.10100000352E+00 0.  1.
</event>
<event>
 5   0  0.5527286E-07  0.2399638E+04  0.7818609E-02  0.8439639E-01
       -1   -1    0    0    0  501  0.00000000000E+00  0.00000000000E+00  0.12949654737E+04  0.12949654738E+04  0.50400001928E-02 0. -1.
        1   -1    0    0  501    0  0.00000000000E+00  0.00000000000E+00 -0.11116629177E+04  0.11116629177E+04  0.50400001928E-02 0.  1.
    10030    2    1    2    0    0  0.00000000000E+00  0.00000000000E+00  0.18330255609E+03  0.24066283914E+04  0.23996375533E+04 0.  0.
        1    1    3    3  502    0  0.52502025559E+03  0.10657354573E+04  0.25985022158E+03  0.12161251874E+04  0.50400001928E-02 0. -1.
       -1    1    3    3    0  502 -0.52502025559E+03 -0.10657354573E+04 -0.76547665487E+02  0.11905032040E+04  0.50400001928E-02 0.  1.
</event>
<event>
 5   0  0.1291468E-06  0.2395495E+04  0.7818609E-02  0.8441192E-01
        2   -1    0    0  501    0  0.00000000000E+00  0.00000000000E+00  0.14491928091E+04  0.14491928092E+04  0.25500000920E-02 0.  1.
       -2   -1    0    0    0  501  0.00000000000E+00  0.00000000000E+00 -0.98992983336E+03  0.98992983336E+03  0.25500000920E-02 0. -1.
    10030    2    1    2    0    0  0.00000000000E+00  0.00000000000E+00  0.45926297579E+03  0.24391226425E+04  0.23954951021E+04 0.  0.
        4    1    3    3  502    0  0.50035521141E+03  0.10070354390E+04  0.64960163931E+03  0.12986375998E+04  0.12699999809E+01 0.  1.
       -4    1    3    3    0  502 -0.50035521141E+03 -0.10070354390E+04 -0.19033866352E+03  0.11404850427E+04  0.12699999809E+01 0. -1.
</event>
<event>
 5   0  0.1307477E-06  0.2401456E+04  0.7818609E-02  0.8438959E-01
        2   -1    0    0  501    0  0.00000000000E+00  0.00000000000E+00  0.19710078446E+04  0.19710078446E+04  0.25500000920E-02 0.  1.
       -2   -1    0    0    0  501  0.00000000000E+00  0.00000000000E+00 -0.73147741208E+03  0.73147741209E+03  0.25500000920E-02 0. -1.
    10030    2    1    2    0    0  0.00000000000E+00  0.00000000000E+00  0.12395304325E+04  0.27024852567E+04  0.24014559895E+04 0.  0.
        5    1    3    3  502    0  0.77731560897E+03 -0.41709359369E+03  0.15364540268E+04  0.17716940166E+04  0.46999998093E+01 0.  1.
       -5    1    3    3    0  502 -0.77731560897E+03  0.41709359369E+03 -0.29692359429E+03  0.93079124013E+03  0.46999998093E+01 0. -1.
</event>
<event>
 5   0  0.1307477E-06  0.2400572E+04  0.7818609E-02  0.8439289E-01
        2   -1    0    0  501    0  0.00000000000E+00  0.00000000000E+00  0.15892638346E+04  0.15892638346E+04  0.25500000920E-02 0.  1.
       -2   -1    0    0    0  501  0.00000000000E+00  0.00000000000E+00 -0.90651174194E+03  0.90651174194E+03  0.25500000920E-02 0. -1.
    10030    2    1    2    0    0  0.00000000000E+00  0.00000000000E+00  0.68275209266E+03  0.24957755765E+04  0.24005718711E+04 0.  0.
        5    1    3    3  502    0  0.43914028953E+03 -0.97093328208E+03 -0.23289648773E+03  0.10907880161E+04  0.46999998093E+01 0. -1.
       -5    1    3    3    0  502 -0.43914028953E+03  0.97093328208E+03  0.91564858039E+03  0.14049875604E+04  0.46999998093E+01 0.  1.
</event>
<event>
 5   0  0.5363690E-07  0.2400485E+04  0.7818609E-02  0.8439322E-01
       -1   -1    0    0    0  501  0.00000000000E+00  0.00000000000E+00  0.80124551589E+03  0.80124551591E+03  0.50400001928E-02 0. -1.
        1   -1    0    0  501    0  0.00000000000E+00  0.00000000000E+00 -0.17979280237E+04  0.17979280237E+04  0.50400001928E-02 0.  1.
    10030    2    1    2    0    0  0.00000000000E+00  0.00000000000E+00 -0.99668250781E+03  0.25991735396E+04  0.24004847568E+04 0.  0.
        4    1    3    3  502    0 -0.11353802767E+04 -0.33463008347E+03 -0.71357705288E+03  0.13821213727E+04  0.12699999809E+01 0.  1.
       -4    1    3    3    0  502  0.11353802767E+04  0.33463008347E+03 -0.28310545493E+03  0.12170521669E+04  0.12699999809E+01 0. -1.
</event>
<event>
 5   0  0.5452384E-07  0.2398631E+04  0.7818609E-02  0.8440016E-01
       -1   -1    0    0    0  501  0.00000000000E+00  0.00000000000E+00  0.96845019143E+03  0.96845019144E+03  0.50400001928E-02 0. -1.
        1   -1    0    0  501    0  0.00000000000E+00  0.00000000000E+00 -0.14852165008E+04  0.14852165008E+04  0.50400001928E-02 0.  1.
    10030    2    1    2    0    0  0.00000000000E+00  0.00000000000E+00 -0.51676630938E+03  0.24536666923E+04  0.23986314469E+04 0.  0.
        5    1    3    3  502    0  0.90931968747E+03 -0.69257530020E+03 -0.62977436246E+03  0.13050519829E+04  0.46999998093E+01 0. -1.
       -5    1    3    3    0  502 -0.90931968747E+03  0.69257530020E+03  0.11300805308E+03  0.11486147094E+04  0.46999998093E+01 0.  1.
</event>
<event>
 5   0  0.1275948E-06  0.2400562E+04  0.7818609E-02  0.8439293E-01
        2   -1    0    0  501    0  0.00000000000E+00  0.00000000000E+00  0.17442893271E+04  0.17442893271E+04  0.25500000920E-02 0.  1.
       -2   -1    0    0    0  501  0.00000000000E+00  0.00000000000E+00 -0.82593778530E+03  0.82593778530E+03  0.25500000920E-02 0. -1.
    10030    2    1    2    0    0  0.00000000000E+00  0.00000000000E+00  0.91835154181E+03  0.25702271124E+04  0.24005619873E+04 0.  0.
        1    1    3    3  502    0 -0.97296654265E+03  0.22800192954E+03  0.11710156775E+04  0.15394565567E+04  0.50400001928E-02 0.  1.
       -1    1    3    3    0  502  0.97296654265E+03 -0.22800192954E+03 -0.25266413570E+03  0.10307705557E+04  0.50400001928E-02 0. -1.
</event>
<event>
 5   0  0.1291468E-06  0.2400700E+04  0.7818609E-02  0.8439242E-01
       -2   -1    0    0    0  501  0.00000000000E+00  0.00000000000E+00  0.16095619860E+04  0.16095619860E+04  0.25500000920E-02 0. -1.
        2   -1    0    0  501    0  0.00000000000E+00  0.00000000000E+00 -0.89517526698E+03  0.89517526698E+03  0.25500000920E-02 0.  1.
    10030    2    1    2    0    0  0.00000000000E+00  0.00000000000E+00  0.71438671903E+03  0.25047372530E+04  0.24006999651E+04 0.  0.
        4    1    3    3  502    0 -0.11356097955E+04  0.32764284999E+03  0.13864237738E+03  0.11900347754E+04  0.12699999809E+01 0.  1.
       -4    1    3    3    0  502  0.11356097955E+04 -0.32764284999E+03  0.57574434165E+03  0.13147024776E+04  0.12699999809E+01 0. -1.
</event>
<event>
 5   0  0.1336057E-06  0.2399815E+04  0.7818609E-02  0.8439573E-01
        2   -1    0    0  501    0  0.00000000000E+00  0.00000000000E+00  0.16904910766E+04  0.16904910766E+04  0.25500000920E-02 0.  1.
       -2   -1    0    0    0  501  0.00000000000E+00  0.00000000000E+00 -0.85169196320E+03  0.85169196320E+03  0.25500000920E-02 0. -1.
    10030    2    1    2    0    0  0.00000000000E+00  0.00000000000E+00  0.83879911342E+03  0.25421830398E+04  0.23998147127E+04 0.  0.
        2    1    3    3  502    0  0.11087125446E+04 -0.38594639241E+03  0.68227336937E+03  0.13578273362E+04  0.25500000920E-02 0.  1.
       -2    1    3    3    0  502 -0.11087125446E+04  0.38594639241E+03  0.15652574405E+03  0.11843557037E+04  0.25500000920E-02 0. -1.
</event>
<event>
 5   0  0.1336057E-06  0.2399772E+04  0.7818609E-02  0.8439589E-01
        2   -1    0    0  501    0  0.00000000000E+00  0.00000000000E+00  0.13290896132E+04  0.13290896132E+04  0.25500000920E-02 0. -1.
       -2   -1    0    0    0  501  0.00000000000E+00  0.00000000000E+00 -0.10832429469E+04  0.10832429469E+04  0.25500000920E-02 0.  1.
    10030    2    1    2    0    0  0.00000000000E+00  0.00000000000E+00  0.24584666629E+03  0.24123325601E+04  0.23997724470E+04 0.  0.
        2    1    3    3  502    0  0.51126150028E+03  0.10853281277E+04  0.14306524039E+03  0.12082189907E+04  0.25500000920E-02 0. -1.
       -2    1    3    3    0  502 -0.51126150028E+03 -0.10853281277E+04  0.10278142590E+03  0.12041135694E+04  0.25500000920E-02 0.  1.
</event>
<event>
 5   0  0.5690124E-07  0.2399834E+04  0.7818609E-02  0.8439566E-01
       -1   -1    0    0    0  501  0.00000000000E+00  0.00000000000E+00  0.98392658175E+03  0.98392658177E+03  0.50400001928E-02 0.  1.
        1   -1    0    0  501    0  0.00000000000E+00  0.00000000000E+00 -0.14633216910E+04  0.14633216910E+04  0.50400001928E-02 0. -1.
    10030    2    1    2    0    0  0.00000000000E+00  0.00000000000E+00 -0.47939510921E+03  0.24472482727E+04  0.23998342521E+04 0.  0.
        2    1    3    3  502    0 -0.10144979999E+04 -0.29942392100E+03  0.33801108834E+03  0.11104559298E+04  0.25500000920E-02 0.  1.
       -2    1    3    3    0  502  0.10144979999E+04  0.29942392100E+03 -0.81740619755E+03  0.13367923429E+04  0.25500000920E-02 0. -1.
</event>
<event>
 5   0  0.5510176E-07  0.2400027E+04  0.7818609E-02  0.8439493E-01
        1   -1    0    0  501    0  0.00000000000E+00  0.00000000000E+00  0.11871316350E+04  0.11871316350E+04  0.50400001928E-02 0. -1.
       -1   -1    0    0    0  501  0.00000000000E+00  0.00000000000E+00 -0.12130354906E+04  0.12130354906E+04  0.50400001928E-02 0.  1.
    10030    2    1    2    0    0  0.00000000000E+00  0.00000000000E+00 -0.25903855548E+02  0.24001671256E+04  0.24000273376E+04 0.  0.
        3    1    3    3  502    0 -0.11021495845E+04 -0.45234415071E+03 -0.15677914096E+03  0.12016358211E+04  0.10100000352E+00 0.  1.
       -3    1    3    3    0  502  0.11021495845E+04  0.45234415071E+03  0.13087528541E+03  0.11985313045E+04  0.10100000352E+00 0. -1.
</event>
<event>
 5   0  0.1307477E-06  0.2399238E+04  0.7818609E-02  0.8439789E-01
       -2   -1    0    0    0  501  0.00000000000E+00  0.00000000000E+00  0.97080512521E+03  0.97080512521E+03  0.25500000920E-02 0.  1.
        2   -1    0    0  501    0  0.00000000000E+00  0.00000000000E+00 -0.14823631014E+04  0.14823631014E+04  0.25500000920E-02 0. -1.
    10030    2    1    2    0    0  0.00000000000E+00  0.00000000000E+00 -0.51155797624E+03  0.24531682267E+04  0.23992379593E+04 0.  0.
        5    1    3    3  502    0  0.11839933608E+04 -0.11415723017E+03 -0.96746813244E+02  0.11934212113E+04  0.46999998093E+01 0.  1.
       -5    1    3    3    0  502 -0.11839933608E+04  0.11415723017E+03 -0.41481116300E+03  0.12597470153E+04  0.46999998093E+01 0. -1.
</event>
<event>
 5   0  0.1275948E-06  0.2399686E+04  0.7818609E-02  0.8439621E-01
        2   -1    0    0  501    0  0.00000000000E+00  0.00000000000E+00  0.27588509281E+04  0.27588509281E+04  0.25500000920E-02 0.  1.
       -2   -1    0    0    0  501  0.00000000000E+00  0.00000000000E+00 -0.52182006814E+03  0.52182006814E+03  0.25500000920E-02 0. -1.
    10030    2    1    2    0    0  0.00000000000E+00  0.00000000000E+00  0.22370308599E+04  0.32806709962E+04  0.23996864622E+04 0.  0.
        1    1    3    3  502    0 -0.23861558974E+03  0.34364362559E+03  0.26559051865E+04  0.26886540686E+04  0.50400001928E-02 0.  1.
       -1    1    3    3    0  502  0.23861558974E+03 -0.34364362559E+03 -0.41887432656E+03  0.59201692759E+03  0.50400001928E-02 0. -1.
</event>
<event>
 5   0  0.5363690E-07  0.2400109E+04  0.7818609E-02  0.8439463E-01
       -1   -1    0    0    0  501  0.00000000000E+00  0.00000000000E+00  0.12371802144E+04  0.12371802144E+04  0.50400001928E-02 0.  1.
        1   -1    0    0  501    0  0.00000000000E+00  0.00000000000E+00 -0.11640431639E+04  0.11640431639E+04  0.50400001928E-02 0. -1.
    10030    2    1    2    0    0  0.00000000000E+00  0.00000000000E+00  0.73137050503E+02  0.24012233783E+04  0.24001093067E+04 0.  0.
        4    1    3    3  502    0  0.78585918991E+03  0.68111972949E+03 -0.56256736778E+03  0.11823630612E+04  0.12699999809E+01 0. -1.
       -4    1    3    3    0  502 -0.78585918991E+03 -0.68111972949E+03  0.63570441828E+03  0.12188603171E+04  0.12699999809E+01 0.  1.
</event>
<event>
 5   0  0.5510176E-07  0.2386656E+04  0.7818609E-02  0.8444516E-01
        1   -1    0    0  501    0  0.00000000000E+00  0.00000000000E+00  0.15591314068E+04  0.15591314068E+04  0.50400001928E-02 0. -1.
       -1   -1    0    0    0  501  0.00000000000E+00  0.00000000000E+00 -0.91334913623E+03  0.91334913624E+03  0.50400001928E-02 0.  1.
    10030    2    1    2    0    0  0.00000000000E+00  0.00000000000E+00  0.64578227052E+03  0.24724805430E+04  0.23866556716E+04 0.  0.
        3    1    3    3  502    0  0.19539811958E+03 -0.85484717830E+03 -0.51558879014E+03  0.10172393691E+04  0.10100000352E+00 0.  1.
       -3    1    3    3    0  502 -0.19539811958E+03  0.85484717830E+03  0.11613710607E+04  0.14552411739E+04  0.10100000352E+00 0. -1.
</event>
<event>
 5   0  0.1307477E-06  0.2399488E+04  0.7818609E-02  0.8439695E-01
       -2   -1    0    0    0  501  0.00000000000E+00  0.00000000000E+00  0.10178303759E+04  0.10178303759E+04  0.25500000920E-02 0.  1.
        2   -1    0    0  501    0  0.00000000000E+00  0.00000000000E+00 -0.14141706681E+04  0.14141706681E+04  0.25500000920E-02 0. -1.
    10030    2    1    2    0    0  0.00000000000E+00  0.00000000000E+00 -0.39634029220E+03  0.24320010441E+04  0.23994881644E+04 0.  0.
        5    1    3    3  502    0  0.11740814230E+04 -0.17972820703E+03 -0.26780213227E+02  0.11880693103E+04  0.46999998093E+01 0.  1.
       -5    1    3    3    0  502 -0.11740814230E+04  0.17972820703E+03 -0.36956007897E+03  0.12439317338E+04  0.46999998093E+01 0. -1.
</event>
<event>
 5   0  0.1307477E-06  0.2400099E+04  0.7818609E-02  0.8439467E-01
        2   -1    0    0  501    0  0.00000000000E+00  0.00000000000E+00  0.18205287244E+04  0.18205287244E+04  0.25500000920E-02 0. -1.
       -2   -1    0    0    0  501  0.00000000000E+00  0.00000000000E+00 -0.79104414703E+03  0.79104414704E+03  0.25500000920E-02 0.  1.
    10030    2    1    2    0    0  0.00000000000E+00  0.00000000000E+00  0.10294845773E+04  0.26115728714E+04  0.24000988246E+04 0.  0.
        5    1    3    3  502    0  0.24006278800E+03 -0.74137751611E+03  0.15077442210E+04  0.16972287675E+04  0.46999998093E+01 0. -1.
       -5    1    3    3    0  502 -0.24006278800E+03  0.74137751611E+03 -0.47825964361E+03  0.91434410387E+03  0.46999998093E+01 0.  1.
</event>
<event>
 5   0  0.1336057E-06  0.2399521E+04  0.7818609E-02  0.8439683E-01
       -2   -1    0    0    0  501  0.00000000000E+00  0.00000000000E+00  0.64415765872E+03  0.64415765873E+03  0.25500000920E-02 0.  1.
        2   -1    0    0  501    0  0.00000000000E+00  0.00000000000E+00 -0.22345846814E+04  0.22345846814E+04  0.25500000920E-02 0. -1.
    10030    2    1    2    0    0  0.00000000000E+00  0.00000000000E+00 -0.15904270227E+04  0.28787423402E+04  0.23995206493E+04 0.  0.
        2    1    3    3  502    0  0.46804268262E+02  0.58117287491E+03  0.46275696083E+03  0.74437662165E+03  0.25500000920E-02 0.  1.
       -2    1    3    3    0  502 -0.46804268262E+02 -0.58117287491E+03 -0.20531839835E+04  0.21343657185E+04  0.25500000920E-02 0. -1.
</event>
<event>
 5   0  0.1291468E-06  0.2396568E+04  0.7818609E-02  0.8440790E-01
        2   -1    0    0  501    0  0.00000000000E+00  0.00000000000E+00  0.86975890624E+03  0.86975890624E+03  0.25500000920E-02 0.  1.
       -2   -1    0    0    0  501  0.00000000000E+00  0.00000000000E+00 -0.16508991451E+04  0.16508991451E+04  0.25500000920E-02 0. -1.
    10030    2    1    2    0    0  0.00000000000E+00  0.00000000000E+00 -0.78114023888E+03  0.25206580514E+04  0.23965677414E+04 0.  0.
        4    1    3    3  502    0 -0.13849470579E+03 -0.10322260562E+04 -0.10138863098E+04  0.14534918220E+04  0.12699999809E+01 0. -1.
       -4    1    3    3    0  502  0.13849470579E+03  0.10322260562E+04  0.23274607092E+03  0.10671662293E+04  0.12699999809E+01 0.  1.
</event>
<event>
 5   0  0.5527286E-07  0.2406824E+04  0.7818609E-02  0.8436953E-01
       -1   -1    0    0    0  501  0.00000000000E+00  0.00000000000E+00  0.11366285004E+04  0.11366285004E+04  0.50400001928E-02 0.  1.
        1   -1    0    0  501    0  0.00000000000E+00  0.00000000000E+00 -0.12741192738E+04  0.12741192738E+04  0.50400001928E-02 0. -1.
    10030    2    1    2    0    0  0.00000000000E+00  0.00000000000E+00 -0.13749077339E+03  0.24107477743E+04  0.24068238653E+04 0.  0.
        1    1    3    3  502    0 -0.10212657832E+03 -0.51226584663E+03  0.10171596231E+04  0.11434420993E+04  0.50400001928E-02 0.  1.
       -1    1    3    3    0  502  0.10212657832E+03  0.51226584663E+03 -0.11546503965E+04  0.12673056750E+04  0.50400001928E-02 0. -1.
</event>
<event>
 5   0  0.5527286E-07  0.2398718E+04  0.7818609E-02  0.8439983E-01
        1   -1    0    0  501    0  0.00000000000E+00  0.00000000000E+00  0.10273370606E+04  0.10273370607E+04  0.50400001928E-02 0. -1.
       -1   -1    0    0    0  501  0.00000000000E+00  0.00000000000E+00 -0.14001856309E+04  0.14001856309E+04  0.50400001928E-02 0.  1.
    10030    2    1    2    0    0  0.00000000000E+00  0.00000000000E+00 -0.37284857025E+03  0.24275226915E+04  0.23987184832E+04 0.  0.
        1    1    3    3  502    0  0.33274424734E+03 -0.85126794203E+03 -0.97233626536E+03  0.13344713021E+04  0.50400001928E-02 0.  1.
       -1    1    3    3    0  502 -0.33274424734E+03  0.85126794203E+03  0.59948769512E+03  0.10930513894E+04  0.50400001928E-02 0. -1.
</event>
<event>
 5   0  0.5510176E-07  0.2405803E+04  0.7818609E-02  0.8437334E-01
       -1   -1    0    0    0  501  0.00000000000E+00  0.00000000000E+00  0.54227194781E+03  0.54227194784E+03  0.50400001928E-02 0. -1.
        1   -1    0    0  501    0  0.00000000000E+00  0.00000000000E+00 -0.26683518870E+04  0.26683518870E+04  0.50400001928E-02 0.  1.
    10030    2    1    2    0    0  0.00000000000E+00  0.00000000000E+00 -0.21260799392E+04  0.32106238348E+04  0.24058032964E+04 0.  0.
        3    1    3    3  502    0  0.92215202501E+03  0.67680727360E+03 -0.15597658402E+04  0.19342445371E+04  0.10100000352E+00 0.  1.
       -3    1    3    3    0  502 -0.92215202501E+03 -0.67680727360E+03 -0.56631409901E+03  0.12763792978E+04  0.10100000352E+00 0. -1.
</event>
<event>
 5   0  0.1275948E-06  0.2399411E+04  0.7818609E-02  0.8439724E-01
       -2   -1    0    0    0  501  0.00000000000E+00  0.00000000000E+00  0.14904096509E+04  0.14904096509E+04  0.25500000920E-02 0.  1.
        2   -1    0    0  501    0  0.00000000000E+00  0.00000000000E+00 -0.96570298260E+03  0.96570298260E+03  0.25500000920E-02 0. -1.
    10030    2    1    2    0    0  0.00000000000E+00  0.00000000000E+00  0.52470666827E+03  0.24561126335E+04  0.23994107986E+04 0.  0.
        1    1    3    3  502    0  0.55751846508E+03 -0.49671121602E+03 -0.69884933772E+03  0.10227117228E+04  0.50400001928E-02 0. -1.
       -1    1    3    3    0  502 -0.55751846508E+03  0.49671121602E+03  0.12235560060E+04  0.14334009107E+04  0.50400001928E-02 0.  1.
</event>
<event>
 5   0  0.1291468E-06  0.2400574E+04  0.7818609E-02  0.8439289E-01
       -2   -1    0    0    0  501  0.00000000000E+00  0.00000000000E+00  0.11020428361E+04  0.11020428361E+04  0.25500000920E-02 0.  1.
        2   -1    0    0  501    0  0.00000000000E+00  0.00000000000E+00 -0.13072889016E+04  0.13072889016E+04  0.25500000920E-02 0. -1.
    10030    2    1    2    0    0  0.00000000000E+00  0.00000000000E+00 -0.20524606552E+03  0.24093317376E+04  0.24005735720E+04 0.  0.
        4    1    3    3  502    0  0.94751341001E+03  0.42256417814E+03 -0.70843486983E+03  0.12562737458E+04  0.12699999809E+01 0. -1.
       -4    1    3    3    0  502 -0.94751341001E+03 -0.42256417814E+03  0.50318880431E+03  0.11530579918E+04  0.12699999809E+01 0.  1.
</event>
<event>
 5   0  0.5363690E-07  0.2399830E+04  0.7818609E-02  0.8439567E-01
       -1   -1    0    0    0  501  0.00000000000E+00  0.00000000000E+00  0.12801406001E+04  0.12801406002E+04  0.50400001928E-02 0.  1.
        1   -1    0    0  501    0  0.00000000000E+00  0.00000000000E+00 -0.11247166780E+04  0.11247166780E+04  0.50400001928E-02 0. -1.
    10030    2    1    2    0    0  0.00000000000E+00  0.00000000000E+00  0.15542392213E+03  0.24048572782E+04  0.23998295633E+04 0.  0.
        4    1    3    3  502    0  0.39921199761E+03 -0.83073549303E+03  0.84763285597E+03  0.12521879850E+04  0.12699999809E+01 0.  1.
       -4    1    3    3    0  502 -0.39921199761E+03  0.83073549303E+03 -0.69220893384E+03  0.11526692932E+04  0.12699999809E+01 0. -1.
</event>
<event>
 5   0  0.5452384E-07  0.2400172E+04  0.7818609E-02  0.8439439E-01
        1   -1    0    0  501    0  0.00000000000E+00  0.00000000000E+00  0.19796289505E+04  0.19796289505E+04  0.50400001928E-02 0. -1.
       -1   -1    0    0    0  501  0.00000000000E+00  0.00000000000E+00 -0.72751307803E+03  0.72751307805E+03  0.50400001928E-02 0.  1.
    10030    2    1    2    0    0  0.00000000000E+00  0.00000000000E+00  0.12521158725E+04  0.27071420286E+04  0.24001716199E+04 0.  0.
        5    1    3    3  502    0 -0.39219684941E+03  0.97757485858E+02  0.19005340698E+04  0.19430457367E+04  0.46999998093E+01 0. -1.
       -5    1    3    3    0  502  0.39219684941E+03 -0.97757485858E+02 -0.64841819724E+03  0.76409629186E+03  0.46999998093E+01 0.  1.
</event>
<event>
 5   0  0.1275948E-06  0.2399825E+04  0.7818609E-02  0.8439569E-01
       -2   -1    0    0    0  501  0.00000000000E+00  0.00000000000E+00  0.59844734793E+03  0.59844734794E+03  0.25500000920E-02 0. -1.
        2   -1    0    0  501    0  0.00000000000E+00  0.00000000000E+00 -0.24058750926E+04  0.24058750926E+04  0.25500000920E-02 0.  1.
    10030    2    1    2    0    0  0.00000000000E+00  0.00000000000E+00 -0.18074277447E+04  0.30043224406E+04  0.23998246341E+04 0.  0.
        1    1    3    3  502    0 -0.10024903354E+04  0.46708549173E+03 -0.32103377631E+03  0.11516155672E+04  0.50400001928E-02 0. -1.
       -1    1    3    3    0  502  0.10024903354E+04 -0.46708549173E+03 -0.14863939684E+04  0.18527068733E+04  0.50400001928E-02 0.  1.
</event>
<event>
 5   0  0.5510176E-07  0.2399709E+04  0.7818609E-02  0.8439612E-01
       -1   -1    0    0    0  501  0.00000000000E+00  0.00000000000E+00  0.14287250921E+04  0.14287250922E+04  0.50400001928E-02 0.  1.
        1   -1    0    0  501    0  0.00000000000E+00  0.00000000000E+00 -0.10076473628E+04  0.10076473628E+04  0.50400001928E-02 0. -1.
    10030    2    1    2    0    0  0.00000000000E+00  0.00000000000E+00  0.42107772937E+03  0.24363724549E+04  0.23997092084E+04 0.  0.
        3    1    3    3  502    0  0.33383008468E+03  0.26716767410E+03 -0.92767357251E+03  0.10214692158E+04  0.10100000352E+00 0. -1.
       -3    1    3    3    0  502 -0.33383008468E+03 -0.26716767410E+03  0.13487513019E+04  0.14149032391E+04  0.10100000352E+00 0.  1.
</event>
<event>
 5   0  0.1336057E-06  0.2399710E+04  0.7818609E-02  0.8439612E-01
        2   -1    0    0  501    0  0.00000000000E+00  0.00000000000E+00  0.20021949278E+04  0.20021949278E+04  0.25500000920E-02 0. -1.
       -2   -1    0    0    0  501  0.00000000000E+00  0.00000000000E+00 -0.71903662491E+03  0.71903662491E+03  0.25500000920E-02 0.  1.
    10030    2    1    2    0    0  0.00000000000E+00  0.00000000000E+00  0.12831583029E+04  0.27212315527E+04  0.23997095519E+04 0.  0.
        2    1    3    3  502    0  0.46899433275E+03  0.11033183711E+04  0.69695160348E+03  0.13867258740E+04  0.25500000920E-02 0. -1.
       -2    1    3    3    0  502 -0.46899433275E+03 -0.11033183711E+04  0.58620669942E+03  0.13345056787E+04  0.25500000920E-02 0.  1.
</event>
<event>
 5   0  0.1336057E-06  0.2402502E+04  0.7818609E-02  0.8438567E-01
       -2   -1    0    0    0  501  0.00000000000E+00  0.00000000000E+00  0.12276250376E+04  0.12276250376E+04  0.25500000920E-02 0.  1.
        2   -1    0    0  501    0  0.00000000000E+00  0.00000000000E+00 -0.11754438778E+04  0.11754438778E+04  0.25500000920E-02 0. -1.
    10030    2    1    2    0    0  0.00000000000E+00  0.00000000000E+00  0.52181159866E+02  0.24030689154E+04  0.24025023077E+04 0.  0.
        2    1    3    3  502    0 -0.95531034651E+01 -0.56077616900E+03 -0.10364420028E+04  0.11784622178E+04  0.25500000920E-02 0. -1.
       -2    1    3    3    0  502  0.95531034651E+01  0.56077616900E+03  0.10886231627E+04  0.12246066976E+04  0.25500000920E-02 0.  1.
</event>
<event>
 5   0  0.1291468E-06  0.2403261E+04  0.7818609E-02  0.8438284E-01
        2   -1    0    0  501    0  0.00000000000E+00  0.00000000000E+00  0.10586883558E+04  0.10586883558E+04  0.25500000920E-02 0. -1.
       -2   -1    0    0    0  501  0.00000000000E+00  0.00000000000E+00 -0.13638724683E+04  0.13638724683E+04  0.25500000920E-02 0.  1.
    10030    2    1    2    0    0  0.00000000000E+00  0.00000000000E+00 -0.30518411250E+03  0.24225608241E+04  0.24032610354E+04 0.  0.
        4    1    3    3  502    0  0.89427155833E+03 -0.79904233612E+03 -0.22885684229E+03  0.12208879318E+04  0.12699999809E+01 0.  1.
       -4    1    3    3    0  502 -0.89427155833E+03  0.79904233612E+03 -0.76327270210E+02  0.12016728923E+04  0.12699999809E+01 0. -1.
</event>
<event>
 5   0  0.1307477E-06  0.2399672E+04  0.7818609E-02  0.8439626E-01
        2   -1    0    0  501    0  0.00000000000E+00  0.00000000000E+00  0.10789567758E+04  0.10789567758E+04  0.25500000920E-02 0. -1.
       -2   -1    0    0    0  501  0.00000000000E+00  0.00000000000E+00 -0.13342581184E+04  0.13342581184E+04  0.25500000920E-02 0.  1.
    10030    2    1    2    0    0  0.00000000000E+00  0.00000000000E+00 -0.25530134259E+03  0.24132148943E+04  0.23996723423E+04 0.  0.
        5    1    3    3  502    0 -0.35974140131E+03  0.10787569069E+04  0.25720268145E+03  0.11658926406E+04  0.46999998093E+01 0.  1.
       -5    1    3    3    0  502  0.35974140131E+03 -0.10787569069E+04 -0.51250402403E+03  0.12473222537E+04  0.46999998093E+01 0. -1.
</event>
<event>
 5   0  0.1275948E-06  0.2401140E+04  0.7818609E-02  0.8439077E-01
       -2   -1    0    0    0  501  0.00000000000E+00  0.00000000000E+00  0.10405969201E+04  0.10405969201E+04  0.25500000920E-02 0.  1.
        2   -1    0    0  501    0  0.00000000000E+00  0.00000000000E+00 -0.13851355147E+04  0.13851355147E+04  0.25500000920E-02 0. -1.
    10030    2    1    2    0    0  0.00000000000E+00  0.00000000000E+00 -0.34453859463E+03  0.24257324349E+04  0.24011395216E+04 0.  0.
        1    1    3    3  502    0  0.80668314823E+03 -0.37663775589E+03  0.64144553868E+03  0.10972903353E+04  0.50400001928E-02 0.  1.
       -1    1    3    3    0  502 -0.80668314823E+03  0.37663775589E+03 -0.98598413330E+03  0.13284420996E+04  0.50400001928E-02 0. -1.
</event>
<event>
 5   0  0.1307477E-06  0.2397533E+04  0.7818609E-02  0.8440428E-01
        2   -1    0    0  501    0  0.00000000000E+00  0.00000000000E+00  0.21440954450E+04  0.21440954450E+04  0.25500000920E-02 0. -1.
       -2   -1    0    0    0  501  0.00000000000E+00  0.00000000000E+00 -0.67023177921E+03  0.67023177922E+03  0.25500000920E-02 0.  1.
    10030    2    1    2    0    0  0.00000000000E+00  0.00000000000E+00  0.14738636658E+04  0.28143272242E+04  0.23975328193E+04 0.  0.
        5    1    3    3  502    0  0.41619389982E+03 -0.30226595669E+03  0.20079587308E+04  0.20728006237E+04  0.46999998093E+01 0. -1.
       -5    1    3    3    0  502 -0.41619389982E+03  0.30226595669E+03 -0.53409506503E+03  0.74152660054E+03  0.46999998093E+01 0.  1.
</event>
<event>
 5   0  0.5363690E-07  0.2395845E+04  0.7818609E-02  0.8441061E-01
       -1   -1    0    0    0  501  0.00000000000E+00  0.00000000000E+00  0.12246240460E+04  0.12246240460E+04  0.50400001928E-02 0.  1.
        1   -1    0    0  501    0  0.00000000000E+00  0.00000000000E+00 -0.11718032271E+04  0.11718032271E+04  0.50400001928E-02 0. -1.
    10030    2    1    2    0    0  0.00000000000E+00  0.00000000000E+00  0.52820818840E+02  0.23964272731E+04  0.23958450777E+04 0.  0.
        4    1    3    3  502    0 -0.61464017756E+03 -0.54808932329E+03 -0.84376210818E+03  0.11790337409E+04  0.12699999809E+01 0. -1.
       -4    1    3    3    0  502  0.61464017756E+03  0.54808932329E+03  0.89658292702E+03  0.12173935321E+04  0.12699999809E+01 0.  1.
</event>
<event>
 5   0  0.5452384E-07  0.2399250E+04  0.7818609E-02  0.8439784E-01
       -1   -1    0    0    0  501  0.00000000000E+00  0.00000000000E+00  0.13370253422E+04  0.13370253422E+04  0.50400001928E-02 0. -1.
        1   -1    0    0  501    0  0.00000000000E+00  0.00000000000E+00 -0.10763446379E+04  0.10763446380E+04  0.50400001928E-02 0.  1.
    10030    2    1    2    0    0  0.00000000000E+00  0.00000000000E+00  0.26068070421E+03  0.24133699801E+04  0.23992499310E+04 0.  0.
        5    1    3    3  502    0 -0.88792292935E+03  0.74099759119E+03 -0.19027268825E+03  0.11720539000E+04  0.46999998093E+01 0.  1.
       -5    1    3    3    0  502  0.88792292935E+03 -0.74099759119E+03  0.45095339246E+03  0.12413160801E+04  0.46999998093E+01 0. -1.
</event>
<event>
 5   0  0.1291468E-06  0.2401011E+04  0.7818609E-02  0.8439125E-01
        2   -1    0    0  501    0  0.00000000000E+00  0.00000000000E+00  0.11399825635E+04  0.11399825635E+04  0.25500000920E-02 0.  1.
       -2   -1    0    0    0  501  0.00000000000E+00  0.00000000000E+00 -0.12642420337E+04  0.12642420337E+04  0.25500000920E-02 0. -1.
    10030    2    1    2    0    0  0.00000000000E+00  0.00000000000E+00 -0.12425947024E+03  0.24042245973E+04  0.24010113490E+04 0.  0.
        4    1    3    3  502    0  0.99565393345E+03  0.24379214716E+03 -0.68782668043E+03  0.12344506962E+04  0.12699999809E+01 0. -1.
       -4    1    3    3    0  502 -0.99565393345E+03 -0.24379214716E+03  0.56356721020E+03  0.11697739010E+04  0.12699999809E+01 0.  1.
</event>
<event>
 5   0  0.1336057E-06  0.2401080E+04  0.7818609E-02  0.8439099E-01
        2   -1    0    0  501    0  0.00000000000E+00  0.00000000000E+00  0.17188496979E+04  0.17188496979E+04  0.25500000920E-02 0. -1.
       -2   -1    0    0    0  501  0.00000000000E+00  0.00000000000E+00 -0.83852404001E+03  0.83852404001E+03  0.25500000920E-02 0.  1.
    10030    2    1    2    0    0  0.00000000000E+00  0.00000000000E+00  0.88032565794E+03  0.25573737380E+04  0.24010804176E+04 0.  0.
        2    1    3    3  502    0 -0.10796898948E+03 -0.42168028700E+03  0.16318419894E+04  0.16888990039E+04  0.25500000920E-02 0. -1.
       -2    1    3    3    0  502  0.10796898948E+03  0.42168028700E+03 -0.75151633147E+03  0.86847473401E+03  0.25500000920E-02 0.  1.
</event>
<event>
 5   0  0.5452384E-07  0.2400430E+04  0.7818609E-02  0.8439343E-01
        1   -1    0    0  501    0  0.00000000000E+00  0.00000000000E+00  0.11633872821E+04  0.11633872821E+04  0.50400001928E-02 0.  1.
       -1   -1    0    0    0  501  0.00000000000E+00  0.00000000000E+00 -0.12382087425E+04  0.12382087425E+04  0.50400001928E-02 0. -1.
    10030    2    1    2    0    0  0.00000000000E+00  0.00000000000E+00 -0.74821460425E+02  0.24015960247E+04  0.24004302145E+04 0.  0.
        5    1    3    3  502    0  0.93893108285E+03 -0.26422399864E+03  0.66227741283E+03  0.11789993051E+04  0.46999998093E+01 0.  1.
       -5    1    3    3    0  502 -0.93893108285E+03  0.26422399864E+03 -0.73709887325E+03  0.12225967196E+04  0.46999998093E+01 0. -1.
</event>
<event>
 5   0  0.5363690E-07  0.2398981E+04  0.7818609E-02  0.8439885E-01
        1   -1    0    0  501    0  0.00000000000E+00  0.00000000000E+00  0.17250702069E+04  0.17250702070E+04  0.50400001928E-02 0. -1.
       -1   -1    0    0    0  501  0.00000000000E+00  0.00000000000E+00 -0.83403981386E+03  0.83403981388E+03  0.50400001928E-02 0.  1.
    10030    2    1    2    0    0  0.00000000000E+00  0.00000000000E+00  0.89103039308E+03  0.25591100208E+04  0.23989808122E+04 0.  0.
        4    1    3    3  502    0 -0.18783270502E+03 -0.75129478600E+03 -0.53162362884E+03  0.93933501808E+03  0.12699999809E+01 0.  1.
       -4    1    3    3    0  502  0.18783270502E+03  0.75129478600E+03  0.14226540219E+04  0.16197750028E+04  0.12699999809E+01 0. -1.
</event>
<event>
 5   0  0.1307477E-06  0.2400358E+04  0.7818609E-02  0.8439370E-01
       -2   -1    0    0    0  501  0.00000000000E+00  0.00000000000E+00  0.55821509135E+03  0.55821509136E+03  0.25500000920E-02 0.  1.
        2   -1    0    0  501    0  0.00000000000E+00  0.00000000000E+00 -0.25804203993E+04  0.25804203993E+04  0.25500000920E-02 0. -1.
    10030    2    1    2    0    0  0.00000000000E+00  0.00000000000E+00 -0.20222053079E+04  0.31386354906E+04  0.24003579807E+04 0.  0.
        5    1    3    3  502    0  0.15983778106E+02  0.58658660249E+03  0.35783495059E+03  0.68731889632E+03  0.46999998093E+01 0.  1.
       -5    1    3    3    0  502 -0.15983778106E+02 -0.58658660249E+03 -0.23800402585E+04  0.24513165943E+04  0.46999998093E+01 0. -1.
</event>
<event>
 5   0  0.5690124E-07  0.2399900E+04  0.7818609E-02  0.8439541E-01
       -1   -1    0    0    0  501  0.00000000000E+00  0.00000000000E+00  0.13659835270E+04  0.13659835270E+04  0.50400001928E-02 0.  1.
        1   -1    0    0  501    0  0.00000000000E+00  0.00000000000E+00 -0.10540976741E+04  0.10540976741E+04  0.50400001928E-02 0. -1.
    10030    2    1    2    0    0  0.00000000000E+00  0.00000000000E+00  0.31188585286E+03  0.24200812011E+04  0.23999000469E+04 0.  0.
        2    1    3    3  502    0  0.57661195855E+03 -0.11515035797E+03  0.12107500488E+04  0.13459779480E+04  0.25500000920E-02 0.  1.
       -2    1    3    3    0  502 -0.57661195855E+03  0.11515035797E+03 -0.89886419596E+03  0.10741032532E+04  0.25500000920E-02 0. -1.
</event>
<event>
 5   0  0.5510176E-07  0.2402463E+04  0.7818609E-02  0.8438582E-01
       -1   -1    0    0    0  501  0.00000000000E+00  0.00000000000E+00  0.17641338006E+04  0.17641338006E+04  0.50400001928E-02 0. -1.
        1   -1    0    0  501    0  0.00000000000E+00  0.00000000000E+00 -0.81794060939E+03  0.81794060940E+03  0.50400001928E-02 0.  1.
    10030    2    1    2    0    0  0.00000000000E+00  0.00000000000E+00  0.94619319123E+03  0.25820744100E+04  0.24024626332E+04 0.  0.
        3    1    3    3  502    0 -0.17921010956E+03 -0.71928327008E+03  0.14890003857E+04  0.16633120106E+04  0.10100000352E+00 0. -1.
       -3    1    3    3    0  502  0.17921010956E+03  0.71928327008E+03 -0.54280719444E+03  0.91876239939E+03  0.10100000352E+00 0.  1.
</event>
<event>
 5   0  0.5527286E-07  0.2397597E+04  0.7818609E-02  0.8440404E-01
        1   -1    0    0  501    0  0.00000000000E+00  0.00000000000E+00  0.69891281371E+03  0.69891281373E+03  0.50400001928E-02 0. -1.
       -1   -1    0    0    0  501  0.00000000000E+00  0.00000000000E+00 -0.20562185776E+04  0.20562185776E+04  0.50400001928E-02 0.  1.
    10030    2    1    2    0    0  0.00000000000E+00  0.00000000000E+00 -0.13573057639E+04  0.27551313913E+04  0.23975967231E+04 0.  0.
        1    1    3    3  502    0  0.23276450027E+03  0.52306109310E+03 -0.18889710456E+04  0.19738246708E+04  0.50400001928E-02 0.  1.
       -1    1    3    3    0  502 -0.23276450027E+03 -0.52306109310E+03  0.53166528176E+03  0.78130672054E+03  0.50400001928E-02 0. -1.
</event>
<event>
 5   0  0.1275948E-06  0.2398842E+04  0.7818609E-02  0.8439937E-01
        2   -1    0    0  501    0  0.00000000000E+00  0.00000000000E+00  0.18199553507E+04  0.18199553507E+04  0.25500000920E-02 0. -1.
       -2   -1    0    0    0  501  0.00000000000E+00  0.00000000000E+00 -0.79046476991E+03  0.79046476991E+03  0.25500000920E-02 0.  1.
    10030    2    1    2    0    0  0.00000000000E+00  0.00000000000E+00  0.10294905808E+04  0.26104201206E+04  0.23988418768E+04 0.  0.
        1    1    3    3  502    0 -0.11371302633E+04 -0.34387486483E+03  0.33496016832E+03  0.12343068795E+04  0.50400001928E-02 0. -1.
       -1    1    3    3    0  502  0.11371302633E+04  0.34387486483E+03  0.69453041246E+03  0.13761132411E+04  0.50400001928E-02 0.  1.
</event>
<event>
 5   0  0.1308662E-06  0.2399956E+04  0.7818609E-02  0.8439520E-01
       -2   -1    0    0    0  501  0.00000000000E+00  0.00000000000E+00  0.15487638046E+04  0.15487638046E+04  0.25500000920E-02 0. -1.
        2   -1    0    0  501    0  0.00000000000E+00  0.00000000000E+00 -0.92973971580E+03  0.92973971581E+03  0.25500000920E-02 0.  1.
    10030    2    1    2    0    0  0.00000000000E+00  0.00000000000E+00  0.61902408880E+03  0.24785035204E+04  0.23999560159E+04 0.  0.
        3    1    3    3  502    0  0.47477715570E+03  0.76893205173E+03  0.11248298635E+04  0.14428832523E+04  0.10100000352E+00 0.  1.
       -3    1    3    3    0  502 -0.47477715570E+03 -0.76893205173E+03 -0.50580577472E+03  0.10356202681E+04  0.10100000352E+00 0. -1.
</event>
<event>
 5   0  0.1307477E-06  0.2397944E+04  0.7818609E-02  0.8440274E-01
        2   -1    0    0  501    0  0.00000000000E+00  0.00000000000E+00  0.17840402774E+04  0.17840402774E+04  0.25500000920E-02 0.  1.
       -2   -1    0    0    0  501  0.00000000000E+00  0.00000000000E+00 -0.80577456487E+03  0.80577456488E+03  0.25500000920E-02 0. -1.
    10030    2    1    2    0    0  0.00000000000E+00  0.00000000000E+00  0.97826571251E+03  0.25898148423E+04  0.23979443515E+04 0.  0.
        5    1    3    3  502    0  0.51802960852E+03  0.32868438438E+03 -0.62339963143E+03  0.87466410142E+03  0.46999998093E+01 0. -1.
       -5    1    3    3    0  502 -0.51802960852E+03 -0.32868438438E+03  0.16016653439E+04  0.17151507408E+04  0.46999998093E+01 0.  1.
</event>
<event>
 5   0  0.1291468E-06  0.2399563E+04  0.7818609E-02  0.8439667E-01
        2   -1    0    0  501    0  0.00000000000E+00  0.00000000000E+00  0.15993155387E+04  0.15993155387E+04  0.25500000920E-02 0.  1.
       -2   -1    0    0    0  501  0.00000000000E+00  0.00000000000E+00 -0.90005706825E+03  0.90005706826E+03  0.25500000920E-02 0. -1.
    10030    2    1    2    0    0  0.00000000000E+00  0.00000000000E+00  0.69925847048E+03  0.24993726070E+04  0.23995626727E+04 0.  0.
        4    1    3    3  502    0 -0.10459299174E+04  0.14142436887E+03 -0.24463100123E+03  0.10834279782E+04  0.12699999809E+01 0. -1.
       -4    1    3    3    0  502  0.10459299174E+04 -0.14142436887E+03  0.94388947171E+03  0.14159446288E+04  0.12699999809E+01 0.  1.
</event>
<event>
 5   0  0.1275948E-06  0.2401455E+04  0.7818609E-02  0.8438959E-01
        2   -1    0    0  501    0  0.00000000000E+00  0.00000000000E+00  0.10718907706E+04  0.10718907706E+04  0.25500000920E-02 0.  1.
       -2   -1    0    0    0  501  0.00000000000E+00  0.00000000000E+00 -0.13450503082E+04  0.13450503082E+04  0.25500000920E-02 0. -1.
    10030    2    1    2    0    0  0.00000000000E+00  0.00000000000E+00 -0.27315953758E+03  0.24169410788E+04  0.24014554015E+04 0.  0.
        1    1    3    3  502    0  0.11609553868E+04  0.20033097240E+03 -0.37001746103E+03  0.12348533638E+04  0.50400001928E-02 0. -1.
       -1    1    3    3    0  502 -0.11609553868E+04 -0.20033097240E+03  0.96857923444E+02  0.11820877150E+04  0.50400001928E-02 0.  1.
</event>
<event>
 5   0  0.5690124E-07  0.2399910E+04  0.7818609E-02  0.8439537E-01
        1   -1    0    0  501    0  0.00000000000E+00  0.00000000000E+00  0.19036153367E+04  0.19036153367E+04  0.50400001928E-02 0.  1.
       -1   -1    0    0    0  501  0.00000000000E+00  0.00000000000E+00 -0.75639874974E+03  0.75639874976E+03  0.50400001928E-02 0. -1.
    10030    2    1    2    0    0  0.00000000000E+00  0.00000000000E+00  0.11472165869E+04  0.26600140864E+04  0.23999102156E+04 0.  0.
        2    1    3    3  502    0  0.69700704282E+03 -0.67243164949E+03  0.13588466141E+04  0.16686663123E+04  0.25500000920E-02 0.  1.
       -2    1    3    3    0  502 -0.69700704282E+03  0.67243164949E+03 -0.21163002718E+03  0.99134777418E+03  0.25500000920E-02 0. -1.
</event>
<event>
 5   0  0.5510176E-07  0.2400927E+04  0.7818609E-02  0.8439156E-01
       -1   -1    0    0    0  501  0.00000000000E+00  0.00000000000E+00  0.14422558892E+04  0.14422558892E+04  0.50400001928E-02 0.  1.
        1   -1    0    0  501    0  0.00000000000E+00  0.00000000000E+00 -0.99920752099E+03  0.99920752100E+03  0.50400001928E-02 0. -1.
    10030    2    1    2    0    0  0.00000000000E+00  0.00000000000E+00  0.44304836825E+03  0.24414634102E+04  0.24009272640E+04 0.  0.
        3    1    3    3  502    0  0.12130912970E+03  0.81886864986E+03  0.11055996855E+04  0.13811634391E+04  0.10100000352E+00 0.  1.
       -3    1    3    3    0  502 -0.12130912970E+03 -0.81886864986E+03 -0.66255131725E+03  0.10602999712E+04  0.10100000352E+00 0. -1.
</event>
<event>
 5   0  0.1308662E-06  0.2399768E+04  0.7818609E-02  0.8439590E-01
       -2   -1    0    0    0  501  0.00000000000E+00  0.00000000000E+00  0.79115021349E+03  0.79115021349E+03  0.25500000920E-02 0.  1.
        2   -1    0    0  501    0  0.00000000000E+00  0.00000000000E+00 -0.18197833865E+04  0.18197833865E+04  0.25500000920E-02 0. -1.
    10030    2    1    2    0    0  0.00000000000E+00  0.00000000000E+00 -0.10286331731E+04  0.26109336000E+04  0.23997683345E+04 0.  0.
        3    1    3    3  502    0  0.69033397938E+03 -0.58963640481E+03 -0.13678823323E+04  0.16417472943E+04  0.10100000352E+00 0. -1.
       -3    1    3    3    0  502 -0.69033397938E+03  0.58963640481E+03  0.33924915929E+03  0.96918630575E+03  0.10100000352E+00 0.  1.
</event>
<event>
 5   0  0.1308662E-06  0.2391106E+04  0.7818609E-02  0.8442841E-01
       -2   -1    0    0    0  501  0.00000000000E+00  0.00000000000E+00  0.75028511110E+03  0.75028511111E+03  0.25500000920E-02 0.  1.
        2   -1    0    0  501    0  0.00000000000E+00  0.00000000000E+00 -0.19050712599E+04  0.19050712599E+04  0.25500000920E-02 0. -1.
    10030    2    1    2    0    0  0.00000000000E+00  0.00000000000E+00 -0.11547861488E+04  0.26553563710E+04  0.23911056872E+04 0.  0.
        3    1    3    3  502    0 -0.51349738706E+03 -0.70005838567E+03  0.33538275778E+03  0.93072171689E+03  0.10100000352E+00 0.  1.
       -3    1    3    3    0  502  0.51349738706E+03  0.70005838567E+03 -0.14901689066E+04  0.17246346541E+04  0.10100000352E+00 0. -1.
</event>
<event>
 5   0  0.5363690E-07  0.2400219E+04  0.7818609E-02  0.8439422E-01
        1   -1    0    0  501    0  0.00000000000E+00  0.00000000000E+00  0.11035619465E+04  0.11035619465E+04  0.50400001928E-02 0.  1.
       -1   -1    0    0    0  501  0.00000000000E+00  0.00000000000E+00 -0.13051038163E+04  0.13051038163E+04  0.50400001928E-02 0. -1.
    10030    2    1    2    0    0  0.00000000000E+00  0.00000000000E+00 -0.20154186981E+03  0.24086657628E+04  0.24002190799E+04 0.  0.
        4    1    3    3  502    0 -0.25305930586E+03 -0.60784729726E+02  0.10749010867E+04  0.11059601054E+04  0.12699999809E+01 0.  1.
       -4    1    3    3    0  502  0.25305930586E+03  0.60784729726E+02 -0.12764429565E+04  0.13027056574E+04  0.12699999809E+01 0. -1.
</event>
<event>
 5   0  0.5527286E-07  0.2402017E+04  0.7818609E-02  0.8438749E-01
        1   -1    0    0  501    0  0.00000000000E+00  0.00000000000E+00  0.10719507742E+04  0.10719507742E+04  0.50400001928E-02 0.  1.
       -1   -1    0    0    0  501  0.00000000000E+00  0.00000000000E+00 -0.13456044778E+04  0.13456044778E+04  0.50400001928E-02 0. -1.
    10030    2    1    2    0    0  0.00000000000E+00  0.00000000000E+00 -0.27365370363E+03  0.24175552521E+04  0.24020172870E+04 0.  0.
        1    1    3    3  502    0 -0.58052475361E+03 -0.42478133659E+03 -0.11048036460E+04  0.13183471734E+04  0.50400001928E-02 0. -1.
       -1    1    3    3    0  502  0.58052475361E+03  0.42478133659E+03  0.83114994234E+03  0.10992080786E+04  0.50400001928E-02 0.  1.
</event>
<event>
 5   0  0.1307477E-06  0.2409761E+04  0.7818609E-02  0.8435858E-01
       -2   -1    0    0    0  501  0.00000000000E+00  0.00000000000E+00  0.13916086317E+04  0.13916086317E+04  0.25500000920E-02 0. -1.
        2   -1    0    0  501    0  0.00000000000E+00  0.00000000000E+00 -0.10432082107E+04  0.10432082107E+04  0.25500000920E-02 0.  1.
    10030    2    1    2    0    0  0.00000000000E+00  0.00000000000E+00  0.34840042105E+03  0.24348168424E+04  0.24097614410E+04 0.  0.
        5    1    3    3  502    0  0.93175691851E+02 -0.84228507417E+03  0.10396040760E+04  0.13412399414E+04  0.46999998093E+01 0. -1.
       -5    1    3    3    0  502 -0.93175691851E+02  0.84228507417E+03 -0.69120365493E+03  0.10935769010E+04  0.46999998093E+01 0.  1.
</event>
<event>
 5   0  0.5363690E-07  0.2399718E+04  0.7818609E-02  0.8439609E-01
       -1   -1    0    0    0  501  0.00000000000E+00  0.00000000000E+00  0.77085060083E+03  0.77085060085E+03  0.50400001928E-02 0. -1.
        1   -1    0    0  501    0  0.00000000000E+00  0.00000000000E+00 -0.18676270458E+04  0.18676270459E+04  0.50400001928E-02 0.  1.
    10030    2    1    2    0    0  0.00000000000E+00  0.00000000000E+00 -0.10967764450E+04  0.26384776467E+04  0.23997178421E+04 0.  0.
        4    1    3    3  502    0 -0.40828572079E+03  0.12281458092E+03  0.68475267281E+03  0.80664024627E+03  0.12699999809E+01 0. -1.
       -4    1    3    3    0  502  0.40828572079E+03 -0.12281458092E+03 -0.17815291178E+04  0.18318374004E+04  0.12699999809E+01 0.  1.
</event>
<event>
 5   0  0.5527286E-07  0.2400246E+04  0.7818609E-02  0.8439412E-01
        1   -1    0    0  501    0  0.00000000000E+00  0.00000000000E+00  0.12376598164E+04  0.12376598164E+04  0.50400001928E-02 0.  1.
       -1   -1    0    0    0  501  0.00000000000E+00  0.00000000000E+00 -0.11637243827E+04  0.11637243827E+04  0.50400001928E-02 0. -1.
    10030    2    1    2    0    0  0.00000000000E+00  0.00000000000E+00  0.73935433752E+02  0.24013841991E+04  0.24002457423E+04 0.  0.
        1    1    3    3  502    0  0.32241178719E+03  0.10565565389E+04 -0.43233240324E+03  0.11862429714E+04  0.50400001928E-02 0. -1.
       -1    1    3    3    0  502 -0.32241178719E+03 -0.10565565389E+04  0.50626783700E+03  0.12151412277E+04  0.50400001928E-02 0.  1.
</event>
<event>
 5   0  0.1291468E-06  0.2401725E+04  0.7818609E-02  0.8438858E-01
       -2   -1    0    0    0  501  0.00000000000E+00  0.00000000000E+00  0.65745992545E+03  0.65745992546E+03  0.25500000920E-02 0. -1.
        2   -1    0    0  501    0  0.00000000000E+00  0.00000000000E+00 -0.21933977198E+04  0.21933977198E+04  0.25500000920E-02 0.  1.
    10030    2    1    2    0    0  0.00000000000E+00  0.00000000000E+00 -0.15359377943E+04  0.28508576452E+04  0.24017252976E+04 0.  0.
        4    1    3    3  502    0 -0.11854449793E+04  0.86571802565E+02 -0.56480382684E+03  0.13159709160E+04  0.12699999809E+01 0.  1.
       -4    1    3    3    0  502  0.11854449793E+04 -0.86571802565E+02 -0.97113396747E+03  0.15348867292E+04  0.12699999809E+01 0. -1.
</event>
<event>
 5   0  0.5510176E-07  0.2399163E+04  0.7818609E-02  0.8439817E-01
        1   -1    0    0  501    0  0.00000000000E+00  0.00000000000E+00  0.14121816636E+04  0.14121816636E+04  0.50400001928E-02 0.  1.
       -1   -1    0    0    0  501  0.00000000000E+00  0.00000000000E+00 -0.10189878170E+04  0.10189878170E+04  0.50400001928E-02 0. -1.
    10030    2    1    2    0    0  0.00000000000E+00  0.00000000000E+00  0.39319384653E+03  0.24311694806E+04  0.23991631129E+04 0.  0.
        3    1    3    3  502    0  0.36880523408E+03 -0.65101669896E+02  0.13514231284E+04  0.14023551655E+04  0.10100000352E+00 0.  1.
       -3    1    3    3    0  502 -0.36880523408E+03  0.65101669896E+02 -0.95822928186E+03  0.10288143151E+04  0.10100000352E+00 0. -1.
</event>
<event>
 5   0  0.5527286E-07  0.2400684E+04  0.7818609E-02  0.8439247E-01
        1   -1    0    0  501    0  0.00000000000E+00  0.00000000000E+00  0.59791118257E+03  0.59791118259E+03  0.50400001928E-02 0.  1.
       -1   -1    0    0    0  501  0.00000000000E+00  0.00000000000E+00 -0.24097580385E+04  0.24097580385E+04  0.50400001928E-02 0. -1.
    10030    2    1    2    0    0  0.00000000000E+00  0.00000000000E+00 -0.18118468559E+04  0.30076692211E+04  0.24006843012E+04 0.  0.
        1    1    3    3  502    0 -0.82240985423E+03 -0.83403441745E+03 -0.57718787331E+03  0.13058013704E+04  0.50400001928E-02 0.  1.
       -1    1    3    3    0  502  0.82240985423E+03  0.83403441745E+03 -0.12346589826E+04  0.17018678507E+04  0.50400001928E-02 0. -1.
</event>
<event>
 5   0  0.5527286E-07  0.2398217E+04  0.7818609E-02  0.8440171E-01
       -1   -1    0    0    0  501  0.00000000000E+00  0.00000000000E+00  0.13385758579E+04  0.13385758579E+04  0.50400001928E-02 0. -1.
        1   -1    0    0  501    0  0.00000000000E+00  0.00000000000E+00 -0.10741725838E+04  0.10741725838E+04  0.50400001928E-02 0.  1.
    10030    2    1    2    0    0  0.00000000000E+00  0.00000000000E+00  0.26440327417E+03  0.24127484417E+04  0.23982172444E+04 0.  0.
        1    1    3    3  502    0  0.67619801235E+03 -0.90451144769E+03  0.53772807232E+03  0.12508142111E+04  0.50400001928E-02 0. -1.
       -1    1    3    3    0  502 -0.67619801235E+03  0.90451144769E+03 -0.27332479815E+03  0.11619342306E+04  0.50400001928E-02 0.  1.
</event>
<event>
 5   0  0.5452384E-07  0.2397384E+04  0.7818609E-02  0.8440484E-01
        1   -1    0    0  501    0  0.00000000000E+00  0.00000000000E+00  0.14207177313E+04  0.14207177313E+04  0.50400001928E-02 0.  1.
       -1   -1    0    0    0  501  0.00000000000E+00  0.00000000000E+00 -0.10113637290E+04  0.10113637290E+04  0.50400001928E-02 0. -1.
    10030    2    1    2    0    0  0.00000000000E+00  0.00000000000E+00  0.40935400232E+03  0.24320814603E+04  0.23973838930E+04 0.  0.
        5    1    3    3  502    0 -0.52816892859E+03  0.17382747732E+03  0.12819604425E+04  0.13973629003E+04  0.46999998093E+01 0.  1.
       -5    1    3    3    0  502  0.52816892859E+03 -0.17382747732E+03 -0.87260644016E+03  0.10347185600E+04  0.46999998093E+01 0. -1.
</event>
<event>
 5   0  0.5452384E-07  0.2399064E+04  0.7818609E-02  0.8439854E-01
        1   -1    0    0  501    0  0.00000000000E+00  0.00000000000E+00  0.19348959431E+04  0.19348959431E+04  0.50400001928E-02 0.  1.
       -1   -1    0    0    0  501  0.00000000000E+00  0.00000000000E+00 -0.74364587715E+03  0.74364587717E+03  0.50400001928E-02 0. -1.
    10030    2    1    2    0    0  0.00000000000E+00  0.00000000000E+00  0.11912500660E+04  0.26785418203E+04  0.23990643100E+04 0.  0.
        5    1    3    3  502    0 -0.45336066769E+03 -0.78736381254E+03 -0.27879582593E+03  0.95038248661E+03  0.46999998093E+01 0. -1.
       -5    1    3    3    0  502  0.45336066769E+03  0.78736381254E+03  0.14700458919E+04  0.17281593337E+04  0.46999998093E+01 0.  1.
</event>
<event>
 5   0  0.5690124E-07  0.2401864E+04  0.7818609E-02  0.8438806E-01
        1   -1    0    0  501    0  0.00000000000E+00  0.00000000000E+00  0.27576482308E+04  0.27576482308E+04  0.50400001928E-02 0.  1.
       -1   -1    0    0    0  501  0.00000000000E+00  0.00000000000E+00 -0.52299554984E+03  0.52299554987E+03  0.50400001928E-02 0. -1.
    10030    2    1    2    0    0  0.00000000000E+00  0.00000000000E+00  0.22346526809E+04  0.32806437807E+04  0.24018640701E+04 0.  0.
        2    1    3    3  502    0 -0.70371886419E+03 -0.20740678429E+02  0.24462223461E+04  0.25455164864E+04  0.25500000920E-02 0.  1.
       -2    1    3    3    0  502  0.70371886419E+03  0.20740678429E+02 -0.21156966521E+03  0.73512729429E+03  0.25500000920E-02 0. -1.
</event>
<event>
 5   0  0.5690124E-07  0.2401874E+04  0.7818609E-02  0.8438802E-01
        1   -1    0    0  501    0  0.00000000000E+00  0.00000000000E+00  0.14668825829E+04  0.14668825829E+04  0.50400001928E-02 0.  1.
       -1   -1    0    0    0  501  0.00000000000E+00  0.00000000000E+00 -0.98320695675E+03  0.98320695676E+03  0.50400001928E-02 0. -1.
    10030    2    1    2    0    0  0.00000000000E+00  0.00000000000E+00  0.48367562612E+03  0.24500895396E+04  0.24018735689E+04 0.  0.
        2    1    3    3  502    0  0.42375826084E+03 -0.10666472492E+04  0.60240449389E+03  0.12962247460E+04  0.25500000920E-02 0.  1.
       -2    1    3    3    0  502 -0.42375826084E+03  0.10666472492E+04 -0.11872886778E+03  0.11538647936E+04  0.25500000920E-02 0. -1.
</event>
<event>
 5   0  0.5690124E-07  0.2398847E+04  0.7818609E-02  0.8439935E-01
        1   -1    0    0  501    0  0.00000000000E+00  0.00000000000E+00  0.13467435643E+04  0.13467435643E+04  0.50400001928E-02 0. -1.
       -1   -1    0    0    0  501  0.00000000000E+00  0.00000000000E+00 -0.10682188550E+04  0.10682188550E+04  0.50400001928E-02 0.  1.
    10030    2    1    2    0    0  0.00000000000E+00  0.00000000000E+00  0.27852470930E+03  0.24149624193E+04  0.23988471133E+04 0.  0.
        2    1    3    3  502    0 -0.28196529866E+03 -0.26910920125E+03  0.12812074447E+04  0.13391850911E+04  0.25500000920E-02 0. -1.
       -2    1    3    3    0  502  0.28196529866E+03  0.26910920125E+03 -0.10026827355E+04  0.10757773282E+04  0.25500000920E-02 0.  1.
</event>
<event>
 5   0  0.1307477E-06  0.2401136E+04  0.7818609E-02  0.8439078E-01
       -2   -1    0    0    0  501  0.00000000000E+00  0.00000000000E+00  0.11517565788E+04  0.11517565788E+04  0.25500000920E-02 0.  1.
        2   -1    0    0  501    0  0.00000000000E+00  0.00000000000E+00 -0.12514485557E+04  0.12514485557E+04  0.25500000920E-02 0. -1.
    10030    2    1    2    0    0  0.00000000000E+00  0.00000000000E+00 -0.99691976964E+02  0.24032051345E+04  0.24011364868E+04 0.  0.
        5    1    3    3  502    0  0.45261864573E+03 -0.32672508741E+03 -0.11136488472E+04  0.12457322208E+04  0.46999998093E+01 0. -1.
       -5    1    3    3    0  502 -0.45261864573E+03  0.32672508741E+03  0.10139568702E+04  0.11574729136E+04  0.46999998093E+01 0.  1.
</event>
<event>
 5   0  0.5527286E-07  0.2399151E+04  0.7818609E-02  0.8439822E-01
        1   -1    0    0  501    0  0.00000000000E+00  0.00000000000E+00  0.10954758854E+04  0.10954758854E+04  0.50400001928E-02 0. -1.
       -1   -1    0    0    0  501  0.00000000000E+00  0.00000000000E+00 -0.13135670698E+04  0.13135670698E+04  0.50400001928E-02 0.  1.
    10030    2    1    2    0    0  0.00000000000E+00  0.00000000000E+00 -0.21809118444E+03  0.24090429552E+04  0.23991507238E+04 0.  0.
        1    1    3    3  502    0  0.24996303412E+02 -0.10268784023E+04  0.51308713227E+03  0.11481996663E+04  0.50400001928E-02 0. -1.
       -1    1    3    3    0  502 -0.24996303412E+02  0.10268784023E+04 -0.73117831671E+03  0.12608432889E+04  0.50400001928E-02 0.  1.
</event>
<event>
 5   0  0.4483375E-07  0.2399427E+04  0.7818609E-02  0.8439718E-01
       -3   -1    0    0    0  501  0.00000000000E+00  0.00000000000E+00  0.12909643275E+04  0.12909643314E+04  0.10100000352E+00 0.  1.
        3   -1    0    0  501    0  0.00000000000E+00  0.00000000000E+00 -0.11149128973E+04  0.11149129018E+04  0.10100000352E+00 0. -1.
    10030    2    1    2    0    0  0.00000000000E+00  0.00000000000E+00  0.17605143020E+03  0.24058772332E+04  0.23994272557E+04 0.  0.
        4    1    3    3  502    0  0.10416313270E+04 -0.16768795001E+03  0.66069680713E+03  0.12448441484E+04  0.12699999809E+01 0.  1.
       -4    1    3    3    0  502 -0.10416313270E+04  0.16768795001E+03 -0.48464537693E+03  0.11610330849E+04  0.12699999809E+01 0. -1.
</event>
<event>
 5   0  0.1308662E-06  0.2399693E+04  0.7818609E-02  0.8439619E-01
       -2   -1    0    0    0  501  0.00000000000E+00  0.00000000000E+00  0.10968577047E+04  0.10968577047E+04  0.25500000920E-02 0. -1.
        2   -1    0    0  501    0  0.00000000000E+00  0.00000000000E+00 -0.13125051569E+04  0.13125051569E+04  0.25500000920E-02 0.  1.
    10030    2    1    2    0    0  0.00000000000E+00  0.00000000000E+00 -0.21564745216E+03  0.24093628616E+04  0.23996928085E+04 0.  0.
        3    1    3    3  502    0  0.34601339392E+03  0.69904859202E+03 -0.10232197931E+04  0.12866129791E+04  0.10100000352E+00 0.  1.
       -3    1    3    3    0  502 -0.34601339392E+03 -0.69904859202E+03  0.80757234090E+03  0.11227498825E+04  0.10100000352E+00 0. -1.
</event>
<event>
 5   0  0.5363690E-07  0.2400022E+04  0.7818609E-02  0.8439495E-01
        1   -1    0    0  501    0  0.00000000000E+00  0.00000000000E+00  0.12619081779E+04  0.12619081780E+04  0.50400001928E-02 0. -1.
       -1   -1    0    0    0  501  0.00000000000E+00  0.00000000000E+00 -0.11411497645E+04  0.11411497645E+04  0.50400001928E-02 0.  1.
    10030    2    1    2    0    0  0.00000000000E+00  0.00000000000E+00  0.12075841344E+03  0.24030579425E+04  0.24000218500E+04 0.  0.
        4    1    3    3  502    0  0.33024516228E+03 -0.44358085650E+03 -0.10059557139E+04  0.11479435329E+04  0.12699999809E+01 0.  1.
       -4    1    3    3    0  502 -0.33024516228E+03  0.44358085650E+03  0.11267141273E+04  0.12551144096E+04  0.12699999809E+01 0. -1.
</event>
<event>
 5   0  0.1291468E-06  0.2396693E+04  0.7818609E-02  0.8440743E-01
        2   -1    0    0  501    0  0.00000000000E+00  0.00000000000E+00  0.56226553454E+03  0.56226553455E+03  0.25500000920E-02 0.  1.
       -2   -1    0    0    0  501  0.00000000000E+00  0.00000000000E+00 -0.25540137233E+04  0.25540137233E+04  0.25500000920E-02 0. -1.
    10030    2    1    2    0    0  0.00000000000E+00  0.00000000000E+00 -0.19917481888E+04  0.31162792578E+04  0.23966926306E+04 0.  0.
        4    1    3    3  502    0  0.29692891682E+03  0.88540851537E+03 -0.19465212489E+02  0.93407469087E+03  0.12699999809E+01 0.  1.
       -4    1    3    3    0  502 -0.29692891682E+03 -0.88540851537E+03 -0.19722829763E+04  0.21822045670E+04  0.12699999809E+01 0. -1.
</event>
<event>
 5   0  0.1275948E-06  0.2400753E+04  0.7818609E-02  0.8439222E-01
        2   -1    0    0  501    0  0.00000000000E+00  0.00000000000E+00  0.79605000235E+03  0.79605000236E+03  0.25500000920E-02 0. -1.
       -2   -1    0    0    0  501  0.00000000000E+00  0.00000000000E+00 -0.18100662336E+04  0.18100662336E+04  0.25500000920E-02 0.  1.
    10030    2    1    2    0    0  0.00000000000E+00  0.00000000000E+00 -0.10140162313E+04  0.26061162360E+04  0.24007525733E+04 0.  0.
        1    1    3    3  502    0 -0.86684365596E+03 -0.35756191267E+03  0.30652151878E+03  0.98652110305E+03  0.50400001928E-02 0. -1.
       -1    1    3    3    0  502  0.86684365596E+03  0.35756191267E+03 -0.13205377501E+04  0.16195951329E+04  0.50400001928E-02 0.  1.
</event>
<event>
 5   0  0.5510176E-07  0.2404187E+04  0.7818609E-02  0.8437938E-01
        1   -1    0    0  501    0  0.00000000000E+00  0.00000000000E+00  0.19595980793E+04  0.19595980793E+04  0.50400001928E-02 0. -1.
       -1   -1    0    0    0  501  0.00000000000E+00  0.00000000000E+00 -0.73741088119E+03  0.73741088121E+03  0.50400001928E-02 0.  1.
    10030    2    1    2    0    0  0.00000000000E+00  0.00000000000E+00  0.12221871981E+04  0.26970089605E+04  0.24041871362E+04 0.  0.
        3    1    3    3  502    0  0.10368836543E+04  0.93026034721E+02 -0.63149443342E+02  0.10429618488E+04  0.10100000352E+00 0.  1.
       -3    1    3    3    0  502 -0.10368836543E+04 -0.93026034721E+02  0.12853366414E+04  0.16540471117E+04  0.10100000352E+00 0. -1.
</event>
<event>
 5   0  0.1308662E-06  0.2399946E+04  0.7818609E-02  0.8439524E-01
        2   -1    0    0  501    0  0.00000000000E+00  0.00000000000E+00  0.13641989933E+04  0.13641989933E+04  0.25500000920E-02 0.  1.
       -2   -1    0    0    0  501  0.00000000000E+00  0.00000000000E+00 -0.10555171520E+04  0.10555171520E+04  0.25500000920E-02 0. -1.
    10030    2    1    2    0    0  0.00000000000E+00  0.00000000000E+00  0.30868184136E+03  0.24197161453E+04  0.23999461962E+04 0.  0.
        3    1    3    3  502    0 -0.30711681908E+03  0.20467278912E+03 -0.99687212610E+03  0.10629984653E+04  0.10100000352E+00 0. -1.
       -3    1    3    3    0  502  0.30711681908E+03 -0.20467278912E+03  0.13055539675E+04  0.13567176800E+04  0.10100000352E+00 0.  1.
</event>
<event>
 5   0  0.5363690E-07  0.2400095E+04  0.7818609E-02  0.8439468E-01
       -1   -1    0    0    0  501  0.00000000000E+00  0.00000000000E+00  0.67928929452E+03  0.67928929454E+03  0.50400001928E-02 0.  1.
        1   -1    0    0  501    0  0.00000000000E+00  0.00000000000E+00 -0.21200305492E+04  0.21200305492E+04  0.50400001928E-02 0. -1.
    10030    2    1    2    0    0  0.00000000000E+00  0.00000000000E+00 -0.14407412547E+04  0.27993198437E+04  0.24000950449E+04 0.  0.
        4    1    3    3  502    0  0.11630164894E+04  0.10894024736E+03 -0.39960224873E+03  0.12345683060E+04  0.12699999809E+01 0.  1.
       -4    1    3    3    0  502 -0.11630164894E+04 -0.10894024736E+03 -0.10411390059E+04  0.15647515377E+04  0.12699999809E+01 0. -1.
</event>
<event>
 5   0  0.1336057E-06  0.2400296E+04  0.7818609E-02  0.8439393E-01
        2   -1    0    0  501    0  0.00000000000E+00  0.00000000000E+00  0.11996207051E+04  0.11996207051E+04  0.25500000920E-02 0. -1.
       -2   -1    0    0    0  501  0.00000000000E+00  0.00000000000E+00 -0.12006754368E+04  0.12006754368E+04  0.25500000920E-02 0.  1.
    10030    2    1    2    0    0  0.00000000000E+00  0.00000000000E+00 -0.10547316675E+01  0.24002961419E+04  0.24002959101E+04 0.  0.
        2    1    3    3  502    0  0.40288777050E+03  0.69581860568E+03  0.89046824566E+03  0.11997565520E+04  0.25500000920E-02 0. -1.
       -2    1    3    3    0  502 -0.40288777050E+03 -0.69581860568E+03 -0.89152297732E+03  0.12005395898E+04  0.25500000920E-02 0.  1.
</event>
<event>
 5   0  0.5363690E-07  0.2399957E+04  0.7818609E-02  0.8439520E-01
       -1   -1    0    0    0  501  0.00000000000E+00  0.00000000000E+00  0.10261819720E+04  0.10261819720E+04  0.50400001928E-02 0. -1.
        1   -1    0    0  501    0  0.00000000000E+00  0.00000000000E+00 -0.14032095930E+04  0.14032095930E+04  0.50400001928E-02 0.  1.
    10030    2    1    2    0    0  0.00000000000E+00  0.00000000000E+00 -0.37702762099E+03  0.24293915650E+04  0.23999569890E+04 0.  0.
        4    1    3    3  502    0 -0.14499574471E+03  0.70445748591E+03  0.78382032578E+03  0.10637951078E+04  0.12699999809E+01 0. -1.
       -4    1    3    3    0  502  0.14499574471E+03 -0.70445748591E+03 -0.11608479468E+04  0.13655964572E+04  0.12699999809E+01 0.  1.
</event>
<event>
 5   0  0.5363690E-07  0.2399492E+04  0.7818609E-02  0.8439694E-01
        1   -1    0    0  501    0  0.00000000000E+00  0.00000000000E+00  0.15012244086E+04  0.15012244086E+04  0.50400001928E-02 0.  1.
       -1   -1    0    0    0  501  0.00000000000E+00  0.00000000000E+00 -0.95881138620E+03  0.95881138622E+03  0.50400001928E-02 0. -1.
    10030    2    1    2    0    0  0.00000000000E+00  0.00000000000E+00  0.54241302239E+03  0.24600357948E+04  0.23994924932E+04 0.  0.
        4    1    3    3  502    0 -0.68875536591E+03 -0.79522455147E+03  0.86249364818E+03  0.13603907333E+04  0.12699999809E+01 0. -1.
       -4    1    3    3    0  502  0.68875536591E+03  0.79522455147E+03 -0.32008062579E+03  0.10996450615E+04  0.12699999809E+01 0.  1.
</event>
<event>
 5   0  0.5690124E-07  0.2396808E+04  0.7818609E-02  0.8440700E-01
        1   -1    0    0  501    0  0.00000000000E+00  0.00000000000E+00  0.10688955022E+04  0.10688955022E+04  0.50400001928E-02 0.  1.
       -1   -1    0    0    0  501  0.00000000000E+00  0.00000000000E+00 -0.13436038920E+04  0.13436038920E+04  0.50400001928E-02 0. -1.
    10030    2    1    2    0    0  0.00000000000E+00  0.00000000000E+00 -0.27470838980E+03  0.24124993942E+04  0.23968080081E+04 0.  0.
        2    1    3    3  502    0  0.55477221685E+02  0.98464800301E+03  0.54795763519E+03  0.11282140674E+04  0.25500000920E-02 0.  1.
       -2    1    3    3    0  502 -0.55477221685E+02 -0.98464800301E+03 -0.82266602499E+03  0.12842853268E+04  0.25500000920E-02 0. -1.
</event>
<event>
 5   0  0.1336057E-06  0.2400012E+04  0.7818609E-02  0.8439499E-01
        2   -1    0    0  501    0  0.00000000000E+00  0.00000000000E+00  0.13457102634E+04  0.13457102634E+04  0.25500000920E-02 0.  1.
       -2   -1    0    0    0  501  0.00000000000E+00  0.00000000000E+00 -0.10700773006E+04  0.10700773006E+04  0.25500000920E-02 0. -1.
    10030    2    1    2    0    0  0.00000000000E+00  0.00000000000E+00  0.27563296286E+03  0.24157875640E+04  0.24000116717E+04 0.  0.
        2    1    3    3  502    0 -0.72331226836E+02  0.95967984831E+03  0.85932436397E+03  0.12902153232E+04  0.25500000920E-02 0.  1.
       -2    1    3    3    0  502  0.72331226836E+02 -0.95967984831E+03 -0.58369140111E+03  0.11255722408E+04  0.25500000920E-02 0. -1.
</event>
<event>
 5   0  0.1275948E-06  0.2399766E+04  0.7818609E-02  0.8439591E-01
       -2   -1    0    0    0  501  0.00000000000E+00  0.00000000000E+00  0.91287935080E+03  0.91287935081E+03  0.25500000920E-02 0. -1.
        2   -1    0    0  501    0  0.00000000000E+00  0.00000000000E+00 -0.15771191318E+04  0.15771191318E+04  0.25500000920E-02 0.  1.
    10030    2    1    2    0    0  0.00000000000E+00  0.00000000000E+00 -0.66423978096E+03  0.24899984826E+04  0.23997662296E+04 0.  0.
        1    1    3    3  502    0 -0.89127768947E+03  0.67217040178E+03 -0.78858215145E+03  0.13667665413E+04  0.50400001928E-02 0.  1.
       -1    1    3    3    0  502  0.89127768947E+03 -0.67217040178E+03  0.12434237049E+03  0.11232319413E+04  0.50400001928E-02 0. -1.
</event>
<event>
 5   0  0.4483375E-07  0.2401875E+04  0.7818609E-02  0.8438802E-01
       -4   -1    0    0    0  501  0.00000000000E+00  0.00000000000E+00  0.25458546841E+04  0.25458550008E+04  0.12699999809E+01 0.  1.
        4   -1    0    0  501    0  0.00000000000E+00  0.00000000000E+00 -0.56650832097E+03  0.56650974452E+03  0.12699999809E+01 0. -1.
    10030    2    1    2    0    0  0.00000000000E+00  0.00000000000E+00  0.19793463631E+04  0.31123647454E+04  0.24018747434E+04 0.  0.
        4    1    3    3  502    0 -0.10734466198E+04 -0.31169120319E+02  0.16862698416E+04  0.19991915244E+04  0.12699999809E+01 0.  1.
       -4    1    3    3    0  502  0.10734466198E+04  0.31169120319E+02  0.29307652147E+03  0.11131732210E+04  0.12699999809E+01 0. -1.
</event>
<event>
 5   0  0.1275948E-06  0.2399418E+04  0.7818609E-02  0.8439721E-01
        2   -1    0    0  501    0  0.00000000000E+00  0.00000000000E+00  0.17202219769E+04  0.17202219769E+04  0.25500000920E-02 0. -1.
       -2   -1    0    0    0  501  0.00000000000E+00  0.00000000000E+00 -0.83669541025E+03  0.83669541025E+03  0.25500000920E-02 0.  1.
    10030    2    1    2    0    0  0.00000000000E+00  0.00000000000E+00  0.88352656664E+03  0.25569173871E+04  0.23994181234E+04 0.  0.
        1    1    3    3  502    0 -0.83047741619E+02 -0.59679121108E+03 -0.66375611219E+03  0.89645348653E+03  0.50400001928E-02 0.  1.
       -1    1    3    3    0  502  0.83047741619E+02  0.59679121108E+03  0.15472826788E+04  0.16604639006E+04  0.50400001928E-02 0. -1.
</event>
<event>
 5   0  0.5527286E-07  0.2400347E+04  0.7818609E-02  0.8439374E-01
       -1   -1    0    0    0  501  0.00000000000E+00  0.00000000000E+00  0.94013264270E+03  0.94013264271E+03  0.50400001928E-02 0. -1.
        1   -1    0    0  501    0  0.00000000000E+00  0.00000000000E+00 -0.15321411532E+04  0.15321411532E+04  0.50400001928E-02 0.  1.
    10030    2    1    2    0    0  0.00000000000E+00  0.00000000000E+00 -0.59200851046E+03  0.24722737959E+04  0.24003465677E+04 0.  0.
        1    1    3    3  502    0  0.11889867573E+04 -0.15609090516E+03 -0.24594718032E+03  0.12241502748E+04  0.50400001928E-02 0.  1.
       -1    1    3    3    0  502 -0.11889867573E+04  0.15609090516E+03 -0.34606133014E+03  0.12481235211E+04  0.50400001928E-02 0. -1.
</event>
<event>
 5   0  0.1307477E-06  0.2400187E+04  0.7818609E-02  0.8439434E-01
       -2   -1    0    0    0  501  0.00000000000E+00  0.00000000000E+00  0.96481012187E+03  0.96481012187E+03  0.25500000920E-02 0. -1.
        2   -1    0    0  501    0  0.00000000000E+00  0.00000000000E+00 -0.14927542375E+04  0.14927542375E+04  0.25500000920E-02 0.  1.
    10030    2    1    2    0    0  0.00000000000E+00  0.00000000000E+00 -0.52794411561E+03  0.24575643593E+04  0.24001869909E+04 0.  0.
        5    1    3    3  502    0  0.12467761412E+03  0.11619154220E+04 -0.54365074219E+03  0.12888639086E+04  0.46999998093E+01 0.  1.
       -5    1    3    3    0  502 -0.12467761412E+03 -0.11619154220E+04  0.15706626587E+02  0.11687004507E+04  0.46999998093E+01 0. -1.
</event>
<event>
 5   0  0.4483375E-07  0.2399452E+04  0.7818609E-02  0.8439709E-01
        3   -1    0    0  501    0  0.00000000000E+00  0.00000000000E+00  0.12546690141E+04  0.12546690181E+04  0.10100000352E+00 0. -1.
       -3   -1    0    0    0  501  0.00000000000E+00  0.00000000000E+00 -0.11471887674E+04  0.11471887719E+04  0.10100000352E+00 0.  1.
    10030    2    1    2    0    0  0.00000000000E+00  0.00000000000E+00  0.10748024664E+03  0.24018577900E+04  0.23994517791E+04 0.  0.
        5    1    3    3  502    0  0.11448225909E+04 -0.35827716231E+03  0.72165928776E+02  0.12017534276E+04  0.46999998093E+01 0. -1.
       -5    1    3    3    0  502 -0.11448225909E+04  0.35827716231E+03  0.35314317861E+02  0.12001043624E+04  0.46999998093E+01 0.  1.
</event>
<event>
 5   0  0.1291468E-06  0.2400305E+04  0.7818609E-02  0.8439389E-01
        2   -1    0    0  501    0  0.00000000000E+00  0.00000000000E+00  0.12052051319E+04  0.12052051319E+04  0.25500000920E-02 0.  1.
       -2   -1    0    0    0  501  0.00000000000E+00  0.00000000000E+00 -0.11951210668E+04  0.11951210668E+04  0.25500000920E-02 0. -1.
    10030    2    1    2    0    0  0.00000000000E+00  0.00000000000E+00  0.10084065041E+02  0.24003261987E+04  0.24003050164E+04 0.  0.
        4    1    3    3  502    0  0.21010518447E+03 -0.56463475854E+03  0.10430337699E+04  0.12045238301E+04  0.12699999809E+01 0.  1.
       -4    1    3    3    0  502 -0.21010518447E+03  0.56463475854E+03 -0.10329497049E+04  0.11958023686E+04  0.12699999809E+01 0. -1.
</event>
<event>
 5   0  0.1291468E-06  0.2400217E+04  0.7818609E-02  0.8439422E-01
        2   -1    0    0  501    0  0.00000000000E+00  0.00000000000E+00  0.19010968693E+04  0.19010968693E+04  0.25500000920E-02 0.  1.
       -2   -1    0    0    0  501  0.00000000000E+00  0.00000000000E+00 -0.75759426651E+03  0.75759426651E+03  0.25500000920E-02 0. -1.
    10030    2    1    2    0    0  0.00000000000E+00  0.00000000000E+00  0.11435026028E+04  0.26586911359E+04  0.24002167305E+04 0.  0.
        4    1    3    3  502    0  0.62697114534E+03 -0.87260984640E+02  0.17011320139E+04  0.18150920192E+04  0.12699999809E+01 0.  1.
       -4    1    3    3    0  502 -0.62697114534E+03  0.87260984640E+02 -0.55762941111E+03  0.84359911662E+03  0.12699999809E+01 0. -1.
</event>
<event>
 5   0  0.5690124E-07  0.2398408E+04  0.7818609E-02  0.8440100E-01
        1   -1    0    0  501    0  0.00000000000E+00  0.00000000000E+00  0.11213491430E+04  0.11213491430E+04  0.50400001928E-02 0.  1.
       -1   -1    0    0    0  501  0.00000000000E+00  0.00000000000E+00 -0.12824646440E+04  0.12824646440E+04  0.50400001928E-02 0. -1.
    10030    2    1    2    0    0  0.00000000000E+00  0.00000000000E+00 -0.16111550092E+03  0.24038137870E+04  0.23984083301E+04 0.  0.
        2    1    3    3  502    0  0.19063452739E+03  0.11753623047E+04  0.62144882234E+02  0.11923422566E+04  0.25500000920E-02 0. -1.
       -2    1    3    3    0  502 -0.19063452739E+03 -0.11753623047E+04 -0.22326038316E+03  0.12114715304E+04  0.25500000920E-02 0.  1.
</event>
<event>
 5   0  0.5510176E-07  0.2399633E+04  0.7818609E-02  0.8439641E-01
       -1   -1    0    0    0  501  0.00000000000E+00  0.00000000000E+00  0.80215409592E+03  0.80215409593E+03  0.50400001928E-02 0. -1.
        1   -1    0    0  501    0  0.00000000000E+00  0.00000000000E+00 -0.17946174239E+04  0.17946174240E+04  0.50400001928E-02 0.  1.
    10030    2    1    2    0    0  0.00000000000E+00  0.00000000000E+00 -0.99246332803E+03  0.25967715199E+04  0.23996330697E+04 0.  0.
        3    1    3    3  502    0  0.29893955159E+03 -0.29734799500E+02 -0.17532594628E+04  0.17788107735E+04  0.10100000352E+00 0.  1.
       -3    1    3    3    0  502 -0.29893955159E+03  0.29734799500E+02  0.76079613475E+03  0.81796074641E+03  0.10100000352E+00 0. -1.
</event>
<event>
 5   0  0.5452384E-07  0.2400041E+04  0.7818609E-02  0.8439488E-01
       -1   -1    0    0    0  501  0.00000000000E+00  0.00000000000E+00  0.17302146985E+04  0.17302146985E+04  0.50400001928E-02 0. -1.
        1   -1    0    0  501    0  0.00000000000E+00  0.00000000000E+00 -0.83229491070E+03  0.83229491071E+03  0.50400001928E-02 0.  1.
    10030    2    1    2    0    0  0.00000000000E+00  0.00000000000E+00  0.89791978779E+03  0.25625096092E+04  0.24000407396E+04 0.  0.
        5    1    3    3  502    0  0.68124785033E+03 -0.14588712369E+03  0.14921605833E+04  0.16467990111E+04  0.46999998093E+01 0. -1.
       -5    1    3    3    0  502 -0.68124785033E+03  0.14588712369E+03 -0.59424079554E+03  0.91571059813E+03  0.46999998093E+01 0.  1.
</event>
<event>
 5   0  0.1291468E-06  0.2400004E+04  0.7818609E-02  0.8439502E-01
       -2   -1    0    0    0  501  0.00000000000E+00  0.00000000000E+00  0.11247711886E+04  0.11247711886E+04  0.25500000920E-02 0.  1.
        2   -1    0    0  501    0  0.00000000000E+00  0.00000000000E+00 -0.12802641423E+04  0.12802641423E+04  0.25500000920E-02 0. -1.
    10030    2    1    2    0    0  0.00000000000E+00  0.00000000000E+00 -0.15549295368E+03  0.24050353309E+04  0.24000035175E+04 0.  0.
        4    1    3    3  502    0 -0.79426252277E+03 -0.81650944639E+03  0.30048621712E+03  0.11780637549E+04  0.12699999809E+01 0.  1.
       -4    1    3    3    0  502  0.79426252277E+03  0.81650944639E+03 -0.45597917080E+03  0.12269715760E+04  0.12699999809E+01 0. -1.
</event>
<event>
 5   0  0.1307477E-06  0.2399460E+04  0.7818609E-02  0.8439706E-01
        2   -1    0    0  501    0  0.00000000000E+00  0.00000000000E+00  0.22090681553E+04  0.22090681553E+04  0.25500000920E-02 0.  1.
       -2   -1    0    0    0  501  0.00000000000E+00  0.00000000000E+00 -0.65156527245E+03  0.65156527245E+03  0.25500000920E-02 0. -1.
    10030    2    1    2    0    0  0.00000000000E+00  0.00000000000E+00  0.15575028829E+04  0.28606334278E+04  0.23994600180E+04 0.  0.
        5    1    3    3  502    0 -0.10613725865E+04 -0.36836317972E+03  0.12805054330E+04  0.17035021143E+04  0.46999998093E+01 0.  1.
       -5    1    3    3    0  502  0.10613725865E+04  0.36836317972E+03  0.27699744991E+03  0.11571313135E+04  0.46999998093E+01 0. -1.
</event>
<event>
 5   0  0.1275948E-06  0.2399739E+04  0.7818609E-02  0.8439601E-01
        2   -1    0    0  501    0  0.00000000000E+00  0.00000000000E+00  0.12004410014E+04  0.12004410014E+04  0.25500000920E-02 0.  1.
       -2   -1    0    0    0  501  0.00000000000E+00  0.00000000000E+00 -0.11992985707E+04  0.11992985707E+04  0.25500000920E-02 0. -1.
    10030    2    1    2    0    0  0.00000000000E+00  0.00000000000E+00  0.11424307627E+01  0.23997395721E+04  0.23997393002E+04 0.  0.
        1    1    3    3  502    0  0.46661963033E+03  0.10216202327E+04  0.42276244955E+03  0.12000707763E+04  0.50400001928E-02 0. -1.
       -1    1    3    3    0  502 -0.46661963033E+03 -0.10216202327E+04 -0.42162001879E+03  0.11996687958E+04  0.50400001928E-02 0.  1.
</event>
<event>
 5   0  0.1275948E-06  0.2397220E+04  0.7818609E-02  0.8440545E-01
       -2   -1    0    0    0  501  0.00000000000E+00  0.00000000000E+00  0.85516182168E+03  0.85516182169E+03  0.25500000920E-02 0.  1.
        2   -1    0    0  501    0  0.00000000000E+00  0.00000000000E+00 -0.16799925159E+04  0.16799925159E+04  0.25500000920E-02 0. -1.
    10030    2    1    2    0    0  0.00000000000E+00  0.00000000000E+00 -0.82483069420E+03  0.25351543376E+04  0.23972196064E+04 0.  0.
        1    1    3    3  502    0  0.50434735373E+03  0.10358855695E+04 -0.76194820904E+03  0.13813001989E+04  0.50400001928E-02 0. -1.
       -1    1    3    3    0  502 -0.50434735373E+03 -0.10358855695E+04 -0.62882485166E+02  0.11538541386E+04  0.50400001928E-02 0.  1.
</event>
<event>
 5   0  0.5452384E-07  0.2399752E+04  0.7818609E-02  0.8439596E-01
       -1   -1    0    0    0  501  0.00000000000E+00  0.00000000000E+00  0.20621947756E+04  0.20621947756E+04  0.50400001928E-02 0. -1.
        1   -1    0    0  501    0  0.00000000000E+00  0.00000000000E+00 -0.69814076807E+03  0.69814076809E+03  0.50400001928E-02 0.  1.
    10030    2    1    2    0    0  0.00000000000E+00  0.00000000000E+00  0.13640540075E+04  0.27603355437E+04  0.23997518576E+04 0.  0.
        5    1    3    3  502    0  0.94387777447E+03  0.22064654615E+03  0.14954559589E+04  0.17821337678E+04  0.46999998093E+01 0. -1.
       -5    1    3    3    0  502 -0.94387777447E+03 -0.22064654615E+03 -0.13140195137E+03  0.97820177585E+03  0.46999998093E+01 0.  1.
</event>
<event>
 5   0  0.5452384E-07  0.2402054E+04  0.7818609E-02  0.8438735E-01
       -1   -1    0    0    0  501  0.00000000000E+00  0.00000000000E+00  0.54403606284E+03  0.54403606286E+03  0.50400001928E-02 0. -1.
        1   -1    0    0  501    0  0.00000000000E+00  0.00000000000E+00 -0.26514154890E+04  0.26514154890E+04  0.50400001928E-02 0.  1.
    10030    2    1    2    0    0  0.00000000000E+00  0.00000000000E+00 -0.21073794261E+04  0.31954515518E+04  0.24020538242E+04 0.  0.
        5    1    3    3  502    0 -0.68378010128E+03 -0.92505007227E+03 -0.59445550539E+03  0.12948638156E+04  0.46999998093E+01 0. -1.
       -5    1    3    3    0  502  0.68378010128E+03  0.92505007227E+03 -0.15129239207E+04  0.19005877362E+04  0.46999998093E+01 0.  1.
</event>
<event>
 5   0  0.1291468E-06  0.2399848E+04  0.7818609E-02  0.8439560E-01
        2   -1    0    0  501    0  0.00000000000E+00  0.00000000000E+00  0.19651244780E+04  0.19651244780E+04  0.25500000920E-02 0. -1.
       -2   -1    0    0    0  501  0.00000000000E+00  0.00000000000E+00 -0.73268515143E+03  0.73268515143E+03  0.25500000920E-02 0.  1.
    10030    2    1    2    0    0  0.00000000000E+00  0.00000000000E+00  0.12324393266E+04  0.26978096294E+04  0.23998479333E+04 0.  0.
        4    1    3    3  502    0  0.10725931579E+04 -0.23636895742E+03  0.11594215851E+04  0.15970555380E+04  0.12699999809E+01 0. -1.
       -4    1    3    3    0  502 -0.10725931579E+04  0.23636895742E+03  0.73017741480E+02  0.11007540915E+04  0.12699999809E+01 0.  1.
</event>
<event>
 5   0  0.5363690E-07  0.2399869E+04  0.7818609E-02  0.8439553E-01
       -1   -1    0    0    0  501  0.00000000000E+00  0.00000000000E+00  0.14354196904E+04  0.14354196904E+04  0.50400001928E-02 0. -1.
        1   -1    0    0  501    0  0.00000000000E+00  0.00000000000E+00 -0.10030814436E+04  0.10030814436E+04  0.50400001928E-02 0.  1.
    10030    2    1    2    0    0  0.00000000000E+00  0.00000000000E+00  0.43233824682E+03  0.24385011340E+04  0.23998690424E+04 0.  0.
        4    1    3    3  502    0 -0.45906616586E+03 -0.81503870056E+03  0.97980645392E+03  0.13546409591E+04  0.12699999809E+01 0. -1.
       -4    1    3    3    0  502  0.45906616586E+03  0.81503870056E+03 -0.54746820710E+03  0.10838601749E+04  0.12699999809E+01 0.  1.
</event>
<event>
 5   0  0.1291468E-06  0.2400468E+04  0.7818609E-02  0.8439328E-01
       -2   -1    0    0    0  501  0.00000000000E+00  0.00000000000E+00  0.92472366999E+03  0.92472367000E+03  0.25500000920E-02 0.  1.
        2   -1    0    0  501    0  0.00000000000E+00  0.00000000000E+00 -0.15578299689E+04  0.15578299689E+04  0.25500000920E-02 0. -1.
    10030    2    1    2    0    0  0.00000000000E+00  0.00000000000E+00 -0.63310629892E+03  0.24825536389E+04  0.24004684927E+04 0.  0.
        4    1    3    3  502    0  0.10804940513E+03  0.72736047902E+03  0.66447962084E+03  0.99109168082E+03  0.12699999809E+01 0.  1.
       -4    1    3    3    0  502 -0.10804940513E+03 -0.72736047902E+03 -0.12975859198E+04  0.14914619581E+04  0.12699999809E+01 0. -1.
</event>
<event>
 5   0  0.5510176E-07  0.2399584E+04  0.7818609E-02  0.8439659E-01
        1   -1    0    0  501    0  0.00000000000E+00  0.00000000000E+00  0.11613749934E+04  0.11613749934E+04  0.50400001928E-02 0.  1.
       -1   -1    0    0    0  501  0.00000000000E+00  0.00000000000E+00 -0.12394797959E+04  0.12394797959E+04  0.50400001928E-02 0. -1.
    10030    2    1    2    0    0  0.00000000000E+00  0.00000000000E+00 -0.78104802530E+02  0.24008547893E+04  0.23995839971E+04 0.  0.
        3    1    3    3  502    0  0.81390717186E+03  0.23213612820E+03  0.81179125642E+03  0.11727476799E+04  0.10100000352E+00 0.  1.
       -3    1    3    3    0  502 -0.81390717186E+03 -0.23213612820E+03 -0.88989605895E+03  0.12281071095E+04  0.10100000352E+00 0. -1.
</event>
<event>
 5   0  0.5363690E-07  0.2399752E+04  0.7818609E-02  0.8439596E-01
       -1   -1    0    0    0  501  0.00000000000E+00  0.00000000000E+00  0.71661510973E+03  0.71661510974E+03  0.50400001928E-02 0. -1.
        1   -1    0    0  501    0  0.00000000000E+00  0.00000000000E+00 -0.20090315213E+04  0.20090315213E+04  0.50400001928E-02 0.  1.
    10030    2    1    2    0    0  0.00000000000E+00  0.00000000000E+00 -0.12924164116E+04  0.27256466311E+04  0.23997519406E+04 0.  0.
        4    1    3    3  502    0  0.40194236905E+03  0.24400565250E+03 -0.19000263580E+04  0.19573446811E+04  0.12699999809E+01 0.  1.
       -4    1    3    3    0  502 -0.40194236905E+03 -0.24400565250E+03  0.60760994641E+03  0.76830195000E+03  0.12699999809E+01 0. -1.
</event>
<event>
 5   0  0.5690124E-07  0.2399076E+04  0.7818609E-02  0.8439850E-01
       -1   -1    0    0    0  501  0.00000000000E+00  0.00000000000E+00  0.55207460634E+03  0.55207460636E+03  0.50400001928E-02 0.  1.
        1   -1    0    0  501    0  0.00000000000E+00  0.00000000000E+00 -0.26063351392E+04  0.26063351392E+04  0.50400001928E-02 0. -1.
    10030    2    1    2    0    0  0.00000000000E+00  0.00000000000E+00 -0.20542605328E+04  0.31584097455E+04  0.23990760271E+04 0.  0.
        2    1    3    3  502    0  0.38628646293E+03  0.79066574022E+03 -0.21003264254E+04  0.22772221317E+04  0.25500000920E-02 0. -1.
       -2    1    3    3    0  502 -0.38628646293E+03 -0.79066574022E+03  0.46065892556E+02  0.88118761377E+03  0.25500000920E-02 0.  1.
</event>
<event>
 5   0  0.1275948E-06  0.2400136E+04  0.7818609E-02  0.8439453E-01
       -2   -1    0    0    0  501  0.00000000000E+00  0.00000000000E+00  0.52863743670E+03  0.52863743670E+03  0.25500000920E-02 0. -1.
        2   -1    0    0  501    0  0.00000000000E+00  0.00000000000E+00 -0.27242934698E+04  0.27242934698E+04  0.25500000920E-02 0.  1.
    10030    2    1    2    0    0  0.00000000000E+00  0.00000000000E+00 -0.21956560331E+04  0.32529309065E+04  0.24001362601E+04 0.  0.
        1    1    3    3  502    0 -0.51146393420E+03 -0.13984019485E+03  0.36126531275E+03  0.64160989886E+03  0.50400001928E-02 0. -1.
       -1    1    3    3    0  502  0.51146393420E+03  0.13984019485E+03 -0.25569213459E+04  0.26113210077E+04  0.50400001928E-02 0.  1.
</event>
<event>
 5   0  0.5527286E-07  0.2405282E+04  0.7818609E-02  0.8437529E-01
        1   -1    0    0  501    0  0.00000000000E+00  0.00000000000E+00  0.95409486111E+03  0.95409486113E+03  0.50400001928E-02 0. -1.
       -1   -1    0    0    0  501  0.00000000000E+00  0.00000000000E+00 -0.15159344434E+04  0.15159344434E+04  0.50400001928E-02 0.  1.
    10030    2    1    2    0    0  0.00000000000E+00  0.00000000000E+00 -0.56183958225E+03  0.24700293045E+04  0.24052819063E+04 0.  0.
        1    1    3    3  502    0  0.19831399955E+03 -0.23453139346E+03  0.91314081278E+03  0.96341038033E+03  0.50400001928E-02 0. -1.
       -1    1    3    3    0  502 -0.19831399955E+03  0.23453139346E+03 -0.14749803950E+04  0.15066189242E+04  0.50400001928E-02 0.  1.
</event>
<event>
 5   0  0.1275948E-06  0.2403557E+04  0.7818609E-02  0.8438173E-01
        2   -1    0    0  501    0  0.00000000000E+00  0.00000000000E+00  0.13772199480E+04  0.13772199480E+04  0.25500000920E-02 0. -1.
       -2   -1    0    0    0  501  0.00000000000E+00  0.00000000000E+00 -0.10486865585E+04  0.10486865585E+04  0.25500000920E-02 0.  1.
    10030    2    1    2    0    0  0.00000000000E+00  0.00000000000E+00  0.32853338945E+03  0.24259065065E+04  0.24035574031E+04 0.  0.
        1    1    3    3  502    0  0.77455012273E+03 -0.89359184050E+03 -0.51821646986E+02  0.11836890441E+04  0.50400001928E-02 0. -1.
       -1    1    3    3    0  502 -0.77455012273E+03  0.89359184050E+03  0.38035503644E+03  0.12422174624E+04  0.50400001928E-02 0.  1.
</event>
<event>
 5   0  0.1336057E-06  0.2399931E+04  0.7818609E-02  0.8439529E-01
       -2   -1    0    0    0  501  0.00000000000E+00  0.00000000000E+00  0.62639622732E+03  0.62639622733E+03  0.25500000920E-02 0.  1.
        2   -1    0    0  501    0  0.00000000000E+00  0.00000000000E+00 -0.22987324154E+04  0.22987324154E+04  0.25500000920E-02 0. -1.
    10030    2    1    2    0    0  0.00000000000E+00  0.00000000000E+00 -0.16723361881E+04  0.29251286428E+04  0.23999310929E+04 0.  0.
        2    1    3    3  502    0 -0.21994180853E+03 -0.11267624892E+04 -0.12618014814E+04  0.17059047701E+04  0.25500000920E-02 0. -1.
       -2    1    3    3    0  502  0.21994180853E+03  0.11267624892E+04 -0.41053470674E+03  0.12192238727E+04  0.25500000920E-02 0.  1.
</event>
<event>
 5   0  0.1291468E-06  0.2400930E+04  0.7818609E-02  0.8439155E-01
        2   -1    0    0  501    0  0.00000000000E+00  0.00000000000E+00  0.19179749340E+04  0.19179749340E+04  0.25500000920E-02 0. -1.
       -2   -1    0    0    0  501  0.00000000000E+00  0.00000000000E+00 -0.75137414998E+03  0.75137414999E+03  0.25500000920E-02 0.  1.
    10030    2    1    2    0    0  0.00000000000E+00  0.00000000000E+00  0.11666007840E+04  0.26693490840E+04  0.24009304744E+04 0.  0.
        4    1    3    3  502    0  0.42590663393E+03 -0.10612939084E+04  0.17726742361E+03  0.11572236488E+04  0.12699999809E+01 0. -1.
       -4    1    3    3    0  502 -0.42590663393E+03  0.10612939084E+04  0.98933336040E+03  0.15121254352E+04  0.12699999809E+01 0.  1.
</event>
<event>
 5   0  0.5363690E-07  0.2400258E+04  0.7818609E-02  0.8439407E-01
       -1   -1    0    0    0  501  0.00000000000E+00  0.00000000000E+00  0.95798928874E+03  0.95798928875E+03  0.50400001928E-02 0. -1.
        1   -1    0    0  501    0  0.00000000000E+00  0.00000000000E+00 -0.15034719361E+04  0.15034719361E+04  0.50400001928E-02 0.  1.
    10030    2    1    2    0    0  0.00000000000E+00  0.00000000000E+00 -0.54548264735E+03  0.24614612249E+04  0.24002583284E+04 0.  0.
        4    1    3    3  502    0  0.91849228273E+03 -0.75978104261E+03 -0.41562491787E+03  0.12623949427E+04  0.12699999809E+01 0.  1.
       -4    1    3    3    0  502 -0.91849228273E+03  0.75978104261E+03 -0.12985772949E+03  0.11990662821E+04  0.12699999809E+01 0. -1.
</event>
<event>
 5   0  0.5527286E-07  0.2398736E+04  0.7818609E-02  0.8439977E-01
       -1   -1    0    0    0  501  0.00000000000E+00  0.00000000000E+00  0.76578421891E+03  0.76578421893E+03  0.50400001928E-02 0. -1.
        1   -1    0    0  501    0  0.00000000000E+00  0.00000000000E+00 -0.18784458027E+04  0.18784458027E+04  0.50400001928E-02 0.  1.
    10030    2    1    2    0    0  0.00000000000E+00  0.00000000000E+00 -0.11126615838E+04  0.26442300217E+04  0.23987364606E+04 0.  0.
        1    1    3    3  502    0  0.58732793464E+03  0.46238804335E+03 -0.15902598507E+04  0.17571804683E+04  0.50400001928E-02 0.  1.
       -1    1    3    3    0  502 -0.58732793464E+03 -0.46238804335E+03  0.47759826693E+03  0.88704955332E+03  0.50400001928E-02 0. -1.
</event>
<event>
 5   0  0.1291468E-06  0.2398136E+04  0.7818609E-02  0.8440202E-01
        2   -1    0    0  501    0  0.00000000000E+00  0.00000000000E+00  0.12786527597E+04  0.12786527597E+04  0.25500000920E-02 0.  1.
       -2   -1    0    0    0  501  0.00000000000E+00  0.00000000000E+00 -0.11244362233E+04  0.11244362233E+04  0.25500000920E-02 0. -1.
    10030    2    1    2    0    0  0.00000000000E+00  0.00000000000E+00  0.15421653639E+03  0.24030889830E+04  0.23981355091E+04 0.  0.
        4    1    3    3  502    0  0.26179147482E+02  0.99427752284E+03 -0.59396802711E+03  0.11584786447E+04  0.12699999809E+01 0. -1.
       -4    1    3    3    0  502 -0.26179147482E+02 -0.99427752284E+03  0.74818456349E+03  0.12446103383E+04  0.12699999809E+01 0.  1.
</event>
<event>
 5   0  0.1307477E-06  0.2400050E+04  0.7818609E-02  0.8439485E-01
        2   -1    0    0  501    0  0.00000000000E+00  0.00000000000E+00  0.15352666722E+04  0.15352666722E+04  0.25500000920E-02 0.  1.
       -2   -1    0    0    0  501  0.00000000000E+00  0.00000000000E+00 -0.93798685508E+03  0.93798685509E+03  0.25500000920E-02 0. -1.
    10030    2    1    2    0    0  0.00000000000E+00  0.00000000000E+00  0.59727981713E+03  0.24732535273E+04  0.24000499641E+04 0.  0.
        5    1    3    3  502    0 -0.78931938205E+03  0.66997501078E+03  0.92389689621E+03  0.13876235681E+04  0.46999998093E+01 0.  1.
       -5    1    3    3    0  502  0.78931938205E+03 -0.66997501078E+03 -0.32661707908E+03  0.10856299592E+04  0.46999998093E+01 0. -1.
</event>
<event>
 5   0  0.5690124E-07  0.2397335E+04  0.7818609E-02  0.8440502E-01
       -1   -1    0    0    0  501  0.00000000000E+00  0.00000000000E+00  0.73956566219E+03  0.73956566221E+03  0.50400001928E-02 0. -1.
        1   -1    0    0  501    0  0.00000000000E+00  0.00000000000E+00 -0.19427677462E+04  0.19427677462E+04  0.50400001928E-02 0.  1.
    10030    2    1    2    0    0  0.00000000000E+00  0.00000000000E+00 -0.12032020840E+04  0.26823334084E+04  0.23973354498E+04 0.  0.
        2    1    3    3  502    0 -0.15439463934E+03 -0.11559386881E+04 -0.29158340981E+03  0.12021035065E+04  0.25500000920E-02 0. -1.
       -2    1    3    3    0  502  0.15439463934E+03  0.11559386881E+04 -0.91161867422E+03  0.14802299019E+04  0.25500000920E-02 0.  1.
</event>
<event>
 5   0  0.5510176E-07  0.2399834E+04  0.7818609E-02  0.8439566E-01
       -1   -1    0    0    0  501  0.00000000000E+00  0.00000000000E+00  0.10351646489E+04  0.10351646489E+04  0.50400001928E-02 0. -1.
        1   -1    0    0  501    0  0.00000000000E+00  0.00000000000E+00 -0.13908906051E+04  0.13908906051E+04  0.50400001928E-02 0.  1.
    10030    2    1    2    0    0  0.00000000000E+00  0.00000000000E+00 -0.35572595618E+03  0.24260552541E+04  0.23998339817E+04 0.  0.
        3    1    3    3  502    0 -0.47848788030E+03  0.10277644452E+04 -0.57528736361E+03  0.12713008957E+04  0.10100000352E+00 0.  1.
       -3    1    3    3    0  502  0.47848788030E+03 -0.10277644452E+04  0.21956140743E+03  0.11547543584E+04  0.10100000352E+00 0. -1.
</event>
<event>
 5   0  0.1336057E-06  0.2400048E+04  0.7818609E-02  0.8439486E-01
       -2   -1    0    0    0  501  0.00000000000E+00  0.00000000000E+00  0.91742654942E+03  0.91742654942E+03  0.25500000920E-02 0. -1.
        2   -1    0    0  501    0  0.00000000000E+00  0.00000000000E+00 -0.15696703411E+04  0.15696703411E+04  0.25500000920E-02 0.  1.
    10030    2    1    2    0    0  0.00000000000E+00  0.00000000000E+00 -0.65224379170E+03  0.24870968905E+04  0.24000477035E+04 0.  0.
        2    1    3    3  502    0  0.61787088692E+03 -0.52169000071E+03 -0.12449212181E+04  0.14845045399E+04  0.25500000920E-02 0.  1.
       -2    1    3    3    0  502 -0.61787088692E+03  0.52169000071E+03  0.59267742641E+03  0.10025923506E+04  0.25500000920E-02 0. -1.
</event>
<event>
 5   0  0.1291468E-06  0.2400243E+04  0.7818609E-02  0.8439412E-01
        2   -1    0    0  501    0  0.00000000000E+00  0.00000000000E+00  0.19919074545E+04  0.19919074545E+04  0.25500000920E-02 0.  1.
       -2   -1    0    0    0  501  0.00000000000E+00  0.00000000000E+00 -0.72307174958E+03  0.72307174959E+03  0.25500000920E-02 0. -1.
    10030    2    1    2    0    0  0.00000000000E+00  0.00000000000E+00  0.12688357050E+04  0.27149792041E+04  0.24002433278E+04 0.  0.
        4    1    3    3  502    0 -0.58730160690E+03 -0.44763318700E+03  0.17045089517E+04  0.18575928044E+04  0.12699999809E+01 0. -1.
       -4    1    3    3    0  502  0.58730160690E+03  0.44763318700E+03 -0.43567324677E+03  0.85738639972E+03  0.12699999809E+01 0.  1.
</event>
<event>
 5   0  0.5527286E-07  0.2400928E+04  0.7818609E-02  0.8439156E-01
       -1   -1    0    0    0  501  0.00000000000E+00  0.00000000000E+00  0.12383938141E+04  0.12383938141E+04  0.50400001928E-02 0.  1.
        1   -1    0    0  501    0  0.00000000000E+00  0.00000000000E+00 -0.11636960820E+04  0.11636960820E+04  0.50400001928E-02 0. -1.
    10030    2    1    2    0    0  0.00000000000E+00  0.00000000000E+00  0.74697732179E+02  0.24020898961E+04  0.24009281784E+04 0.  0.
        1    1    3    3  502    0 -0.74985818514E+03 -0.79189229014E+03 -0.46462424048E+03  0.11854351023E+04  0.50400001928E-02 0. -1.
       -1    1    3    3    0  502  0.74985818514E+03  0.79189229014E+03  0.53932197266E+03  0.12166547938E+04  0.50400001928E-02 0.  1.
</event>
<event>
 5   0  0.5527286E-07  0.2400774E+04  0.7818609E-02  0.8439214E-01
       -1   -1    0    0    0  501  0.00000000000E+00  0.00000000000E+00  0.93131587456E+03  0.93131587457E+03  0.50400001928E-02 0.  1.
        1   -1    0    0  501    0  0.00000000000E+00  0.00000000000E+00 -0.15471969471E+04  0.15471969471E+04  0.50400001928E-02 0. -1.
    10030    2    1    2    0    0  0.00000000000E+00  0.00000000000E+00 -0.61588107255E+03  0.24785128217E+04  0.24007741068E+04 0.  0.
        1    1    3    3  502    0 -0.11991107871E+04 -0.33167679918E+02 -0.35367282441E+03  0.12506203426E+04  0.50400001928E-02 0. -1.
       -1    1    3    3    0  502  0.11991107871E+04  0.33167679918E+02 -0.26220824814E+03  0.12278924790E+04  0.50400001928E-02 0.  1.
</event>
<event>
 5   0  0.1308662E-06  0.2400772E+04  0.7818609E-02  0.8439215E-01
        2   -1    0    0  501    0  0.00000000000E+00  0.00000000000E+00  0.15803195078E+04  0.15803195078E+04  0.25500000920E-02 0.  1.
       -2   -1    0    0    0  501  0.00000000000E+00  0.00000000000E+00 -0.91179424756E+03  0.91179424757E+03  0.25500000920E-02 0. -1.
    10030    2    1    2    0    0  0.00000000000E+00  0.00000000000E+00  0.66852526023E+03  0.24921137554E+04  0.24007717397E+04 0.  0.
        3    1    3    3  502    0  0.34843602443E+03  0.28679215773E+03 -0.82038382514E+03  0.93631567092E+03  0.10100000352E+00 0. -1.
       -3    1    3    3    0  502 -0.34843602443E+03 -0.28679215773E+03  0.14889090854E+04  0.15557980844E+04  0.10100000352E+00 0.  1.
</event>
<event>
 5   0  0.5363690E-07  0.2401482E+04  0.7818609E-02  0.8438949E-01
        1   -1    0    0  501    0  0.00000000000E+00  0.00000000000E+00  0.98257862366E+03  0.98257862367E+03  0.50400001928E-02 0.  1.
       -1   -1    0    0    0  501  0.00000000000E+00  0.00000000000E+00 -0.14673426517E+04  0.14673426517E+04  0.50400001928E-02 0. -1.
    10030    2    1    2    0    0  0.00000000000E+00  0.00000000000E+00 -0.48476402807E+03  0.24499212754E+04  0.24014824781E+04 0.  0.
        4    1    3    3  502    0 -0.43332218873E+03  0.44532931036E+03  0.80581094750E+03  0.10175555070E+04  0.12699999809E+01 0.  1.
       -4    1    3    3    0  502  0.43332218873E+03 -0.44532931036E+03 -0.12905749756E+04  0.14323657684E+04  0.12699999809E+01 0. -1.
</event>
<event>
 5   0  0.5527286E-07  0.2399624E+04  0.7818609E-02  0.8439644E-01
        1   -1    0    0  501    0  0.00000000000E+00  0.00000000000E+00  0.11769299484E+04  0.11769299485E+04  0.50400001928E-02 0. -1.
       -1   -1    0    0    0  501  0.00000000000E+00  0.00000000000E+00 -0.12231386523E+04  0.12231386523E+04  0.50400001928E-02 0.  1.
    10030    2    1    2    0    0  0.00000000000E+00  0.00000000000E+00 -0.46208703882E+02  0.24000686008E+04  0.23996237297E+04 0.  0.
        1    1    3    3  502    0 -0.25968421056E+03  0.51839973091E+02 -0.11935457418E+04  0.12225688978E+04  0.50400001928E-02 0.  1.
       -1    1    3    3    0  502  0.25968421056E+03 -0.51839973091E+02  0.11473370379E+04  0.11774997030E+04  0.50400001928E-02 0. -1.
</event>
<event>
 5   0  0.5527286E-07  0.2400374E+04  0.7818609E-02  0.8439364E-01
        1   -1    0    0  501    0  0.00000000000E+00  0.00000000000E+00  0.15611350511E+04  0.15611350511E+04  0.50400001928E-02 0. -1.
       -1   -1    0    0    0  501  0.00000000000E+00  0.00000000000E+00 -0.92269314815E+03  0.92269314816E+03  0.50400001928E-02 0.  1.
    10030    2    1    2    0    0  0.00000000000E+00  0.00000000000E+00  0.63844190292E+03  0.24838281992E+04  0.24003738167E+04 0.  0.
        1    1    3    3  502    0 -0.10463866171E+04 -0.56747151185E+03  0.16059499458E+03  0.12011409665E+04  0.50400001928E-02 0.  1.
       -1    1    3    3    0  502  0.10463866171E+04  0.56747151185E+03  0.47784690835E+03  0.12826872327E+04  0.50400001928E-02 0. -1.
</event>
<event>
 5   0  0.5510176E-07  0.2399842E+04  0.7818609E-02  0.8439563E-01
        1   -1    0    0  501    0  0.00000000000E+00  0.00000000000E+00  0.15110467536E+04  0.15110467536E+04  0.50400001928E-02 0.  1.
       -1   -1    0    0    0  501  0.00000000000E+00  0.00000000000E+00 -0.95285638484E+03  0.95285638485E+03  0.50400001928E-02 0. -1.
    10030    2    1    2    0    0  0.00000000000E+00  0.00000000000E+00  0.55819036874E+03  0.24639031384E+04  0.23998421173E+04 0.  0.
        3    1    3    3  502    0  0.53700138639E+02  0.45914641207E+03 -0.85776203945E+03  0.97439974298E+03  0.10100000352E+00 0. -1.
       -3    1    3    3    0  502 -0.53700138639E+02 -0.45914641207E+03  0.14159524082E+04  0.14895033955E+04  0.10100000352E+00 0.  1.
</event>
<event>
 5   0  0.1307477E-06  0.2386820E+04  0.7818609E-02  0.8444454E-01
       -2   -1    0    0    0  501  0.00000000000E+00  0.00000000000E+00  0.73846607801E+03  0.73846607802E+03  0.25500000920E-02 0.  1.
        2   -1    0    0  501    0  0.00000000000E+00  0.00000000000E+00 -0.19286301187E+04  0.19286301187E+04  0.25500000920E-02 0. -1.
    10030    2    1    2    0    0  0.00000000000E+00  0.00000000000E+00 -0.11901640407E+04  0.26670961967E+04  0.23868204119E+04 0.  0.
        5    1    3    3  502    0  0.10594527874E+04 -0.36321459252E+03 -0.10555929325E+04  0.15390463210E+04  0.46999998093E+01 0.  1.
       -5    1    3    3    0  502 -0.10594527874E+04  0.36321459252E+03 -0.13457110812E+03  0.11280498757E+04  0.46999998093E+01 0. -1.
</event>
<event>
 5   0  0.5363690E-07  0.2400020E+04  0.7818609E-02  0.8439496E-01
       -1   -1    0    0    0  501  0.00000000000E+00  0.00000000000E+00  0.96328948803E+03  0.96328948804E+03  0.50400001928E-02 0. -1.
        1   -1    0    0  501    0  0.00000000000E+00  0.00000000000E+00 -0.14949022881E+04  0.14949022881E+04  0.50400001928E-02 0.  1.
    10030    2    1    2    0    0  0.00000000000E+00  0.00000000000E+00 -0.53161280003E+03  0.24581917761E+04  0.24000197164E+04 0.  0.
        4    1    3    3  502    0  0.32131189137E+03  0.89011942883E+03 -0.10215721019E+04  0.13925390843E+04  0.12699999809E+01 0.  1.
       -4    1    3    3    0  502 -0.32131189137E+03 -0.89011942883E+03  0.48995930187E+03  0.10656526918E+04  0.12699999809E+01 0. -1.
</event>
<event>
 5   0  0.5527286E-07  0.2400038E+04  0.7818609E-02  0.8439489E-01
        1   -1    0    0  501    0  0.00000000000E+00  0.00000000000E+00  0.94968219114E+03  0.94968219115E+03  0.50400001928E-02 0. -1.
       -1   -1    0    0    0  501  0.00000000000E+00  0.00000000000E+00 -0.15163451606E+04  0.15163451606E+04  0.50400001928E-02 0.  1.
    10030    2    1    2    0    0  0.00000000000E+00  0.00000000000E+00 -0.56666296950E+03  0.24660273518E+04  0.24000383286E+04 0.  0.
        1    1    3    3  502    0  0.32334981588E+03 -0.11525584951E+02  0.90401802307E+03  0.96017525931E+03  0.50400001928E-02 0. -1.
       -1    1    3    3    0  502 -0.32334981588E+03  0.11525584951E+02 -0.14706809926E+04  0.15058520925E+04  0.50400001928E-02 0.  1.
</event>
<event>
 5   0  0.5527286E-07  0.2399462E+04  0.7818609E-02  0.8439705E-01
        1   -1    0    0  501    0  0.00000000000E+00  0.00000000000E+00  0.18943897587E+04  0.18943897587E+04  0.50400001928E-02 0. -1.
       -1   -1    0    0    0  501  0.00000000000E+00  0.00000000000E+00 -0.75979873002E+03  0.75979873004E+03  0.50400001928E-02 0.  1.
    10030    2    1    2    0    0  0.00000000000E+00  0.00000000000E+00  0.11345910287E+04  0.26541884887E+04  0.23994623838E+04 0.  0.
        1    1    3    3  502    0 -0.64051414437E+03  0.33428590206E+03  0.16267571366E+04  0.17799843300E+04  0.50400001928E-02 0. -1.
       -1    1    3    3    0  502  0.64051414437E+03 -0.33428590206E+03 -0.49216610790E+03  0.87420415879E+03  0.50400001928E-02 0.  1.
</event>
<event>
 5   0  0.1307477E-06  0.2400761E+04  0.7818609E-02  0.8439219E-01
        2   -1    0    0  501    0  0.00000000000E+00  0.00000000000E+00  0.19137531059E+04  0.19137531059E+04  0.25500000920E-02 0.  1.
       -2   -1    0    0    0  501  0.00000000000E+00  0.00000000000E+00 -0.75292519183E+03  0.75292519184E+03  0.25500000920E-02 0. -1.
    10030    2    1    2    0    0  0.00000000000E+00  0.00000000000E+00  0.11608279140E+04  0.26666782977E+04  0.24007606498E+04 0.  0.
        5    1    3    3  502    0 -0.22143806077E+03 -0.50979189618E+03 -0.60137215995E+03  0.81889752529E+03  0.46999998093E+01 0. -1.
       -5    1    3    3    0  502  0.22143806077E+03  0.50979189618E+03  0.17622000740E+04  0.18477807724E+04  0.46999998093E+01 0.  1.
</event>
<event>
 5   0  0.1291468E-06  0.2400271E+04  0.7818609E-02  0.8439402E-01
       -2   -1    0    0    0  501  0.00000000000E+00  0.00000000000E+00  0.13922037788E+04  0.13922037788E+04  0.25500000920E-02 0. -1.
        2   -1    0    0  501    0  0.00000000000E+00  0.00000000000E+00 -0.10345645702E+04  0.10345645702E+04  0.25500000920E-02 0.  1.
    10030    2    1    2    0    0  0.00000000000E+00  0.00000000000E+00  0.35763920863E+03  0.24267683491E+04  0.24002705715E+04 0.  0.
        4    1    3    3  502    0  0.10990918177E+04  0.10445417493E+02  0.66602228169E+03  0.12851845093E+04  0.12699999809E+01 0. -1.
       -4    1    3    3    0  502 -0.10990918177E+04 -0.10445417493E+02 -0.30838307306E+03  0.11415838397E+04  0.12699999809E+01 0.  1.
</event>
<event>
 5   0  0.5452384E-07  0.2400384E+04  0.7818609E-02  0.8439360E-01
        1   -1    0    0  501    0  0.00000000000E+00  0.00000000000E+00  0.15689640301E+04  0.15689640302E+04  0.50400001928E-02 0.  1.
       -1   -1    0    0    0  501  0.00000000000E+00  0.00000000000E+00 -0.91809666511E+03  0.91809666512E+03  0.50400001928E-02 0. -1.
    10030    2    1    2    0    0  0.00000000000E+00  0.00000000000E+00  0.65086736504E+03  0.24870606953E+04  0.24003838391E+04 0.  0.
        5    1    3    3  502    0  0.29217568555E+03  0.66190169223E+03  0.13175907469E+04  0.15031792800E+04  0.46999998093E+01 0.  1.
       -5    1    3    3    0  502 -0.29217568555E+03 -0.66190169223E+03 -0.66672338189E+03  0.98388141529E+03  0.46999998093E+01 0. -1.
</event>
<event>
 5   0  0.1291468E-06  0.2399467E+04  0.7818609E-02  0.8439703E-01
        2   -1    0    0  501    0  0.00000000000E+00  0.00000000000E+00  0.19514086589E+04  0.19514086589E+04  0.25500000920E-02 0. -1.
       -2   -1    0    0    0  501  0.00000000000E+00  0.00000000000E+00 -0.73760052124E+03  0.73760052124E+03  0.25500000920E-02 0.  1.
    10030    2    1    2    0    0  0.00000000000E+00  0.00000000000E+00  0.12138081377E+04  0.26890091802E+04  0.23994666440E+04 0.  0.
        4    1    3    3  502    0  0.68371592602E+03 -0.23870874350E+02  0.17113869512E+04  0.18430638068E+04  0.12699999809E+01 0. -1.
       -4    1    3    3    0  502 -0.68371592602E+03  0.23870874350E+02 -0.49757881355E+03  0.84594537337E+03  0.12699999809E+01 0.  1.
</event>
<event>
 5   0  0.5510176E-07  0.2400361E+04  0.7818609E-02  0.8439368E-01
       -1   -1    0    0    0  501  0.00000000000E+00  0.00000000000E+00  0.12066686452E+04  0.12066686452E+04  0.50400001928E-02 0.  1.
        1   -1    0    0  501    0  0.00000000000E+00  0.00000000000E+00 -0.11937275172E+04  0.11937275172E+04  0.50400001928E-02 0. -1.
    10030    2    1    2    0    0  0.00000000000E+00  0.00000000000E+00  0.12941128068E+02  0.24003961624E+04  0.24003612778E+04 0.  0.
        3    1    3    3  502    0 -0.74294845856E+03  0.78941787644E+03 -0.50859086024E+03  0.11974212580E+04  0.10100000352E+00 0. -1.
       -3    1    3    3    0  502  0.74294845856E+03 -0.78941787644E+03  0.52153198830E+03  0.12029749045E+04  0.10100000352E+00 0.  1.
</event>
<event>
 5   0  0.1336057E-06  0.2398960E+04  0.7818609E-02  0.8439893E-01
       -2   -1    0    0    0  501  0.00000000000E+00  0.00000000000E+00  0.15655836510E+04  0.15655836510E+04  0.25500000920E-02 0.  1.
        2   -1    0    0  501    0  0.00000000000E+00  0.00000000000E+00 -0.91898781276E+03  0.91898781277E+03  0.25500000920E-02 0. -1.
    10030    2    1    2    0    0  0.00000000000E+00  0.00000000000E+00  0.64659583824E+03  0.24845714638E+04  0.23989600206E+04 0.  0.
        2    1    3    3  502    0 -0.16953657889E+03  0.95758689839E+03 -0.40392612224E+03  0.10530297393E+04  0.25500000920E-02 0. -1.
       -2    1    3    3    0  502  0.16953657889E+03 -0.95758689839E+03  0.10505219605E+04  0.14315417245E+04  0.25500000920E-02 0.  1.
</event>
<event>
 5   0  0.1275948E-06  0.2400466E+04  0.7818609E-02  0.8439329E-01
       -2   -1    0    0    0  501  0.00000000000E+00  0.00000000000E+00  0.10676736017E+04  0.10676736017E+04  0.25500000920E-02 0. -1.
        2   -1    0    0  501    0  0.00000000000E+00  0.00000000000E+00 -0.13492507915E+04  0.13492507915E+04  0.25500000920E-02 0.  1.
    10030    2    1    2    0    0  0.00000000000E+00  0.00000000000E+00 -0.28157718979E+03  0.24169243932E+04  0.24004661649E+04 0.  0.
        1    1    3    3  502    0  0.11293898649E+04 -0.23115671571E+03 -0.47715176889E+03  0.12476492715E+04  0.50400001928E-02 0.  1.
       -1    1    3    3    0  502 -0.11293898649E+04  0.23115671571E+03  0.19557457910E+03  0.11692751217E+04  0.50400001928E-02 0. -1.
</event>
<event>
 5   0  0.5363690E-07  0.2413108E+04  0.7818609E-02  0.8434612E-01
        1   -1    0    0  501    0  0.00000000000E+00  0.00000000000E+00  0.12909211864E+04  0.12909211864E+04  0.50400001928E-02 0. -1.
       -1   -1    0    0    0  501  0.00000000000E+00  0.00000000000E+00 -0.11277005117E+04  0.11277005117E+04  0.50400001928E-02 0.  1.
    10030    2    1    2    0    0  0.00000000000E+00  0.00000000000E+00  0.16322067469E+03  0.24186216981E+04  0.24131079399E+04 0.  0.
        4    1    3    3  502    0 -0.14376207932E+01 -0.37237936011E+03 -0.10686627772E+04  0.11316846729E+04  0.12699999809E+01 0.  1.
       -4    1    3    3    0  502  0.14376207932E+01  0.37237936011E+03  0.12318834519E+04  0.12869370251E+04  0.12699999809E+01 0. -1.
</event>
<event>
 5   0  0.1275948E-06  0.2398140E+04  0.7818609E-02  0.8440200E-01
        2   -1    0    0  501    0  0.00000000000E+00  0.00000000000E+00  0.22262185536E+04  0.22262185536E+04  0.25500000920E-02 0.  1.
       -2   -1    0    0    0  501  0.00000000000E+00  0.00000000000E+00 -0.64583443900E+03  0.64583443900E+03  0.25500000920E-02 0. -1.
    10030    2    1    2    0    0  0.00000000000E+00  0.00000000000E+00  0.15803841146E+04  0.28720529926E+04  0.23981397879E+04 0.  0.
        1    1    3    3  502    0 -0.12914579768E+03  0.10971983828E+04  0.23198730302E+03  0.11288671477E+04  0.50400001928E-02 0.  1.
       -1    1    3    3    0  502  0.12914579768E+03 -0.10971983828E+04  0.13483968116E+04  0.17431858449E+04  0.50400001928E-02 0. -1.
</event>
<event>
 5   0  0.5690124E-07  0.2400091E+04  0.7818609E-02  0.8439469E-01
        1   -1    0    0  501    0  0.00000000000E+00  0.00000000000E+00  0.77298696159E+03  0.77298696160E+03  0.50400001928E-02 0. -1.
       -1   -1    0    0    0  501  0.00000000000E+00  0.00000000000E+00 -0.18630446831E+04  0.18630446831E+04  0.50400001928E-02 0.  1.
    10030    2    1    2    0    0  0.00000000000E+00  0.00000000000E+00 -0.10900577215E+04  0.26360316447E+04  0.24000910391E+04 0.  0.
        2    1    3    3  502    0 -0.10946936812E+04 -0.39195953350E+03 -0.21899189370E+03  0.11831922840E+04  0.25500000920E-02 0. -1.
       -2    1    3    3    0  502  0.10946936812E+04  0.39195953350E+03 -0.87106582783E+03  0.14528393607E+04  0.25500000920E-02 0.  1.
</event>
<event>
 5   0  0.1291468E-06  0.2399604E+04  0.7818609E-02  0.8439652E-01
        2   -1    0    0  501    0  0.00000000000E+00  0.00000000000E+00  0.27767369513E+04  0.27767369513E+04  0.25500000920E-02 0.  1.
       -2   -1    0    0    0  501  0.00000000000E+00  0.00000000000E+00 -0.51842300166E+03  0.51842300166E+03  0.25500000920E-02 0. -1.
    10030    2    1    2    0    0  0.00000000000E+00  0.00000000000E+00  0.22583139497E+04  0.32951599530E+04  0.23996035549E+04 0.  0.
        4    1    3    3  502    0  0.11381377981E+04 -0.32145648007E+03  0.85167752646E+03  0.14574114512E+04  0.12699999809E+01 0. -1.
       -4    1    3    3    0  502 -0.11381377981E+04  0.32145648007E+03  0.14066364232E+04  0.18377485018E+04  0.12699999809E+01 0.  1.
</event>
<event>
 5   0  0.1308662E-06  0.2400258E+04  0.7818609E-02  0.8439407E-01
       -2   -1    0    0    0  501  0.00000000000E+00  0.00000000000E+00  0.96002776193E+03  0.96002776193E+03  0.25500000920E-02 0. -1.
        2   -1    0    0  501    0  0.00000000000E+00  0.00000000000E+00 -0.15002789029E+04  0.15002789029E+04  0.25500000920E-02 0.  1.
    10030    2    1    2    0    0  0.00000000000E+00  0.00000000000E+00 -0.54025114093E+03  0.24603066648E+04  0.24002578173E+04 0.  0.
        3    1    3    3  502    0 -0.37420290577E+02 -0.10230614044E+04 -0.91209641087E+03  0.13711217263E+04  0.10100000352E+00 0.  1.
       -3    1    3    3    0  502  0.37420290577E+02  0.10230614044E+04  0.37184526994E+03  0.10891849385E+04  0.10100000352E+00 0. -1.
</event>
<event>
 5   0  0.5690124E-07  0.2399732E+04  0.7818609E-02  0.8439604E-01
       -1   -1    0    0    0  501  0.00000000000E+00  0.00000000000E+00  0.87158878911E+03  0.87158878912E+03  0.50400001928E-02 0. -1.
        1   -1    0    0  501    0  0.00000000000E+00  0.00000000000E+00 -0.16517864689E+04  0.16517864689E+04  0.50400001928E-02 0.  1.
    10030    2    1    2    0    0  0.00000000000E+00  0.00000000000E+00 -0.78019767982E+03  0.25233752581E+04  0.23997321253E+04 0.  0.
        2    1    3    3  502    0  0.70819134555E+03  0.96847188889E+03 -0.40518323429E+03  0.12663515447E+04  0.25500000920E-02 0. -1.
       -2    1    3    3    0  502 -0.70819134555E+03 -0.96847188889E+03 -0.37501444553E+03  0.12570237133E+04  0.25500000920E-02 0.  1.
</event>
<event>
 5   0  0.5363690E-07  0.2399715E+04  0.7818609E-02  0.8439610E-01
        1   -1    0    0  501    0  0.00000000000E+00  0.00000000000E+00  0.14782710077E+04  0.14782710077E+04  0.50400001928E-02 0. -1.
       -1   -1    0    0    0  501  0.00000000000E+00  0.00000000000E+00 -0.97387939545E+03  0.97387939546E+03  0.50400001928E-02 0.  1.
    10030    2    1    2    0    0  0.00000000000E+00  0.00000000000E+00  0.50439161222E+03  0.24521504031E+04  0.23997147124E+04 0.  0.
        4    1    3    3  502    0  0.18283638468E+03  0.43551416890E+03 -0.87488030297E+03  0.99424287390E+03  0.12699999809E+01 0.  1.
       -4    1    3    3    0  502 -0.18283638468E+03 -0.43551416890E+03  0.13792719152E+04  0.14579075292E+04  0.12699999809E+01 0. -1.
</event>
<event>
 5   0  0.5510176E-07  0.2399463E+04  0.7818609E-02  0.8439705E-01
        1   -1    0    0  501    0  0.00000000000E+00  0.00000000000E+00  0.43553637452E+03  0.43553637455E+03  0.50400001928E-02 0.  1.
       -1   -1    0    0    0  501  0.00000000000E+00  0.00000000000E+00 -0.33047894592E+04  0.33047894592E+04  0.50400001928E-02 0. -1.
    10030    2    1    2    0    0  0.00000000000E+00  0.00000000000E+00 -0.28692530846E+04  0.37403258337E+04  0.23994632897E+04 0.  0.
        3    1    3    3  502    0 -0.23929910568E+03 -0.25423856873E+03 -0.32238441860E+04  0.32426952768E+04  0.10100000352E+00 0. -1.
       -3    1    3    3    0  502  0.23929910568E+03  0.25423856873E+03  0.35459110141E+03  0.49763055696E+03  0.10100000352E+00 0.  1.
</event>
<event>
 5   0  0.5510176E-07  0.2398184E+04  0.7818609E-02  0.8440184E-01
        1   -1    0    0  501    0  0.00000000000E+00  0.00000000000E+00  0.11800212592E+04  0.11800212592E+04  0.50400001928E-02 0. -1.
       -1   -1    0    0    0  501  0.00000000000E+00  0.00000000000E+00 -0.12184712353E+04  0.12184712353E+04  0.50400001928E-02 0.  1.
    10030    2    1    2    0    0  0.00000000000E+00  0.00000000000E+00 -0.38449976102E+02  0.23984924944E+04  0.23981842809E+04 0.  0.
        3    1    3    3  502    0 -0.77695216837E+03  0.81384858068E+03  0.39533735178E+03  0.11926004428E+04  0.10100000352E+00 0. -1.
       -3    1    3    3    0  502  0.77695216837E+03 -0.81384858068E+03 -0.43378732789E+03  0.12058920517E+04  0.10100000352E+00 0.  1.
</event>
<event>
 5   0  0.1275948E-06  0.2404172E+04  0.7818609E-02  0.8437943E-01
        2   -1    0    0  501    0  0.00000000000E+00  0.00000000000E+00  0.16057376462E+04  0.16057376462E+04  0.25500000920E-02 0. -1.
       -2   -1    0    0    0  501  0.00000000000E+00  0.00000000000E+00 -0.89990435770E+03  0.89990435770E+03  0.25500000920E-02 0.  1.
    10030    2    1    2    0    0  0.00000000000E+00  0.00000000000E+00  0.70583328846E+03  0.25056420039E+04  0.24041716287E+04 0.  0.
        1    1    3    3  502    0 -0.47260187037E+03  0.73230179509E+03  0.12157422471E+04  0.14958768861E+04  0.50400001928E-02 0.  1.
       -1    1    3    3    0  502  0.47260187037E+03 -0.73230179509E+03 -0.50990895862E+03  0.10097651178E+04  0.50400001928E-02 0. -1.
</event>
<event>
 5   0  0.1307477E-06  0.2400250E+04  0.7818609E-02  0.8439410E-01
       -2   -1    0    0    0  501  0.00000000000E+00  0.00000000000E+00  0.14708298487E+04  0.14708298487E+04  0.25500000920E-02 0. -1.
        2   -1    0    0  501    0  0.00000000000E+00  0.00000000000E+00 -0.97924335138E+03  0.97924335139E+03  0.25500000920E-02 0.  1.
    10030    2    1    2    0    0  0.00000000000E+00  0.00000000000E+00  0.49158649731E+03  0.24500732001E+04  0.24002502789E+04 0.  0.
        5    1    3    3  502    0 -0.29311896014E+03  0.46029612686E+03  0.13368520743E+04  0.14439483397E+04  0.46999998093E+01 0. -1.
       -5    1    3    3    0  502  0.29311896014E+03 -0.46029612686E+03 -0.84526557694E+03  0.10061248604E+04  0.46999998093E+01 0.  1.
</event>
<event>
 5   0  0.1336057E-06  0.2391316E+04  0.7818609E-02  0.8442762E-01
       -2   -1    0    0    0  501  0.00000000000E+00  0.00000000000E+00  0.13572057754E+04  0.13572057754E+04  0.25500000920E-02 0. -1.
        2   -1    0    0  501    0  0.00000000000E+00  0.00000000000E+00 -0.10533388808E+04  0.10533388808E+04  0.25500000920E-02 0.  1.
    10030    2    1    2    0    0  0.00000000000E+00  0.00000000000E+00  0.30386689459E+03  0.24105446563E+04  0.23913156317E+04 0.  0.
        2    1    3    3  502    0  0.71972771681E+03 -0.22758095567E+03  0.10866418004E+04  0.13230991951E+04  0.25500000920E-02 0. -1.
       -2    1    3    3    0  502 -0.71972771681E+03  0.22758095567E+03 -0.78277490583E+03  0.10874454611E+04  0.25500000920E-02 0.  1.
</event>
<event>
 5   0  0.5527286E-07  0.2399766E+04  0.7818609E-02  0.8439591E-01
       -1   -1    0    0    0  501  0.00000000000E+00  0.00000000000E+00  0.64615818630E+03  0.64615818632E+03  0.50400001928E-02 0. -1.
        1   -1    0    0  501    0  0.00000000000E+00  0.00000000000E+00 -0.22281226416E+04  0.22281226416E+04  0.50400001928E-02 0.  1.
    10030    2    1    2    0    0  0.00000000000E+00  0.00000000000E+00 -0.15819644553E+04  0.28742808279E+04  0.23997663928E+04 0.  0.
        1    1    3    3  502    0  0.42995906326E+03 -0.36234239135E+03 -0.20605588663E+04  0.21358978548E+04  0.50400001928E-02 0.  1.
       -1    1    3    3    0  502 -0.42995906326E+03  0.36234239135E+03  0.47859441104E+03  0.73838297309E+03  0.50400001928E-02 0. -1.
</event>
<event>
 5   0  0.1336057E-06  0.2400073E+04  0.7818609E-02  0.8439476E-01
        2   -1    0    0  501    0  0.00000000000E+00  0.00000000000E+00  0.87043663856E+03  0.87043663857E+03  0.25500000920E-02 0. -1.
       -2   -1    0    0    0  501  0.00000000000E+00  0.00000000000E+00 -0.16544425530E+04  0.16544425530E+04  0.25500000920E-02 0.  1.
    10030    2    1    2    0    0  0.00000000000E+00  0.00000000000E+00 -0.78400591443E+03  0.25248791916E+04  0.24000728443E+04 0.  0.
        2    1    3    3  502    0  0.39354278961E+03 -0.28527677410E+03 -0.15462493272E+04  0.16208472312E+04  0.25500000920E-02 0.  1.
       -2    1    3    3    0  502 -0.39354278961E+03  0.28527677410E+03  0.76224341274E+03  0.90403196037E+03  0.25500000920E-02 0. -1.
</event>
<event>
 5   0  0.5527286E-07  0.2400820E+04  0.7818609E-02  0.8439196E-01
       -1   -1    0    0    0  501  0.00000000000E+00  0.00000000000E+00  0.97355594371E+03  0.97355594372E+03  0.50400001928E-02 0. -1.
        1   -1    0    0  501    0  0.00000000000E+00  0.00000000000E+00 -0.14801251175E+04  0.14801251175E+04  0.50400001928E-02 0.  1.
    10030    2    1    2    0    0  0.00000000000E+00  0.00000000000E+00 -0.50656917377E+03  0.24536810612E+04  0.24008203644E+04 0.  0.
        1    1    3    3  502    0  0.40485417487E+03  0.52924802447E+02 -0.14069777267E+04  0.14650236384E+04  0.50400001928E-02 0.  1.
       -1    1    3    3    0  502 -0.40485417487E+03 -0.52924802447E+02  0.90040855288E+03  0.98865742285E+03  0.50400001928E-02 0. -1.
</event>
<event>
 5   0  0.5452384E-07  0.2400473E+04  0.7818609E-02  0.8439327E-01
        1   -1    0    0  501    0  0.00000000000E+00  0.00000000000E+00  0.93833738688E+03  0.93833738689E+03  0.50400001928E-02 0.  1.
       -1   -1    0    0    0  501  0.00000000000E+00  0.00000000000E+00 -0.15352341300E+04  0.15352341300E+04  0.50400001928E-02 0. -1.
    10030    2    1    2    0    0  0.00000000000E+00  0.00000000000E+00 -0.59689674316E+03  0.24735715169E+04  0.24004729383E+04 0.  0.
        5    1    3    3  502    0  0.11429870952E+04  0.27545134872E+03 -0.49743028729E+02  0.11767707526E+04  0.46999998093E+01 0.  1.
       -5    1    3    3    0  502 -0.11429870952E+04 -0.27545134872E+03 -0.54715371443E+03  0.12968007644E+04  0.46999998093E+01 0. -1.
</event>
<event>
 5   0  0.1291468E-06  0.2399619E+04  0.7818609E-02  0.8439646E-01
       -2   -1    0    0    0  501  0.00000000000E+00  0.00000000000E+00  0.92555192378E+03  0.92555192379E+03  0.25500000920E-02 0.  1.
        2   -1    0    0  501    0  0.00000000000E+00  0.00000000000E+00 -0.15553342571E+04  0.15553342571E+04  0.25500000920E-02 0. -1.
    10030    2    1    2    0    0  0.00000000000E+00  0.00000000000E+00 -0.62978233328E+03  0.24808861808E+04  0.23996188145E+04 0.  0.
        4    1    3    3  502    0 -0.14269087520E+02  0.10870230269E+04  0.20996129494E+03  0.11072073094E+04  0.12699999809E+01 0.  1.
       -4    1    3    3    0  502  0.14269087520E+02 -0.10870230269E+04 -0.83974362822E+03  0.13736788714E+04  0.12699999809E+01 0. -1.
</event>
<event>
 5   0  0.5510176E-07  0.2400345E+04  0.7818609E-02  0.8439374E-01
        1   -1    0    0  501    0  0.00000000000E+00  0.00000000000E+00  0.12147062533E+04  0.12147062533E+04  0.50400001928E-02 0.  1.
       -1   -1    0    0    0  501  0.00000000000E+00  0.00000000000E+00 -0.11858126578E+04  0.11858126579E+04  0.50400001928E-02 0. -1.
    10030    2    1    2    0    0  0.00000000000E+00  0.00000000000E+00  0.28893595430E+02  0.24005189111E+04  0.24003450175E+04 0.  0.
        3    1    3    3  502    0 -0.85580980713E+03  0.28549417830E+03  0.80601957734E+03  0.12097871387E+04  0.10100000352E+00 0.  1.
       -3    1    3    3    0  502  0.85580980713E+03 -0.28549417830E+03 -0.77712598191E+03  0.11907317724E+04  0.10100000352E+00 0. -1.
</event>
<event>
 5   0  0.4483375E-07  0.2398461E+04  0.7818609E-02  0.8440080E-01
        3   -1    0    0  501    0  0.00000000000E+00  0.00000000000E+00  0.61412107826E+03  0.61412108657E+03  0.10100000352E+00 0.  1.
       -3   -1    0    0    0  501  0.00000000000E+00  0.00000000000E+00 -0.23418089693E+04  0.23418089715E+04  0.10100000352E+00 0. -1.
    10030    2    1    2    0    0  0.00000000000E+00  0.00000000000E+00 -0.17276878910E+04  0.29559300581E+04  0.23984613941E+04 0.  0.
        4    1    3    3  502    0 -0.66130279113E+03 -0.48805690996E+03  0.21242015566E+03  0.84890804234E+03  0.12699999809E+01 0.  1.
       -4    1    3    3    0  502  0.66130279113E+03  0.48805690996E+03 -0.19401080467E+04  0.21070220157E+04  0.12699999809E+01 0. -1.
</event>
<event>
 5   0  0.5527286E-07  0.2400399E+04  0.7818609E-02  0.8439354E-01
        1   -1    0    0  501    0  0.00000000000E+00  0.00000000000E+00  0.15873801466E+04  0.15873801466E+04  0.50400001928E-02 0. -1.
       -1   -1    0    0    0  501  0.00000000000E+00  0.00000000000E+00 -0.90745661082E+03  0.90745661083E+03  0.50400001928E-02 0.  1.
    10030    2    1    2    0    0  0.00000000000E+00  0.00000000000E+00  0.67992353573E+03  0.24948367574E+04  0.24003988068E+04 0.  0.
        1    1    3    3  502    0 -0.58312883783E+03  0.10440741350E+04  0.44569191518E+03  0.12762332562E+04  0.50400001928E-02 0. -1.
       -1    1    3    3    0  502  0.58312883783E+03 -0.10440741350E+04  0.23423162055E+03  0.12186035012E+04  0.50400001928E-02 0.  1.
</event>
<event>
 5   0  0.5690124E-07  0.2400254E+04  0.7818609E-02  0.8439409E-01
       -1   -1    0    0    0  501  0.00000000000E+00  0.00000000000E+00  0.97435202751E+03  0.97435202752E+03  0.50400001928E-02 0. -1.
        1   -1    0    0  501    0  0.00000000000E+00  0.00000000000E+00 -0.14782175801E+04  0.14782175801E+04  0.50400001928E-02 0.  1.
    10030    2    1    2    0    0  0.00000000000E+00  0.00000000000E+00 -0.50386555256E+03  0.24525696076E+04  0.24002535668E+04 0.  0.
        2    1    3    3  502    0 -0.83797640364E+03 -0.10451517690E+03  0.61940012374E+03  0.10472747436E+04  0.25500000920E-02 0. -1.
       -2    1    3    3    0  502  0.83797640364E+03  0.10451517690E+03 -0.11232656763E+04  0.14052948640E+04  0.25500000920E-02 0.  1.
</event>
<event>
 5   0  0.5363690E-07  0.2400393E+04  0.7818609E-02  0.8439357E-01
        1   -1    0    0  501    0  0.00000000000E+00  0.00000000000E+00  0.15260289907E+04  0.15260289907E+04  0.50400001928E-02 0.  1.
       -1   -1    0    0    0  501  0.00000000000E+00  0.00000000000E+00 -0.94393441519E+03  0.94393441520E+03  0.50400001928E-02 0. -1.
    10030    2    1    2    0    0  0.00000000000E+00  0.00000000000E+00  0.58209457553E+03  0.24699634059E+04  0.24003927037E+04 0.  0.
        4    1    3    3  502    0  0.37671839551E+03  0.83039967144E+03 -0.51194810635E+03  0.10457403312E+04  0.12699999809E+01 0. -1.
       -4    1    3    3    0  502 -0.37671839551E+03 -0.83039967144E+03  0.10940426819E+04  0.14242230747E+04  0.12699999809E+01 0.  1.
</event>
<event>
 5   0  0.5452384E-07  0.2399503E+04  0.7818609E-02  0.8439690E-01
       -1   -1    0    0    0  501  0.00000000000E+00  0.00000000000E+00  0.10465895219E+04  0.10465895219E+04  0.50400001928E-02 0.  1.
        1   -1    0    0  501    0  0.00000000000E+00  0.00000000000E+00 -0.13753280558E+04  0.13753280558E+04  0.50400001928E-02 0. -1.
    10030    2    1    2    0    0  0.00000000000E+00  0.00000000000E+00 -0.32873853392E+03  0.24219175777E+04  0.23995032256E+04 0.  0.
        5    1    3    3  502    0 -0.18825580804E+03  0.39419625191E+03 -0.12921927904E+04  0.13640437060E+04  0.46999998093E+01 0. -1.
       -5    1    3    3    0  502  0.18825580804E+03 -0.39419625191E+03  0.96345425647E+03  0.10578738718E+04  0.46999998093E+01 0.  1.
</event>
<event>
 5   0  0.1275948E-06  0.2394457E+04  0.7818609E-02  0.8441581E-01
        2   -1    0    0  501    0  0.00000000000E+00  0.00000000000E+00  0.24116161890E+04  0.24116161890E+04  0.25500000920E-02 0. -1.
       -2   -1    0    0    0  501  0.00000000000E+00  0.00000000000E+00 -0.59435521905E+03  0.59435521906E+03  0.25500000920E-02 0.  1.
    10030    2    1    2    0    0  0.00000000000E+00  0.00000000000E+00  0.18172609699E+04  0.30059714081E+04  0.23944574904E+04 0.  0.
        1    1    3    3  502    0 -0.26730112599E+03 -0.95265991058E+03  0.17548265608E+04  0.20145538105E+04  0.50400001928E-02 0. -1.
       -1    1    3    3    0  502  0.26730112599E+03  0.95265991058E+03  0.62434409187E+02  0.99141759752E+03  0.50400001928E-02 0.  1.
</event>
<event>
 5   0  0.5690124E-07  0.2388273E+04  0.7818609E-02  0.8443907E-01
       -1   -1    0    0    0  501  0.00000000000E+00  0.00000000000E+00  0.68162383077E+03  0.68162383079E+03  0.50400001928E-02 0. -1.
        1   -1    0    0  501    0  0.00000000000E+00  0.00000000000E+00 -0.20920080861E+04  0.20920080861E+04  0.50400001928E-02 0.  1.
    10030    2    1    2    0    0  0.00000000000E+00  0.00000000000E+00 -0.14103842553E+04  0.27736319169E+04  0.23882734899E+04 0.  0.
        2    1    3    3  502    0 -0.21782773352E+03  0.51164124030E+03  0.52207809984E+03  0.76275239928E+03  0.25500000920E-02 0. -1.
       -2    1    3    3    0  502  0.21782773352E+03 -0.51164124030E+03 -0.19324623551E+04  0.20108795176E+04  0.25500000920E-02 0.  1.
</event>
<event>
 5   0  0.1308662E-06  0.2399956E+04  0.7818609E-02  0.8439520E-01
        2   -1    0    0  501    0  0.00000000000E+00  0.00000000000E+00  0.15738360059E+04  0.15738360059E+04  0.25500000920E-02 0.  1.
       -2   -1    0    0    0  501  0.00000000000E+00  0.00000000000E+00 -0.91492849719E+03  0.91492849720E+03  0.25500000920E-02 0. -1.
    10030    2    1    2    0    0  0.00000000000E+00  0.00000000000E+00  0.65890750870E+03  0.24887645031E+04  0.23999561760E+04 0.  0.
        3    1    3    3  502    0 -0.28696025751E+03  0.83490556292E+03 -0.51335308739E+03  0.10212467336E+04  0.10100000352E+00 0. -1.
       -3    1    3    3    0  502  0.28696025751E+03 -0.83490556292E+03  0.11722605961E+04  0.14675177695E+04  0.10100000352E+00 0.  1.
</event>
<event>
 5   0  0.5363690E-07  0.2400121E+04  0.7818609E-02  0.8439458E-01
        1   -1    0    0  501    0  0.00000000000E+00  0.00000000000E+00  0.18974773188E+04  0.18974773188E+04  0.50400001928E-02 0.  1.
       -1   -1    0    0    0  501  0.00000000000E+00  0.00000000000E+00 -0.75897918215E+03  0.75897918217E+03  0.50400001928E-02 0. -1.
    10030    2    1    2    0    0  0.00000000000E+00  0.00000000000E+00  0.11384981367E+04  0.26564565010E+04  0.24001214833E+04 0.  0.
        4    1    3    3  502    0 -0.51208840479E+03  0.93679711751E+03 -0.37294760519E+02  0.10682770641E+04  0.12699999809E+01 0. -1.
       -4    1    3    3    0  502  0.51208840479E+03 -0.93679711751E+03  0.11757928972E+04  0.15881794369E+04  0.12699999809E+01 0.  1.
</event>
<event>
 5   0  0.1275948E-06  0.2399935E+04  0.7818609E-02  0.8439528E-01
        2   -1    0    0  501    0  0.00000000000E+00  0.00000000000E+00  0.13539644692E+04  0.13539644692E+04  0.25500000920E-02 0.  1.
       -2   -1    0    0    0  501  0.00000000000E+00  0.00000000000E+00 -0.10634856558E+04  0.10634856559E+04  0.25500000920E-02 0. -1.
    10030    2    1    2    0    0  0.00000000000E+00  0.00000000000E+00  0.29047881332E+03  0.24174501250E+04  0.23999348254E+04 0.  0.
        1    1    3    3  502    0 -0.31469692530E+03 -0.37933294633E+03 -0.95681767448E+03  0.10763027925E+04  0.50400001928E-02 0. -1.
       -1    1    3    3    0  502  0.31469692530E+03  0.37933294633E+03  0.12472964878E+04  0.13411473325E+04  0.50400001928E-02 0.  1.
</event>
<event>
 5   0  0.5510176E-07  0.2400177E+04  0.7818609E-02  0.8439437E-01
        1   -1    0    0  501    0  0.00000000000E+00  0.00000000000E+00  0.19062839312E+04  0.19062839312E+04  0.50400001928E-02 0. -1.
       -1   -1    0    0    0  501  0.00000000000E+00  0.00000000000E+00 -0.75550757462E+03  0.75550757464E+03  0.50400001928E-02 0.  1.
    10030    2    1    2    0    0  0.00000000000E+00  0.00000000000E+00  0.11507763566E+04  0.26617915058E+04  0.24001766180E+04 0.  0.
        3    1    3    3  502    0 -0.73071732153E+03  0.67136251069E+03 -0.17311290193E+03  0.10072951463E+04  0.10100000352E+00 0.  1.
       -3    1    3    3    0  502  0.73071732153E+03 -0.67136251069E+03  0.13238892585E+04  0.16544963595E+04  0.10100000352E+00 0. -1.
</event>
<event>
 5   0  0.1291468E-06  0.2400967E+04  0.7818609E-02  0.8439142E-01
       -2   -1    0    0    0  501  0.00000000000E+00  0.00000000000E+00  0.87654389086E+03  0.87654389086E+03  0.25500000920E-02 0.  1.
        2   -1    0    0  501    0  0.00000000000E+00  0.00000000000E+00 -0.16441398813E+04  0.16441398813E+04  0.25500000920E-02 0. -1.
    10030    2    1    2    0    0  0.00000000000E+00  0.00000000000E+00 -0.76759599041E+03  0.25206837721E+04  0.24009671123E+04 0.  0.
        4    1    3    3  502    0  0.91700791580E+02 -0.75050715897E+03 -0.13627563821E+04  0.15584532719E+04  0.12699999809E+01 0. -1.
       -4    1    3    3    0  502 -0.91700791580E+02  0.75050715897E+03  0.59516039169E+03  0.96223050023E+03  0.12699999809E+01 0.  1.
</event>
<event>
 5   0  0.1291468E-06  0.2399588E+04  0.7818609E-02  0.8439658E-01
       -2   -1    0    0    0  501  0.00000000000E+00  0.00000000000E+00  0.12555750581E+04  0.12555750581E+04  0.25500000920E-02 0.  1.
        2   -1    0    0  501    0  0.00000000000E+00  0.00000000000E+00 -0.11464908030E+04  0.11464908030E+04  0.25500000920E-02 0. -1.
    10030    2    1    2    0    0  0.00000000000E+00  0.00000000000E+00  0.10908425509E+03  0.24020658611E+04  0.23995876784E+04 0.  0.
        4    1    3    3  502    0  0.31752612069E+03  0.63613890299E+03 -0.91289691399E+03  0.11570989282E+04  0.12699999809E+01 0. -1.
       -4    1    3    3    0  502 -0.31752612069E+03 -0.63613890299E+03  0.10219811691E+04  0.12449669329E+04  0.12699999809E+01 0.  1.
</event>
<event>
 5   0  0.1307477E-06  0.2393721E+04  0.7818609E-02  0.8441858E-01
        2   -1    0    0  501    0  0.00000000000E+00  0.00000000000E+00  0.12720663621E+04  0.12720663621E+04  0.25500000920E-02 0.  1.
       -2   -1    0    0    0  501  0.00000000000E+00  0.00000000000E+00 -0.11261010395E+04  0.11261010395E+04  0.25500000920E-02 0. -1.
    10030    2    1    2    0    0  0.00000000000E+00  0.00000000000E+00  0.14596532257E+03  0.23981674016E+04  0.23937211640E+04 0.  0.
        5    1    3    3  502    0  0.55220026852E+03 -0.92029004209E+03 -0.45771274763E+03  0.11667827336E+04  0.46999998093E+01 0. -1.
       -5    1    3    3    0  502 -0.55220026852E+03  0.92029004209E+03  0.60367807020E+03  0.12313846680E+04  0.46999998093E+01 0.  1.
</event>
<event>
 5   0  0.1336057E-06  0.2399586E+04  0.7818609E-02  0.8439658E-01
        2   -1    0    0  501    0  0.00000000000E+00  0.00000000000E+00  0.11253511738E+04  0.11253511738E+04  0.25500000920E-02 0.  1.
       -2   -1    0    0    0  501  0.00000000000E+00  0.00000000000E+00 -0.12791594768E+04  0.12791594768E+04  0.25500000920E-02 0. -1.
    10030    2    1    2    0    0  0.00000000000E+00  0.00000000000E+00 -0.15380830307E+03  0.24045106506E+04  0.23995863133E+04 0.  0.
        2    1    3    3  502    0 -0.11705322115E+04 -0.16076917133E+03 -0.28592568507E+03  0.12156257162E+04  0.25500000920E-02 0. -1.
       -2    1    3    3    0  502  0.11705322115E+04  0.16076917133E+03  0.13211738200E+03  0.11888849344E+04  0.25500000920E-02 0.  1.
</event>
<event>
 5   0  0.1308662E-06  0.2400369E+04  0.7818609E-02  0.8439365E-01
       -2   -1    0    0    0  501  0.00000000000E+00  0.00000000000E+00  0.84709447651E+03  0.84709447652E+03  0.25500000920E-02 0.  1.
        2   -1    0    0  501    0  0.00000000000E+00  0.00000000000E+00 -0.17004518551E+04  0.17004518551E+04  0.25500000920E-02 0. -1.
    10030    2    1    2    0    0  0.00000000000E+00  0.00000000000E+00 -0.85335737861E+03  0.25475463316E+04  0.24003694499E+04 0.  0.
        3    1    3    3  502    0  0.33377078878E+03  0.82327653668E+03  0.42980663405E+03  0.98687433251E+03  0.10100000352E+00 0.  1.
       -3    1    3    3    0  502 -0.33377078878E+03 -0.82327653668E+03 -0.12831640127E+04  0.15606719991E+04  0.10100000352E+00 0. -1.
</event>
<event>
 5   0  0.1308662E-06  0.2400075E+04  0.7818609E-02  0.8439476E-01
        2   -1    0    0  501    0  0.00000000000E+00  0.00000000000E+00  0.14001391396E+04  0.14001391396E+04  0.25500000920E-02 0. -1.
       -2   -1    0    0    0  501  0.00000000000E+00  0.00000000000E+00 -0.10285333209E+04  0.10285333209E+04  0.25500000920E-02 0.  1.
    10030    2    1    2    0    0  0.00000000000E+00  0.00000000000E+00  0.37160581873E+03  0.24286724605E+04  0.24000747979E+04 0.  0.
        3    1    3    3  502    0 -0.97500143982E+03  0.55196088356E+03  0.62081014008E+03  0.12808957276E+04  0.10100000352E+00 0. -1.
       -3    1    3    3    0  502  0.97500143982E+03 -0.55196088356E+03 -0.24920432135E+03  0.11477767329E+04  0.10100000352E+00 0.  1.
</event>
<event>
 5   0  0.1336057E-06  0.2399868E+04  0.7818609E-02  0.8439553E-01
       -2   -1    0    0    0  501  0.00000000000E+00  0.00000000000E+00  0.95030278588E+03  0.95030278588E+03  0.25500000920E-02 0.  1.
        2   -1    0    0  501    0  0.00000000000E+00  0.00000000000E+00 -0.15151400523E+04  0.15151400523E+04  0.25500000920E-02 0. -1.
    10030    2    1    2    0    0  0.00000000000E+00  0.00000000000E+00 -0.56483726638E+03  0.24654428381E+04  0.23998681736E+04 0.  0.
        2    1    3    3  502    0 -0.30069067377E+03 -0.10791659041E+04  0.15924464936E+03  0.11315355886E+04  0.25500000920E-02 0.  1.
       -2    1    3    3    0  502  0.30069067377E+03  0.10791659041E+04 -0.72408191575E+03  0.13339072496E+04  0.25500000920E-02 0. -1.
</event>
<event>
 5   0  0.4483375E-07  0.2406469E+04  0.7818609E-02  0.8437086E-01
        3   -1    0    0  501    0  0.00000000000E+00  0.00000000000E+00  0.22454323394E+04  0.22454323417E+04  0.10100000352E+00 0.  1.
       -3   -1    0    0    0  501  0.00000000000E+00  0.00000000000E+00 -0.64476347761E+03  0.64476348552E+03  0.10100000352E+00 0. -1.
    10030    2    1    2    0    0  0.00000000000E+00  0.00000000000E+00  0.16006688618E+04  0.28901958272E+04  0.24064685983E+04 0.  0.
        5    1    3    3  502    0  0.15442114911E+03  0.67503131096E+03  0.19821182139E+04  0.20996018351E+04  0.46999998093E+01 0.  1.
       -5    1    3    3    0  502 -0.15442114911E+03 -0.67503131096E+03 -0.38144935212E+03  0.79059399207E+03  0.46999998093E+01 0. -1.
</event>
<event>
 5   0  0.4483375E-07  0.2400715E+04  0.7818609E-02  0.8439236E-01
       -4   -1    0    0    0  501  0.00000000000E+00  0.00000000000E+00  0.14160068081E+04  0.14160073777E+04  0.12699999809E+01 0. -1.
        4   -1    0    0  501    0  0.00000000000E+00  0.00000000000E+00 -0.10175493726E+04  0.10175501652E+04  0.12699999809E+01 0.  1.
    10030    2    1    2    0    0  0.00000000000E+00  0.00000000000E+00  0.39845743552E+03  0.24335575428E+04  0.24007153072E+04 0.  0.
        4    1    3    3  502    0  0.10068590925E+04  0.65300846234E+03  0.17295895452E+03  0.12124775037E+04  0.12699999809E+01 0.  1.
       -4    1    3    3    0  502 -0.10068590925E+04 -0.65300846234E+03  0.22549848100E+03  0.12210800391E+04  0.12699999809E+01 0. -1.
</event>
<event>
 5   0  0.1308662E-06  0.2399610E+04  0.7818609E-02  0.8439650E-01
       -2   -1    0    0    0  501  0.00000000000E+00  0.00000000000E+00  0.79422137867E+03  0.79422137867E+03  0.25500000920E-02 0.  1.
        2   -1    0    0  501    0  0.00000000000E+00  0.00000000000E+00 -0.18125074304E+04  0.18125074304E+04  0.25500000920E-02 0. -1.
    10030    2    1    2    0    0  0.00000000000E+00  0.00000000000E+00 -0.10182860517E+04  0.26067288091E+04  0.23996100935E+04 0.  0.
        3    1    3    3  502    0  0.20797889979E+03  0.53170099027E+03  0.63719875851E+03  0.85556030405E+03  0.10100000352E+00 0.  1.
       -3    1    3    3    0  502 -0.20797889979E+03 -0.53170099027E+03 -0.16554848103E+04  0.17511685050E+04  0.10100000352E+00 0. -1.
</event>
<event>
 5   0  0.5363690E-07  0.2394516E+04  0.7818609E-02  0.8441560E-01
        1   -1    0    0  501    0  0.00000000000E+00  0.00000000000E+00  0.15270061572E+04  0.15270061572E+04  0.50400001928E-02 0. -1.
       -1   -1    0    0    0  501  0.00000000000E+00  0.00000000000E+00 -0.93871687373E+03  0.93871687375E+03  0.50400001928E-02 0.  1.
    10030    2    1    2    0    0  0.00000000000E+00  0.00000000000E+00  0.58828928346E+03  0.24657230310E+04  0.23945157724E+04 0.  0.
        4    1    3    3  502    0  0.17687959047E+03  0.11513821606E+04  0.94122880590E+01  0.11649280979E+04  0.12699999809E+01 0.  1.
       -4    1    3    3    0  502 -0.17687959047E+03 -0.11513821606E+04  0.57887699540E+03  0.13007949331E+04  0.12699999809E+01 0. -1.
</event>
<event>
 5   0  0.1275948E-06  0.2399879E+04  0.7818609E-02  0.8439549E-01
       -2   -1    0    0    0  501  0.00000000000E+00  0.00000000000E+00  0.97442827192E+03  0.97442827192E+03  0.25500000920E-02 0. -1.
        2   -1    0    0  501    0  0.00000000000E+00  0.00000000000E+00 -0.14776411631E+04  0.14776411631E+04  0.25500000920E-02 0.  1.
    10030    2    1    2    0    0  0.00000000000E+00  0.00000000000E+00 -0.50321289119E+03  0.24520694350E+04  0.23998794346E+04 0.  0.
        1    1    3    3  502    0 -0.34514779404E+03  0.11373086643E+04 -0.42029475068E+03  0.12606528766E+04  0.50400001928E-02 0. -1.
       -1    1    3    3    0  502  0.34514779404E+03 -0.11373086643E+04 -0.82918140511E+02  0.11914165585E+04  0.50400001928E-02 0.  1.
</event>
<event>
 5   0  0.1336057E-06  0.2417694E+04  0.7818609E-02  0.8432909E-01
        2   -1    0    0  501    0  0.00000000000E+00  0.00000000000E+00  0.26028957844E+04  0.26028957844E+04  0.25500000920E-02 0.  1.
       -2   -1    0    0    0  501  0.00000000000E+00  0.00000000000E+00 -0.56141731874E+03  0.56141731875E+03  0.25500000920E-02 0. -1.
    10030    2    1    2    0    0  0.00000000000E+00  0.00000000000E+00  0.20414784656E+04  0.31643131031E+04  0.24176937542E+04 0.  0.
        2    1    3    3  502    0  0.11602213450E+04 -0.25012585196E+03  0.13210095661E+04  0.17758780321E+04  0.25500000920E-02 0.  1.
       -2    1    3    3    0  502 -0.11602213450E+04  0.25012585196E+03  0.72046889949E+03  0.13884350710E+04  0.25500000920E-02 0. -1.
</event>
<event>
 5   0  0.5690124E-07  0.2401660E+04  0.7818609E-02  0.8438882E-01
        1   -1    0    0  501    0  0.00000000000E+00  0.00000000000E+00  0.14260952947E+04  0.14260952948E+04  0.50400001928E-02 0. -1.
       -1   -1    0    0    0  501  0.00000000000E+00  0.00000000000E+00 -0.10111472035E+04  0.10111472035E+04  0.50400001928E-02 0.  1.
    10030    2    1    2    0    0  0.00000000000E+00  0.00000000000E+00  0.41494809129E+03  0.24372424982E+04  0.24016596505E+04 0.  0.
        2    1    3    3  502    0 -0.10025416249E+04  0.16687028427E+03  0.85652549619E+03  0.13291242708E+04  0.25500000920E-02 0. -1.
       -2    1    3    3    0  502  0.10025416249E+04 -0.16687028427E+03 -0.44157740490E+03  0.11081182275E+04  0.25500000920E-02 0.  1.
</event>
<event>
 5   0  0.1307477E-06  0.2400031E+04  0.7818609E-02  0.8439492E-01
        2   -1    0    0  501    0  0.00000000000E+00  0.00000000000E+00  0.18527489356E+04  0.18527489356E+04  0.25500000920E-02 0. -1.
       -2   -1    0    0    0  501  0.00000000000E+00  0.00000000000E+00 -0.77724344200E+03  0.77724344201E+03  0.25500000920E-02 0.  1.
    10030    2    1    2    0    0  0.00000000000E+00  0.00000000000E+00  0.10755054936E+04  0.26299923776E+04  0.24000307997E+04 0.  0.
        5    1    3    3  502    0 -0.70647750145E+03 -0.96563385076E+03  0.43698725133E+03  0.12737892846E+04  0.46999998093E+01 0.  1.
       -5    1    3    3    0  502  0.70647750145E+03  0.96563385076E+03  0.63851824230E+03  0.13562030930E+04  0.46999998093E+01 0. -1.
</event>
<event>
 5   0  0.5510176E-07  0.2400196E+04  0.7818609E-02  0.8439430E-01
       -1   -1    0    0    0  501  0.00000000000E+00  0.00000000000E+00  0.98403590926E+03  0.98403590927E+03  0.50400001928E-02 0. -1.
        1   -1    0    0  501    0  0.00000000000E+00  0.00000000000E+00 -0.14636007728E+04  0.14636007728E+04  0.50400001928E-02 0.  1.
    10030    2    1    2    0    0  0.00000000000E+00  0.00000000000E+00 -0.47956486353E+03  0.24476366821E+04  0.24001964230E+04 0.  0.
        3    1    3    3  502    0  0.34451247467E+03  0.54554117508E+03  0.79211293107E+03  0.10216393320E+04  0.10100000352E+00 0. -1.
       -3    1    3    3    0  502 -0.34451247467E+03 -0.54554117508E+03 -0.12716777946E+04  0.14259973501E+04  0.10100000352E+00 0.  1.
</event>
<event>
 5   0  0.5510176E-07  0.2399436E+04  0.7818609E-02  0.8439715E-01
       -1   -1    0    0    0  501  0.00000000000E+00  0.00000000000E+00  0.64273964050E+03  0.64273964052E+03  0.50400001928E-02 0. -1.
        1   -1    0    0  501    0  0.00000000000E+00  0.00000000000E+00 -0.22393570919E+04  0.22393570919E+04  0.50400001928E-02 0.  1.
    10030    2    1    2    0    0  0.00000000000E+00  0.00000000000E+00 -0.15966174514E+04  0.28820967324E+04  0.23994362440E+04 0.  0.
        3    1    3    3  502    0 -0.43445043261E+03 -0.10380119535E+03 -0.21357522470E+04  0.21819623134E+04  0.10100000352E+00 0.  1.
       -3    1    3    3    0  502  0.43445043261E+03  0.10380119535E+03  0.53913479562E+03  0.70013441895E+03  0.10100000352E+00 0. -1.
</event>
<event>
 5   0  0.5363690E-07  0.2400071E+04  0.7818609E-02  0.8439477E-01
        1   -1    0    0  501    0  0.00000000000E+00  0.00000000000E+00  0.11535067243E+04  0.11535067243E+04  0.50400001928E-02 0.  1.
       -1   -1    0    0    0  501  0.00000000000E+00  0.00000000000E+00 -0.12484411005E+04  0.12484411005E+04  0.50400001928E-02 0. -1.
    10030    2    1    2    0    0  0.00000000000E+00  0.00000000000E+00 -0.94934376233E+02  0.24019478249E+04  0.24000710026E+04 0.  0.
        4    1    3    3  502    0  0.33018508869E+03  0.77825115395E+03 -0.89982947498E+03  0.12346626051E+04  0.12699999809E+01 0. -1.
       -4    1    3    3    0  502 -0.33018508869E+03 -0.77825115395E+03  0.80489509875E+03  0.11672852198E+04  0.12699999809E+01 0.  1.
</event>
<event>
 5   0  0.1291468E-06  0.2399527E+04  0.7818609E-02  0.8439681E-01
        2   -1    0    0  501    0  0.00000000000E+00  0.00000000000E+00  0.29646959503E+04  0.29646959503E+04  0.25500000920E-02 0. -1.
       -2   -1    0    0    0  501  0.00000000000E+00  0.00000000000E+00 -0.48552454177E+03  0.48552454178E+03  0.25500000920E-02 0.  1.
    10030    2    1    2    0    0  0.00000000000E+00  0.00000000000E+00  0.24791714086E+04  0.34502204921E+04  0.23995271557E+04 0.  0.
        4    1    3    3  502    0  0.24248875624E+03 -0.72483922401E+03  0.25693196633E+04  0.26805965461E+04  0.12699999809E+01 0. -1.
       -4    1    3    3    0  502 -0.24248875624E+03  0.72483922401E+03 -0.90148254767E+02  0.76962394603E+03  0.12699999809E+01 0.  1.
</event>
<event>
 5   0  0.1336057E-06  0.2401126E+04  0.7818609E-02  0.8439082E-01
        2   -1    0    0  501    0  0.00000000000E+00  0.00000000000E+00  0.10994851904E+04  0.10994851904E+04  0.25500000920E-02 0.  1.
       -2   -1    0    0    0  501  0.00000000000E+00  0.00000000000E+00 -0.13109332645E+04  0.13109332645E+04  0.25500000920E-02 0. -1.
    10030    2    1    2    0    0  0.00000000000E+00  0.00000000000E+00 -0.21144807410E+03  0.24104184549E+04  0.24011261607E+04 0.  0.
        2    1    3    3  502    0 -0.10600732088E+04 -0.19824538431E+03 -0.63530257505E+03  0.12516652118E+04  0.25500000920E-02 0. -1.
       -2    1    3    3    0  502  0.10600732088E+04  0.19824538431E+03  0.42385450095E+03  0.11587532431E+04  0.25500000920E-02 0.  1.
</event>
<event>
 5   0  0.1291468E-06  0.2400848E+04  0.7818609E-02  0.8439186E-01
       -2   -1    0    0    0  501  0.00000000000E+00  0.00000000000E+00  0.96458892298E+03  0.96458892298E+03  0.25500000920E-02 0.  1.
        2   -1    0    0  501    0  0.00000000000E+00  0.00000000000E+00 -0.14939192074E+04  0.14939192074E+04  0.25500000920E-02 0. -1.
    10030    2    1    2    0    0  0.00000000000E+00  0.00000000000E+00 -0.52933028442E+03  0.24585081304E+04  0.24008481162E+04 0.  0.
        4    1    3    3  502    0 -0.14807740827E+03 -0.13827170130E+03  0.94695470123E+03  0.96838566764E+03  0.12699999809E+01 0.  1.
       -4    1    3    3    0  502  0.14807740827E+03  0.13827170130E+03 -0.14762849857E+04  0.14901224627E+04  0.12699999809E+01 0. -1.
</event>
<event>
 5   0  0.1275948E-06  0.2400013E+04  0.7818609E-02  0.8439499E-01
        2   -1    0    0  501    0  0.00000000000E+00  0.00000000000E+00  0.14201354610E+04  0.14201354610E+04  0.25500000920E-02 0. -1.
       -2   -1    0    0    0  501  0.00000000000E+00  0.00000000000E+00 -0.10139988706E+04  0.10139988706E+04  0.25500000920E-02 0.  1.
    10030    2    1    2    0    0  0.00000000000E+00  0.00000000000E+00  0.40613659038E+03  0.24341343315E+04  0.24000131279E+04 0.  0.
        1    1    3    3  502    0 -0.40821841953E+03 -0.41676374711E+03  0.12666341228E+04  0.13945236821E+04  0.50400001928E-02 0. -1.
       -1    1    3    3    0  502  0.40821841953E+03  0.41676374711E+03 -0.86049753244E+03  0.10396106494E+04  0.50400001928E-02 0.  1.
</event>
<event>
 5   0  0.1308662E-06  0.2399460E+04  0.7818609E-02  0.8439706E-01
       -2   -1    0    0    0  501  0.00000000000E+00  0.00000000000E+00  0.74846642074E+03  0.74846642075E+03  0.25500000920E-02 0. -1.
        2   -1    0    0  501    0  0.00000000000E+00  0.00000000000E+00 -0.19230686528E+04  0.19230686528E+04  0.25500000920E-02 0.  1.
    10030    2    1    2    0    0  0.00000000000E+00  0.00000000000E+00 -0.11746022320E+04  0.26715350735E+04  0.23994601988E+04 0.  0.
        3    1    3    3  502    0 -0.18135173016E+03 -0.92874844338E+03 -0.14084141361E+04  0.16967888820E+04  0.10100000352E+00 0.  1.
       -3    1    3    3    0  502  0.18135173016E+03  0.92874844338E+03  0.23381190411E+03  0.97474619149E+03  0.10100000352E+00 0. -1.
</event>
<event>
 5   0  0.5527286E-07  0.2401110E+04  0.7818609E-02  0.8439088E-01
        1   -1    0    0  501    0  0.00000000000E+00  0.00000000000E+00  0.19060153772E+04  0.19060153772E+04  0.50400001928E-02 0. -1.
       -1   -1    0    0    0  501  0.00000000000E+00  0.00000000000E+00 -0.75620180393E+03  0.75620180394E+03  0.50400001928E-02 0.  1.
    10030    2    1    2    0    0  0.00000000000E+00  0.00000000000E+00  0.11498135732E+04  0.26622171811E+04  0.24011099655E+04 0.  0.
        1    1    3    3  502    0 -0.17438378491E+03  0.21743768944E+03  0.18696446277E+04  0.18903068235E+04  0.50400001928E-02 0. -1.
       -1    1    3    3    0  502  0.17438378491E+03 -0.21743768944E+03 -0.71983105443E+03  0.77191035760E+03  0.50400001928E-02 0.  1.
</event>
<event>
 5   0  0.1336057E-06  0.2399828E+04  0.7818609E-02  0.8439568E-01
       -2   -1    0    0    0  501  0.00000000000E+00  0.00000000000E+00  0.15138446432E+04  0.15138446432E+04  0.25500000920E-02 0. -1.
        2   -1    0    0  501    0  0.00000000000E+00  0.00000000000E+00 -0.95108429927E+03  0.95108429928E+03  0.25500000920E-02 0.  1.
    10030    2    1    2    0    0  0.00000000000E+00  0.00000000000E+00  0.56276034397E+03  0.24649289425E+04  0.23998282203E+04 0.  0.
        2    1    3    3  502    0  0.17574926321E+03 -0.11498151051E+04 -0.21284952158E+02  0.11633639279E+04  0.25500000920E-02 0. -1.
       -2    1    3    3    0  502 -0.17574926321E+03  0.11498151051E+04  0.58404529612E+03  0.13015650147E+04  0.25500000920E-02 0.  1.
</event>
<event>
 5   0  0.5690124E-07  0.2403821E+04  0.7818609E-02  0.8438074E-01
       -1   -1    0    0    0  501  0.00000000000E+00  0.00000000000E+00  0.12140210524E+04  0.12140210524E+04  0.50400001928E-02 0.  1.
        1   -1    0    0  501    0  0.00000000000E+00  0.00000000000E+00 -0.11899209440E+04  0.11899209440E+04  0.50400001928E-02 0. -1.
    10030    2    1    2    0    0  0.00000000000E+00  0.00000000000E+00  0.24100108359E+02  0.24039419964E+04  0.24038211886E+04 0.  0.
        2    1    3    3  502    0  0.53957054392E+03  0.41584650318E+03 -0.97821402609E+03  0.11920433578E+04  0.25500000920E-02 0. -1.
       -2    1    3    3    0  502 -0.53957054392E+03 -0.41584650318E+03  0.10023141345E+04  0.12118986386E+04  0.25500000920E-02 0.  1.
</event>
<event>
 5   0  0.1291468E-06  0.2400095E+04  0.7818609E-02  0.8439468E-01
        2   -1    0    0  501    0  0.00000000000E+00  0.00000000000E+00  0.11724988617E+04  0.11724988617E+04  0.25500000920E-02 0.  1.
       -2   -1    0    0    0  501  0.00000000000E+00  0.00000000000E+00 -0.12282437264E+04  0.12282437264E+04  0.25500000920E-02 0. -1.
    10030    2    1    2    0    0  0.00000000000E+00  0.00000000000E+00 -0.55744864729E+02  0.24007425881E+04  0.24000953073E+04 0.  0.
        4    1    3    3  502    0  0.10539338220E+04 -0.52360280692E+03 -0.26283226445E+03  0.12058270243E+04  0.12699999809E+01 0. -1.
       -4    1    3    3    0  502 -0.10539338220E+04  0.52360280692E+03  0.20708739972E+03  0.11949155638E+04  0.12699999809E+01 0.  1.
</event>
<event>
 5   0  0.1291468E-06  0.2400970E+04  0.7818609E-02  0.8439141E-01
        2   -1    0    0  501    0  0.00000000000E+00  0.00000000000E+00  0.15907798424E+04  0.15907798424E+04  0.25500000920E-02 0.  1.
       -2   -1    0    0    0  501  0.00000000000E+00  0.00000000000E+00 -0.90594813510E+03  0.90594813510E+03  0.25500000920E-02 0. -1.
    10030    2    1    2    0    0  0.00000000000E+00  0.00000000000E+00  0.68483170735E+03  0.24967279775E+04  0.24009698304E+04 0.  0.
        4    1    3    3  502    0  0.79093343416E+03  0.84316619483E+03  0.60052463758E+01  0.11560893587E+04  0.12699999809E+01 0.  1.
       -4    1    3    3    0  502 -0.79093343416E+03 -0.84316619483E+03  0.67882646097E+03  0.13406386189E+04  0.12699999809E+01 0. -1.
</event>
<event>
 5   0  0.5527286E-07  0.2401011E+04  0.7818609E-02  0.8439125E-01
       -1   -1    0    0    0  501  0.00000000000E+00  0.00000000000E+00  0.59448212796E+03  0.59448212799E+03  0.50400001928E-02 0. -1.
        1   -1    0    0  501    0  0.00000000000E+00  0.00000000000E+00 -0.24243183991E+04  0.24243183991E+04  0.50400001928E-02 0.  1.
    10030    2    1    2    0    0  0.00000000000E+00  0.00000000000E+00 -0.18298362712E+04  0.30188005271E+04  0.24010114209E+04 0.  0.
        1    1    3    3  502    0 -0.28392708837E+03  0.10597921352E+04 -0.15275747582E+04  0.18807601132E+04  0.50400001928E-02 0.  1.
       -1    1    3    3    0  502  0.28392708837E+03 -0.10597921352E+04 -0.30226151292E+03  0.11380404139E+04  0.50400001928E-02 0. -1.
</event>
<event>
 5   0  0.5510176E-07  0.2399222E+04  0.7818609E-02  0.8439795E-01
       -1   -1    0    0    0  501  0.00000000000E+00  0.00000000000E+00  0.11421123279E+04  0.11421123279E+04  0.50400001928E-02 0.  1.
        1   -1    0    0  501    0  0.00000000000E+00  0.00000000000E+00 -0.12600043105E+04  0.12600043106E+04  0.50400001928E-02 0. -1.
    10030    2    1    2    0    0  0.00000000000E+00  0.00000000000E+00 -0.11789198266E+03  0.24021166384E+04  0.23992219208E+04 0.  0.
        3    1    3    3  502    0  0.38334674584E+03 -0.31266788192E+03 -0.11531280039E+04  0.12547589950E+04  0.10100000352E+00 0. -1.
       -3    1    3    3    0  502 -0.38334674584E+03  0.31266788192E+03  0.10352360213E+04  0.11473576434E+04  0.10100000352E+00 0.  1.
</event>
<event>
 5   0  0.1308662E-06  0.2398947E+04  0.7818609E-02  0.8439898E-01
        2   -1    0    0  501    0  0.00000000000E+00  0.00000000000E+00  0.19753704478E+04  0.19753704478E+04  0.25500000920E-02 0. -1.
       -2   -1    0    0    0  501  0.00000000000E+00  0.00000000000E+00 -0.72833763167E+03  0.72833763167E+03  0.25500000920E-02 0.  1.
    10030    2    1    2    0    0  0.00000000000E+00  0.00000000000E+00  0.12470328162E+04  0.27037080795E+04  0.23989469637E+04 0.  0.
        3    1    3    3  502    0 -0.35939389234E+03 -0.48172064194E+03  0.17934235556E+04  0.18914509792E+04  0.10100000352E+00 0. -1.
       -3    1    3    3    0  502  0.35939389234E+03  0.48172064194E+03 -0.54639073941E+03  0.81225710033E+03  0.10100000352E+00 0.  1.
</event>
<event>
 5   0  0.5452384E-07  0.2400123E+04  0.7818609E-02  0.8439457E-01
       -1   -1    0    0    0  501  0.00000000000E+00  0.00000000000E+00  0.22148295496E+04  0.22148295496E+04  0.50400001928E-02 0.  1.
        1   -1    0    0  501    0  0.00000000000E+00  0.00000000000E+00 -0.65022976191E+03  0.65022976193E+03  0.50400001928E-02 0. -1.
    10030    2    1    2    0    0  0.00000000000E+00  0.00000000000E+00  0.15645997877E+04  0.28650593116E+04  0.24001234058E+04 0.  0.
        5    1    3    3  502    0  0.43955772723E+03 -0.61350185948E+03  0.18960609651E+04  0.20407510384E+04  0.46999998093E+01 0.  1.
       -5    1    3    3    0  502 -0.43955772723E+03  0.61350185948E+03 -0.33146117740E+03  0.82430827320E+03  0.46999998093E+01 0. -1.
</event>
<event>
 5   0  0.5363690E-07  0.2398169E+04  0.7818609E-02  0.8440189E-01
       -1   -1    0    0    0  501  0.00000000000E+00  0.00000000000E+00  0.75374990644E+03  0.75374990646E+03  0.50400001928E-02 0. -1.
        1   -1    0    0  501    0  0.00000000000E+00  0.00000000000E+00 -0.19075335491E+04  0.19075335491E+04  0.50400001928E-02 0.  1.
    10030    2    1    2    0    0  0.00000000000E+00  0.00000000000E+00 -0.11537836427E+04  0.26612834556E+04  0.23981686631E+04 0.  0.
        4    1    3    3  502    0 -0.64917472765E+03  0.30225485883E+03  0.49040688868E+03  0.86792070840E+03  0.12699999809E+01 0.  1.
       -4    1    3    3    0  502  0.64917472765E+03 -0.30225485883E+03 -0.16441905313E+04  0.17933627472E+04  0.12699999809E+01 0. -1.
</event>
<event>
 5   0  0.1291468E-06  0.2400637E+04  0.7818609E-02  0.8439265E-01
        2   -1    0    0  501    0  0.00000000000E+00  0.00000000000E+00  0.12557917027E+04  0.12557917027E+04  0.25500000920E-02 0. -1.
       -2   -1    0    0    0  501  0.00000000000E+00  0.00000000000E+00 -0.11472957534E+04  0.11472957534E+04  0.25500000920E-02 0.  1.
    10030    2    1    2    0    0  0.00000000000E+00  0.00000000000E+00  0.10849594931E+03  0.24030874560E+04  0.24006369885E+04 0.  0.
        4    1    3    3  502    0  0.10995581493E+04  0.20285876656E+03  0.49125180593E+03  0.12212738237E+04  0.12699999809E+01 0. -1.
       -4    1    3    3    0  502 -0.10995581493E+04 -0.20285876656E+03 -0.38275585662E+03  0.11818136323E+04  0.12699999809E+01 0.  1.
</event>
<event>
 5   0  0.1275948E-06  0.2399655E+04  0.7818609E-02  0.8439633E-01
        2   -1    0    0  501    0  0.00000000000E+00  0.00000000000E+00  0.18014815238E+04  0.18014815238E+04  0.25500000920E-02 0.  1.
       -2   -1    0    0    0  501  0.00000000000E+00  0.00000000000E+00 -0.79911199758E+03  0.79911199759E+03  0.25500000920E-02 0. -1.
    10030    2    1    2    0    0  0.00000000000E+00  0.00000000000E+00  0.10023695262E+04  0.26005935214E+04  0.23996545577E+04 0.  0.
        1    1    3    3  502    0  0.49456055599E+03  0.98768523436E+03 -0.65238485393E+01  0.11046061861E+04  0.50400001928E-02 0. -1.
       -1    1    3    3    0  502 -0.49456055599E+03 -0.98768523436E+03  0.10088933747E+04  0.14959873353E+04  0.50400001928E-02 0.  1.
</event>
<event>
 5   0  0.5690124E-07  0.2399976E+04  0.7818609E-02  0.8439513E-01
       -1   -1    0    0    0  501  0.00000000000E+00  0.00000000000E+00  0.12454942416E+04  0.12454942416E+04  0.50400001928E-02 0. -1.
        1   -1    0    0  501    0  0.00000000000E+00  0.00000000000E+00 -0.11561444341E+04  0.11561444341E+04  0.50400001928E-02 0.  1.
    10030    2    1    2    0    0  0.00000000000E+00  0.00000000000E+00  0.89349807514E+02  0.24016386758E+04  0.23999760292E+04 0.  0.
        2    1    3    3  502    0 -0.67866799498E+03 -0.98791634410E+03 -0.13694613634E+02  0.11986477768E+04  0.25500000920E-02 0.  1.
       -2    1    3    3    0  502  0.67866799498E+03  0.98791634410E+03  0.10304442115E+03  0.12029908990E+04  0.25500000920E-02 0. -1.
</event>
<event>
 5   0  0.1336057E-06  0.2398155E+04  0.7818609E-02  0.8440195E-01
        2   -1    0    0  501    0  0.00000000000E+00  0.00000000000E+00  0.15251907701E+04  0.15251907701E+04  0.25500000920E-02 0.  1.
       -2   -1    0    0    0  501  0.00000000000E+00  0.00000000000E+00 -0.94269325662E+03  0.94269325662E+03  0.25500000920E-02 0. -1.
    10030    2    1    2    0    0  0.00000000000E+00  0.00000000000E+00  0.58249751345E+03  0.24678840267E+04  0.23981551693E+04 0.  0.
        2    1    3    3  502    0  0.11382212826E+04 -0.21650319764E+03  0.60904125324E+03  0.13089509429E+04  0.25500000920E-02 0.  1.
       -2    1    3    3    0  502 -0.11382212826E+04  0.21650319764E+03 -0.26543739789E+02  0.11589330838E+04  0.25500000920E-02 0. -1.
</event>
<event>
 5   0  0.1275948E-06  0.2400055E+04  0.7818609E-02  0.8439483E-01
       -2   -1    0    0    0  501  0.00000000000E+00  0.00000000000E+00  0.21403098822E+04  0.21403098822E+04  0.25500000920E-02 0. -1.
        2   -1    0    0  501    0  0.00000000000E+00  0.00000000000E+00 -0.67283074689E+03  0.67283074690E+03  0.25500000920E-02 0.  1.
    10030    2    1    2    0    0  0.00000000000E+00  0.00000000000E+00  0.14674791353E+04  0.28131406291E+04  0.24000552466E+04 0.  0.
        1    1    3    3  502    0  0.48983516234E+03 -0.20045829490E+03  0.19961156820E+04  0.20650907559E+04  0.50400001928E-02 0.  1.
       -1    1    3    3    0  502 -0.48983516234E+03  0.20045829490E+03 -0.52863654668E+03  0.74804987318E+03  0.50400001928E-02 0. -1.
</event>
<event>
 5   0  0.1308662E-06  0.2399824E+04  0.7818609E-02  0.8439570E-01
       -2   -1    0    0    0  501  0.00000000000E+00  0.00000000000E+00  0.12985526491E+04  0.12985526491E+04  0.25500000920E-02 0. -1.
        2   -1    0    0  501    0  0.00000000000E+00  0.00000000000E+00 -0.11087639928E+04  0.11087639928E+04  0.25500000920E-02 0.  1.
    10030    2    1    2    0    0  0.00000000000E+00  0.00000000000E+00  0.18978865630E+03  0.24073166418E+04  0.23998236768E+04 0.  0.
        3    1    3    3  502    0  0.84130633728E+03 -0.50705825943E+03 -0.59637556589E+03  0.11491598050E+04  0.10100000352E+00 0.  1.
       -3    1    3    3    0  502 -0.84130633728E+03  0.50705825943E+03  0.78616422219E+03  0.12581568368E+04  0.10100000352E+00 0. -1.
</event>
<event>
 5   0  0.1336057E-06  0.2400463E+04  0.7818609E-02  0.8439330E-01
       -2   -1    0    0    0  501  0.00000000000E+00  0.00000000000E+00  0.96908386155E+03  0.96908386156E+03  0.25500000920E-02 0.  1.
        2   -1    0    0  501    0  0.00000000000E+00  0.00000000000E+00 -0.14865133495E+04  0.14865133495E+04  0.25500000920E-02 0. -1.
    10030    2    1    2    0    0  0.00000000000E+00  0.00000000000E+00 -0.51742948792E+03  0.24555972110E+04  0.24004633694E+04 0.  0.
        2    1    3    3  502    0 -0.68528506720E+03 -0.33785867907E+03 -0.12056052155E+04  0.14273219840E+04  0.25500000920E-02 0. -1.
       -2    1    3    3    0  502  0.68528506720E+03  0.33785867907E+03  0.68817572763E+03  0.10282752270E+04  0.25500000920E-02 0.  1.
</event>
<event>
 5   0  0.5452384E-07  0.2399948E+04  0.7818609E-02  0.8439523E-01
        1   -1    0    0  501    0  0.00000000000E+00  0.00000000000E+00  0.25096085660E+04  0.25096085660E+04  0.50400001928E-02 0. -1.
       -1   -1    0    0    0  501  0.00000000000E+00  0.00000000000E+00 -0.57376964342E+03  0.57376964344E+03  0.50400001928E-02 0.  1.
    10030    2    1    2    0    0  0.00000000000E+00  0.00000000000E+00  0.19358389226E+04  0.30833782094E+04  0.23999476761E+04 0.  0.
        5    1    3    3  502    0 -0.71494586833E+03  0.10440925790E+02  0.22060118338E+04  0.23190012739E+04  0.46999998093E+01 0. -1.
       -5    1    3    3    0  502  0.71494586833E+03 -0.10440925790E+02 -0.27017291123E+03  0.76437693551E+03  0.46999998093E+01 0.  1.
</event>
<event>
 5   0  0.1291468E-06  0.2400028E+04  0.7818609E-02  0.8439493E-01
        2   -1    0    0  501    0  0.00000000000E+00  0.00000000000E+00  0.14496743751E+04  0.14496743751E+04  0.25500000920E-02 0. -1.
       -2   -1    0    0    0  501  0.00000000000E+00  0.00000000000E+00 -0.99335006058E+03  0.99335006059E+03  0.25500000920E-02 0.  1.
    10030    2    1    2    0    0  0.00000000000E+00  0.00000000000E+00  0.45632431447E+03  0.24430244356E+04  0.24000284401E+04 0.  0.
        4    1    3    3  502    0 -0.79015239426E+03  0.87756344440E+01 -0.69113082424E+03  0.10498005749E+04  0.12699999809E+01 0.  1.
       -4    1    3    3    0  502  0.79015239426E+03 -0.87756344440E+01  0.11474551387E+04  0.13932238608E+04  0.12699999809E+01 0. -1.
</event>
<event>
 5   0  0.5510176E-07  0.2399711E+04  0.7818609E-02  0.8439612E-01
        1   -1    0    0  501    0  0.00000000000E+00  0.00000000000E+00  0.13873094378E+04  0.13873094378E+04  0.50400001928E-02 0.  1.
       -1   -1    0    0    0  501  0.00000000000E+00  0.00000000000E+00 -0.10377302027E+04  0.10377302028E+04  0.50400001928E-02 0. -1.
    10030    2    1    2    0    0  0.00000000000E+00  0.00000000000E+00  0.34957923506E+03  0.24250396406E+04  0.23997107361E+04 0.  0.
        3    1    3    3  502    0 -0.31616924364E+03 -0.12916684492E+03 -0.98757083815E+03  0.10449608773E+04  0.10100000352E+00 0. -1.
       -3    1    3    3    0  502  0.31616924364E+03  0.12916684492E+03  0.13371500732E+04  0.13800787633E+04  0.10100000352E+00 0.  1.
</event>
<event>
 5   0  0.5527286E-07  0.2400686E+04  0.7818609E-02  0.8439247E-01
       -1   -1    0    0    0  501  0.00000000000E+00  0.00000000000E+00  0.10409485833E+04  0.10409485833E+04  0.50400001928E-02 0.  1.
        1   -1    0    0  501    0  0.00000000000E+00  0.00000000000E+00 -0.13841450167E+04  0.13841450167E+04  0.50400001928E-02 0. -1.
    10030    2    1    2    0    0  0.00000000000E+00  0.00000000000E+00 -0.34319643339E+03  0.24250936000E+04  0.24006863971E+04 0.  0.
        1    1    3    3  502    0 -0.87445748055E+03 -0.82201212131E+03 -0.15031312914E+03  0.12095345591E+04  0.50400001928E-02 0.  1.
       -1    1    3    3    0  502  0.87445748055E+03  0.82201212131E+03 -0.19288330425E+03  0.12155590409E+04  0.50400001928E-02 0. -1.
</event>
<event>
 5   0  0.1308662E-06  0.2400537E+04  0.7818609E-02  0.8439303E-01
       -2   -1    0    0    0  501  0.00000000000E+00  0.00000000000E+00  0.14295525268E+04  0.14295525268E+04  0.25500000920E-02 0.  1.
        2   -1    0    0  501    0  0.00000000000E+00  0.00000000000E+00 -0.10077587451E+04  0.10077587451E+04  0.25500000920E-02 0. -1.
    10030    2    1    2    0    0  0.00000000000E+00  0.00000000000E+00  0.42179378165E+03  0.24373112719E+04  0.24005366571E+04 0.  0.
        3    1    3    3  502    0  0.43568065336E+03  0.39896820794E+03  0.12717237839E+04  0.14022391577E+04  0.10100000352E+00 0.  1.
       -3    1    3    3    0  502 -0.43568065336E+03 -0.39896820794E+03 -0.84993000227E+03  0.10350721142E+04  0.10100000352E+00 0. -1.
</event>
<event>
 5   0  0.4483375E-07  0.2399861E+04  0.7818609E-02  0.8439556E-01
        3   -1    0    0  501    0  0.00000000000E+00  0.00000000000E+00  0.87090937772E+03  0.87090938358E+03  0.10100000352E+00 0. -1.
       -3   -1    0    0    0  501  0.00000000000E+00  0.00000000000E+00 -0.16532529092E+04  0.16532529123E+04  0.10100000352E+00 0.  1.
    10030    2    1    2    0    0  0.00000000000E+00  0.00000000000E+00 -0.78234353145E+03  0.25241622958E+04  0.23998612240E+04 0.  0.
        4    1    3    3  502    0 -0.68069750108E+03 -0.83321339816E+03  0.16760591148E+03  0.10888925610E+04  0.12699999809E+01 0. -1.
       -4    1    3    3    0  502  0.68069750108E+03  0.83321339816E+03 -0.94994944293E+03  0.14352697349E+04  0.12699999809E+01 0.  1.
</event>
<event>
 5   0  0.5510176E-07  0.2399798E+04  0.7818609E-02  0.8439579E-01
        1   -1    0    0  501    0  0.00000000000E+00  0.00000000000E+00  0.20974427302E+04  0.20974427302E+04  0.50400001928E-02 0. -1.
       -1   -1    0    0    0  501  0.00000000000E+00  0.00000000000E+00 -0.68643473046E+03  0.68643473047E+03  0.50400001928E-02 0.  1.
    10030    2    1    2    0    0  0.00000000000E+00  0.00000000000E+00  0.14110079998E+04  0.27838774607E+04  0.23997979375E+04 0.  0.
        3    1    3    3  502    0  0.10248568725E+04 -0.55721784084E+03  0.37958623919E+03  0.12267473474E+04  0.10100000352E+00 0.  1.
       -3    1    3    3    0  502 -0.10248568725E+04  0.55721784084E+03  0.10314217606E+04  0.15571301133E+04  0.10100000352E+00 0. -1.
</event>
<event>
 5   0  0.5363690E-07  0.2398499E+04  0.7818609E-02  0.8440066E-01
        1   -1    0    0  501    0  0.00000000000E+00  0.00000000000E+00  0.22536676546E+04  0.22536676546E+04  0.50400001928E-02 0.  1.
       -1   -1    0    0    0  501  0.00000000000E+00  0.00000000000E+00 -0.63815941474E+03  0.63815941476E+03  0.50400001928E-02 0. -1.
    10030    2    1    2    0    0  0.00000000000E+00  0.00000000000E+00  0.16155082399E+04  0.28918270694E+04  0.23984988902E+04 0.  0.
        4    1    3    3  502    0  0.33153690517E+03  0.11472584986E+04  0.67524512835E+03  0.13718878884E+04  0.12699999809E+01 0. -1.
       -4    1    3    3    0  502 -0.33153690517E+03 -0.11472584986E+04  0.94026311150E+03  0.15199391810E+04  0.12699999809E+01 0.  1.
</event>
<event>
 5   0  0.5452384E-07  0.2400021E+04  0.7818609E-02  0.8439496E-01
       -1   -1    0    0    0  501  0.00000000000E+00  0.00000000000E+00  0.57966292018E+03  0.57966292020E+03  0.50400001928E-02 0.  1.
        1   -1    0    0  501    0  0.00000000000E+00  0.00000000000E+00 -0.24842451780E+04  0.24842451780E+04  0.50400001928E-02 0. -1.
    10030    2    1    2    0    0  0.00000000000E+00  0.00000000000E+00 -0.19045822578E+04  0.30639080982E+04  0.24000206785E+04 0.  0.
        5    1    3    3  502    0 -0.66675329486E+03 -0.50868245138E+02  0.31975747613E+03  0.74122497806E+03  0.46999998093E+01 0.  1.
       -5    1    3    3    0  502  0.66675329486E+03  0.50868245138E+02 -0.22243397339E+04  0.23226831201E+04  0.46999998093E+01 0. -1.
</event>
<event>
 5   0  0.5363690E-07  0.2399754E+04  0.7818609E-02  0.8439595E-01
       -1   -1    0    0    0  501  0.00000000000E+00  0.00000000000E+00  0.85452744138E+03  0.85452744139E+03  0.50400001928E-02 0. -1.
        1   -1    0    0  501    0  0.00000000000E+00  0.00000000000E+00 -0.16847971558E+04  0.16847971558E+04  0.50400001928E-02 0.  1.
    10030    2    1    2    0    0  0.00000000000E+00  0.00000000000E+00 -0.83026971445E+03  0.25393245972E+04  0.23997544898E+04 0.  0.
        4    1    3    3  502    0 -0.71861048094E+03  0.68079059209E+03  0.30240926420E+03  0.10350506411E+04  0.12699999809E+01 0. -1.
       -4    1    3    3    0  502  0.71861048094E+03 -0.68079059209E+03 -0.11326789787E+04  0.15042739562E+04  0.12699999809E+01 0.  1.
</event>
<event>
 5   0  0.1308662E-06  0.2400181E+04  0.7818609E-02  0.8439436E-01
       -2   -1    0    0    0  501  0.00000000000E+00  0.00000000000E+00  0.11650996793E+04  0.11650996793E+04  0.25500000920E-02 0. -1.
        2   -1    0    0  501    0  0.00000000000E+00  0.00000000000E+00 -0.12361321423E+04  0.12361321424E+04  0.25500000920E-02 0.  1.
    10030    2    1    2    0    0  0.00000000000E+00  0.00000000000E+00 -0.71032463038E+02  0.24012318217E+04  0.24001809620E+04 0.  0.
        3    1    3    3  502    0  0.56281839320E+03 -0.69282700098E+03  0.76698417980E+03  0.11768766032E+04  0.10100000352E+00 0. -1.
       -3    1    3    3    0  502 -0.56281839320E+03  0.69282700098E+03 -0.83801664284E+03  0.12243552184E+04  0.10100000352E+00 0.  1.
</event>
<event>
 5   0  0.5527286E-07  0.2400832E+04  0.7818609E-02  0.8439192E-01
       -1   -1    0    0    0  501  0.00000000000E+00  0.00000000000E+00  0.86339748716E+03  0.86339748717E+03  0.50400001928E-02 0. -1.
        1   -1    0    0  501    0  0.00000000000E+00  0.00000000000E+00 -0.16689864267E+04  0.16689864267E+04  0.50400001928E-02 0.  1.
    10030    2    1    2    0    0  0.00000000000E+00  0.00000000000E+00 -0.80558893950E+03  0.25323839138E+04  0.24008320948E+04 0.  0.
        1    1    3    3  502    0  0.88608379212E+03 -0.16104485916E+03  0.43436853289E+03  0.99987797041E+03  0.50400001928E-02 0.  1.
       -1    1    3    3    0  502 -0.88608379212E+03  0.16104485916E+03 -0.12399574724E+04  0.15325059434E+04  0.50400001928E-02 0. -1.
</event>
<event>
 5   0  0.1308662E-06  0.2398644E+04  0.7818609E-02  0.8440011E-01
        2   -1    0    0  501    0  0.00000000000E+00  0.00000000000E+00  0.13757321436E+04  0.13757321436E+04  0.25500000920E-02 0.  1.
       -2   -1    0    0    0  501  0.00000000000E+00  0.00000000000E+00 -0.10455329833E+04  0.10455329833E+04  0.25500000920E-02 0. -1.
    10030    2    1    2    0    0  0.00000000000E+00  0.00000000000E+00  0.33019916033E+03  0.24212651269E+04  0.23986440606E+04 0.  0.
        3    1    3    3  502    0  0.61860783662E+03  0.10123959493E+04  0.34211617763E+03  0.12347731382E+04  0.10100000352E+00 0. -1.
       -3    1    3    3    0  502 -0.61860783662E+03 -0.10123959493E+04 -0.11917017300E+02  0.11864919887E+04  0.10100000352E+00 0.  1.
</event>
<event>
 5   0  0.1291468E-06  0.2398953E+04  0.7818609E-02  0.8439896E-01
        2   -1    0    0  501    0  0.00000000000E+00  0.00000000000E+00  0.22779417227E+04  0.22779417227E+04  0.25500000920E-02 0.  1.
       -2   -1    0    0    0  501  0.00000000000E+00  0.00000000000E+00 -0.63159830701E+03  0.63159830702E+03  0.25500000920E-02 0. -1.
    10030    2    1    2    0    0  0.00000000000E+00  0.00000000000E+00  0.16463434157E+04  0.29095400298E+04  0.23989532180E+04 0.  0.
        4    1    3    3  502    0 -0.10552433126E+04  0.41512971960E+03  0.12973762011E+04  0.17230953987E+04  0.12699999809E+01 0.  1.
       -4    1    3    3    0  502  0.10552433126E+04 -0.41512971960E+03  0.34896721463E+03  0.11864446311E+04  0.12699999809E+01 0. -1.
</event>
<event>
 5   0  0.5363690E-07  0.2398378E+04  0.7818609E-02  0.8440111E-01
       -1   -1    0    0    0  501  0.00000000000E+00  0.00000000000E+00  0.17251455588E+04  0.17251455588E+04  0.50400001928E-02 0.  1.
        1   -1    0    0  501    0  0.00000000000E+00  0.00000000000E+00 -0.83358457136E+03  0.83358457138E+03  0.50400001928E-02 0. -1.
    10030    2    1    2    0    0  0.00000000000E+00  0.00000000000E+00  0.89156098744E+03  0.25587301302E+04  0.23983783865E+04 0.  0.
        4    1    3    3  502    0 -0.81358973687E+03  0.27166073071E+02 -0.49365290876E+03  0.95202996943E+03  0.12699999809E+01 0. -1.
       -4    1    3    3    0  502  0.81358973687E+03 -0.27166073071E+02  0.13852138962E+04  0.16067001608E+04  0.12699999809E+01 0.  1.
</event>
<event>
 5   0  0.5527286E-07  0.2392830E+04  0.7818609E-02  0.8442193E-01
        1   -1    0    0  501    0  0.00000000000E+00  0.00000000000E+00  0.21635806503E+04  0.21635806503E+04  0.50400001928E-02 0. -1.
       -1   -1    0    0    0  501  0.00000000000E+00  0.00000000000E+00 -0.66159258316E+03  0.66159258318E+03  0.50400001928E-02 0.  1.
    10030    2    1    2    0    0  0.00000000000E+00  0.00000000000E+00  0.15019880671E+04  0.28251732335E+04  0.23928300494E+04 0.  0.
        1    1    3    3  502    0  0.81374585292E+03  0.87184211619E+03  0.86373485113E+03  0.14725246625E+04  0.50400001928E-02 0.  1.
       -1    1    3    3    0  502 -0.81374585292E+03 -0.87184211619E+03  0.63825321601E+03  0.13526485709E+04  0.50400001928E-02 0. -1.
</event>
<event>
 5   0  0.1336057E-06  0.2400549E+04  0.7818609E-02  0.8439298E-01
        2   -1    0    0  501    0  0.00000000000E+00  0.00000000000E+00  0.18106740199E+04  0.18106740199E+04  0.25500000920E-02 0. -1.
       -2   -1    0    0    0  501  0.00000000000E+00  0.00000000000E+00 -0.79564753505E+03  0.79564753506E+03  0.25500000920E-02 0.  1.
    10030    2    1    2    0    0  0.00000000000E+00  0.00000000000E+00  0.10150264848E+04  0.26063215550E+04  0.24005485379E+04 0.  0.
        2    1    3    3  502    0  0.29743280919E+03  0.23947759074E+03  0.17429655409E+04  0.17843050942E+04  0.25500000920E-02 0. -1.
       -2    1    3    3    0  502 -0.29743280919E+03 -0.23947759074E+03 -0.72793905604E+03  0.82201646076E+03  0.25500000920E-02 0.  1.
</event>
<event>
 5   0  0.1308662E-06  0.2400673E+04  0.7818609E-02  0.8439252E-01
       -2   -1    0    0    0  501  0.00000000000E+00  0.00000000000E+00  0.74164745473E+03  0.74164745473E+03  0.25500000920E-02 0.  1.
        2   -1    0    0  501    0  0.00000000000E+00  0.00000000000E+00 -0.19427123120E+04  0.19427123120E+04  0.25500000920E-02 0. -1.
    10030    2    1    2    0    0  0.00000000000E+00  0.00000000000E+00 -0.12010648572E+04  0.26843597667E+04  0.24006729402E+04 0.  0.
        3    1    3    3  502    0 -0.89766550187E+03  0.75960311159E+03 -0.33122434498E+03  0.12216831902E+04  0.10100000352E+00 0. -1.
       -3    1    3    3    0  502  0.89766550187E+03 -0.75960311159E+03 -0.86984051225E+03  0.14626765765E+04  0.10100000352E+00 0.  1.
</event>
<event>
 5   0  0.5363690E-07  0.2400295E+04  0.7818609E-02  0.8439393E-01
       -1   -1    0    0    0  501  0.00000000000E+00  0.00000000000E+00  0.14653758666E+04  0.14653758666E+04  0.50400001928E-02 0.  1.
        1   -1    0    0  501    0  0.00000000000E+00  0.00000000000E+00 -0.98292436327E+03  0.98292436329E+03  0.50400001928E-02 0. -1.
    10030    2    1    2    0    0  0.00000000000E+00  0.00000000000E+00  0.48245150333E+03  0.24483002299E+04  0.24002946825E+04 0.  0.
        4    1    3    3  502    0  0.20399682485E+03 -0.24625336213E+03  0.14211220666E+04  0.14566554033E+04  0.12699999809E+01 0.  1.
       -4    1    3    3    0  502 -0.20399682485E+03  0.24625336213E+03 -0.93867056325E+03  0.99164482660E+03  0.12699999809E+01 0. -1.
</event>
<event>
 5   0  0.5690124E-07  0.2403024E+04  0.7818609E-02  0.8438372E-01
        1   -1    0    0  501    0  0.00000000000E+00  0.00000000000E+00  0.73548343987E+03  0.73548343988E+03  0.50400001928E-02 0. -1.
       -1   -1    0    0    0  501  0.00000000000E+00  0.00000000000E+00 -0.19628327256E+04  0.19628327257E+04  0.50400001928E-02 0.  1.
    10030    2    1    2    0    0  0.00000000000E+00  0.00000000000E+00 -0.12273492858E+04  0.26983161655E+04  0.24030238992E+04 0.  0.
        2    1    3    3  502    0 -0.29005086541E+03  0.10727100644E+04 -0.11267655917E+04  0.15825413377E+04  0.25500000920E-02 0.  1.
       -2    1    3    3    0  502  0.29005086541E+03 -0.10727100644E+04 -0.10058369404E+03  0.11157748278E+04  0.25500000920E-02 0. -1.
</event>
<event>
 5   0  0.5527286E-07  0.2399775E+04  0.7818609E-02  0.8439588E-01
        1   -1    0    0  501    0  0.00000000000E+00  0.00000000000E+00  0.14368965457E+04  0.14368965458E+04  0.50400001928E-02 0.  1.
       -1   -1    0    0    0  501  0.00000000000E+00  0.00000000000E+00 -0.10019715407E+04  0.10019715407E+04  0.50400001928E-02 0. -1.
    10030    2    1    2    0    0  0.00000000000E+00  0.00000000000E+00  0.43492500506E+03  0.24388680865E+04  0.23997745276E+04 0.  0.
        1    1    3    3  502    0  0.34658594852E+03 -0.11185079708E+03 -0.94444561204E+03  0.10122301787E+04  0.50400001928E-02 0. -1.
       -1    1    3    3    0  502 -0.34658594852E+03  0.11185079708E+03  0.13793706171E+04  0.14266379078E+04  0.50400001928E-02 0.  1.
</event>
<event>
 5   0  0.1336057E-06  0.2400429E+04  0.7818609E-02  0.8439343E-01
       -2   -1    0    0    0  501  0.00000000000E+00  0.00000000000E+00  0.10333750959E+04  0.10333750959E+04  0.25500000920E-02 0. -1.
        2   -1    0    0  501    0  0.00000000000E+00  0.00000000000E+00 -0.13939898768E+04  0.13939898768E+04  0.25500000920E-02 0.  1.
    10030    2    1    2    0    0  0.00000000000E+00  0.00000000000E+00 -0.36061478090E+03  0.24273649727E+04  0.24004286472E+04 0.  0.
        2    1    3    3  502    0  0.90035078799E+03 -0.78519370028E+03 -0.29716248272E+03  0.12310427407E+04  0.25500000920E-02 0. -1.
       -2    1    3    3    0  502 -0.90035078799E+03  0.78519370028E+03 -0.63452298178E+02  0.11963222319E+04  0.25500000920E-02 0.  1.
</event>
<event>
 5   0  0.5452384E-07  0.2399183E+04  0.7818609E-02  0.8439810E-01
        1   -1    0    0  501    0  0.00000000000E+00  0.00000000000E+00  0.11146686678E+04  0.11146686678E+04  0.50400001928E-02 0.  1.
       -1   -1    0    0    0  501  0.00000000000E+00  0.00000000000E+00 -0.12909838661E+04  0.12909838661E+04  0.50400001928E-02 0. -1.
    10030    2    1    2    0    0  0.00000000000E+00  0.00000000000E+00 -0.17631519834E+03  0.24056525340E+04  0.23991825827E+04 0.  0.
        5    1    3    3  502    0 -0.10258573631E+03  0.38325211203E+03  0.10469691322E+04  0.11196305053E+04  0.46999998093E+01 0.  1.
       -5    1    3    3    0  502  0.10258573631E+03 -0.38325211203E+03 -0.12232843306E+04  0.12860220286E+04  0.46999998093E+01 0. -1.
</event>
<event>
 5   0  0.5510176E-07  0.2400183E+04  0.7818609E-02  0.8439435E-01
        1   -1    0    0  501    0  0.00000000000E+00  0.00000000000E+00  0.67152235416E+03  0.67152235418E+03  0.50400001928E-02 0.  1.
       -1   -1    0    0    0  501  0.00000000000E+00  0.00000000000E+00 -0.21447089398E+04  0.21447089398E+04  0.50400001928E-02 0. -1.
    10030    2    1    2    0    0  0.00000000000E+00  0.00000000000E+00 -0.14731865856E+04  0.28162312939E+04  0.24001833232E+04 0.  0.
        3    1    3    3  502    0  0.18643756803E+03  0.21712163914E+03 -0.21040853989E+04  0.21234585348E+04  0.10100000352E+00 0. -1.
       -3    1    3    3    0  502 -0.18643756803E+03 -0.21712163914E+03  0.63089881331E+03  0.69277275913E+03  0.10100000352E+00 0.  1.
</event>
<event>
 5   0  0.1308662E-06  0.2402226E+04  0.7818609E-02  0.8438671E-01
        2   -1    0    0  501    0  0.00000000000E+00  0.00000000000E+00  0.13146107389E+04  0.13146107389E+04  0.25500000920E-02 0. -1.
       -2   -1    0    0    0  501  0.00000000000E+00  0.00000000000E+00 -0.10974142405E+04  0.10974142405E+04  0.25500000920E-02 0.  1.
    10030    2    1    2    0    0  0.00000000000E+00  0.00000000000E+00  0.21719649848E+03  0.24120249794E+04  0.24022260889E+04 0.  0.
        3    1    3    3  502    0  0.56933587961E+03 -0.13212667587E+03  0.11621981684E+04  0.13008863883E+04  0.10100000352E+00 0. -1.
       -3    1    3    3    0  502 -0.56933587961E+03  0.13212667587E+03 -0.94500166996E+03  0.11111385911E+04  0.10100000352E+00 0.  1.
</event>
<event>
 5   0  0.1308662E-06  0.2396095E+04  0.7818609E-02  0.8440967E-01
       -2   -1    0    0    0  501  0.00000000000E+00  0.00000000000E+00  0.15338934606E+04  0.15338934607E+04  0.25500000920E-02 0. -1.
        2   -1    0    0  501    0  0.00000000000E+00  0.00000000000E+00 -0.93573499566E+03  0.93573499566E+03  0.25500000920E-02 0.  1.
    10030    2    1    2    0    0  0.00000000000E+00  0.00000000000E+00  0.59815846499E+03  0.24696284563E+04  0.23960949820E+04 0.  0.
        3    1    3    3  502    0  0.68215272846E+03  0.28218914010E+03  0.12716229324E+04  0.14703700038E+04  0.10100000352E+00 0. -1.
       -3    1    3    3    0  502 -0.68215272846E+03 -0.28218914010E+03 -0.67346446744E+03  0.99925845247E+03  0.10100000352E+00 0.  1.
</event>
<event>
 5   0  0.5527286E-07  0.2401687E+04  0.7818609E-02  0.8438872E-01
        1   -1    0    0  501    0  0.00000000000E+00  0.00000000000E+00  0.81269598649E+03  0.81269598650E+03  0.50400001928E-02 0.  1.
       -1   -1    0    0    0  501  0.00000000000E+00  0.00000000000E+00 -0.17743726646E+04  0.17743726646E+04  0.50400001928E-02 0. -1.
    10030    2    1    2    0    0  0.00000000000E+00  0.00000000000E+00 -0.96167667807E+03  0.25870686511E+04  0.24016873594E+04 0.  0.
        1    1    3    3  502    0 -0.17496664741E+03 -0.11811968541E+04 -0.61788360250E+03  0.13444774011E+04  0.50400001928E-02 0.  1.
       -1    1    3    3    0  502  0.17496664741E+03  0.11811968541E+04 -0.34379307557E+03  0.12425912500E+04  0.50400001928E-02 0. -1.
</event>
<event>
 5   0  0.1275948E-06  0.2388225E+04  0.7818609E-02  0.8443925E-01
        2   -1    0    0  501    0  0.00000000000E+00  0.00000000000E+00  0.13028389421E+04  0.13028389422E+04  0.25500000920E-02 0. -1.
       -2   -1    0    0    0  501  0.00000000000E+00  0.00000000000E+00 -0.10944596357E+04  0.10944596357E+04  0.25500000920E-02 0.  1.
    10030    2    1    2    0    0  0.00000000000E+00  0.00000000000E+00  0.20837930643E+03  0.23972985779E+04  0.23882249760E+04 0.  0.
        1    1    3    3  502    0 -0.33284278351E+03  0.72199443281E+02 -0.10446706290E+04  0.10987874232E+04  0.50400001928E-02 0. -1.
       -1    1    3    3    0  502  0.33284278351E+03 -0.72199443281E+02  0.12530499355E+04  0.12985111547E+04  0.50400001928E-02 0.  1.
</event>
<event>
 5   0  0.5690124E-07  0.2409269E+04  0.7818609E-02  0.8436042E-01
       -1   -1    0    0    0  501  0.00000000000E+00  0.00000000000E+00  0.11860988635E+04  0.11860988635E+04  0.50400001928E-02 0. -1.
        1   -1    0    0  501    0  0.00000000000E+00  0.00000000000E+00 -0.12234594503E+04  0.12234594503E+04  0.50400001928E-02 0.  1.
    10030    2    1    2    0    0  0.00000000000E+00  0.00000000000E+00 -0.37360586827E+02  0.24095583138E+04  0.24092686555E+04 0.  0.
        2    1    3    3  502    0  0.17647920699E+03 -0.17584621746E+03 -0.11974131254E+04  0.12230555979E+04  0.25500000920E-02 0.  1.
       -2    1    3    3    0  502 -0.17647920699E+03  0.17584621746E+03  0.11600525386E+04  0.11865027159E+04  0.25500000920E-02 0. -1.
</event>
<event>
 5   0  0.5527286E-07  0.2399826E+04  0.7818609E-02  0.8439569E-01
       -1   -1    0    0    0  501  0.00000000000E+00  0.00000000000E+00  0.11696479900E+04  0.11696479900E+04  0.50400001928E-02 0.  1.
        1   -1    0    0  501    0  0.00000000000E+00  0.00000000000E+00 -0.12309610980E+04  0.12309610980E+04  0.50400001928E-02 0. -1.
    10030    2    1    2    0    0  0.00000000000E+00  0.00000000000E+00 -0.61313108039E+02  0.24006090880E+04  0.23998259721E+04 0.  0.
        1    1    3    3  502    0 -0.21082302782E+03  0.52438693105E+03 -0.10894740496E+04  0.12273474273E+04  0.50400001928E-02 0. -1.
       -1    1    3    3    0  502  0.21082302782E+03 -0.52438693105E+03  0.10281609416E+04  0.11732616607E+04  0.50400001928E-02 0.  1.
</event>
<event>
 5   0  0.4483375E-07  0.2401611E+04  0.7818609E-02  0.8438901E-01
        4   -1    0    0  501    0  0.00000000000E+00  0.00000000000E+00  0.17486524738E+04  0.17486529350E+04  0.12699999809E+01 0.  1.
       -4   -1    0    0    0  501  0.00000000000E+00  0.00000000000E+00 -0.82459638385E+03  0.82459736184E+03  0.12699999809E+01 0. -1.
    10030    2    1    2    0    0  0.00000000000E+00  0.00000000000E+00  0.92405608997E+03  0.25732502969E+04  0.24016114242E+04 0.  0.
        5    1    3    3  502    0  0.65337208885E+03 -0.12239573283E+03  0.15335157923E+04  0.16713971931E+04  0.46999998093E+01 0.  1.
       -5    1    3    3    0  502 -0.65337208885E+03  0.12239573283E+03 -0.60945970235E+03  0.90185310372E+03  0.46999998093E+01 0. -1.
</event>
<event>
 5   0  0.1275948E-06  0.2400445E+04  0.7818609E-02  0.8439337E-01
        2   -1    0    0  501    0  0.00000000000E+00  0.00000000000E+00  0.13522735174E+04  0.13522735174E+04  0.25500000920E-02 0.  1.
       -2   -1    0    0    0  501  0.00000000000E+00  0.00000000000E+00 -0.10652686119E+04  0.10652686119E+04  0.25500000920E-02 0. -1.
    10030    2    1    2    0    0  0.00000000000E+00  0.00000000000E+00  0.28700490557E+03  0.24175421293E+04  0.24004454026E+04 0.  0.
        1    1    3    3  502    0  0.45118587490E+03  0.26135080965E+03 -0.94524362727E+03  0.10795176952E+04  0.50400001928E-02 0. -1.
       -1    1    3    3    0  502 -0.45118587490E+03 -0.26135080965E+03  0.12322485328E+04  0.13380244341E+04  0.50400001928E-02 0.  1.
</event>
<event>
 5   0  0.5363690E-07  0.2400969E+04  0.7818609E-02  0.8439141E-01
        1   -1    0    0  501    0  0.00000000000E+00  0.00000000000E+00  0.19623506374E+04  0.19623506374E+04  0.50400001928E-02 0. -1.
       -1   -1    0    0    0  501  0.00000000000E+00  0.00000000000E+00 -0.73440652819E+03  0.73440652821E+03  0.50400001928E-02 0.  1.
    10030    2    1    2    0    0  0.00000000000E+00  0.00000000000E+00  0.12279441092E+04  0.26967571656E+04  0.24009690700E+04 0.  0.
        4    1    3    3  502    0  0.10528378493E+04  0.96895214370E+02  0.12526202345E+04  0.16391812848E+04  0.12699999809E+01 0. -1.
       -4    1    3    3    0  502 -0.10528378493E+04 -0.96895214370E+02 -0.24676125343E+02  0.10575758808E+04  0.12699999809E+01 0.  1.
</event>
<event>
 5   0  0.5690124E-07  0.2402621E+04  0.7818609E-02  0.8438523E-01
       -1   -1    0    0    0  501  0.00000000000E+00  0.00000000000E+00  0.95126747045E+03  0.95126747046E+03  0.50400001928E-02 0.  1.
        1   -1    0    0  501    0  0.00000000000E+00  0.00000000000E+00 -0.15170779830E+04  0.15170779830E+04  0.50400001928E-02 0. -1.
    10030    2    1    2    0    0  0.00000000000E+00  0.00000000000E+00 -0.56581051258E+03  0.24683454535E+04  0.24026210150E+04 0.  0.
        2    1    3    3  502    0 -0.10173518551E+04 -0.44464601794E+03  0.18837214997E+03  0.11261433946E+04  0.25500000920E-02 0. -1.
       -2    1    3    3    0  502  0.10173518551E+04  0.44464601794E+03 -0.75418266255E+03  0.13422020589E+04  0.25500000920E-02 0.  1.
</event>
<event>
 5   0  0.1336057E-06  0.2399684E+04  0.7818609E-02  0.8439622E-01
       -2   -1    0    0    0  501  0.00000000000E+00  0.00000000000E+00  0.19141482192E+04  0.19141482192E+04  0.25500000920E-02 0.  1.
        2   -1    0    0  501    0  0.00000000000E+00  0.00000000000E+00 -0.75209497221E+03  0.75209497222E+03  0.25500000920E-02 0. -1.
    10030    2    1    2    0    0  0.00000000000E+00  0.00000000000E+00  0.11620532470E+04  0.26662431915E+04  0.23996843557E+04 0.  0.
        2    1    3    3  502    0 -0.10457204644E+04  0.31140609831E+03  0.26469066199E+02  0.10914236845E+04  0.25500000920E-02 0. -1.
       -2    1    3    3    0  502  0.10457204644E+04 -0.31140609831E+03  0.11355841808E+04  0.15748195069E+04  0.25500000920E-02 0.  1.
</event>
<event>
 5   0  0.5510176E-07  0.2401443E+04  0.7818609E-02  0.8438964E-01
       -1   -1    0    0    0  501  0.00000000000E+00  0.00000000000E+00  0.84421415984E+03  0.84421415986E+03  0.50400001928E-02 0.  1.
        1   -1    0    0  501    0  0.00000000000E+00  0.00000000000E+00 -0.17077800004E+04  0.17077800004E+04  0.50400001928E-02 0. -1.
    10030    2    1    2    0    0  0.00000000000E+00  0.00000000000E+00 -0.86356584059E+03  0.25519941603E+04  0.24014429481E+04 0.  0.
        3    1    3    3  502    0 -0.21946467933E+03  0.11741724701E+04 -0.56144141551E+03  0.13198720424E+04  0.10100000352E+00 0. -1.
       -3    1    3    3    0  502  0.21946467933E+03 -0.11741724701E+04 -0.30212442508E+03  0.12321221179E+04  0.10100000352E+00 0.  1.
</event>
<event>
 5   0  0.1307477E-06  0.2400480E+04  0.7818609E-02  0.8439324E-01
        2   -1    0    0  501    0  0.00000000000E+00  0.00000000000E+00  0.22023535522E+04  0.22023535522E+04  0.25500000920E-02 0.  1.
       -2   -1    0    0    0  501  0.00000000000E+00  0.00000000000E+00 -0.65410755714E+03  0.65410755714E+03  0.25500000920E-02 0. -1.
    10030    2    1    2    0    0  0.00000000000E+00  0.00000000000E+00  0.15482459950E+04  0.28564611093E+04  0.24004800370E+04 0.  0.
        5    1    3    3  502    0 -0.72426784506E+03 -0.85335836646E+03  0.25848744211E+03  0.11487481276E+04  0.46999998093E+01 0. -1.
       -5    1    3    3    0  502  0.72426784506E+03  0.85335836646E+03  0.12897585529E+04  0.17077129817E+04  0.46999998093E+01 0.  1.
</event>
<event>
 5   0  0.5510176E-07  0.2399112E+04  0.7818609E-02  0.8439836E-01
        1   -1    0    0  501    0  0.00000000000E+00  0.00000000000E+00  0.91181547834E+03  0.91181547835E+03  0.50400001928E-02 0. -1.
       -1   -1    0    0    0  501  0.00000000000E+00  0.00000000000E+00 -0.15780987926E+04  0.15780987926E+04  0.50400001928E-02 0.  1.
    10030    2    1    2    0    0  0.00000000000E+00  0.00000000000E+00 -0.66628331427E+03  0.24899142710E+04  0.23991122570E+04 0.  0.
        3    1    3    3  502    0 -0.41204592908E+03  0.31301291841E+03 -0.14563101175E+04  0.15455090111E+04  0.10100000352E+00 0.  1.
       -3    1    3    3    0  502  0.41204592908E+03 -0.31301291841E+03  0.79002680327E+03  0.94440525986E+03  0.10100000352E+00 0. -1.
</event>
<event>
 5   0  0.1336057E-06  0.2400520E+04  0.7818609E-02  0.8439309E-01
       -2   -1    0    0    0  501  0.00000000000E+00  0.00000000000E+00  0.13694606425E+04  0.13694606425E+04  0.25500000920E-02 0. -1.
        2   -1    0    0  501    0  0.00000000000E+00  0.00000000000E+00 -0.10519642533E+04  0.10519642533E+04  0.25500000920E-02 0.  1.
    10030    2    1    2    0    0  0.00000000000E+00  0.00000000000E+00  0.31749638915E+03  0.24214248958E+04  0.24005196456E+04 0.  0.
        2    1    3    3  502    0 -0.30003800199E+03 -0.11337194089E+04 -0.98978621542E+02  0.11769193975E+04  0.25500000920E-02 0.  1.
       -2    1    3    3    0  502  0.30003800199E+03  0.11337194089E+04  0.41647501069E+03  0.12445054983E+04  0.25500000920E-02 0. -1.
</event>
<event>
 5   0  0.1336057E-06  0.2397621E+04  0.7818609E-02  0.8440395E-01
        2   -1    0    0  501    0  0.00000000000E+00  0.00000000000E+00  0.19991241068E+04  0.19991241068E+04  0.25500000920E-02 0. -1.
       -2   -1    0    0    0  501  0.00000000000E+00  0.00000000000E+00 -0.71888800854E+03  0.71888800854E+03  0.25500000920E-02 0.  1.
    10030    2    1    2    0    0  0.00000000000E+00  0.00000000000E+00  0.12802360982E+04  0.27180121153E+04  0.23976207773E+04 0.  0.
        2    1    3    3  502    0 -0.88410974194E+03  0.48307029666E+03 -0.96426193957E+02  0.10120795217E+04  0.25500000920E-02 0.  1.
       -2    1    3    3    0  502  0.88410974194E+03 -0.48307029666E+03  0.13766622922E+04  0.17059325937E+04  0.25500000920E-02 0. -1.
</event>
<event>
 5   0  0.5527286E-07  0.2400820E+04  0.7818609E-02  0.8439197E-01
        1   -1    0    0  501    0  0.00000000000E+00  0.00000000000E+00  0.11465777729E+04  0.11465777729E+04  0.50400001928E-02 0. -1.
       -1   -1    0    0    0  501  0.00000000000E+00  0.00000000000E+00 -0.12567697006E+04  0.12567697006E+04  0.50400001928E-02 0.  1.
    10030    2    1    2    0    0  0.00000000000E+00  0.00000000000E+00 -0.11019192771E+03  0.24033474735E+04  0.24008200302E+04 0.  0.
        1    1    3    3  502    0 -0.44185813123E+03 -0.10601453276E+04 -0.40451568623E+03  0.12176944051E+04  0.50400001928E-02 0.  1.
       -1    1    3    3    0  502  0.44185813123E+03  0.10601453276E+04  0.29432375852E+03  0.11856530684E+04  0.50400001928E-02 0. -1.
</event>
<event>
 5   0  0.1308662E-06  0.2398466E+04  0.7818609E-02  0.8440078E-01
       -2   -1    0    0    0  501  0.00000000000E+00  0.00000000000E+00  0.71397287640E+03  0.71397287641E+03  0.25500000920E-02 0.  1.
        2   -1    0    0  501    0  0.00000000000E+00  0.00000000000E+00 -0.20143054443E+04  0.20143054443E+04  0.25500000920E-02 0. -1.
    10030    2    1    2    0    0  0.00000000000E+00  0.00000000000E+00 -0.13003325679E+04  0.27282783207E+04  0.23984657196E+04 0.  0.
        3    1    3    3  502    0 -0.25019781745E+03  0.11172191567E+04 -0.24418227096E+03  0.11706419537E+04  0.10100000352E+00 0.  1.
       -3    1    3    3    0  502  0.25019781745E+03 -0.11172191567E+04 -0.10561502969E+04  0.15576363670E+04  0.10100000352E+00 0. -1.
</event>
<event>
 5   0  0.1336057E-06  0.2399714E+04  0.7818609E-02  0.8439610E-01
       -2   -1    0    0    0  501  0.00000000000E+00  0.00000000000E+00  0.11176884973E+04  0.11176884973E+04  0.25500000920E-02 0. -1.
        2   -1    0    0  501    0  0.00000000000E+00  0.00000000000E+00 -0.12880667484E+04  0.12880667484E+04  0.25500000920E-02 0.  1.
    10030    2    1    2    0    0  0.00000000000E+00  0.00000000000E+00 -0.17037825116E+03  0.24057552457E+04  0.23997144734E+04 0.  0.
        2    1    3    3  502    0 -0.81917744785E+03  0.87669874037E+03 -0.82943840982E+02  0.12027186093E+04  0.25500000920E-02 0. -1.
       -2    1    3    3    0  502  0.81917744785E+03 -0.87669874037E+03 -0.87434410180E+02  0.12030366364E+04  0.25500000920E-02 0.  1.
</event>
<event>
 5   0  0.5510176E-07  0.2399698E+04  0.7818609E-02  0.8439617E-01
       -1   -1    0    0    0  501  0.00000000000E+00  0.00000000000E+00  0.91976196694E+03  0.91976196695E+03  0.50400001928E-02 0.  1.
        1   -1    0    0  501    0  0.00000000000E+00  0.00000000000E+00 -0.15652284942E+04  0.15652284942E+04  0.50400001928E-02 0. -1.
    10030    2    1    2    0    0  0.00000000000E+00  0.00000000000E+00 -0.64546652721E+03  0.24849904611E+04  0.23996980131E+04 0.  0.
        3    1    3    3  502    0  0.73652454522E+01  0.10131338249E+04 -0.98834114636E+03  0.14153842679E+04  0.10100000352E+00 0. -1.
       -3    1    3    3    0  502 -0.73652454522E+01 -0.10131338249E+04  0.34287461915E+03  0.10696061932E+04  0.10100000352E+00 0.  1.
</event>
<event>
 5   0  0.5510176E-07  0.2399573E+04  0.7818609E-02  0.8439663E-01
        1   -1    0    0  501    0  0.00000000000E+00  0.00000000000E+00  0.21379153189E+04  0.21379153189E+04  0.50400001928E-02 0. -1.
       -1   -1    0    0    0  501  0.00000000000E+00  0.00000000000E+00 -0.67331395371E+03  0.67331395373E+03  0.50400001928E-02 0.  1.
    10030    2    1    2    0    0  0.00000000000E+00  0.00000000000E+00  0.14646013652E+04  0.28112292726E+04  0.23995734755E+04 0.  0.
        3    1    3    3  502    0  0.39350171932E+03 -0.85744645043E+03  0.16006979982E+04  0.18580344750E+04  0.10100000352E+00 0. -1.
       -3    1    3    3    0  502 -0.39350171932E+03  0.85744645043E+03 -0.13609663308E+03  0.95319479762E+03  0.10100000352E+00 0.  1.
</event>
<event>
 5   0  0.5363690E-07  0.2399382E+04  0.7818609E-02  0.8439735E-01
       -1   -1    0    0    0  501  0.00000000000E+00  0.00000000000E+00  0.12166443856E+04  0.12166443856E+04  0.50400001928E-02 0.  1.
        1   -1    0    0  501    0  0.00000000000E+00  0.00000000000E+00 -0.11829742935E+04  0.11829742935E+04  0.50400001928E-02 0. -1.
    10030    2    1    2    0    0  0.00000000000E+00  0.00000000000E+00  0.33670092120E+02  0.23996186791E+04  0.23993824477E+04 0.  0.
        4    1    3    3  502    0  0.10190660834E+04 -0.47201925750E+03  0.43872911053E+03  0.12057291185E+04  0.12699999809E+01 0.  1.
       -4    1    3    3    0  502 -0.10190660834E+04  0.47201925750E+03 -0.40505901841E+03  0.11938895607E+04  0.12699999809E+01 0. -1.
</event>
<event>
 5   0  0.1308662E-06  0.2390581E+04  0.7818609E-02  0.8443038E-01
        2   -1    0    0  501    0  0.00000000000E+00  0.00000000000E+00  0.97462082581E+03  0.97462082581E+03  0.25500000920E-02 0.  1.
       -2   -1    0    0    0  501  0.00000000000E+00  0.00000000000E+00 -0.14659233334E+04  0.14659233334E+04  0.25500000920E-02 0. -1.
    10030    2    1    2    0    0  0.00000000000E+00  0.00000000000E+00 -0.49130250756E+03  0.24405441592E+04  0.23905810254E+04 0.  0.
        3    1    3    3  502    0  0.90421435788E+03  0.66740095527E+03 -0.66121117658E+03  0.13039278624E+04  0.10100000352E+00 0. -1.
       -3    1    3    3    0  502 -0.90421435788E+03 -0.66740095527E+03  0.16990866902E+03  0.11366162968E+04  0.10100000352E+00 0.  1.
</event>
<event>
 5   0  0.1336057E-06  0.2401012E+04  0.7818609E-02  0.8439125E-01
       -2   -1    0    0    0  501  0.00000000000E+00  0.00000000000E+00  0.12775295428E+04  0.12775295428E+04  0.25500000920E-02 0.  1.
        2   -1    0    0  501    0  0.00000000000E+00  0.00000000000E+00 -0.11281267238E+04  0.11281267238E+04  0.25500000920E-02 0. -1.
    10030    2    1    2    0    0  0.00000000000E+00  0.00000000000E+00  0.14940281894E+03  0.24056562666E+04  0.24010124678E+04 0.  0.
        2    1    3    3  502    0  0.11846451800E+04 -0.19448892187E+03  0.76958387224E+02  0.12029683025E+04  0.25500000920E-02 0.  1.
       -2    1    3    3    0  502 -0.11846451800E+04  0.19448892187E+03  0.72444431714E+02  0.12026879641E+04  0.25500000920E-02 0. -1.
</event>
<event>
 5   0  0.1291468E-06  0.2400595E+04  0.7818609E-02  0.8439281E-01
        2   -1    0    0  501    0  0.00000000000E+00  0.00000000000E+00  0.11534197140E+04  0.11534197140E+04  0.25500000920E-02 0. -1.
       -2   -1    0    0    0  501  0.00000000000E+00  0.00000000000E+00 -0.12490810161E+04  0.12490810161E+04  0.25500000920E-02 0.  1.
    10030    2    1    2    0    0  0.00000000000E+00  0.00000000000E+00 -0.95661302030E+02  0.24025007301E+04  0.24005954831E+04 0.  0.
        4    1    3    3  502    0 -0.77135723343E+03  0.16537395794E+03  0.85752676790E+03  0.11652013981E+04  0.12699999809E+01 0. -1.
       -4    1    3    3    0  502  0.77135723343E+03 -0.16537395794E+03 -0.95318806993E+03  0.12372993320E+04  0.12699999809E+01 0.  1.
</event>
<event>
 5   0  0.5690124E-07  0.2397946E+04  0.7818609E-02  0.8440273E-01
        1   -1    0    0  501    0  0.00000000000E+00  0.00000000000E+00  0.10344159595E+04  0.10344159595E+04  0.50400001928E-02 0. -1.
       -1   -1    0    0    0  501  0.00000000000E+00  0.00000000000E+00 -0.13897076461E+04  0.13897076461E+04  0.50400001928E-02 0.  1.
    10030    2    1    2    0    0  0.00000000000E+00  0.00000000000E+00 -0.35529168660E+03  0.24241236057E+04  0.23979455943E+04 0.  0.
        2    1    3    3  502    0  0.11731249312E+04  0.34689976343E+02 -0.42549632823E+03  0.12483880102E+04  0.25500000920E-02 0.  1.
       -2    1    3    3    0  502 -0.11731249312E+04 -0.34689976343E+02  0.70204641625E+02  0.11757355955E+04  0.25500000920E-02 0. -1.
</event>
<event>
 5   0  0.4483375E-07  0.2400549E+04  0.7818609E-02  0.8439298E-01
       -3   -1    0    0    0  501  0.00000000000E+00  0.00000000000E+00  0.11711816765E+04  0.11711816808E+04  0.10100000352E+00 0. -1.
        3   -1    0    0  501    0  0.00000000000E+00  0.00000000000E+00 -0.12300896553E+04  0.12300896594E+04  0.10100000352E+00 0.  1.
    10030    2    1    2    0    0  0.00000000000E+00  0.00000000000E+00 -0.58907978798E+02  0.24012713402E+04  0.24005486663E+04 0.  0.
        3    1    3    3  502    0 -0.10653638424E+04 -0.22268007287E+03 -0.53564183486E+03  0.12130534683E+04  0.10100000352E+00 0.  1.
       -3    1    3    3    0  502  0.10653638424E+04  0.22268007287E+03  0.47673385606E+03  0.11882178719E+04  0.10100000352E+00 0. -1.
</event>
<event>
 5   0  0.1308662E-06  0.2399147E+04  0.7818609E-02  0.8439823E-01
        2   -1    0    0  501    0  0.00000000000E+00  0.00000000000E+00  0.89973765253E+03  0.89973765254E+03  0.25500000920E-02 0. -1.
       -2   -1    0    0    0  501  0.00000000000E+00  0.00000000000E+00 -0.15993285814E+04  0.15993285814E+04  0.25500000920E-02 0.  1.
    10030    2    1    2    0    0  0.00000000000E+00  0.00000000000E+00 -0.69959092886E+03  0.24990662339E+04  0.23991466345E+04 0.  0.
        3    1    3    3  502    0 -0.26942085637E+03  0.59967389245E+03 -0.13949685355E+04  0.15421198398E+04  0.10100000352E+00 0.  1.
       -3    1    3    3    0  502  0.26942085637E+03 -0.59967389245E+03  0.69537760666E+03  0.95694639410E+03  0.10100000352E+00 0. -1.
</event>
<event>
 5   0  0.1336057E-06  0.2400517E+04  0.7818609E-02  0.8439310E-01
       -2   -1    0    0    0  501  0.00000000000E+00  0.00000000000E+00  0.70396118816E+03  0.70396118816E+03  0.25500000920E-02 0.  1.
        2   -1    0    0  501    0  0.00000000000E+00  0.00000000000E+00 -0.20464493278E+04  0.20464493278E+04  0.25500000920E-02 0. -1.
    10030    2    1    2    0    0  0.00000000000E+00  0.00000000000E+00 -0.13424881396E+04  0.27504105160E+04  0.24005173612E+04 0.  0.
        2    1    3    3  502    0  0.11406515340E+04 -0.13507119679E+03 -0.27221318640E+03  0.11804364316E+04  0.25500000920E-02 0.  1.
       -2    1    3    3    0  502 -0.11406515340E+04  0.13507119679E+03 -0.10702749532E+04  0.15699740844E+04  0.25500000920E-02 0. -1.
</event>
<event>
 5   0  0.5527286E-07  0.2400041E+04  0.7818609E-02  0.8439488E-01
       -1   -1    0    0    0  501  0.00000000000E+00  0.00000000000E+00  0.11012186664E+04  0.11012186664E+04  0.50400001928E-02 0. -1.
        1   -1    0    0  501    0  0.00000000000E+00  0.00000000000E+00 -0.13076873909E+04  0.13076873909E+04  0.50400001928E-02 0.  1.
    10030    2    1    2    0    0  0.00000000000E+00  0.00000000000E+00 -0.20646872447E+03  0.24089060573E+04  0.24000414702E+04 0.  0.
        1    1    3    3  502    0  0.56825082979E+03 -0.21388376765E+03 -0.11421393292E+04  0.12934981713E+04  0.50400001928E-02 0.  1.
       -1    1    3    3    0  502 -0.56825082979E+03  0.21388376765E+03  0.93567060477E+03  0.11154078861E+04  0.50400001928E-02 0. -1.
</event>
<event>
 5   0  0.5510176E-07  0.2399176E+04  0.7818609E-02  0.8439812E-01
       -1   -1    0    0    0  501  0.00000000000E+00  0.00000000000E+00  0.11549371043E+04  0.11549371043E+04  0.50400001928E-02 0.  1.
        1   -1    0    0  501    0  0.00000000000E+00  0.00000000000E+00 -0.12459646653E+04  0.12459646653E+04  0.50400001928E-02 0. -1.
    10030    2    1    2    0    0  0.00000000000E+00  0.00000000000E+00 -0.91027561048E+02  0.24009017696E+04  0.23991755439E+04 0.  0.
        3    1    3    3  502    0  0.43037602921E+02 -0.10728818002E+04 -0.58076610074E+03  0.12207443903E+04  0.10100000352E+00 0. -1.
       -3    1    3    3    0  502 -0.43037602921E+02  0.10728818002E+04  0.48973853969E+03  0.11801573793E+04  0.10100000352E+00 0.  1.
</event>
<event>
 5   0  0.5363690E-07  0.2401258E+04  0.7818609E-02  0.8439033E-01
        1   -1    0    0  501    0  0.00000000000E+00  0.00000000000E+00  0.16415558004E+04  0.16415558004E+04  0.50400001928E-02 0. -1.
       -1   -1    0    0    0  501  0.00000000000E+00  0.00000000000E+00 -0.87813611977E+03  0.87813611979E+03  0.50400001928E-02 0.  1.
    10030    2    1    2    0    0  0.00000000000E+00  0.00000000000E+00  0.76341968065E+03  0.25196919202E+04  0.24012575380E+04 0.  0.
        4    1    3    3  502    0  0.10082121433E+04 -0.11404702348E+03  0.10552480733E+04  0.14639154888E+04  0.12699999809E+01 0. -1.
       -4    1    3    3    0  502 -0.10082121433E+04  0.11404702348E+03 -0.29182839264E+03  0.10557764314E+04  0.12699999809E+01 0.  1.
</event>
<event>
 5   0  0.5510176E-07  0.2401372E+04  0.7818609E-02  0.8438990E-01
       -1   -1    0    0    0  501  0.00000000000E+00  0.00000000000E+00  0.10339635686E+04  0.10339635686E+04  0.50400001928E-02 0. -1.
        1   -1    0    0  501    0  0.00000000000E+00  0.00000000000E+00 -0.13942920966E+04  0.13942920966E+04  0.50400001928E-02 0.  1.
    10030    2    1    2    0    0  0.00000000000E+00  0.00000000000E+00 -0.36032852796E+03  0.24282556652E+04  0.24013723009E+04 0.  0.
        3    1    3    3  502    0  0.61312089930E+03  0.10322387835E+04 -0.16540364166E+03  0.12119375059E+04  0.10100000352E+00 0.  1.
       -3    1    3    3    0  502 -0.61312089930E+03 -0.10322387835E+04 -0.19492488630E+03  0.12163181594E+04  0.10100000352E+00 0. -1.
</event>
<event>
 5   0  0.1308662E-06  0.2398156E+04  0.7818609E-02  0.8440194E-01
        2   -1    0    0  501    0  0.00000000000E+00  0.00000000000E+00  0.16223919569E+04  0.16223919569E+04  0.25500000920E-02 0. -1.
       -2   -1    0    0    0  501  0.00000000000E+00  0.00000000000E+00 -0.88621527887E+03  0.88621527887E+03  0.25500000920E-02 0.  1.
    10030    2    1    2    0    0  0.00000000000E+00  0.00000000000E+00  0.73617667804E+03  0.25086072358E+04  0.23981564090E+04 0.  0.
        3    1    3    3  502    0 -0.21772800480E+03  0.77129848344E+03 -0.56488720852E+03  0.98051231669E+03  0.10100000352E+00 0.  1.
       -3    1    3    3    0  502  0.21772800480E+03 -0.77129848344E+03  0.13010638866E+04  0.15280949191E+04  0.10100000352E+00 0. -1.
</event>
<event>
 5   0  0.5690124E-07  0.2399793E+04  0.7818609E-02  0.8439581E-01
        1   -1    0    0  501    0  0.00000000000E+00  0.00000000000E+00  0.16965918785E+04  0.16965918785E+04  0.50400001928E-02 0. -1.
       -1   -1    0    0    0  501  0.00000000000E+00  0.00000000000E+00 -0.84861428551E+03  0.84861428552E+03  0.50400001928E-02 0.  1.
    10030    2    1    2    0    0  0.00000000000E+00  0.00000000000E+00  0.84797759299E+03  0.25452061640E+04  0.23997934118E+04 0.  0.
        2    1    3    3  502    0 -0.25031492987E+03  0.34838672378E+03 -0.76450174081E+03  0.87663777305E+03  0.25500000920E-02 0.  1.
       -2    1    3    3    0  502  0.25031492987E+03 -0.34838672378E+03  0.16124793338E+04  0.16685683910E+04  0.25500000920E-02 0. -1.
</event>
<event>
 5   0  0.1275948E-06  0.2393307E+04  0.7818609E-02  0.8442014E-01
       -2   -1    0    0    0  501  0.00000000000E+00  0.00000000000E+00  0.73117758518E+03  0.73117758518E+03  0.25500000920E-02 0. -1.
        2   -1    0    0  501    0  0.00000000000E+00  0.00000000000E+00 -0.19584566652E+04  0.19584566652E+04  0.25500000920E-02 0.  1.
    10030    2    1    2    0    0  0.00000000000E+00  0.00000000000E+00 -0.12272790800E+04  0.26896342504E+04  0.23933070134E+04 0.  0.
        1    1    3    3  502    0 -0.78480382264E+02  0.11145895893E+04 -0.10950607976E+04  0.15644894610E+04  0.50400001928E-02 0.  1.
       -1    1    3    3    0  502  0.78480382264E+02 -0.11145895893E+04 -0.13221828241E+03  0.11251447894E+04  0.50400001928E-02 0. -1.
</event>
<event>
 5   0  0.5690124E-07  0.2400225E+04  0.7818609E-02  0.8439419E-01
       -1   -1    0    0    0  501  0.00000000000E+00  0.00000000000E+00  0.13493107874E+04  0.13493107874E+04  0.50400001928E-02 0.  1.
        1   -1    0    0  501    0  0.00000000000E+00  0.00000000000E+00 -0.10674112439E+04  0.10674112439E+04  0.50400001928E-02 0. -1.
    10030    2    1    2    0    0  0.00000000000E+00  0.00000000000E+00  0.28189954348E+03  0.24167220313E+04  0.24002245778E+04 0.  0.
        2    1    3    3  502    0 -0.43666266201E+03  0.44435373396E+03 -0.89184163883E+03  0.10878906333E+04  0.25500000920E-02 0. -1.
       -2    1    3    3    0  502  0.43666266201E+03 -0.44435373396E+03  0.11737411823E+04  0.13288313980E+04  0.25500000920E-02 0.  1.
</event>
<event>
 5   0  0.5510176E-07  0.2403357E+04  0.7818609E-02  0.8438248E-01
        1   -1    0    0  501    0  0.00000000000E+00  0.00000000000E+00  0.79418065584E+03  0.79418065586E+03  0.50400001928E-02 0.  1.
       -1   -1    0    0    0  501  0.00000000000E+00  0.00000000000E+00 -0.18182650543E+04  0.18182650543E+04  0.50400001928E-02 0. -1.
    10030    2    1    2    0    0  0.00000000000E+00  0.00000000000E+00 -0.10240843985E+04  0.26124457102E+04  0.24033567637E+04 0.  0.
        3    1    3    3  502    0  0.29085391068E+03 -0.45826967629E+02 -0.17784469306E+04  0.18026562632E+04  0.10100000352E+00 0. -1.
       -3    1    3    3    0  502 -0.29085391068E+03  0.45826967629E+02  0.75436253211E+03  0.80978944693E+03  0.10100000352E+00 0.  1.
</event>
<event>
 5   0  0.1275948E-06  0.2399774E+04  0.7818609E-02  0.8439588E-01
       -2   -1    0    0    0  501  0.00000000000E+00  0.00000000000E+00  0.13052184801E+04  0.13052184801E+04  0.25500000920E-02 0.  1.
        2   -1    0    0  501    0  0.00000000000E+00  0.00000000000E+00 -0.11030559034E+04  0.11030559035E+04  0.25500000920E-02 0. -1.
    10030    2    1    2    0    0  0.00000000000E+00  0.00000000000E+00  0.20216257667E+03  0.24082743836E+04  0.23997741142E+04 0.  0.
        1    1    3    3  502    0  0.46414937299E+03  0.10451418977E+04  0.46564857035E+03  0.12347407898E+04  0.50400001928E-02 0.  1.
       -1    1    3    3    0  502 -0.46414937299E+03 -0.10451418977E+04 -0.26348599368E+03  0.11735335938E+04  0.50400001928E-02 0. -1.
</event>
<event>
 5   0  0.5363690E-07  0.2400616E+04  0.7818609E-02  0.8439273E-01
       -1   -1    0    0    0  501  0.00000000000E+00  0.00000000000E+00  0.11797989693E+04  0.11797989693E+04  0.50400001928E-02 0. -1.
        1   -1    0    0  501    0  0.00000000000E+00  0.00000000000E+00 -0.12211737964E+04  0.12211737964E+04  0.50400001928E-02 0.  1.
    10030    2    1    2    0    0  0.00000000000E+00  0.00000000000E+00 -0.41374827072E+02  0.24009727657E+04  0.24006162428E+04 0.  0.
        4    1    3    3  502    0  0.78437568745E+03  0.82583133467E+03  0.35817665983E+03  0.11939575976E+04  0.12699999809E+01 0. -1.
       -4    1    3    3    0  502 -0.78437568745E+03 -0.82583133467E+03 -0.39955148690E+03  0.12070151681E+04  0.12699999809E+01 0.  1.
</event>
<event>
 5   0  0.1336057E-06  0.2400355E+04  0.7818609E-02  0.8439371E-01
       -2   -1    0    0    0  501  0.00000000000E+00  0.00000000000E+00  0.11988951626E+04  0.11988951626E+04  0.25500000920E-02 0. -1.
        2   -1    0    0  501    0  0.00000000000E+00  0.00000000000E+00 -0.12014615134E+04  0.12014615134E+04  0.25500000920E-02 0.  1.
    10030    2    1    2    0    0  0.00000000000E+00  0.00000000000E+00 -0.25663508039E+01  0.24003566759E+04  0.24003553040E+04 0.  0.
        2    1    3    3  502    0  0.44871759400E+03  0.37178102545E+03 -0.10505014772E+04  0.12013001139E+04  0.25500000920E-02 0.  1.
       -2    1    3    3    0  502 -0.44871759400E+03 -0.37178102545E+03  0.10479351263E+04  0.11990565621E+04  0.25500000920E-02 0. -1.
</event>
<event>
 5   0  0.5452384E-07  0.2400349E+04  0.7818609E-02  0.8439373E-01
        1   -1    0    0  501    0  0.00000000000E+00  0.00000000000E+00  0.16827403108E+04  0.16827403108E+04  0.50400001928E-02 0. -1.
       -1   -1    0    0    0  501  0.00000000000E+00  0.00000000000E+00 -0.85599611937E+03  0.85599611938E+03  0.50400001928E-02 0.  1.
    10030    2    1    2    0    0  0.00000000000E+00  0.00000000000E+00  0.82674419147E+03  0.25387364302E+04  0.24003492879E+04 0.  0.
        5    1    3    3  502    0  0.10499281734E+04  0.58076251187E+03  0.44258364771E+03  0.12788810108E+04  0.46999998093E+01 0.  1.
       -5    1    3    3    0  502 -0.10499281734E+04 -0.58076251187E+03  0.38416054376E+03  0.12598554194E+04  0.46999998093E+01 0. -1.
</event>
<event>
 5   0  0.1308662E-06  0.2400773E+04  0.7818609E-02  0.8439214E-01
       -2   -1    0    0    0  501  0.00000000000E+00  0.00000000000E+00  0.10858860462E+04  0.10858860462E+04  0.25500000920E-02 0. -1.
        2   -1    0    0  501    0  0.00000000000E+00  0.00000000000E+00 -0.13269606319E+04  0.13269606319E+04  0.25500000920E-02 0.  1.
    10030    2    1    2    0    0  0.00000000000E+00  0.00000000000E+00 -0.24107458579E+03  0.24128466781E+04  0.24007732371E+04 0.  0.
        3    1    3    3  502    0 -0.47323532695E+03  0.25366210244E+03 -0.11995433927E+04  0.13142300020E+04  0.10100000352E+00 0.  1.
       -3    1    3    3    0  502  0.47323532695E+03 -0.25366210244E+03  0.95846880696E+03  0.10986166761E+04  0.10100000352E+00 0. -1.
</event>
<event>
 5   0  0.5690124E-07  0.2400754E+04  0.7818609E-02  0.8439221E-01
       -1   -1    0    0    0  501  0.00000000000E+00  0.00000000000E+00  0.64711962241E+03  0.64711962243E+03  0.50400001928E-02 0.  1.
        1   -1    0    0  501    0  0.00000000000E+00  0.00000000000E+00 -0.22266442734E+04  0.22266442734E+04  0.50400001928E-02 0. -1.
    10030    2    1    2    0    0  0.00000000000E+00  0.00000000000E+00 -0.15795246510E+04  0.28737638958E+04  0.24007542161E+04 0.  0.
        2    1    3    3  502    0  0.48130454359E+03  0.61192098046E+03 -0.18834557627E+04  0.20380154464E+04  0.25500000920E-02 0. -1.
       -2    1    3    3    0  502 -0.48130454359E+03 -0.61192098046E+03  0.30393111168E+03  0.83574844939E+03  0.25500000920E-02 0.  1.
</event>
<event>
 5   0  0.1336057E-06  0.2399779E+04  0.7818609E-02  0.8439586E-01
       -2   -1    0    0    0  501  0.00000000000E+00  0.00000000000E+00  0.82208145709E+03  0.82208145710E+03  0.25500000920E-02 0. -1.
        2   -1    0    0  501    0  0.00000000000E+00  0.00000000000E+00 -0.17513293232E+04  0.17513293232E+04  0.25500000920E-02 0.  1.
    10030    2    1    2    0    0  0.00000000000E+00  0.00000000000E+00 -0.92924786606E+03  0.25734107803E+04  0.23997794581E+04 0.  0.
        2    1    3    3  502    0 -0.42710993462E+03  0.95166024668E+03 -0.11005349240E+04  0.15163301884E+04  0.25500000920E-02 0.  1.
       -2    1    3    3    0  502  0.42710993462E+03 -0.95166024668E+03  0.17128705797E+03  0.10570805918E+04  0.25500000920E-02 0. -1.
</event>
<event>
 5   0  0.1275948E-06  0.2402846E+04  0.7818609E-02  0.8438439E-01
       -2   -1    0    0    0  501  0.00000000000E+00  0.00000000000E+00  0.52173157799E+03  0.52173157800E+03  0.25500000920E-02 0. -1.
        2   -1    0    0  501    0  0.00000000000E+00  0.00000000000E+00 -0.27665889773E+04  0.27665889773E+04  0.25500000920E-02 0.  1.
    10030    2    1    2    0    0  0.00000000000E+00  0.00000000000E+00 -0.22448573993E+04  0.32883205553E+04  0.24028456736E+04 0.  0.
        1    1    3    3  502    0  0.77719138710E+03  0.77280480680E+03 -0.44898349854E+03  0.11844154270E+04  0.50400001928E-02 0. -1.
       -1    1    3    3    0  502 -0.77719138710E+03 -0.77280480680E+03 -0.17958739007E+04  0.21039051283E+04  0.50400001928E-02 0.  1.
</event>
<event>
 5   0  0.5510176E-07  0.2398564E+04  0.7818609E-02  0.8440041E-01
       -1   -1    0    0    0  501  0.00000000000E+00  0.00000000000E+00  0.12524609644E+04  0.12524609644E+04  0.50400001928E-02 0. -1.
        1   -1    0    0  501    0  0.00000000000E+00  0.00000000000E+00 -0.11483607095E+04  0.11483607095E+04  0.50400001928E-02 0.  1.
    10030    2    1    2    0    0  0.00000000000E+00  0.00000000000E+00  0.10410025496E+03  0.24008216739E+04  0.23985637050E+04 0.  0.
        3    1    3    3  502    0  0.76699172436E+03  0.62769319008E+03 -0.62386470081E+03  0.11711029934E+04  0.10100000352E+00 0.  1.
       -3    1    3    3    0  502 -0.76699172436E+03 -0.62769319008E+03  0.72796495577E+03  0.12297186805E+04  0.10100000352E+00 0. -1.
</event>
<event>
 5   0  0.5363690E-07  0.2400429E+04  0.7818609E-02  0.8439343E-01
        1   -1    0    0  501    0  0.00000000000E+00  0.00000000000E+00  0.18723010586E+04  0.18723010586E+04  0.50400001928E-02 0. -1.
       -1   -1    0    0    0  501  0.00000000000E+00  0.00000000000E+00 -0.76938227321E+03  0.76938227322E+03  0.50400001928E-02 0.  1.
    10030    2    1    2    0    0  0.00000000000E+00  0.00000000000E+00  0.11029187854E+04  0.26416833319E+04  0.24004293321E+04 0.  0.
        4    1    3    3  502    0  0.53512649823E+03  0.95597894019E+03  0.10908834778E+04  0.15460544874E+04  0.12699999809E+01 0. -1.
       -4    1    3    3    0  502 -0.53512649823E+03 -0.95597894019E+03  0.12035307672E+02  0.10956288444E+04  0.12699999809E+01 0.  1.
</event>
<event>
 5   0  0.1336057E-06  0.2398773E+04  0.7818609E-02  0.8439963E-01
       -2   -1    0    0    0  501  0.00000000000E+00  0.00000000000E+00  0.11744173978E+04  0.11744173978E+04  0.25500000920E-02 0.  1.
        2   -1    0    0  501    0  0.00000000000E+00  0.00000000000E+00 -0.12248862655E+04  0.12248862655E+04  0.25500000920E-02 0. -1.
    10030    2    1    2    0    0  0.00000000000E+00  0.00000000000E+00 -0.50468867719E+02  0.23993036632E+04  0.23987728033E+04 0.  0.
        2    1    3    3  502    0  0.65472852365E+03 -0.74588389072E+03 -0.69881907952E+03  0.12138205485E+04  0.25500000920E-02 0. -1.
       -2    1    3    3    0  502 -0.65472852365E+03  0.74588389072E+03  0.64835021180E+03  0.11854831147E+04  0.25500000920E-02 0.  1.
</event>
<event>
 5   0  0.1291468E-06  0.2398447E+04  0.7818609E-02  0.8440085E-01
       -2   -1    0    0    0  501  0.00000000000E+00  0.00000000000E+00  0.70546490934E+03  0.70546490935E+03  0.25500000920E-02 0. -1.
        2   -1    0    0  501    0  0.00000000000E+00  0.00000000000E+00 -0.20385656726E+04  0.20385656726E+04  0.25500000920E-02 0.  1.
    10030    2    1    2    0    0  0.00000000000E+00  0.00000000000E+00 -0.13331007633E+04  0.27440305820E+04  0.23984466201E+04 0.  0.
        4    1    3    3  502    0 -0.83790563379E+03 -0.33594510872E+03  0.23661881361E+03  0.93323900639E+03  0.12699999809E+01 0. -1.
       -4    1    3    3    0  502  0.83790563379E+03  0.33594510872E+03 -0.15697195769E+04  0.18107915756E+04  0.12699999809E+01 0.  1.
</event>
<event>
 5   0  0.1308662E-06  0.2400108E+04  0.7818609E-02  0.8439463E-01
       -2   -1    0    0    0  501  0.00000000000E+00  0.00000000000E+00  0.83934172917E+03  0.83934172917E+03  0.25500000920E-02 0.  1.
        2   -1    0    0  501    0  0.00000000000E+00  0.00000000000E+00 -0.17157839776E+04  0.17157839776E+04  0.25500000920E-02 0. -1.
    10030    2    1    2    0    0  0.00000000000E+00  0.00000000000E+00 -0.87644224840E+03  0.25551257067E+04  0.24001075731E+04 0.  0.
        3    1    3    3  502    0  0.87646909100E+03  0.80224155096E+03 -0.25900474106E+03  0.12160892400E+04  0.10100000352E+00 0.  1.
       -3    1    3    3    0  502 -0.87646909100E+03 -0.80224155096E+03 -0.61743750734E+03  0.13390364667E+04  0.10100000352E+00 0. -1.
</event>
<event>
 5   0  0.1307477E-06  0.2406169E+04  0.7818609E-02  0.8437197E-01
       -2   -1    0    0    0  501  0.00000000000E+00  0.00000000000E+00  0.12136492593E+04  0.12136492593E+04  0.25500000920E-02 0. -1.
        2   -1    0    0  501    0  0.00000000000E+00  0.00000000000E+00 -0.11926120479E+04  0.11926120479E+04  0.25500000920E-02 0.  1.
    10030    2    1    2    0    0  0.00000000000E+00  0.00000000000E+00  0.21037211383E+02  0.24062613072E+04  0.24061693445E+04 0.  0.
        5    1    3    3  502    0  0.54424820098E+03 -0.77814614984E+03  0.74924373411E+03  0.12095891029E+04  0.46999998093E+01 0. -1.
       -5    1    3    3    0  502 -0.54424820098E+03  0.77814614984E+03 -0.72820652273E+03  0.11966722043E+04  0.46999998093E+01 0.  1.
</event>
<event>
 5   0  0.5363690E-07  0.2399426E+04  0.7818609E-02  0.8439718E-01
        1   -1    0    0  501    0  0.00000000000E+00  0.00000000000E+00  0.10411020561E+04  0.10411020561E+04  0.50400001928E-02 0.  1.
       -1   -1    0    0    0  501  0.00000000000E+00  0.00000000000E+00 -0.13824881780E+04  0.13824881780E+04  0.50400001928E-02 0. -1.
    10030    2    1    2    0    0  0.00000000000E+00  0.00000000000E+00 -0.34138612190E+03  0.24235902341E+04  0.23994260019E+04 0.  0.
        4    1    3    3  502    0  0.98599151706E+03 -0.58858082554E+03 -0.52161529571E+03  0.12612259074E+04  0.12699999809E+01 0. -1.
       -4    1    3    3    0  502 -0.98599151706E+03  0.58858082554E+03  0.18022917382E+03  0.11623643267E+04  0.12699999809E+01 0.  1.
</event>
<event>
 5   0  0.5452384E-07  0.2405695E+04  0.7818609E-02  0.8437375E-01
       -1   -1    0    0    0  501  0.00000000000E+00  0.00000000000E+00  0.12518788306E+04  0.12518788307E+04  0.50400001928E-02 0.  1.
        1   -1    0    0  501    0  0.00000000000E+00  0.00000000000E+00 -0.11557363371E+04  0.11557363371E+04  0.50400001928E-02 0. -1.
    10030    2    1    2    0    0  0.00000000000E+00  0.00000000000E+00  0.96142493534E+02  0.24076151678E+04  0.24056947888E+04 0.  0.
        5    1    3    3  502    0 -0.66570021613E+03  0.56587547597E+03 -0.77929778282E+03  0.11707685324E+04  0.46999998093E+01 0. -1.
       -5    1    3    3    0  502  0.66570021613E+03 -0.56587547597E+03  0.87544027635E+03  0.12368466354E+04  0.46999998093E+01 0.  1.
</event>
<event>
 5   0  0.5527286E-07  0.2399878E+04  0.7818609E-02  0.8439549E-01
        1   -1    0    0  501    0  0.00000000000E+00  0.00000000000E+00  0.16027592408E+04  0.16027592408E+04  0.50400001928E-02 0.  1.
       -1   -1    0    0    0  501  0.00000000000E+00  0.00000000000E+00 -0.89835959143E+03  0.89835959144E+03  0.50400001928E-02 0. -1.
    10030    2    1    2    0    0  0.00000000000E+00  0.00000000000E+00  0.70439964938E+03  0.25011188323E+04  0.23998784442E+04 0.  0.
        1    1    3    3  502    0  0.14364873577E+03  0.35800414861E+03 -0.83197816224E+03  0.91705484688E+03  0.50400001928E-02 0. -1.
       -1    1    3    3    0  502 -0.14364873577E+03 -0.35800414861E+03  0.15363778116E+04  0.15840639854E+04  0.50400001928E-02 0.  1.
</event>
<event>
 5   0  0.1291468E-06  0.2408699E+04  0.7818609E-02  0.8436254E-01
       -2   -1    0    0    0  501  0.00000000000E+00  0.00000000000E+00  0.12270521669E+04  0.12270521669E+04  0.25500000920E-02 0.  1.
        2   -1    0    0  501    0  0.00000000000E+00  0.00000000000E+00 -0.11820666317E+04  0.11820666317E+04  0.25500000920E-02 0. -1.
    10030    2    1    2    0    0  0.00000000000E+00  0.00000000000E+00  0.44985535213E+02  0.24091187987E+04  0.24086987540E+04 0.  0.
        4    1    3    3  502    0  0.49684868600E+03  0.10762853300E+04 -0.19016387856E+03  0.12005884565E+04  0.12699999809E+01 0.  1.
       -4    1    3    3    0  502 -0.49684868600E+03 -0.10762853300E+04  0.23514941377E+03  0.12085303422E+04  0.12699999809E+01 0. -1.
</event>
<event>
 5   0  0.1291468E-06  0.2399276E+04  0.7818609E-02  0.8439775E-01
        2   -1    0    0  501    0  0.00000000000E+00  0.00000000000E+00  0.16653271372E+04  0.16653271372E+04  0.25500000920E-02 0.  1.
       -2   -1    0    0    0  501  0.00000000000E+00  0.00000000000E+00 -0.86417336154E+03  0.86417336155E+03  0.25500000920E-02 0. -1.
    10030    2    1    2    0    0  0.00000000000E+00  0.00000000000E+00  0.80115377569E+03  0.25295004988E+04  0.23992760160E+04 0.  0.
        4    1    3    3  502    0  0.33278253290E+03  0.54179646667E+03 -0.67190904249E+03  0.92506810548E+03  0.12699999809E+01 0. -1.
       -4    1    3    3    0  502 -0.33278253290E+03 -0.54179646667E+03  0.14730628182E+04  0.16044323933E+04  0.12699999809E+01 0.  1.
</event>
<event>
 5   0  0.4483375E-07  0.2400068E+04  0.7818609E-02  0.8439478E-01
       -3   -1    0    0    0  501  0.00000000000E+00  0.00000000000E+00  0.10889667438E+04  0.10889667485E+04  0.10100000352E+00 0.  1.
        3   -1    0    0  501    0  0.00000000000E+00  0.00000000000E+00 -0.13224293792E+04  0.13224293830E+04  0.10100000352E+00 0. -1.
    10030    2    1    2    0    0  0.00000000000E+00  0.00000000000E+00 -0.23346263534E+03  0.24113961316E+04  0.24000680201E+04 0.  0.
        2    1    3    3  502    0 -0.11058957778E+04  0.15903396931E+03 -0.55673021960E+03  0.12482971650E+04  0.25500000920E-02 0. -1.
       -2    1    3    3    0  502  0.11058957778E+04 -0.15903396931E+03  0.32326758426E+03  0.11630989665E+04  0.25500000920E-02 0.  1.
</event>
<event>
 5   0  0.1336057E-06  0.2399775E+04  0.7818609E-02  0.8439588E-01
       -2   -1    0    0    0  501  0.00000000000E+00  0.00000000000E+00  0.88401479484E+03  0.88401479484E+03  0.25500000920E-02 0. -1.
        2   -1    0    0  501    0  0.00000000000E+00  0.00000000000E+00 -0.16286260267E+04  0.16286260268E+04  0.25500000920E-02 0.  1.
    10030    2    1    2    0    0  0.00000000000E+00  0.00000000000E+00 -0.74461123191E+03  0.25126408216E+04  0.23997745752E+04 0.  0.
        2    1    3    3  502    0  0.45583020996E+03  0.12546131914E+03  0.78238025595E+03  0.91413379098E+03  0.25500000920E-02 0. -1.
       -2    1    3    3    0  502 -0.45583020996E+03 -0.12546131914E+03 -0.15269914879E+04  0.15985070306E+04  0.25500000920E-02 0.  1.
</event>
<event>
 5   0  0.5690124E-07  0.2399859E+04  0.7818609E-02  0.8439556E-01
       -1   -1    0    0    0  501  0.00000000000E+00  0.00000000000E+00  0.17944672218E+04  0.17944672218E+04  0.50400001928E-02 0. -1.
        1   -1    0    0  501    0  0.00000000000E+00  0.00000000000E+00 -0.80237206231E+03  0.80237206232E+03  0.50400001928E-02 0.  1.
    10030    2    1    2    0    0  0.00000000000E+00  0.00000000000E+00  0.99209515944E+03  0.25968392841E+04  0.23998586337E+04 0.  0.
        2    1    3    3  502    0  0.31608143956E+03 -0.51654599566E+03  0.16169818369E+04  0.17266607956E+04  0.25500000920E-02 0. -1.
       -2    1    3    3    0  502 -0.31608143956E+03  0.51654599566E+03 -0.62488667750E+03  0.87017848847E+03  0.25500000920E-02 0.  1.
</event>
<event>
 5   0  0.5510176E-07  0.2400022E+04  0.7818609E-02  0.8439495E-01
       -1   -1    0    0    0  501  0.00000000000E+00  0.00000000000E+00  0.12483289209E+04  0.12483289209E+04  0.50400001928E-02 0. -1.
        1   -1    0    0  501    0  0.00000000000E+00  0.00000000000E+00 -0.11535629303E+04  0.11535629303E+04  0.50400001928E-02 0.  1.
    10030    2    1    2    0    0  0.00000000000E+00  0.00000000000E+00  0.94765990667E+02  0.24018918512E+04  0.24000216399E+04 0.  0.
        3    1    3    3  502    0 -0.10528898553E+04 -0.24958639804E+03  0.56658929481E+03  0.12214310691E+04  0.10100000352E+00 0. -1.
       -3    1    3    3    0  502  0.10528898553E+04  0.24958639804E+03 -0.47182330415E+03  0.11804607821E+04  0.10100000352E+00 0.  1.
</event>
<event>
 5   0  0.1307477E-06  0.2401165E+04  0.7818609E-02  0.8439067E-01
       -2   -1    0    0    0  501  0.00000000000E+00  0.00000000000E+00  0.70314902612E+03  0.70314902613E+03  0.25500000920E-02 0. -1.
        2   -1    0    0  501    0  0.00000000000E+00  0.00000000000E+00 -0.20499192286E+04  0.20499192286E+04  0.25500000920E-02 0.  1.
    10030    2    1    2    0    0  0.00000000000E+00  0.00000000000E+00 -0.13467702025E+04  0.27530682547E+04  0.24011653081E+04 0.  0.
        5    1    3    3  502    0 -0.57645128504E+03  0.10407607427E+04 -0.48887303342E+03  0.12862728872E+04  0.46999998093E+01 0. -1.
       -5    1    3    3    0  502  0.57645128504E+03 -0.10407607427E+04 -0.85789716904E+03  0.14667953675E+04  0.46999998093E+01 0.  1.
</event>
<event>
 5   0  0.1275948E-06  0.2400189E+04  0.7818609E-02  0.8439433E-01
        2   -1    0    0  501    0  0.00000000000E+00  0.00000000000E+00  0.13285446833E+04  0.13285446833E+04  0.25500000920E-02 0.  1.
       -2   -1    0    0    0  501  0.00000000000E+00  0.00000000000E+00 -0.10840635195E+04  0.10840635195E+04  0.25500000920E-02 0. -1.
    10030    2    1    2    0    0  0.00000000000E+00  0.00000000000E+00  0.24448116377E+03  0.24126082028E+04  0.24001890135E+04 0.  0.
        1    1    3    3  502    0  0.11314705855E+04 -0.35517703964E+03  0.30717737505E+03  0.12250446339E+04  0.50400001928E-02 0.  1.
       -1    1    3    3    0  502 -0.11314705855E+04  0.35517703964E+03 -0.62696211277E+02  0.11875635689E+04  0.50400001928E-02 0. -1.
</event>
<event>
 5   0  0.5363690E-07  0.2400056E+04  0.7818609E-02  0.8439483E-01
       -1   -1    0    0    0  501  0.00000000000E+00  0.00000000000E+00  0.11354298394E+04  0.11354298395E+04  0.50400001928E-02 0. -1.
        1   -1    0    0  501    0  0.00000000000E+00  0.00000000000E+00 -0.12683009902E+04  0.12683009902E+04  0.50400001928E-02 0.  1.
    10030    2    1    2    0    0  0.00000000000E+00  0.00000000000E+00 -0.13287115071E+03  0.24037308296E+04  0.24000556574E+04 0.  0.
        4    1    3    3  502    0  0.20822885239E+03  0.13138301020E+03  0.11098604374E+04  0.11368432406E+04  0.12699999809E+01 0. -1.
       -4    1    3    3    0  502 -0.20822885239E+03 -0.13138301020E+03 -0.12427315881E+04  0.12668875890E+04  0.12699999809E+01 0.  1.
</event>
<event>
 5   0  0.5363690E-07  0.2396962E+04  0.7818609E-02  0.8440642E-01
       -1   -1    0    0    0  501  0.00000000000E+00  0.00000000000E+00  0.13266061478E+04  0.13266061478E+04  0.50400001928E-02 0.  1.
        1   -1    0    0  501    0  0.00000000000E+00  0.00000000000E+00 -0.10827306123E+04  0.10827306123E+04  0.50400001928E-02 0. -1.
    10030    2    1    2    0    0  0.00000000000E+00  0.00000000000E+00  0.24387553546E+03  0.24093367601E+04  0.23969623165E+04 0.  0.
        4    1    3    3  502    0  0.57374224160E+03  0.99118205201E+03  0.47693729476E+03  0.12406017959E+04  0.12699999809E+01 0. -1.
       -4    1    3    3    0  502 -0.57374224160E+03 -0.99118205201E+03 -0.23306175930E+03  0.11687349642E+04  0.12699999809E+01 0.  1.
</event>
<event>
 5   0  0.5452384E-07  0.2400141E+04  0.7818609E-02  0.8439451E-01
        1   -1    0    0  501    0  0.00000000000E+00  0.00000000000E+00  0.22905603405E+04  0.22905603405E+04  0.50400001928E-02 0. -1.
       -1   -1    0    0    0  501  0.00000000000E+00  0.00000000000E+00 -0.62874077765E+03  0.62874077767E+03  0.50400001928E-02 0.  1.
    10030    2    1    2    0    0  0.00000000000E+00  0.00000000000E+00  0.16618195628E+04  0.29193011182E+04  0.24001405707E+04 0.  0.
        5    1    3    3  502    0 -0.47405450429E+03 -0.52220096639E+03 -0.35004901534E+03  0.78738676994E+03  0.46999998093E+01 0.  1.
       -5    1    3    3    0  502  0.47405450429E+03  0.52220096639E+03  0.20118685782E+04  0.21319143482E+04  0.46999998093E+01 0. -1.
</event>
<event>
 5   0  0.1291468E-06  0.2399981E+04  0.7818609E-02  0.8439511E-01
        2   -1    0    0  501    0  0.00000000000E+00  0.00000000000E+00  0.12022522411E+04  0.12022522411E+04  0.25500000920E-02 0. -1.
       -2   -1    0    0    0  501  0.00000000000E+00  0.00000000000E+00 -0.11977334035E+04  0.11977334035E+04  0.25500000920E-02 0.  1.
    10030    2    1    2    0    0  0.00000000000E+00  0.00000000000E+00  0.45188375839E+01  0.23999856446E+04  0.23999813905E+04 0.  0.
        4    1    3    3  502    0 -0.21983528527E+03 -0.34033837048E+03 -0.11272638522E+04  0.11978660878E+04  0.12699999809E+01 0.  1.
       -4    1    3    3    0  502  0.21983528527E+03  0.34033837048E+03  0.11317826898E+04  0.12021195568E+04  0.12699999809E+01 0. -1.
</event>
<event>
 5   0  0.5452384E-07  0.2399883E+04  0.7818609E-02  0.8439547E-01
        1   -1    0    0  501    0  0.00000000000E+00  0.00000000000E+00  0.10541765390E+04  0.10541765390E+04  0.50400001928E-02 0.  1.
       -1   -1    0    0    0  501  0.00000000000E+00  0.00000000000E+00 -0.13658621924E+04  0.13658621924E+04  0.50400001928E-02 0. -1.
    10030    2    1    2    0    0  0.00000000000E+00  0.00000000000E+00 -0.31168565341E+03  0.24200387314E+04  0.23998832294E+04 0.  0.
        5    1    3    3  502    0  0.62370575982E+03 -0.10204477608E+04 -0.25420837654E+03  0.12226882252E+04  0.46999998093E+01 0. -1.
       -5    1    3    3    0  502 -0.62370575982E+03  0.10204477608E+04 -0.57477276870E+02  0.11973505062E+04  0.46999998093E+01 0.  1.
</event>
<event>
 5   0  0.1308662E-06  0.2400596E+04  0.7818609E-02  0.8439280E-01
       -2   -1    0    0    0  501  0.00000000000E+00  0.00000000000E+00  0.96726655450E+03  0.96726655451E+03  0.25500000920E-02 0. -1.
        2   -1    0    0  501    0  0.00000000000E+00  0.00000000000E+00 -0.14894713963E+04  0.14894713963E+04  0.25500000920E-02 0.  1.
    10030    2    1    2    0    0  0.00000000000E+00  0.00000000000E+00 -0.52220484183E+03  0.24567379508E+04  0.24005964805E+04 0.  0.
        3    1    3    3  502    0  0.34081825840E+03 -0.19294960526E+03  0.90003730342E+03  0.98155682117E+03  0.10100000352E+00 0. -1.
       -3    1    3    3    0  502 -0.34081825840E+03  0.19294960526E+03 -0.14222421453E+04  0.14751811297E+04  0.10100000352E+00 0.  1.
</event>
<event>
 5   0  0.1308662E-06  0.2400409E+04  0.7818609E-02  0.8439351E-01
        2   -1    0    0  501    0  0.00000000000E+00  0.00000000000E+00  0.17141036333E+04  0.17141036333E+04  0.25500000920E-02 0.  1.
       -2   -1    0    0    0  501  0.00000000000E+00  0.00000000000E+00 -0.84037545046E+03  0.84037545046E+03  0.25500000920E-02 0. -1.
    10030    2    1    2    0    0  0.00000000000E+00  0.00000000000E+00  0.87372818288E+03  0.25544790838E+04  0.24004088094E+04 0.  0.
        3    1    3    3  502    0  0.38438821945E+03  0.88092622554E+03  0.12018238526E+04  0.15388846289E+04  0.10100000352E+00 0.  1.
       -3    1    3    3    0  502 -0.38438821945E+03 -0.88092622554E+03 -0.32809566977E+03  0.10155944549E+04  0.10100000352E+00 0. -1.
</event>
<event>
 5   0  0.4483375E-07  0.2400572E+04  0.7818609E-02  0.8439290E-01
       -3   -1    0    0    0  501  0.00000000000E+00  0.00000000000E+00  0.59044571389E+03  0.59044572253E+03  0.10100000352E+00 0.  1.
        3   -1    0    0  501    0  0.00000000000E+00  0.00000000000E+00 -0.24399973953E+04  0.24399973974E+04  0.10100000352E+00 0. -1.
    10030    2    1    2    0    0  0.00000000000E+00  0.00000000000E+00 -0.18495516814E+04  0.30304431199E+04  0.24005716154E+04 0.  0.
        1    1    3    3  502    0  0.86409685134E+03  0.42738534113E+03 -0.18275034487E+04  0.20661777400E+04  0.50400001928E-02 0. -1.
       -1    1    3    3    0  502 -0.86409685134E+03 -0.42738534113E+03 -0.22048232726E+02  0.96426537991E+03  0.50400001928E-02 0.  1.
</event>
<event>
 5   0  0.5452384E-07  0.2400541E+04  0.7818609E-02  0.8439301E-01
       -1   -1    0    0    0  501  0.00000000000E+00  0.00000000000E+00  0.12662888585E+04  0.12662888585E+04  0.50400001928E-02 0. -1.
        1   -1    0    0  501    0  0.00000000000E+00  0.00000000000E+00 -0.11376936916E+04  0.11376936917E+04  0.50400001928E-02 0.  1.
    10030    2    1    2    0    0  0.00000000000E+00  0.00000000000E+00  0.12859516685E+03  0.24039825502E+04  0.24005406442E+04 0.  0.
        5    1    3    3  502    0  0.12164916244E+03  0.94933721392E+03 -0.66102474546E+03  0.11631919311E+04  0.46999998093E+01 0.  1.
       -5    1    3    3    0  502 -0.12164916244E+03 -0.94933721392E+03  0.78961991231E+03  0.12407906191E+04  0.46999998093E+01 0. -1.
</event>
<event>
 5   0  0.1308662E-06  0.2414453E+04  0.7818609E-02  0.8434112E-01
       -2   -1    0    0    0  501  0.00000000000E+00  0.00000000000E+00  0.56389674939E+03  0.56389674939E+03  0.25500000920E-02 0.  1.
        2   -1    0    0  501    0  0.00000000000E+00  0.00000000000E+00 -0.25845085306E+04  0.25845085306E+04  0.25500000920E-02 0. -1.
    10030    2    1    2    0    0  0.00000000000E+00  0.00000000000E+00 -0.20206117812E+04  0.31484052800E+04  0.24144531134E+04 0.  0.
        3    1    3    3  502    0  0.10545158048E+04  0.11043760799E+02 -0.17765224452E+04  0.20659519732E+04  0.10100000352E+00 0. -1.
       -3    1    3    3    0  502 -0.10545158048E+04 -0.11043760799E+02 -0.24408933604E+03  0.10824533068E+04  0.10100000352E+00 0.  1.
</event>
<event>
 5   0  0.4483375E-07  0.2400968E+04  0.7818609E-02  0.8439141E-01
        3   -1    0    0  501    0  0.00000000000E+00  0.00000000000E+00  0.13423684932E+04  0.13423684970E+04  0.10100000352E+00 0.  1.
       -3   -1    0    0    0  501  0.00000000000E+00  0.00000000000E+00 -0.10735966359E+04  0.10735966407E+04  0.10100000352E+00 0. -1.
    10030    2    1    2    0    0  0.00000000000E+00  0.00000000000E+00  0.26877185732E+03  0.24159651377E+04  0.24009683953E+04 0.  0.
        5    1    3    3  502    0  0.69305303802E+03 -0.30642429125E+03 -0.80251613732E+03  0.11037538677E+04  0.46999998093E+01 0. -1.
       -5    1    3    3    0  502 -0.69305303802E+03  0.30642429125E+03  0.10712879946E+04  0.13122112700E+04  0.46999998093E+01 0.  1.
</event>
<event>
 5   0  0.1336057E-06  0.2397240E+04  0.7818609E-02  0.8440538E-01
        2   -1    0    0  501    0  0.00000000000E+00  0.00000000000E+00  0.15520171760E+04  0.15520171760E+04  0.25500000920E-02 0. -1.
       -2   -1    0    0    0  501  0.00000000000E+00  0.00000000000E+00 -0.92569180000E+03  0.92569180000E+03  0.25500000920E-02 0.  1.
    10030    2    1    2    0    0  0.00000000000E+00  0.00000000000E+00  0.62632537596E+03  0.24777089760E+04  0.23972397237E+04 0.  0.
        2    1    3    3  502    0  0.36025851547E+02  0.89892704115E+03 -0.50546051155E+03  0.10319195783E+04  0.25500000920E-02 0.  1.
       -2    1    3    3    0  502 -0.36025851547E+02 -0.89892704115E+03  0.11317858875E+04  0.14457893977E+04  0.25500000920E-02 0. -1.
</event>
<event>
 5   0  0.1275948E-06  0.2399344E+04  0.7818609E-02  0.8439749E-01
       -2   -1    0    0    0  501  0.00000000000E+00  0.00000000000E+00  0.74862279946E+03  0.74862279947E+03  0.25500000920E-02 0.  1.
        2   -1    0    0  501    0  0.00000000000E+00  0.00000000000E+00 -0.19224801545E+04  0.19224801545E+04  0.25500000920E-02 0. -1.
    10030    2    1    2    0    0  0.00000000000E+00  0.00000000000E+00 -0.11738573551E+04  0.26711029540E+04  0.23993436396E+04 0.  0.
        1    1    3    3  502    0 -0.11747311645E+04 -0.16582327723E+03 -0.78520786642E+03  0.14226883221E+04  0.50400001928E-02 0. -1.
       -1    1    3    3    0  502  0.11747311645E+04  0.16582327723E+03 -0.38864948866E+03  0.12484146320E+04  0.50400001928E-02 0.  1.
</event>
<event>
 5   0  0.5527286E-07  0.2399725E+04  0.7818609E-02  0.8439607E-01
        1   -1    0    0  501    0  0.00000000000E+00  0.00000000000E+00  0.11481609083E+04  0.11481609083E+04  0.50400001928E-02 0.  1.
       -1   -1    0    0    0  501  0.00000000000E+00  0.00000000000E+00 -0.12538920071E+04  0.12538920071E+04  0.50400001928E-02 0. -1.
    10030    2    1    2    0    0  0.00000000000E+00  0.00000000000E+00 -0.10573109880E+03  0.24020529154E+04  0.23997248057E+04 0.  0.
        1    1    3    3  502    0 -0.78155202867E+03 -0.32213909875E+03  0.79947250806E+03  0.11635091163E+04  0.50400001928E-02 0.  1.
       -1    1    3    3    0  502  0.78155202867E+03  0.32213909875E+03 -0.90520360686E+03  0.12385437991E+04  0.50400001928E-02 0. -1.
</event>
<event>
 5   0  0.1291468E-06  0.2402759E+04  0.7818609E-02  0.8438472E-01
        2   -1    0    0  501    0  0.00000000000E+00  0.00000000000E+00  0.16093794725E+04  0.16093794725E+04  0.25500000920E-02 0. -1.
       -2   -1    0    0    0  501  0.00000000000E+00  0.00000000000E+00 -0.89681282307E+03  0.89681282307E+03  0.25500000920E-02 0.  1.
    10030    2    1    2    0    0  0.00000000000E+00  0.00000000000E+00  0.71256664947E+03  0.25061922956E+04  0.24027585381E+04 0.  0.
        4    1    3    3  502    0 -0.10858424874E+04 -0.76014777962E+02 -0.17401026112E+03  0.11023217941E+04  0.12699999809E+01 0.  1.
       -4    1    3    3    0  502  0.10858424874E+04  0.76014777962E+02  0.88657691059E+03  0.14038705015E+04  0.12699999809E+01 0. -1.
</event>
<event>
 5   0  0.1291468E-06  0.2400673E+04  0.7818609E-02  0.8439251E-01
       -2   -1    0    0    0  501  0.00000000000E+00  0.00000000000E+00  0.84711923477E+03  0.84711923478E+03  0.25500000920E-02 0. -1.
        2   -1    0    0  501    0  0.00000000000E+00  0.00000000000E+00 -0.17008328973E+04  0.17008328973E+04  0.25500000920E-02 0.  1.
    10030    2    1    2    0    0  0.00000000000E+00  0.00000000000E+00 -0.85371366253E+03  0.25479521321E+04  0.24006734575E+04 0.  0.
        4    1    3    3  502    0 -0.59483625287E+02 -0.66401740035E+03  0.63255293162E+03  0.91901155262E+03  0.12699999809E+01 0. -1.
       -4    1    3    3    0  502  0.59483625287E+02  0.66401740035E+03 -0.14862665941E+04  0.16289405795E+04  0.12699999809E+01 0.  1.
</event>
<event>
 5   0  0.1307477E-06  0.2396560E+04  0.7818609E-02  0.8440792E-01
        2   -1    0    0  501    0  0.00000000000E+00  0.00000000000E+00  0.26439319190E+04  0.26439319190E+04  0.25500000920E-02 0.  1.
       -2   -1    0    0    0  501  0.00000000000E+00  0.00000000000E+00 -0.54308335166E+03  0.54308335167E+03  0.25500000920E-02 0. -1.
    10030    2    1    2    0    0  0.00000000000E+00  0.00000000000E+00  0.21008485673E+04  0.31870152707E+04  0.23965603753E+04 0.  0.
        5    1    3    3  502    0 -0.31933249972E+03  0.15636972434E+03  0.25721510448E+04  0.25966146852E+04  0.46999998093E+01 0.  1.
       -5    1    3    3    0  502  0.31933249972E+03 -0.15636972434E+03 -0.47130247747E+03  0.59040058548E+03  0.46999998093E+01 0. -1.
</event>
<event>
 5   0  0.5363690E-07  0.2399781E+04  0.7818609E-02  0.8439585E-01
        1   -1    0    0  501    0  0.00000000000E+00  0.00000000000E+00  0.21666408009E+04  0.21666408009E+04  0.50400001928E-02 0.  1.
       -1   -1    0    0    0  501  0.00000000000E+00  0.00000000000E+00 -0.66450223851E+03  0.66450223852E+03  0.50400001928E-02 0. -1.
    10030    2    1    2    0    0  0.00000000000E+00  0.00000000000E+00  0.15021385624E+04  0.28311430394E+04  0.23997813753E+04 0.  0.
        4    1    3    3  502    0 -0.52099618322E+03 -0.48186993197E+03 -0.39036614615E+03  0.80995246479E+03  0.12699999809E+01 0. -1.
       -4    1    3    3    0  502  0.52099618322E+03  0.48186993197E+03  0.18925047086E+04  0.20211905747E+04  0.12699999809E+01 0.  1.
</event>
<event>
 5   0  0.5690124E-07  0.2400206E+04  0.7818609E-02  0.8439426E-01
        1   -1    0    0  501    0  0.00000000000E+00  0.00000000000E+00  0.77145614471E+03  0.77145614472E+03  0.50400001928E-02 0. -1.
       -1   -1    0    0    0  501  0.00000000000E+00  0.00000000000E+00 -0.18669203944E+04  0.18669203944E+04  0.50400001928E-02 0.  1.
    10030    2    1    2    0    0  0.00000000000E+00  0.00000000000E+00 -0.10954642497E+04  0.26383765391E+04  0.24002059995E+04 0.  0.
        2    1    3    3  502    0 -0.57847354969E+03  0.87529249618E+03 -0.11881957455E+04  0.15851112678E+04  0.25500000920E-02 0.  1.
       -2    1    3    3    0  502  0.57847354969E+03 -0.87529249618E+03  0.92731495808E+02  0.10532652714E+04  0.25500000920E-02 0. -1.
</event>
<event>
 5   0  0.1308662E-06  0.2402959E+04  0.7818609E-02  0.8438397E-01
        2   -1    0    0  501    0  0.00000000000E+00  0.00000000000E+00  0.15137971300E+04  0.15137971300E+04  0.25500000920E-02 0. -1.
       -2   -1    0    0    0  501  0.00000000000E+00  0.00000000000E+00 -0.95359700079E+03  0.95359700080E+03  0.25500000920E-02 0.  1.
    10030    2    1    2    0    0  0.00000000000E+00  0.00000000000E+00  0.56020012922E+03  0.24673941308E+04  0.24029585123E+04 0.  0.
        3    1    3    3  502    0  0.14946742733E+03  0.98575646568E+03  0.96852280032E+03  0.13899973908E+04  0.10100000352E+00 0. -1.
       -3    1    3    3    0  502 -0.14946742733E+03 -0.98575646568E+03 -0.40832267110E+03  0.10773967400E+04  0.10100000352E+00 0.  1.
</event>
<event>
 5   0  0.1291468E-06  0.2400224E+04  0.7818609E-02  0.8439420E-01
       -2   -1    0    0    0  501  0.00000000000E+00  0.00000000000E+00  0.92370429222E+03  0.92370429223E+03  0.25500000920E-02 0. -1.
        2   -1    0    0  501    0  0.00000000000E+00  0.00000000000E+00 -0.15592315784E+04  0.15592315784E+04  0.25500000920E-02 0.  1.
    10030    2    1    2    0    0  0.00000000000E+00  0.00000000000E+00 -0.63552728622E+03  0.24829358707E+04  0.24002240742E+04 0.  0.
        4    1    3    3  502    0  0.76051204860E+03  0.87612215517E+02 -0.12738491963E+04  0.14861856762E+04  0.12699999809E+01 0.  1.
       -4    1    3    3    0  502 -0.76051204860E+03 -0.87612215517E+02  0.63832191008E+03  0.99675019446E+03  0.12699999809E+01 0. -1.
</event>
<event>
 5   0  0.1291468E-06  0.2400131E+04  0.7818609E-02  0.8439455E-01
       -2   -1    0    0    0  501  0.00000000000E+00  0.00000000000E+00  0.71954012577E+03  0.71954012578E+03  0.25500000920E-02 0.  1.
        2   -1    0    0  501    0  0.00000000000E+00  0.00000000000E+00 -0.20014963136E+04  0.20014963136E+04  0.25500000920E-02 0. -1.
    10030    2    1    2    0    0  0.00000000000E+00  0.00000000000E+00 -0.12819561878E+04  0.27210364394E+04  0.24001307541E+04 0.  0.
        4    1    3    3  502    0 -0.52512569538E+03  0.11796924880E+03  0.57503789801E+03  0.78761915712E+03  0.12699999809E+01 0.  1.
       -4    1    3    3    0  502  0.52512569538E+03 -0.11796924880E+03 -0.18569940858E+04  0.19334172822E+04  0.12699999809E+01 0. -1.
</event>
<event>
 5   0  0.5510176E-07  0.2401602E+04  0.7818609E-02  0.8438904E-01
       -1   -1    0    0    0  501  0.00000000000E+00  0.00000000000E+00  0.42749408822E+03  0.42749408825E+03  0.50400001928E-02 0.  1.
        1   -1    0    0  501    0  0.00000000000E+00  0.00000000000E+00 -0.33729663722E+04  0.33729663722E+04  0.50400001928E-02 0. -1.
    10030    2    1    2    0    0  0.00000000000E+00  0.00000000000E+00 -0.29454722840E+04  0.38004604605E+04  0.24016021185E+04 0.  0.
        3    1    3    3  502    0  0.10325103315E+03 -0.11963401748E+04 -0.14817692752E+04  0.19072311828E+04  0.10100000352E+00 0.  1.
       -3    1    3    3    0  502 -0.10325103315E+03  0.11963401748E+04 -0.14637030088E+04  0.18932292776E+04  0.10100000352E+00 0. -1.
</event>
<event>
 5   0  0.5527286E-07  0.2398071E+04  0.7818609E-02  0.8440226E-01
        1   -1    0    0  501    0  0.00000000000E+00  0.00000000000E+00  0.99063890941E+03  0.99063890942E+03  0.50400001928E-02 0.  1.
       -1   -1    0    0    0  501  0.00000000000E+00  0.00000000000E+00 -0.14512715837E+04  0.14512715837E+04  0.50400001928E-02 0. -1.
    10030    2    1    2    0    0  0.00000000000E+00  0.00000000000E+00 -0.46063267433E+03  0.24419104932E+04  0.23980709739E+04 0.  0.
        1    1    3    3  502    0 -0.14409686317E+03  0.20357172377E+03  0.96393288320E+03  0.99567663226E+03  0.50400001928E-02 0.  1.
       -1    1    3    3    0  502  0.14409686317E+03 -0.20357172377E+03 -0.14245655575E+04  0.14462338609E+04  0.50400001928E-02 0. -1.
</event>
<event>
 5   0  0.5363690E-07  0.2396146E+04  0.7818609E-02  0.8440948E-01
       -1   -1    0    0    0  501  0.00000000000E+00  0.00000000000E+00  0.11173527136E+04  0.11173527136E+04  0.50400001928E-02 0.  1.
        1   -1    0    0  501    0  0.00000000000E+00  0.00000000000E+00 -0.12846244141E+04  0.12846244141E+04  0.50400001928E-02 0. -1.
    10030    2    1    2    0    0  0.00000000000E+00  0.00000000000E+00 -0.16727170043E+03  0.24019771277E+04  0.23961457177E+04 0.  0.
        4    1    3    3  502    0  0.27653480600E+03 -0.59287215700E+03  0.92250400976E+03  0.11309218162E+04  0.12699999809E+01 0.  1.
       -4    1    3    3    0  502 -0.27653480600E+03  0.59287215700E+03 -0.10897757102E+04  0.12710553115E+04  0.12699999809E+01 0. -1.
</event>
<event>
 5   0  0.1275948E-06  0.2399465E+04  0.7818609E-02  0.8439704E-01
       -2   -1    0    0    0  501  0.00000000000E+00  0.00000000000E+00  0.67394096165E+03  0.67394096165E+03  0.25500000920E-02 0.  1.
        2   -1    0    0  501    0  0.00000000000E+00  0.00000000000E+00 -0.21357333728E+04  0.21357333728E+04  0.25500000920E-02 0. -1.
    10030    2    1    2    0    0  0.00000000000E+00  0.00000000000E+00 -0.14617924112E+04  0.28096743345E+04  0.23994651097E+04 0.  0.
        1    1    3    3  502    0  0.11242482815E+03  0.54643628189E+03 -0.19746098465E+04  0.20519054554E+04  0.50400001928E-02 0. -1.
       -1    1    3    3    0  502 -0.11242482815E+03 -0.54643628189E+03  0.51281743528E+03  0.75776887908E+03  0.50400001928E-02 0.  1.
</event>
<event>
 5   0  0.1291468E-06  0.2400265E+04  0.7818609E-02  0.8439404E-01
        2   -1    0    0  501    0  0.00000000000E+00  0.00000000000E+00  0.15689835866E+04  0.15689835866E+04  0.25500000920E-02 0.  1.
       -2   -1    0    0    0  501  0.00000000000E+00  0.00000000000E+00 -0.91799420960E+03  0.91799420960E+03  0.25500000920E-02 0. -1.
    10030    2    1    2    0    0  0.00000000000E+00  0.00000000000E+00  0.65098937696E+03  0.24869777962E+04  0.24002648582E+04 0.  0.
        4    1    3    3  502    0 -0.80527243164E+03  0.31131449983E+03 -0.53824940849E+03  0.10173959139E+04  0.12699999809E+01 0. -1.
       -4    1    3    3    0  502  0.80527243164E+03 -0.31131449983E+03  0.11892387854E+04  0.14695818823E+04  0.12699999809E+01 0.  1.
</event>
<event>
 5   0  0.5452384E-07  0.2400728E+04  0.7818609E-02  0.8439231E-01
        1   -1    0    0  501    0  0.00000000000E+00  0.00000000000E+00  0.18766448007E+04  0.18766448007E+04  0.50400001928E-02 0.  1.
       -1   -1    0    0    0  501  0.00000000000E+00  0.00000000000E+00 -0.76779255899E+03  0.76779255901E+03  0.50400001928E-02 0. -1.
    10030    2    1    2    0    0  0.00000000000E+00  0.00000000000E+00  0.11088522417E+04  0.26444373597E+04  0.24007281511E+04 0.  0.
        5    1    3    3  502    0  0.38305380751E+03 -0.10975420806E+04  0.22484860327E+03  0.11840218843E+04  0.46999998093E+01 0. -1.
       -5    1    3    3    0  502 -0.38305380751E+03  0.10975420806E+04  0.88400363841E+03  0.14604154754E+04  0.46999998093E+01 0.  1.
</event>
<event>
 5   0  0.1275948E-06  0.2399720E+04  0.7818609E-02  0.8439608E-01
        2   -1    0    0  501    0  0.00000000000E+00  0.00000000000E+00  0.12081238502E+04  0.12081238502E+04  0.25500000920E-02 0.  1.
       -2   -1    0    0    0  501  0.00000000000E+00  0.00000000000E+00 -0.11916526198E+04  0.11916526198E+04  0.25500000920E-02 0. -1.
    10030    2    1    2    0    0  0.00000000000E+00  0.00000000000E+00  0.16471230403E+02  0.23997764701E+04  0.23997199430E+04 0.  0.
        1    1    3    3  502    0 -0.67438553500E+03 -0.57692724981E+03  0.81573407829E+03  0.12054306234E+04  0.50400001928E-02 0.  1.
       -1    1    3    3    0  502  0.67438553500E+03  0.57692724981E+03 -0.79926284789E+03  0.11943458467E+04  0.50400001928E-02 0. -1.
</event>
<event>
 5   0  0.5510176E-07  0.2400147E+04  0.7818609E-02  0.8439449E-01
       -1   -1    0    0    0  501  0.00000000000E+00  0.00000000000E+00  0.11731206396E+04  0.11731206396E+04  0.50400001928E-02 0.  1.
        1   -1    0    0  501    0  0.00000000000E+00  0.00000000000E+00 -0.12276455852E+04  0.12276455852E+04  0.50400001928E-02 0. -1.
    10030    2    1    2    0    0  0.00000000000E+00  0.00000000000E+00 -0.54524945604E+02  0.24007662247E+04  0.24001469739E+04 0.  0.
        3    1    3    3  502    0  0.45746006054E+03 -0.34997454690E+03  0.10258265577E+04  0.11764659056E+04  0.10100000352E+00 0.  1.
       -3    1    3    3    0  502 -0.45746006054E+03  0.34997454690E+03 -0.10803515033E+04  0.12243003191E+04  0.10100000352E+00 0. -1.
</event>
<event>
 5   0  0.5452384E-07  0.2399364E+04  0.7818609E-02  0.8439742E-01
        1   -1    0    0  501    0  0.00000000000E+00  0.00000000000E+00  0.19141292579E+04  0.19141292579E+04  0.50400001928E-02 0. -1.
       -1   -1    0    0    0  501  0.00000000000E+00  0.00000000000E+00 -0.75190171310E+03  0.75190171312E+03  0.50400001928E-02 0.  1.
    10030    2    1    2    0    0  0.00000000000E+00  0.00000000000E+00  0.11622275448E+04  0.26660309710E+04  0.23993641392E+04 0.  0.
        5    1    3    3  502    0 -0.25527156543E+02 -0.33377543940E+03  0.18611734770E+04  0.18910437544E+04  0.46999998093E+01 0. -1.
       -5    1    3    3    0  502  0.25527156543E+02  0.33377543940E+03 -0.69894593223E+03  0.77498721657E+03  0.46999998093E+01 0.  1.
</event>
<event>
 5   0  0.5452384E-07  0.2398497E+04  0.7818609E-02  0.8440066E-01
        1   -1    0    0  501    0  0.00000000000E+00  0.00000000000E+00  0.17313443997E+04  0.17313443997E+04  0.50400001928E-02 0. -1.
       -1   -1    0    0    0  501  0.00000000000E+00  0.00000000000E+00 -0.83068247293E+03  0.83068247294E+03  0.50400001928E-02 0.  1.
    10030    2    1    2    0    0  0.00000000000E+00  0.00000000000E+00  0.90066192680E+03  0.25620268727E+04  0.23984974025E+04 0.  0.
        5    1    3    3  502    0 -0.84544637666E+03 -0.32581041199E+03 -0.38888288253E+03  0.98599390804E+03  0.46999998093E+01 0.  1.
       -5    1    3    3    0  502  0.84544637666E+03  0.32581041199E+03  0.12895448093E+04  0.15760329646E+04  0.46999998093E+01 0. -1.
</event>
<event>
 5   0  0.4483375E-07  0.2403565E+04  0.7818609E-02  0.8438170E-01
        4   -1    0    0  501    0  0.00000000000E+00  0.00000000000E+00  0.12591018245E+04  0.12591024650E+04  0.12699999809E+01 0. -1.
       -4   -1    0    0    0  501  0.00000000000E+00  0.00000000000E+00 -0.11470714996E+04  0.11470722027E+04  0.12699999809E+01 0.  1.
    10030    2    1    2    0    0  0.00000000000E+00  0.00000000000E+00  0.11203032484E+03  0.24061746677E+04  0.24035652139E+04 0.  0.
        2    1    3    3  502    0 -0.10016133112E+04 -0.66304703923E+03  0.93750023518E+02  0.12048442507E+04  0.25500000920E-02 0.  1.
       -2    1    3    3    0  502  0.10016133112E+04  0.66304703923E+03  0.18280301319E+02  0.12013304170E+04  0.25500000920E-02 0. -1.
</event>
<event>
 5   0  0.1307477E-06  0.2400715E+04  0.7818609E-02  0.8439236E-01
        2   -1    0    0  501    0  0.00000000000E+00  0.00000000000E+00  0.75173697057E+03  0.75173697057E+03  0.25500000920E-02 0.  1.
       -2   -1    0    0    0  501  0.00000000000E+00  0.00000000000E+00 -0.19167048086E+04  0.19167048086E+04  0.25500000920E-02 0. -1.
    10030    2    1    2    0    0  0.00000000000E+00  0.00000000000E+00 -0.11649678380E+04  0.26684417791E+04  0.24007147821E+04 0.  0.
        5    1    3    3  502    0  0.19955768161E+03 -0.58259106288E+03 -0.17277269377E+04  0.18342022997E+04  0.46999998093E+01 0. -1.
       -5    1    3    3    0  502 -0.19955768161E+03  0.58259106288E+03  0.56275909969E+03  0.83423947948E+03  0.46999998093E+01 0.  1.
</event>
<event>
 5   0  0.1291468E-06  0.2403531E+04  0.7818609E-02  0.8438183E-01
       -2   -1    0    0    0  501  0.00000000000E+00  0.00000000000E+00  0.19386618947E+04  0.19386618947E+04  0.25500000920E-02 0.  1.
        2   -1    0    0  501    0  0.00000000000E+00  0.00000000000E+00 -0.74496784508E+03  0.74496784509E+03  0.25500000920E-02 0. -1.
    10030    2    1    2    0    0  0.00000000000E+00  0.00000000000E+00  0.11936940497E+04  0.26836297398E+04  0.24035313803E+04 0.  0.
        4    1    3    3  502    0 -0.56182530092E+03  0.36580609146E+02 -0.58860386511E+03  0.81451944891E+03  0.12699999809E+01 0. -1.
       -4    1    3    3    0  502  0.56182530092E+03 -0.36580609146E+02  0.17822979148E+04  0.18691102909E+04  0.12699999809E+01 0.  1.
</event>
<event>
 5   0  0.5527286E-07  0.2400210E+04  0.7818609E-02  0.8439425E-01
       -1   -1    0    0    0  501  0.00000000000E+00  0.00000000000E+00  0.62777584686E+03  0.62777584688E+03  0.50400001928E-02 0. -1.
        1   -1    0    0  501    0  0.00000000000E+00  0.00000000000E+00 -0.22942137099E+04  0.22942137099E+04  0.50400001928E-02 0.  1.
    10030    2    1    2    0    0  0.00000000000E+00  0.00000000000E+00 -0.16664378631E+04  0.29219895568E+04  0.24002099530E+04 0.  0.
        1    1    3    3  502    0  0.71875649673E+03 -0.68523866773E+03 -0.16535703400E+04  0.19288488284E+04  0.50400001928E-02 0.  1.
       -1    1    3    3    0  502 -0.71875649673E+03  0.68523866773E+03 -0.12867523079E+02  0.99314072846E+03  0.50400001928E-02 0. -1.
</event>
<event>
 5   0  0.1307477E-06  0.2385864E+04  0.7818609E-02  0.8444815E-01
       -2   -1    0    0    0  501  0.00000000000E+00  0.00000000000E+00  0.10702405620E+04  0.10702405620E+04  0.25500000920E-02 0. -1.
        2   -1    0    0  501    0  0.00000000000E+00  0.00000000000E+00 -0.13296886048E+04  0.13296886048E+04  0.25500000920E-02 0.  1.
    10030    2    1    2    0    0  0.00000000000E+00  0.00000000000E+00 -0.25944804279E+03  0.23999291669E+04  0.23858639356E+04 0.  0.
        5    1    3    3  502    0 -0.53954813051E+03 -0.49983728842E+03 -0.10744707071E+04  0.13020978805E+04  0.46999998093E+01 0.  1.
       -5    1    3    3    0  502  0.53954813051E+03  0.49983728842E+03  0.81502266428E+03  0.10978312864E+04  0.46999998093E+01 0. -1.
</event>
<event>
 5   0  0.5452384E-07  0.2400763E+04  0.7818609E-02  0.8439218E-01
       -1   -1    0    0    0  501  0.00000000000E+00  0.00000000000E+00  0.72245014107E+03  0.72245014109E+03  0.50400001928E-02 0.  1.
        1   -1    0    0  501    0  0.00000000000E+00  0.00000000000E+00 -0.19944848993E+04  0.19944848993E+04  0.50400001928E-02 0. -1.
    10030    2    1    2    0    0  0.00000000000E+00  0.00000000000E+00 -0.12720347582E+04  0.27169350404E+04  0.24007631261E+04 0.  0.
        5    1    3    3  502    0  0.93106924751E+02 -0.76277567080E+03  0.40759952451E+03  0.86985923331E+03  0.46999998093E+01 0.  1.
       -5    1    3    3    0  502 -0.93106924751E+02  0.76277567080E+03 -0.16796342827E+04  0.18470758071E+04  0.46999998093E+01 0. -1.
</event>
<event>
 5   0  0.1308662E-06  0.2399323E+04  0.7818609E-02  0.8439757E-01
       -2   -1    0    0    0  501  0.00000000000E+00  0.00000000000E+00  0.91415936674E+03  0.91415936674E+03  0.25500000920E-02 0. -1.
        2   -1    0    0  501    0  0.00000000000E+00  0.00000000000E+00 -0.15743297682E+04  0.15743297682E+04  0.25500000920E-02 0.  1.
    10030    2    1    2    0    0  0.00000000000E+00  0.00000000000E+00 -0.66017040148E+03  0.24884891350E+04  0.23993234913E+04 0.  0.
        3    1    3    3  502    0  0.12323343973E+03 -0.76355947289E+03  0.62104386245E+03  0.99191987509E+03  0.10100000352E+00 0. -1.
       -3    1    3    3    0  502 -0.12323343973E+03  0.76355947289E+03 -0.12812142639E+04  0.14965692599E+04  0.10100000352E+00 0.  1.
</event>
<event>
 5   0  0.1307477E-06  0.2401304E+04  0.7818609E-02  0.8439015E-01
        2   -1    0    0  501    0  0.00000000000E+00  0.00000000000E+00  0.15343042104E+04  0.15343042104E+04  0.25500000920E-02 0. -1.
       -2   -1    0    0    0  501  0.00000000000E+00  0.00000000000E+00 -0.93955664794E+03  0.93955664795E+03  0.25500000920E-02 0.  1.
    10030    2    1    2    0    0  0.00000000000E+00  0.00000000000E+00  0.59474756241E+03  0.24738608583E+04  0.24013044129E+04 0.  0.
        5    1    3    3  502    0  0.93410066258E+02  0.33760718876E+03  0.14804808136E+04  0.15213643824E+04  0.46999998093E+01 0. -1.
       -5    1    3    3    0  502 -0.93410066258E+02 -0.33760718876E+03 -0.88573325122E+03  0.95249647595E+03  0.46999998093E+01 0.  1.
</event>
<event>
 5   0  0.5363690E-07  0.2397341E+04  0.7818609E-02  0.8440500E-01
       -1   -1    0    0    0  501  0.00000000000E+00  0.00000000000E+00  0.10323459283E+04  0.10323459283E+04  0.50400001928E-02 0.  1.
        1   -1    0    0  501    0  0.00000000000E+00  0.00000000000E+00 -0.13917926863E+04  0.13917926863E+04  0.50400001928E-02 0. -1.
    10030    2    1    2    0    0  0.00000000000E+00  0.00000000000E+00 -0.35944675796E+03  0.24241386146E+04  0.23973414548E+04 0.  0.
        4    1    3    3  502    0  0.82724891780E+03 -0.73241943952E+03 -0.64970998812E+03  0.12817580462E+04  0.12699999809E+01 0. -1.
       -4    1    3    3    0  502 -0.82724891780E+03  0.73241943952E+03  0.29026323016E+03  0.11423805684E+04  0.12699999809E+01 0.  1.
</event>
<event>
 5   0  0.1308662E-06  0.2400317E+04  0.7818609E-02  0.8439385E-01
       -2   -1    0    0    0  501  0.00000000000E+00  0.00000000000E+00  0.77327978737E+03  0.77327978738E+03  0.25500000920E-02 0.  1.
        2   -1    0    0  501    0  0.00000000000E+00  0.00000000000E+00 -0.18626894608E+04  0.18626894608E+04  0.25500000920E-02 0. -1.
    10030    2    1    2    0    0  0.00000000000E+00  0.00000000000E+00 -0.10894096734E+04  0.26359692481E+04  0.24003167376E+04 0.  0.
        3    1    3    3  502    0  0.46284674610E+03 -0.52831500828E+03  0.52399338176E+03  0.87630641483E+03  0.10100000352E+00 0.  1.
       -3    1    3    3    0  502 -0.46284674610E+03  0.52831500828E+03 -0.16134030551E+04  0.17596628333E+04  0.10100000352E+00 0. -1.
</event>
<event>
 5   0  0.1336057E-06  0.2400414E+04  0.7818609E-02  0.8439349E-01
        2   -1    0    0  501    0  0.00000000000E+00  0.00000000000E+00  0.27772594544E+04  0.27772594544E+04  0.25500000920E-02 0. -1.
       -2   -1    0    0    0  501  0.00000000000E+00  0.00000000000E+00 -0.51867572267E+03  0.51867572268E+03  0.25500000920E-02 0.  1.
    10030    2    1    2    0    0  0.00000000000E+00  0.00000000000E+00  0.22585837317E+04  0.32959351770E+04  0.24004141764E+04 0.  0.
        2    1    3    3  502    0  0.10321032664E+04 -0.40763593045E+03  0.17571507879E+04  0.20782163255E+04  0.25500000920E-02 0. -1.
       -2    1    3    3    0  502 -0.10321032664E+04  0.40763593045E+03  0.50143294376E+03  0.12177188515E+04  0.25500000920E-02 0.  1.
</event>
<event>
 5   0  0.1291468E-06  0.2398763E+04  0.7818609E-02  0.8439967E-01
       -2   -1    0    0    0  501  0.00000000000E+00  0.00000000000E+00  0.12262389322E+04  0.12262389322E+04  0.25500000920E-02 0. -1.
        2   -1    0    0  501    0  0.00000000000E+00  0.00000000000E+00 -0.11731126234E+04  0.11731126234E+04  0.25500000920E-02 0.  1.
    10030    2    1    2    0    0  0.00000000000E+00  0.00000000000E+00  0.53126308809E+02  0.23993515556E+04  0.23987633236E+04 0.  0.
        4    1    3    3  502    0 -0.65801271975E+03 -0.99488903639E+03 -0.98886195132E+02  0.11968980853E+04  0.12699999809E+01 0. -1.
       -4    1    3    3    0  502  0.65801271975E+03  0.99488903639E+03  0.15201250394E+03  0.12024534703E+04  0.12699999809E+01 0.  1.
</event>
<event>
 5   0  0.1307477E-06  0.2400138E+04  0.7818609E-02  0.8439452E-01
        2   -1    0    0  501    0  0.00000000000E+00  0.00000000000E+00  0.13493438400E+04  0.13493438400E+04  0.25500000920E-02 0. -1.
       -2   -1    0    0    0  501  0.00000000000E+00  0.00000000000E+00 -0.10673084683E+04  0.10673084683E+04  0.25500000920E-02 0.  1.
    10030    2    1    2    0    0  0.00000000000E+00  0.00000000000E+00  0.28203537166E+03  0.24166523083E+04  0.24001384186E+04 0.  0.
        5    1    3    3  502    0 -0.22329695187E+03 -0.98879738787E+03 -0.50571171898E+03  0.11328496086E+04  0.46999998093E+01 0.  1.
       -5    1    3    3    0  502  0.22329695187E+03  0.98879738787E+03  0.78774709064E+03  0.12838026997E+04  0.46999998093E+01 0. -1.
</event>
<event>
 5   0  0.1275948E-06  0.2400532E+04  0.7818609E-02  0.8439305E-01
       -2   -1    0    0    0  501  0.00000000000E+00  0.00000000000E+00  0.56475467526E+03  0.56475467527E+03  0.25500000920E-02 0.  1.
        2   -1    0    0  501    0  0.00000000000E+00  0.00000000000E+00 -0.25509094578E+04  0.25509094578E+04  0.25500000920E-02 0. -1.
    10030    2    1    2    0    0  0.00000000000E+00  0.00000000000E+00 -0.19861547825E+04  0.31156641330E+04  0.24005316432E+04 0.  0.
        1    1    3    3  502    0 -0.87449933383E+03  0.80328981866E+03 -0.12201717007E+04  0.17025987774E+04  0.50400001928E-02 0. -1.
       -1    1    3    3    0  502  0.87449933383E+03 -0.80328981866E+03 -0.76598308179E+03  0.14130653556E+04  0.50400001928E-02 0.  1.
</event>
<event>
 5   0  0.1275948E-06  0.2397765E+04  0.7818609E-02  0.8440341E-01
       -2   -1    0    0    0  501  0.00000000000E+00  0.00000000000E+00  0.57205666770E+03  0.57205666771E+03  0.25500000920E-02 0.  1.
        2   -1    0    0  501    0  0.00000000000E+00  0.00000000000E+00 -0.25125479264E+04  0.25125479264E+04  0.25500000920E-02 0. -1.
    10030    2    1    2    0    0  0.00000000000E+00  0.00000000000E+00 -0.19404912587E+04  0.30846045941E+04  0.23977654549E+04 0.  0.
        1    1    3    3  502    0 -0.15341779201E+03 -0.10016552707E+04 -0.14604442439E+03  0.10238062679E+04  0.50400001928E-02 0.  1.
       -1    1    3    3    0  502  0.15341779201E+03  0.10016552707E+04 -0.17944468343E+04  0.20607983262E+04  0.50400001928E-02 0. -1.
</event>
<event>
 5   0  0.5527286E-07  0.2395707E+04  0.7818609E-02  0.8441113E-01
       -1   -1    0    0    0  501  0.00000000000E+00  0.00000000000E+00  0.12155612116E+04  0.12155612116E+04  0.50400001928E-02 0.  1.
        1   -1    0    0  501    0  0.00000000000E+00  0.00000000000E+00 -0.11804032985E+04  0.11804032986E+04  0.50400001928E-02 0. -1.
    10030    2    1    2    0    0  0.00000000000E+00  0.00000000000E+00  0.35157913026E+02  0.23959645101E+04  0.23957065461E+04 0.  0.
        1    1    3    3  502    0  0.69571945863E+03 -0.85059413522E+03  0.49440751289E+03  0.12049791437E+04  0.50400001928E-02 0.  1.
       -1    1    3    3    0  502 -0.69571945863E+03  0.85059413522E+03 -0.45924959987E+03  0.11909853664E+04  0.50400001928E-02 0. -1.
</event>
<event>
 5   0  0.5690124E-07  0.2400062E+04  0.7818609E-02  0.8439480E-01
       -1   -1    0    0    0  501  0.00000000000E+00  0.00000000000E+00  0.13970626554E+04  0.13970626554E+04  0.50400001928E-02 0. -1.
        1   -1    0    0  501    0  0.00000000000E+00  0.00000000000E+00 -0.10307873074E+04  0.10307873074E+04  0.50400001928E-02 0.  1.
    10030    2    1    2    0    0  0.00000000000E+00  0.00000000000E+00  0.36627534801E+03  0.24278499627E+04  0.24000620432E+04 0.  0.
        2    1    3    3  502    0 -0.55798598061E+03  0.10136795670E+04  0.50490827100E+03  0.12624686061E+04  0.25500000920E-02 0. -1.
       -2    1    3    3    0  502  0.55798598061E+03 -0.10136795670E+04 -0.13863292299E+03  0.11653813567E+04  0.25500000920E-02 0.  1.
</event>
<event>
 5   0  0.1275948E-06  0.2400628E+04  0.7818609E-02  0.8439269E-01
        2   -1    0    0  501    0  0.00000000000E+00  0.00000000000E+00  0.13924968846E+04  0.13924968846E+04  0.25500000920E-02 0.  1.
       -2   -1    0    0    0  501  0.00000000000E+00  0.00000000000E+00 -0.10346545630E+04  0.10346545630E+04  0.25500000920E-02 0. -1.
    10030    2    1    2    0    0  0.00000000000E+00  0.00000000000E+00  0.35784232168E+03  0.24271514476E+04  0.24006276309E+04 0.  0.
        1    1    3    3  502    0 -0.72875987026E+03  0.19044226192E+02 -0.78518660562E+03  0.10714343828E+04  0.50400001928E-02 0. -1.
       -1    1    3    3    0  502  0.72875987026E+03 -0.19044226192E+02  0.11430289273E+04  0.13557170648E+04  0.50400001928E-02 0.  1.
</event>
<event>
 5   0  0.5452384E-07  0.2399174E+04  0.7818609E-02  0.8439813E-01
        1   -1    0    0  501    0  0.00000000000E+00  0.00000000000E+00  0.16185691331E+04  0.16185691331E+04  0.50400001928E-02 0. -1.
       -1   -1    0    0    0  501  0.00000000000E+00  0.00000000000E+00 -0.88906215942E+03  0.88906215943E+03  0.50400001928E-02 0.  1.
    10030    2    1    2    0    0  0.00000000000E+00  0.00000000000E+00  0.72950697370E+03  0.25076312926E+04  0.23991736650E+04 0.  0.
        5    1    3    3  502    0 -0.42882633355E+03  0.93780489601E+03 -0.27582785696E+03  0.10674610738E+04  0.46999998093E+01 0.  1.
       -5    1    3    3    0  502  0.42882633355E+03 -0.93780489601E+03  0.10053348307E+04  0.14401702188E+04  0.46999998093E+01 0. -1.
</event>
<event>
 5   0  0.1307477E-06  0.2400051E+04  0.7818609E-02  0.8439484E-01
        2   -1    0    0  501    0  0.00000000000E+00  0.00000000000E+00  0.23970104669E+04  0.23970104669E+04  0.25500000920E-02 0. -1.
       -2   -1    0    0    0  501  0.00000000000E+00  0.00000000000E+00 -0.60077387814E+03  0.60077387815E+03  0.25500000920E-02 0.  1.
    10030    2    1    2    0    0  0.00000000000E+00  0.00000000000E+00  0.17962365887E+04  0.29977843450E+04  0.24000510612E+04 0.  0.
        5    1    3    3  502    0 -0.10262758604E+04  0.43623808081E+03  0.34444462977E+03  0.11671375230E+04  0.46999998093E+01 0. -1.
       -5    1    3    3    0  502  0.10262758604E+04 -0.43623808081E+03  0.14517919589E+04  0.18306468220E+04  0.46999998093E+01 0.  1.
</event>
<event>
 5   0  0.5510176E-07  0.2401566E+04  0.7818609E-02  0.8438918E-01
       -1   -1    0    0    0  501  0.00000000000E+00  0.00000000000E+00  0.24036956512E+04  0.24036956512E+04  0.50400001928E-02 0.  1.
        1   -1    0    0  501    0  0.00000000000E+00  0.00000000000E+00 -0.59985945695E+03  0.59985945697E+03  0.50400001928E-02 0. -1.
    10030    2    1    2    0    0  0.00000000000E+00  0.00000000000E+00  0.18038361943E+04  0.30035551082E+04  0.24015657959E+04 0.  0.
        3    1    3    3  502    0  0.11308007142E+04  0.39066761870E+03  0.77346974724E+03  0.14246357091E+04  0.10100000352E+00 0. -1.
       -3    1    3    3    0  502 -0.11308007142E+04 -0.39066761870E+03  0.10303664470E+04  0.15789193991E+04  0.10100000352E+00 0.  1.
</event>
<event>
 5   0  0.1336057E-06  0.2400157E+04  0.7818609E-02  0.8439445E-01
       -2   -1    0    0    0  501  0.00000000000E+00  0.00000000000E+00  0.11480170618E+04  0.11480170618E+04  0.25500000920E-02 0.  1.
        2   -1    0    0  501    0  0.00000000000E+00  0.00000000000E+00 -0.12545009726E+04  0.12545009726E+04  0.25500000920E-02 0. -1.
    10030    2    1    2    0    0  0.00000000000E+00  0.00000000000E+00 -0.10648391081E+03  0.24025180344E+04  0.24001570954E+04 0.  0.
        2    1    3    3  502    0  0.14616745480E+03 -0.79758646161E+03 -0.93880390726E+03  0.12405087121E+04  0.25500000920E-02 0. -1.
       -2    1    3    3    0  502 -0.14616745480E+03  0.79758646161E+03  0.83231999645E+03  0.11620093223E+04  0.25500000920E-02 0.  1.
</event>
<event>
 5   0  0.5363690E-07  0.2399886E+04  0.7818609E-02  0.8439546E-01
       -1   -1    0    0    0  501  0.00000000000E+00  0.00000000000E+00  0.99428434085E+03  0.99428434086E+03  0.50400001928E-02 0.  1.
        1   -1    0    0  501    0  0.00000000000E+00  0.00000000000E+00 -0.14481401898E+04  0.14481401899E+04  0.50400001928E-02 0. -1.
    10030    2    1    2    0    0  0.00000000000E+00  0.00000000000E+00 -0.45385584900E+03  0.24424245307E+04  0.23998859257E+04 0.  0.
        4    1    3    3  502    0  0.51450917905E+03 -0.41674009946E+03 -0.12454006825E+04  0.14104667592E+04  0.12699999809E+01 0. -1.
       -4    1    3    3    0  502 -0.51450917905E+03  0.41674009946E+03  0.79154483353E+03  0.10319577715E+04  0.12699999809E+01 0.  1.
</event>
<event>
 5   0  0.5452384E-07  0.2400084E+04  0.7818609E-02  0.8439472E-01
       -1   -1    0    0    0  501  0.00000000000E+00  0.00000000000E+00  0.69520065169E+03  0.69520065171E+03  0.50400001928E-02 0.  1.
        1   -1    0    0  501    0  0.00000000000E+00  0.00000000000E+00 -0.20714900535E+04  0.20714900535E+04  0.50400001928E-02 0. -1.
    10030    2    1    2    0    0  0.00000000000E+00  0.00000000000E+00 -0.13762894019E+04  0.27666907053E+04  0.24000843612E+04 0.  0.
        5    1    3    3  502    0 -0.76457872657E+03 -0.29310129540E+03 -0.16994070855E+04  0.18863975007E+04  0.46999998093E+01 0. -1.
       -5    1    3    3    0  502  0.76457872657E+03  0.29310129540E+03  0.32311768364E+03  0.88029320455E+03  0.46999998093E+01 0.  1.
</event>
<event>
 5   0  0.5527286E-07  0.2400977E+04  0.7818609E-02  0.8439138E-01
        1   -1    0    0  501    0  0.00000000000E+00  0.00000000000E+00  0.21419738763E+04  0.21419738763E+04  0.50400001928E-02 0. -1.
       -1   -1    0    0    0  501  0.00000000000E+00  0.00000000000E+00 -0.67282463918E+03  0.67282463920E+03  0.50400001928E-02 0.  1.
    10030    2    1    2    0    0  0.00000000000E+00  0.00000000000E+00  0.14691492372E+04  0.28147985155E+04  0.24009771348E+04 0.  0.
        1    1    3    3  502    0 -0.90365063281E+03 -0.70335009877E+03  0.31205966233E+03  0.11868728072E+04  0.50400001928E-02 0.  1.
       -1    1    3    3    0  502  0.90365063281E+03  0.70335009877E+03  0.11570895748E+04  0.16279257083E+04  0.50400001928E-02 0. -1.
</event>
<event>
 5   0  0.5690124E-07  0.2399231E+04  0.7818609E-02  0.8439791E-01
       -1   -1    0    0    0  501  0.00000000000E+00  0.00000000000E+00  0.94918537626E+03  0.94918537627E+03  0.50400001928E-02 0. -1.
        1   -1    0    0  501    0  0.00000000000E+00  0.00000000000E+00 -0.15161184117E+04  0.15161184117E+04  0.50400001928E-02 0.  1.
    10030    2    1    2    0    0  0.00000000000E+00  0.00000000000E+00 -0.56693303545E+03  0.24653037880E+04  0.23992310644E+04 0.  0.
        2    1    3    3  502    0  0.73564574956E+03 -0.77465121175E+03  0.27728960661E+03  0.11036977370E+04  0.25500000920E-02 0. -1.
       -2    1    3    3    0  502 -0.73564574956E+03  0.77465121175E+03 -0.84422264206E+03  0.13616060510E+04  0.25500000920E-02 0.  1.
</event>
<event>
 5   0  0.1308662E-06  0.2399935E+04  0.7818609E-02  0.8439528E-01
       -2   -1    0    0    0  501  0.00000000000E+00  0.00000000000E+00  0.72960063527E+03  0.72960063527E+03  0.25500000920E-02 0.  1.
        2   -1    0    0  501    0  0.00000000000E+00  0.00000000000E+00 -0.19735762976E+04  0.19735762976E+04  0.25500000920E-02 0. -1.
    10030    2    1    2    0    0  0.00000000000E+00  0.00000000000E+00 -0.12439756624E+04  0.27031769329E+04  0.23999354329E+04 0.  0.
        3    1    3    3  502    0  0.49808228990E+03  0.80557107580E+03 -0.14518988865E+04  0.17335054406E+04  0.10100000352E+00 0. -1.
       -3    1    3    3    0  502 -0.49808228990E+03 -0.80557107580E+03  0.20792322415E+03  0.96967149232E+03  0.10100000352E+00 0.  1.
</event>
<event>
 5   0  0.1275948E-06  0.2399232E+04  0.7818609E-02  0.8439791E-01
        2   -1    0    0  501    0  0.00000000000E+00  0.00000000000E+00  0.18862075664E+04  0.18862075664E+04  0.25500000920E-02 0. -1.
       -2   -1    0    0    0  501  0.00000000000E+00  0.00000000000E+00 -0.76294844387E+03  0.76294844387E+03  0.25500000920E-02 0.  1.
    10030    2    1    2    0    0  0.00000000000E+00  0.00000000000E+00  0.11232591225E+04  0.26491560103E+04  0.23992324836E+04 0.  0.
        1    1    3    3  502    0 -0.26951114272E+03  0.26761741875E+03 -0.69480691744E+03  0.79184088769E+03  0.50400001928E-02 0.  1.
       -1    1    3    3    0  502  0.26951114272E+03 -0.26761741875E+03  0.18180660400E+04  0.18573151226E+04  0.50400001928E-02 0. -1.
</event>
<event>
 5   0  0.5690124E-07  0.2400256E+04  0.7818609E-02  0.8439408E-01
       -1   -1    0    0    0  501  0.00000000000E+00  0.00000000000E+00  0.72502752778E+03  0.72502752780E+03  0.50400001928E-02 0. -1.
        1   -1    0    0  501    0  0.00000000000E+00  0.00000000000E+00 -0.19865552225E+04  0.19865552225E+04  0.50400001928E-02 0.  1.
    10030    2    1    2    0    0  0.00000000000E+00  0.00000000000E+00 -0.12615276947E+04  0.27115827503E+04  0.24002560045E+04 0.  0.
        2    1    3    3  502    0 -0.45162066073E+02  0.32331790470E+03 -0.19354311228E+04  0.19627704172E+04  0.25500000920E-02 0.  1.
       -2    1    3    3    0  502  0.45162066073E+02 -0.32331790470E+03  0.67390342809E+03  0.74881233304E+03  0.25500000920E-02 0. -1.
</event>
<event>
 5   0  0.5363690E-07  0.2399559E+04  0.7818609E-02  0.8439669E-01
       -1   -1    0    0    0  501  0.00000000000E+00  0.00000000000E+00  0.13220466711E+04  0.13220466711E+04  0.50400001928E-02 0. -1.
        1   -1    0    0  501    0  0.00000000000E+00  0.00000000000E+00 -0.10888202025E+04  0.10888202026E+04  0.50400001928E-02 0.  1.
    10030    2    1    2    0    0  0.00000000000E+00  0.00000000000E+00  0.23322646854E+03  0.24108668737E+04  0.23995592297E+04 0.  0.
        4    1    3    3  502    0  0.10160617847E+04 -0.24824503189E+03 -0.47391698433E+03  0.11483057377E+04  0.12699999809E+01 0.  1.
       -4    1    3    3    0  502 -0.10160617847E+04  0.24824503189E+03  0.70714345286E+03  0.12625611360E+04  0.12699999809E+01 0. -1.
</event>
<event>
 5   0  0.5510176E-07  0.2398898E+04  0.7818609E-02  0.8439916E-01
       -1   -1    0    0    0  501  0.00000000000E+00  0.00000000000E+00  0.14882562923E+04  0.14882562923E+04  0.50400001928E-02 0. -1.
        1   -1    0    0  501    0  0.00000000000E+00  0.00000000000E+00 -0.96668668816E+03  0.96668668817E+03  0.50400001928E-02 0.  1.
    10030    2    1    2    0    0  0.00000000000E+00  0.00000000000E+00  0.52156960410E+03  0.24549429804E+04  0.23988977021E+04 0.  0.
        3    1    3    3  502    0 -0.43966858787E+03  0.44938906040E+03  0.13061281403E+04  0.14495619076E+04  0.10100000352E+00 0. -1.
       -3    1    3    3    0  502  0.43966858787E+03 -0.44938906040E+03 -0.78455853620E+03  0.10053810729E+04  0.10100000352E+00 0.  1.
</event>
<event>
 5   0  0.5363690E-07  0.2399600E+04  0.7818609E-02  0.8439653E-01
        1   -1    0    0  501    0  0.00000000000E+00  0.00000000000E+00  0.75438426864E+03  0.75438426865E+03  0.50400001928E-02 0.  1.
       -1   -1    0    0    0  501  0.00000000000E+00  0.00000000000E+00 -0.19082059324E+04  0.19082059324E+04  0.50400001928E-02 0. -1.
    10030    2    1    2    0    0  0.00000000000E+00  0.00000000000E+00 -0.11538216638E+04  0.26625902011E+04  0.23996004140E+04 0.  0.
        4    1    3    3  502    0  0.17037759949E+03 -0.11248183296E+04 -0.99983210615E+03  0.15145661605E+04  0.12699999809E+01 0. -1.
       -4    1    3    3    0  502 -0.17037759949E+03  0.11248183296E+04 -0.15398955761E+03  0.11480240406E+04  0.12699999809E+01 0.  1.
</event>
<event>
 5   0  0.1336057E-06  0.2400063E+04  0.7818609E-02  0.8439480E-01
        2   -1    0    0  501    0  0.00000000000E+00  0.00000000000E+00  0.11488060622E+04  0.11488060622E+04  0.25500000920E-02 0.  1.
       -2   -1    0    0    0  501  0.00000000000E+00  0.00000000000E+00 -0.12535407146E+04  0.12535407146E+04  0.25500000920E-02 0. -1.
    10030    2    1    2    0    0  0.00000000000E+00  0.00000000000E+00 -0.10473465240E+03  0.24023467767E+04  0.24000626426E+04 0.  0.
        2    1    3    3  502    0 -0.82599852502E+03 -0.55174226167E+03  0.62161001871E+03  0.11717901271E+04  0.25500000920E-02 0.  1.
       -2    1    3    3    0  502  0.82599852502E+03  0.55174226167E+03 -0.72634467112E+03  0.12305566496E+04  0.25500000920E-02 0. -1.
</event>
<event>
 5   0  0.1275948E-06  0.2400556E+04  0.7818609E-02  0.8439296E-01
       -2   -1    0    0    0  501  0.00000000000E+00  0.00000000000E+00  0.11343550904E+04  0.11343550904E+04  0.25500000920E-02 0.  1.
        2   -1    0    0  501    0  0.00000000000E+00  0.00000000000E+00 -0.12700317429E+04  0.12700317429E+04  0.25500000920E-02 0. -1.
    10030    2    1    2    0    0  0.00000000000E+00  0.00000000000E+00 -0.13567665248E+03  0.24043868334E+04  0.24005557462E+04 0.  0.
        1    1    3    3  502    0  0.23652202088E+03  0.80308818729E+03 -0.92931194061E+03  0.12508053349E+04  0.50400001928E-02 0. -1.
       -1    1    3    3    0  502 -0.23652202088E+03 -0.80308818729E+03  0.79363528813E+03  0.11535814984E+04  0.50400001928E-02 0.  1.
</event>
<event>
 5   0  0.5527286E-07  0.2399572E+04  0.7818609E-02  0.8439664E-01
       -1   -1    0    0    0  501  0.00000000000E+00  0.00000000000E+00  0.50786167698E+03  0.50786167701E+03  0.50400001928E-02 0. -1.
        1   -1    0    0  501    0  0.00000000000E+00  0.00000000000E+00 -0.28344061588E+04  0.28344061588E+04  0.50400001928E-02 0.  1.
    10030    2    1    2    0    0  0.00000000000E+00  0.00000000000E+00 -0.23265444818E+04  0.33422678358E+04  0.23995718494E+04 0.  0.
        1    1    3    3  502    0 -0.10115432478E+04  0.48178587873E+03 -0.56556014612E+03  0.12550679878E+04  0.50400001928E-02 0. -1.
       -1    1    3    3    0  502  0.10115432478E+04 -0.48178587873E+03 -0.17609843356E+04  0.20871998480E+04  0.50400001928E-02 0.  1.
</event>
<event>
 5   0  0.1336057E-06  0.2400576E+04  0.7818609E-02  0.8439288E-01
       -2   -1    0    0    0  501  0.00000000000E+00  0.00000000000E+00  0.73133922968E+03  0.73133922968E+03  0.25500000920E-02 0.  1.
        2   -1    0    0  501    0  0.00000000000E+00  0.00000000000E+00 -0.19699351900E+04  0.19699351900E+04  0.25500000920E-02 0. -1.
    10030    2    1    2    0    0  0.00000000000E+00  0.00000000000E+00 -0.12385959603E+04  0.27012744197E+04  0.24005756679E+04 0.  0.
        2    1    3    3  502    0  0.25450270577E+03  0.24646671304E+03  0.67116282127E+03  0.75893148607E+03  0.25500000920E-02 0.  1.
       -2    1    3    3    0  502 -0.25450270577E+03 -0.24646671304E+03 -0.19097587816E+04  0.19423429336E+04  0.25500000920E-02 0. -1.
</event>
<event>
 5   0  0.5510176E-07  0.2401294E+04  0.7818609E-02  0.8439019E-01
        1   -1    0    0  501    0  0.00000000000E+00  0.00000000000E+00  0.10980589088E+04  0.10980589088E+04  0.50400001928E-02 0. -1.
       -1   -1    0    0    0  501  0.00000000000E+00  0.00000000000E+00 -0.13128193260E+04  0.13128193260E+04  0.50400001928E-02 0.  1.
    10030    2    1    2    0    0  0.00000000000E+00  0.00000000000E+00 -0.21476041728E+03  0.24108782348E+04  0.24012937818E+04 0.  0.
        3    1    3    3  502    0  0.10237630122E+04 -0.38278195137E+03 -0.60629444253E+03  0.12498822699E+04  0.10100000352E+00 0. -1.
       -3    1    3    3    0  502 -0.10237630122E+04  0.38278195137E+03  0.39153402526E+03  0.11609959649E+04  0.10100000352E+00 0.  1.
</event>
<event>
 5   0  0.1275948E-06  0.2400112E+04  0.7818609E-02  0.8439461E-01
       -2   -1    0    0    0  501  0.00000000000E+00  0.00000000000E+00  0.65064325195E+03  0.65064325195E+03  0.25500000920E-02 0.  1.
        2   -1    0    0  501    0  0.00000000000E+00  0.00000000000E+00 -0.22134017404E+04  0.22134017404E+04  0.25500000920E-02 0. -1.
    10030    2    1    2    0    0  0.00000000000E+00  0.00000000000E+00 -0.15627584884E+04  0.28640449923E+04  0.24001124192E+04 0.  0.
        1    1    3    3  502    0 -0.10220226357E+04 -0.19497387352E+03 -0.67802266907E+02  0.10426611274E+04  0.50400001928E-02 0.  1.
       -1    1    3    3    0  502  0.10220226357E+04  0.19497387352E+03 -0.14949562215E+04  0.18213838649E+04  0.50400001928E-02 0. -1.
</event>
<event>
 5   0  0.5510176E-07  0.2399910E+04  0.7818609E-02  0.8439537E-01
       -1   -1    0    0    0  501  0.00000000000E+00  0.00000000000E+00  0.80967038429E+03  0.80967038430E+03  0.50400001928E-02 0. -1.
        1   -1    0    0  501    0  0.00000000000E+00  0.00000000000E+00 -0.17783681260E+04  0.17783681261E+04  0.50400001928E-02 0.  1.
    10030    2    1    2    0    0  0.00000000000E+00  0.00000000000E+00 -0.96869774176E+03  0.25880385104E+04  0.23999100017E+04 0.  0.
        3    1    3    3  502    0  0.46140272284E+03 -0.55333050559E+03  0.55046990398E+03  0.90668861604E+03  0.10100000352E+00 0. -1.
       -3    1    3    3    0  502 -0.46140272284E+03  0.55333050559E+03 -0.15191676457E+04  0.16813498943E+04  0.10100000352E+00 0.  1.
</event>
<event>
 5   0  0.1307477E-06  0.2399866E+04  0.7818609E-02  0.8439554E-01
       -2   -1    0    0    0  501  0.00000000000E+00  0.00000000000E+00  0.89757181528E+03  0.89757181528E+03  0.25500000920E-02 0.  1.
        2   -1    0    0  501    0  0.00000000000E+00  0.00000000000E+00 -0.16041488493E+04  0.16041488493E+04  0.25500000920E-02 0. -1.
    10030    2    1    2    0    0  0.00000000000E+00  0.00000000000E+00 -0.70657703404E+03  0.25017206646E+04  0.23998656585E+04 0.  0.
        5    1    3    3  502    0  0.25569076288E+03 -0.10606157564E+04  0.16744557833E+03  0.11037860575E+04  0.46999998093E+01 0.  1.
       -5    1    3    3    0  502 -0.25569076288E+03  0.10606157564E+04 -0.87402261237E+03  0.13979346071E+04  0.46999998093E+01 0. -1.
</event>
<event>
 5   0  0.1275948E-06  0.2400158E+04  0.7818609E-02  0.8439445E-01
       -2   -1    0    0    0  501  0.00000000000E+00  0.00000000000E+00  0.11473031326E+04  0.11473031326E+04  0.25500000920E-02 0.  1.
        2   -1    0    0  501    0  0.00000000000E+00  0.00000000000E+00 -0.12552822709E+04  0.12552822709E+04  0.25500000920E-02 0. -1.
    10030    2    1    2    0    0  0.00000000000E+00  0.00000000000E+00 -0.10797913832E+03  0.24025854035E+04  0.24001577296E+04 0.  0.
        1    1    3    3  502    0  0.96022644723E+03  0.13811200022E+03 -0.76115973254E+03  0.12330749746E+04  0.50400001928E-02 0. -1.
       -1    1    3    3    0  502 -0.96022644723E+03 -0.13811200022E+03  0.65318059422E+03  0.11695104289E+04  0.50400001928E-02 0.  1.
</event>
<event>
 5   0  0.5690124E-07  0.2400174E+04  0.7818609E-02  0.8439438E-01
       -1   -1    0    0    0  501  0.00000000000E+00  0.00000000000E+00  0.96754058134E+03  0.96754058135E+03  0.50400001928E-02 0. -1.
        1   -1    0    0  501    0  0.00000000000E+00  0.00000000000E+00 -0.14885255984E+04  0.14885255984E+04  0.50400001928E-02 0.  1.
    10030    2    1    2    0    0  0.00000000000E+00  0.00000000000E+00 -0.52098501710E+03  0.24560661798E+04  0.24001740961E+04 0.  0.
        2    1    3    3  502    0 -0.71990872962E+03 -0.71602410372E+03 -0.91511597982E+03  0.13668929558E+04  0.25500000920E-02 0.  1.
       -2    1    3    3    0  502  0.71990872962E+03  0.71602410372E+03  0.39413096272E+03  0.10891732240E+04  0.25500000920E-02 0. -1.
</event>
<event>
 5   0  0.1336057E-06  0.2401382E+04  0.7818609E-02  0.8438986E-01
       -2   -1    0    0    0  501  0.00000000000E+00  0.00000000000E+00  0.13767486752E+04  0.13767486752E+04  0.25500000920E-02 0. -1.
        2   -1    0    0  501    0  0.00000000000E+00  0.00000000000E+00 -0.10471471972E+04  0.10471471972E+04  0.25500000920E-02 0.  1.
    10030    2    1    2    0    0  0.00000000000E+00  0.00000000000E+00  0.32960147802E+03  0.24238958725E+04  0.24013816994E+04 0.  0.
        2    1    3    3  502    0 -0.11991584808E+03  0.70195567318E+03  0.11405786859E+04  0.13446342687E+04  0.25500000920E-02 0. -1.
       -2    1    3    3    0  502  0.11991584808E+03 -0.70195567318E+03 -0.81097720788E+03  0.10792616038E+04  0.25500000920E-02 0.  1.
</event>
<event>
 5   0  0.1275948E-06  0.2399272E+04  0.7818609E-02  0.8439776E-01
        2   -1    0    0  501    0  0.00000000000E+00  0.00000000000E+00  0.19390244022E+04  0.19390244022E+04  0.25500000920E-02 0. -1.
       -2   -1    0    0    0  501  0.00000000000E+00  0.00000000000E+00 -0.74219074913E+03  0.74219074913E+03  0.25500000920E-02 0.  1.
    10030    2    1    2    0    0  0.00000000000E+00  0.00000000000E+00  0.11968336530E+04  0.26812151513E+04  0.23992715341E+04 0.  0.
        1    1    3    3  502    0  0.34808213221E+01 -0.51436891556E+03 -0.61269958055E+03  0.79999267087E+03  0.50400001928E-02 0.  1.
       -1    1    3    3    0  502 -0.34808213221E+01  0.51436891556E+03  0.18095332336E+04  0.18812224804E+04  0.50400001928E-02 0. -1.
</event>
<event>
 5   0  0.5690124E-07  0.2400205E+04  0.7818609E-02  0.8439427E-01
       -1   -1    0    0    0  501  0.00000000000E+00  0.00000000000E+00  0.12012575701E+04  0.12012575701E+04  0.50400001928E-02 0. -1.
        1   -1    0    0  501    0  0.00000000000E+00  0.00000000000E+00 -0.11989480531E+04  0.11989480532E+04  0.50400001928E-02 0.  1.
    10030    2    1    2    0    0  0.00000000000E+00  0.00000000000E+00  0.23095169927E+01  0.24002056233E+04  0.24002045122E+04 0.  0.
        2    1    3    3  502    0  0.40780565447E+02 -0.71405266232E+03  0.96485181973E+03  0.12010300967E+04  0.25500000920E-02 0. -1.
       -2    1    3    3    0  502 -0.40780565447E+02  0.71405266232E+03 -0.96254230274E+03  0.11991755266E+04  0.25500000920E-02 0.  1.
</event>
<event>
 5   0  0.5363690E-07  0.2402114E+04  0.7818609E-02  0.8438713E-01
       -1   -1    0    0    0  501  0.00000000000E+00  0.00000000000E+00  0.18523397203E+04  0.18523397203E+04  0.50400001928E-02 0.  1.
        1   -1    0    0  501    0  0.00000000000E+00  0.00000000000E+00 -0.77876501419E+03  0.77876501420E+03  0.50400001928E-02 0. -1.
    10030    2    1    2    0    0  0.00000000000E+00  0.00000000000E+00  0.10735747061E+04  0.26311047345E+04  0.24021135432E+04 0.  0.
        4    1    3    3  502    0 -0.36321015105E+03  0.58301375037E+03  0.16159555960E+04  0.17558874531E+04  0.12699999809E+01 0.  1.
       -4    1    3    3    0  502  0.36321015105E+03 -0.58301375037E+03 -0.54238088990E+03  0.87521728135E+03  0.12699999809E+01 0. -1.
</event>
<event>
 5   0  0.1307477E-06  0.2401978E+04  0.7818609E-02  0.8438763E-01
       -2   -1    0    0    0  501  0.00000000000E+00  0.00000000000E+00  0.54484496694E+03  0.54484496695E+03  0.25500000920E-02 0.  1.
        2   -1    0    0  501    0  0.00000000000E+00  0.00000000000E+00 -0.26473114840E+04  0.26473114840E+04  0.25500000920E-02 0. -1.
    10030    2    1    2    0    0  0.00000000000E+00  0.00000000000E+00 -0.21024665171E+04  0.31921564510E+04  0.24019778001E+04 0.  0.
        5    1    3    3  502    0 -0.34668440758E+03 -0.10763745105E+04 -0.51373087940E+03  0.12420602529E+04  0.46999998093E+01 0.  1.
       -5    1    3    3    0  502  0.34668440758E+03  0.10763745105E+04 -0.15887356377E+04  0.19500961981E+04  0.46999998093E+01 0. -1.
</event>
<event>
 5   0  0.5510176E-07  0.2401951E+04  0.7818609E-02  0.8438773E-01
        1   -1    0    0  501    0  0.00000000000E+00  0.00000000000E+00  0.97383112571E+03  0.97383112572E+03  0.50400001928E-02 0.  1.
       -1   -1    0    0    0  501  0.00000000000E+00  0.00000000000E+00 -0.14811010961E+04  0.14811010961E+04  0.50400001928E-02 0. -1.
    10030    2    1    2    0    0  0.00000000000E+00  0.00000000000E+00 -0.50726997041E+03  0.24549322218E+04  0.24019511633E+04 0.  0.
        3    1    3    3  502    0 -0.67906906086E+03  0.48094887890E+03  0.63143124755E+03  0.10445822343E+04  0.10100000352E+00 0.  1.
       -3    1    3    3    0  502  0.67906906086E+03 -0.48094887890E+03 -0.11387012180E+04  0.14103499876E+04  0.10100000352E+00 0. -1.
</event>
<event>
 5   0  0.5510176E-07  0.2400992E+04  0.7818609E-02  0.8439132E-01
       -1   -1    0    0    0  501  0.00000000000E+00  0.00000000000E+00  0.12924866802E+04  0.12924866802E+04  0.50400001928E-02 0.  1.
        1   -1    0    0  501    0  0.00000000000E+00  0.00000000000E+00 -0.11150525061E+04  0.11150525061E+04  0.50400001928E-02 0. -1.
    10030    2    1    2    0    0  0.00000000000E+00  0.00000000000E+00  0.17743417409E+03  0.24075391864E+04  0.24009918883E+04 0.  0.
        3    1    3    3  502    0 -0.18438782738E+03 -0.11145657012E+04 -0.31851218724E+03  0.11737570433E+04  0.10100000352E+00 0. -1.
       -3    1    3    3    0  502  0.18438782738E+03  0.11145657012E+04  0.49594636133E+03  0.12337821431E+04  0.10100000352E+00 0.  1.
</event>
<event>
 5   0  0.1308662E-06  0.2399776E+04  0.7818609E-02  0.8439587E-01
       -2   -1    0    0    0  501  0.00000000000E+00  0.00000000000E+00  0.15899336323E+04  0.15899336323E+04  0.25500000920E-02 0.  1.
        2   -1    0    0  501    0  0.00000000000E+00  0.00000000000E+00 -0.90552906246E+03  0.90552906247E+03  0.25500000920E-02 0. -1.
    10030    2    1    2    0    0  0.00000000000E+00  0.00000000000E+00  0.68440456984E+03  0.24954626948E+04  0.23997759157E+04 0.  0.
        3    1    3    3  502    0  0.31940649888E+03  0.11910277941E+03  0.15385198664E+04  0.15758329141E+04  0.10100000352E+00 0.  1.
       -3    1    3    3    0  502 -0.31940649888E+03 -0.11910277941E+03 -0.85411529654E+03  0.91962978071E+03  0.10100000352E+00 0. -1.
</event>
<event>
 5   0  0.1307477E-06  0.2399853E+04  0.7818609E-02  0.8439558E-01
        2   -1    0    0  501    0  0.00000000000E+00  0.00000000000E+00  0.19482386477E+04  0.19482386477E+04  0.25500000920E-02 0.  1.
       -2   -1    0    0    0  501  0.00000000000E+00  0.00000000000E+00 -0.73903884213E+03  0.73903884214E+03  0.25500000920E-02 0. -1.
    10030    2    1    2    0    0  0.00000000000E+00  0.00000000000E+00  0.12091998056E+04  0.26872774898E+04  0.23998533575E+04 0.  0.
        5    1    3    3  502    0  0.23893015586E+02 -0.81260031878E+03 -0.38366175939E+03  0.89894860247E+03  0.46999998093E+01 0. -1.
       -5    1    3    3    0  502 -0.23893015586E+02  0.81260031878E+03  0.15928615649E+04  0.17883288874E+04  0.46999998093E+01 0.  1.
</event>
<event>
 5   0  0.5452384E-07  0.2400061E+04  0.7818609E-02  0.8439481E-01
       -1   -1    0    0    0  501  0.00000000000E+00  0.00000000000E+00  0.65207038577E+03  0.65207038579E+03  0.50400001928E-02 0.  1.
        1   -1    0    0  501    0  0.00000000000E+00  0.00000000000E+00 -0.22084633806E+04  0.22084633806E+04  0.50400001928E-02 0. -1.
    10030    2    1    2    0    0  0.00000000000E+00  0.00000000000E+00 -0.15563929948E+04  0.28605337664E+04  0.24000613064E+04 0.  0.
        5    1    3    3  502    0 -0.89577356296E+03  0.78504617595E+03 -0.95232089989E+03  0.15250065445E+04  0.46999998093E+01 0. -1.
       -5    1    3    3    0  502  0.89577356296E+03 -0.78504617595E+03 -0.60407209493E+03  0.13355272219E+04  0.46999998093E+01 0.  1.
</event>
<event>
 5   0  0.5690124E-07  0.2399226E+04  0.7818609E-02  0.8439794E-01
        1   -1    0    0  501    0  0.00000000000E+00  0.00000000000E+00  0.18697890503E+04  0.18697890503E+04  0.50400001928E-02 0. -1.
       -1   -1    0    0    0  501  0.00000000000E+00  0.00000000000E+00 -0.76964337584E+03  0.76964337586E+03  0.50400001928E-02 0.  1.
    10030    2    1    2    0    0  0.00000000000E+00  0.00000000000E+00  0.11001456744E+04  0.26394324261E+04  0.23992255057E+04 0.  0.
        2    1    3    3  502    0 -0.95513210551E+02 -0.88317889107E+03  0.14369778784E+04  0.16893883952E+04  0.25500000920E-02 0. -1.
       -2    1    3    3    0  502  0.95513210551E+02  0.88317889107E+03 -0.33683220395E+03  0.95004403089E+03  0.25500000920E-02 0.  1.
</event>
<event>
 5   0  0.1291468E-06  0.2400345E+04  0.7818609E-02  0.8439374E-01
        2   -1    0    0  501    0  0.00000000000E+00  0.00000000000E+00  0.16509016744E+04  0.16509016744E+04  0.25500000920E-02 0.  1.
       -2   -1    0    0    0  501  0.00000000000E+00  0.00000000000E+00 -0.87250159095E+03  0.87250159095E+03  0.25500000920E-02 0. -1.
    10030    2    1    2    0    0  0.00000000000E+00  0.00000000000E+00  0.77840008348E+03  0.25234032654E+04  0.24003452564E+04 0.  0.
        4    1    3    3  502    0  0.40208104759E+03  0.94861086418E+03 -0.25788945652E+03  0.10620924278E+04  0.12699999809E+01 0. -1.
       -4    1    3    3    0  502 -0.40208104759E+03 -0.94861086418E+03  0.10362895400E+04  0.14613108376E+04  0.12699999809E+01 0.  1.
</event>
<event>
 5   0  0.1307477E-06  0.2400301E+04  0.7818609E-02  0.8439391E-01
       -2   -1    0    0    0  501  0.00000000000E+00  0.00000000000E+00  0.85058938269E+03  0.85058938269E+03  0.25500000920E-02 0.  1.
        2   -1    0    0  501    0  0.00000000000E+00  0.00000000000E+00 -0.16933685458E+04  0.16933685458E+04  0.25500000920E-02 0. -1.
    10030    2    1    2    0    0  0.00000000000E+00  0.00000000000E+00 -0.84277916310E+03  0.25439579285E+04  0.24003010695E+04 0.  0.
        5    1    3    3  502    0  0.87822690250E+02  0.98379706271E+03 -0.11439316265E+04  0.15113474590E+04  0.46999998093E+01 0. -1.
       -5    1    3    3    0  502 -0.87822690250E+02 -0.98379706271E+03  0.30115246343E+03  0.10326104695E+04  0.46999998093E+01 0.  1.
</event>
<event>
 5   0  0.5527286E-07  0.2400115E+04  0.7818609E-02  0.8439461E-01
       -1   -1    0    0    0  501  0.00000000000E+00  0.00000000000E+00  0.79844361822E+03  0.79844361824E+03  0.50400001928E-02 0. -1.
        1   -1    0    0  501    0  0.00000000000E+00  0.00000000000E+00 -0.18036812665E+04  0.18036812665E+04  0.50400001928E-02 0.  1.
    10030    2    1    2    0    0  0.00000000000E+00  0.00000000000E+00 -0.10052376482E+04  0.26021248847E+04  0.24001148277E+04 0.  0.
        1    1    3    3  502    0 -0.10150839281E+04 -0.62103888202E+03 -0.33447464111E+03  0.12361059662E+04  0.50400001928E-02 0.  1.
       -1    1    3    3    0  502  0.10150839281E+04  0.62103888202E+03 -0.67076300712E+03  0.13660189185E+04  0.50400001928E-02 0. -1.
</event>
<event>
 5   0  0.1336057E-06  0.2400341E+04  0.7818609E-02  0.8439376E-01
       -2   -1    0    0    0  501  0.00000000000E+00  0.00000000000E+00  0.10972402520E+04  0.10972402520E+04  0.25500000920E-02 0. -1.
        2   -1    0    0  501    0  0.00000000000E+00  0.00000000000E+00 -0.13127560710E+04  0.13127560710E+04  0.25500000920E-02 0.  1.
    10030    2    1    2    0    0  0.00000000000E+00  0.00000000000E+00 -0.21551581900E+03  0.24099963229E+04  0.24003406442E+04 0.  0.
        2    1    3    3  502    0  0.10683294085E+04  0.47951776606E+00  0.44132484280E+03  0.11558960039E+04  0.25500000920E-02 0. -1.
       -2    1    3    3    0  502 -0.10683294085E+04 -0.47951776606E+00 -0.65684066180E+03  0.12541003190E+04  0.25500000920E-02 0.  1.
</event>
<event>
 5   0  0.5690124E-07  0.2399785E+04  0.7818609E-02  0.8439584E-01
       -1   -1    0    0    0  501  0.00000000000E+00  0.00000000000E+00  0.10382412269E+04  0.10382412270E+04  0.50400001928E-02 0.  1.
        1   -1    0    0  501    0  0.00000000000E+00  0.00000000000E+00 -0.13867119196E+04  0.13867119196E+04  0.50400001928E-02 0. -1.
    10030    2    1    2    0    0  0.00000000000E+00  0.00000000000E+00 -0.34847069269E+03  0.24249531466E+04  0.23997845611E+04 0.  0.
        2    1    3    3  502    0 -0.69989011620E+02 -0.11218552576E+04 -0.59850044199E+03  0.12734443293E+04  0.25500000920E-02 0. -1.
       -2    1    3    3    0  502  0.69989011620E+02  0.11218552576E+04  0.25002974930E+03  0.11515088173E+04  0.25500000920E-02 0.  1.
</event>
<event>
 5   0  0.1275948E-06  0.2400268E+04  0.7818609E-02  0.8439403E-01
       -2   -1    0    0    0  501  0.00000000000E+00  0.00000000000E+00  0.14835988406E+04  0.14835988406E+04  0.25500000920E-02 0.  1.
        2   -1    0    0  501    0  0.00000000000E+00  0.00000000000E+00 -0.97082953504E+03  0.97082953505E+03  0.25500000920E-02 0. -1.
    10030    2    1    2    0    0  0.00000000000E+00  0.00000000000E+00  0.51276930553E+03  0.24544283756E+04  0.24002679622E+04 0.  0.
        1    1    3    3  502    0  0.48919282170E+03  0.35747981350E+02 -0.86365429518E+03  0.99322015514E+03  0.50400001928E-02 0. -1.
       -1    1    3    3    0  502 -0.48919282170E+03 -0.35747981350E+02  0.13764236007E+04  0.14612082205E+04  0.50400001928E-02 0.  1.
</event>
<event>
 5   0  0.5510176E-07  0.2401677E+04  0.7818609E-02  0.8438876E-01
        1   -1    0    0  501    0  0.00000000000E+00  0.00000000000E+00  0.19633626683E+04  0.19633626684E+04  0.50400001928E-02 0.  1.
       -1   -1    0    0    0  501  0.00000000000E+00  0.00000000000E+00 -0.73446066039E+03  0.73446066041E+03  0.50400001928E-02 0. -1.
    10030    2    1    2    0    0  0.00000000000E+00  0.00000000000E+00  0.12289020080E+04  0.26978233288E+04  0.24016766160E+04 0.  0.
        3    1    3    3  502    0 -0.13439659598E+03 -0.22295816850E+03  0.19312826167E+04  0.19487496878E+04  0.10100000352E+00 0.  1.
       -3    1    3    3    0  502  0.13439659598E+03  0.22295816850E+03 -0.70238060873E+03  0.74907364099E+03  0.10100000352E+00 0. -1.
</event>
<event>
 5   0  0.5510176E-07  0.2399790E+04  0.7818609E-02  0.8439582E-01
        1   -1    0    0  501    0  0.00000000000E+00  0.00000000000E+00  0.16673730301E+04  0.16673730301E+04  0.50400001928E-02 0. -1.
       -1   -1    0    0    0  501  0.00000000000E+00  0.00000000000E+00 -0.86348266192E+03  0.86348266194E+03  0.50400001928E-02 0.  1.
    10030    2    1    2    0    0  0.00000000000E+00  0.00000000000E+00  0.80389036814E+03  0.25308556920E+04  0.23997897428E+04 0.  0.
        3    1    3    3  502    0  0.31356302462E+03 -0.10784624169E+04 -0.43428281235E+02  0.11239612898E+04  0.10100000352E+00 0. -1.
       -3    1    3    3    0  502 -0.31356302462E+03  0.10784624169E+04  0.84731864937E+03  0.14068944022E+04  0.10100000352E+00 0.  1.
</event>
<event>
 5   0  0.1291468E-06  0.2399922E+04  0.7818609E-02  0.8439533E-01
        2   -1    0    0  501    0  0.00000000000E+00  0.00000000000E+00  0.14318689061E+04  0.14318689061E+04  0.25500000920E-02 0.  1.
       -2   -1    0    0    0  501  0.00000000000E+00  0.00000000000E+00 -0.10056135871E+04  0.10056135871E+04  0.25500000920E-02 0. -1.
    10030    2    1    2    0    0  0.00000000000E+00  0.00000000000E+00  0.42625531897E+03  0.24374824932E+04  0.23999223545E+04 0.  0.
        4    1    3    3  502    0 -0.27715381938E+02 -0.24418547921E+03 -0.97977998854E+03  0.10101312437E+04  0.12699999809E+01 0. -1.
       -4    1    3    3    0  502  0.27715381938E+02  0.24418547921E+03  0.14060353075E+04  0.14273512495E+04  0.12699999809E+01 0.  1.
</event>
<event>
 5   0  0.1275948E-06  0.2400917E+04  0.7818609E-02  0.8439160E-01
        2   -1    0    0  501    0  0.00000000000E+00  0.00000000000E+00  0.10502306594E+04  0.10502306594E+04  0.25500000920E-02 0. -1.
       -2   -1    0    0    0  501  0.00000000000E+00  0.00000000000E+00 -0.13721757967E+04  0.13721757967E+04  0.25500000920E-02 0.  1.
    10030    2    1    2    0    0  0.00000000000E+00  0.00000000000E+00 -0.32194513726E+03  0.24224064561E+04  0.24009174012E+04 0.  0.
        1    1    3    3  502    0  0.45528771580E+03  0.10956391325E+04 -0.34533482569E+03  0.12357055291E+04  0.50400001928E-02 0. -1.
       -1    1    3    3    0  502 -0.45528771580E+03 -0.10956391325E+04  0.23389688426E+02  0.11867009271E+04  0.50400001928E-02 0.  1.
</event>
<event>
 5   0  0.4483375E-07  0.2395892E+04  0.7818609E-02  0.8441043E-01
        4   -1    0    0  501    0  0.00000000000E+00  0.00000000000E+00  0.74042232235E+03  0.74042341153E+03  0.12699999809E+01 0.  1.
       -4   -1    0    0    0  501  0.00000000000E+00  0.00000000000E+00 -0.19381815516E+04  0.19381819677E+04  0.12699999809E+01 0. -1.
    10030    2    1    2    0    0  0.00000000000E+00  0.00000000000E+00 -0.11977592292E+04  0.26786053792E+04  0.23958922360E+04 0.  0.
        5    1    3    3  502    0 -0.55604507445E+02  0.30494328074E+03  0.69480069583E+03  0.76082347667E+03  0.46999998093E+01 0.  1.
       -5    1    3    3    0  502  0.55604507445E+02 -0.30494328074E+03 -0.18925599251E+04  0.19177819025E+04  0.46999998093E+01 0. -1.
</event>
<event>
 5   0  0.5363690E-07  0.2400737E+04  0.7818609E-02  0.8439228E-01
        1   -1    0    0  501    0  0.00000000000E+00  0.00000000000E+00  0.99129038733E+03  0.99129038735E+03  0.50400001928E-02 0. -1.
       -1   -1    0    0    0  501  0.00000000000E+00  0.00000000000E+00 -0.14535448578E+04  0.14535448578E+04  0.50400001928E-02 0.  1.
    10030    2    1    2    0    0  0.00000000000E+00  0.00000000000E+00 -0.46225447045E+03  0.24448352451E+04  0.24007374243E+04 0.  0.
        4    1    3    3  502    0 -0.17664296842E+03 -0.96542148080E+03  0.47268403311E+03  0.10893452997E+04  0.12699999809E+01 0. -1.
       -4    1    3    3    0  502  0.17664296842E+03  0.96542148080E+03 -0.93493850356E+03  0.13554899455E+04  0.12699999809E+01 0.  1.
</event>
<event>
 5   0  0.5452384E-07  0.2403677E+04  0.7818609E-02  0.8438128E-01
        1   -1    0    0  501    0  0.00000000000E+00  0.00000000000E+00  0.13625743981E+04  0.13625743981E+04  0.50400001928E-02 0. -1.
       -1   -1    0    0    0  501  0.00000000000E+00  0.00000000000E+00 -0.10600636549E+04  0.10600636549E+04  0.50400001928E-02 0.  1.
    10030    2    1    2    0    0  0.00000000000E+00  0.00000000000E+00  0.30251074320E+03  0.24226380530E+04  0.24036768473E+04 0.  0.
        5    1    3    3  502    0  0.88875867567E+03 -0.78676704845E+03 -0.38643041871E+02  0.11876067307E+04  0.46999998093E+01 0.  1.
       -5    1    3    3    0  502 -0.88875867567E+03  0.78676704845E+03  0.34115378508E+03  0.12350313223E+04  0.46999998093E+01 0. -1.
</event>
<event>
 5   0  0.1336057E-06  0.2391447E+04  0.7818609E-02  0.8442712E-01
       -2   -1    0    0    0  501  0.00000000000E+00  0.00000000000E+00  0.91772085768E+03  0.91772085768E+03  0.25500000920E-02 0. -1.
        2   -1    0    0  501    0  0.00000000000E+00  0.00000000000E+00 -0.15579412684E+04  0.15579412684E+04  0.25500000920E-02 0.  1.
    10030    2    1    2    0    0  0.00000000000E+00  0.00000000000E+00 -0.64022041068E+03  0.24756621260E+04  0.23914474253E+04 0.  0.
        2    1    3    3  502    0  0.47252013358E+03  0.92520441375E+03  0.29274816034E+03  0.10793423781E+04  0.25500000920E-02 0. -1.
       -2    1    3    3    0  502 -0.47252013358E+03 -0.92520441375E+03 -0.93296857102E+03  0.13963197479E+04  0.25500000920E-02 0.  1.
</event>
<event>
 5   0  0.5363690E-07  0.2400127E+04  0.7818609E-02  0.8439456E-01
        1   -1    0    0  501    0  0.00000000000E+00  0.00000000000E+00  0.19300694036E+04  0.19300694036E+04  0.50400001928E-02 0.  1.
       -1   -1    0    0    0  501  0.00000000000E+00  0.00000000000E+00 -0.74616636040E+03  0.74616636042E+03  0.50400001928E-02 0. -1.
    10030    2    1    2    0    0  0.00000000000E+00  0.00000000000E+00  0.11839030432E+04  0.26762357640E+04  0.24001273818E+04 0.  0.
        4    1    3    3  502    0  0.36865755451E+02 -0.11887326206E+04  0.41317309156E+03  0.12590305571E+04  0.12699999809E+01 0. -1.
       -4    1    3    3    0  502 -0.36865755451E+02  0.11887326206E+04  0.77072995163E+03  0.14172052069E+04  0.12699999809E+01 0.  1.
</event>
<event>
 5   0  0.1307477E-06  0.2400197E+04  0.7818609E-02  0.8439430E-01
       -2   -1    0    0    0  501  0.00000000000E+00  0.00000000000E+00  0.91899317705E+03  0.91899317705E+03  0.25500000920E-02 0.  1.
        2   -1    0    0  501    0  0.00000000000E+00  0.00000000000E+00 -0.15671888554E+04  0.15671888554E+04  0.25500000920E-02 0. -1.
    10030    2    1    2    0    0  0.00000000000E+00  0.00000000000E+00 -0.64819567834E+03  0.24861820324E+04  0.24001965463E+04 0.  0.
        5    1    3    3  502    0 -0.93109104078E+03  0.75664970200E+03 -0.35273753958E+03  0.12505579393E+04  0.46999998093E+01 0.  1.
       -5    1    3    3    0  502  0.93109104078E+03 -0.75664970200E+03 -0.29545813876E+03  0.12356240931E+04  0.46999998093E+01 0. -1.
</event>
<event>
 5   0  0.5452384E-07  0.2399463E+04  0.7818609E-02  0.8439705E-01
        1   -1    0    0  501    0  0.00000000000E+00  0.00000000000E+00  0.14061567828E+04  0.14061567828E+04  0.50400001928E-02 0. -1.
       -1   -1    0    0    0  501  0.00000000000E+00  0.00000000000E+00 -0.10236094463E+04  0.10236094463E+04  0.50400001928E-02 0.  1.
    10030    2    1    2    0    0  0.00000000000E+00  0.00000000000E+00  0.38254733646E+03  0.24297662291E+04  0.23994627447E+04 0.  0.
        5    1    3    3  502    0  0.11450622655E+04 -0.84499425687E+01  0.55369633591E+03  0.12719436764E+04  0.46999998093E+01 0.  1.
       -5    1    3    3    0  502 -0.11450622655E+04  0.84499425687E+01 -0.17114899945E+03  0.11578225527E+04  0.46999998093E+01 0. -1.
</event>
<event>
 5   0  0.5527286E-07  0.2399597E+04  0.7818609E-02  0.8439655E-01
       -1   -1    0    0    0  501  0.00000000000E+00  0.00000000000E+00  0.14888703462E+04  0.14888703462E+04  0.50400001928E-02 0.  1.
        1   -1    0    0  501    0  0.00000000000E+00  0.00000000000E+00 -0.96685114324E+03  0.96685114325E+03  0.50400001928E-02 0. -1.
    10030    2    1    2    0    0  0.00000000000E+00  0.00000000000E+00  0.52201920296E+03  0.24557214895E+04  0.23995966298E+04 0.  0.
        1    1    3    3  502    0  0.63927487620E+03  0.73349909667E+03  0.97944251609E+03  0.13805799269E+04  0.50400001928E-02 0.  1.
       -1    1    3    3    0  502 -0.63927487620E+03 -0.73349909667E+03 -0.45742331313E+03  0.10751415626E+04  0.50400001928E-02 0. -1.
</event>
<event>
 5   0  0.1336057E-06  0.2401807E+04  0.7818609E-02  0.8438827E-01
       -2   -1    0    0    0  501  0.00000000000E+00  0.00000000000E+00  0.79368374975E+03  0.79368374976E+03  0.25500000920E-02 0.  1.
        2   -1    0    0  501    0  0.00000000000E+00  0.00000000000E+00 -0.18170573886E+04  0.18170573886E+04  0.25500000920E-02 0. -1.
    10030    2    1    2    0    0  0.00000000000E+00  0.00000000000E+00 -0.10233736389E+04  0.26107411384E+04  0.24018067547E+04 0.  0.
        2    1    3    3  502    0  0.48649820908E+02 -0.95494230405E+03  0.27807541562E+03  0.99579493166E+03  0.25500000920E-02 0.  1.
       -2    1    3    3    0  502 -0.48649820908E+02  0.95494230405E+03 -0.13014490545E+04  0.16149462067E+04  0.25500000920E-02 0. -1.
</event>
<event>
 5   0  0.5452384E-07  0.2401131E+04  0.7818609E-02  0.8439080E-01
        1   -1    0    0  501    0  0.00000000000E+00  0.00000000000E+00  0.13433751455E+04  0.13433751455E+04  0.50400001928E-02 0.  1.
       -1   -1    0    0    0  501  0.00000000000E+00  0.00000000000E+00 -0.10729374924E+04  0.10729374924E+04  0.50400001928E-02 0. -1.
    10030    2    1    2    0    0  0.00000000000E+00  0.00000000000E+00  0.27043765308E+03  0.24163126379E+04  0.24011310335E+04 0.  0.
        5    1    3    3  502    0  0.39657924685E+02 -0.47203216719E+03 -0.97490989254E+03  0.10839089013E+04  0.46999998093E+01 0. -1.
       -5    1    3    3    0  502 -0.39657924685E+02  0.47203216719E+03  0.12453475456E+04  0.13324037366E+04  0.46999998093E+01 0.  1.
</event>
<event>
 5   0  0.1275948E-06  0.2400575E+04  0.7818609E-02  0.8439288E-01
        2   -1    0    0  501    0  0.00000000000E+00  0.00000000000E+00  0.22266211746E+04  0.22266211746E+04  0.25500000920E-02 0.  1.
       -2   -1    0    0    0  501  0.00000000000E+00  0.00000000000E+00 -0.64702997913E+03  0.64702997913E+03  0.25500000920E-02 0. -1.
    10030    2    1    2    0    0  0.00000000000E+00  0.00000000000E+00  0.15795911955E+04  0.28736511537E+04  0.24005754744E+04 0.  0.
        1    1    3    3  502    0 -0.12125932532E+03  0.11617983623E+04  0.45932819105E+03  0.12551739504E+04  0.50400001928E-02 0. -1.
       -1    1    3    3    0  502  0.12125932532E+03 -0.11617983623E+04  0.11202630044E+04  0.16184772033E+04  0.50400001928E-02 0.  1.
</event>
<event>
 5   0  0.5527286E-07  0.2399862E+04  0.7818609E-02  0.8439555E-01
        1   -1    0    0  501    0  0.00000000000E+00  0.00000000000E+00  0.13866811909E+04  0.13866811910E+04  0.50400001928E-02 0.  1.
       -1   -1    0    0    0  501  0.00000000000E+00  0.00000000000E+00 -0.10383308551E+04  0.10383308551E+04  0.50400001928E-02 0. -1.
    10030    2    1    2    0    0  0.00000000000E+00  0.00000000000E+00  0.34835033582E+03  0.24250120461E+04  0.23998615517E+04 0.  0.
        1    1    3    3  502    0 -0.48333990654E+03 -0.96857665729E+03 -0.34901118211E+03  0.11373508744E+04  0.50400001928E-02 0. -1.
       -1    1    3    3    0  502  0.48333990654E+03  0.96857665729E+03  0.69736151793E+03  0.12876611717E+04  0.50400001928E-02 0.  1.
</event>
<event>
 5   0  0.5690124E-07  0.2400035E+04  0.7818609E-02  0.8439490E-01
       -1   -1    0    0    0  501  0.00000000000E+00  0.00000000000E+00  0.75909505781E+03  0.75909505783E+03  0.50400001928E-02 0. -1.
        1   -1    0    0  501    0  0.00000000000E+00  0.00000000000E+00 -0.18970511715E+04  0.18970511715E+04  0.50400001928E-02 0.  1.
    10030    2    1    2    0    0  0.00000000000E+00  0.00000000000E+00 -0.11379561137E+04  0.26561462294E+04  0.24000351404E+04 0.  0.
        2    1    3    3  502    0  0.11844105736E+04  0.18797033485E+03 -0.61697559589E+03  0.13486364001E+04  0.25500000920E-02 0.  1.
       -2    1    3    3    0  502 -0.11844105736E+04 -0.18797033485E+03 -0.52098051784E+03  0.13075098293E+04  0.25500000920E-02 0. -1.
</event>
<event>
 5   0  0.1291468E-06  0.2397018E+04  0.7818609E-02  0.8440621E-01
       -2   -1    0    0    0  501  0.00000000000E+00  0.00000000000E+00  0.11210318543E+04  0.11210318543E+04  0.25500000920E-02 0.  1.
        2   -1    0    0  501    0  0.00000000000E+00  0.00000000000E+00 -0.12813410299E+04  0.12813410299E+04  0.25500000920E-02 0. -1.
    10030    2    1    2    0    0  0.00000000000E+00  0.00000000000E+00 -0.16030917554E+03  0.24023728842E+04  0.23970182400E+04 0.  0.
        4    1    3    3  502    0 -0.43847560140E+02 -0.70439775087E+03 -0.10509895789E+04  0.12659697894E+04  0.12699999809E+01 0. -1.
       -4    1    3    3    0  502  0.43847560140E+02  0.70439775087E+03  0.89068040333E+03  0.11364030947E+04  0.12699999809E+01 0.  1.
</event>
<event>
 5   0  0.1336057E-06  0.2400158E+04  0.7818609E-02  0.8439444E-01
        2   -1    0    0  501    0  0.00000000000E+00  0.00000000000E+00  0.10108776592E+04  0.10108776592E+04  0.25500000920E-02 0. -1.
       -2   -1    0    0    0  501  0.00000000000E+00  0.00000000000E+00 -0.14246924450E+04  0.14246924450E+04  0.25500000920E-02 0.  1.
    10030    2    1    2    0    0  0.00000000000E+00  0.00000000000E+00 -0.41381478577E+03  0.24355701042E+04  0.24001581313E+04 0.  0.
        2    1    3    3  502    0 -0.63747888259E+02  0.52251830368E+03  0.88747580720E+03  0.10318442127E+04  0.25500000920E-02 0. -1.
       -2    1    3    3    0  502  0.63747888259E+02 -0.52251830368E+03 -0.13012905930E+04  0.14037258914E+04  0.25500000920E-02 0.  1.
</event>
<event>
 5   0  0.1291468E-06  0.2392347E+04  0.7818609E-02  0.8442374E-01
       -2   -1    0    0    0  501  0.00000000000E+00  0.00000000000E+00  0.10888039369E+04  0.10888039369E+04  0.25500000920E-02 0. -1.
        2   -1    0    0  501    0  0.00000000000E+00  0.00000000000E+00 -0.13141313554E+04  0.13141313554E+04  0.25500000920E-02 0.  1.
    10030    2    1    2    0    0  0.00000000000E+00  0.00000000000E+00 -0.22532741851E+03  0.24029352922E+04  0.23923472936E+04 0.  0.
        4    1    3    3  502    0 -0.56233844630E+03 -0.61644009404E+03 -0.97354910576E+03  0.12821943659E+04  0.12699999809E+01 0.  1.
       -4    1    3    3    0  502  0.56233844630E+03  0.61644009404E+03  0.74822168725E+03  0.11207409263E+04  0.12699999809E+01 0. -1.
</event>
<event>
 5   0  0.5690124E-07  0.2397101E+04  0.7818609E-02  0.8440590E-01
       -1   -1    0    0    0  501  0.00000000000E+00  0.00000000000E+00  0.24038023098E+04  0.24038023098E+04  0.50400001928E-02 0. -1.
        1   -1    0    0  501    0  0.00000000000E+00  0.00000000000E+00 -0.59760465595E+03  0.59760465597E+03  0.50400001928E-02 0.  1.
    10030    2    1    2    0    0  0.00000000000E+00  0.00000000000E+00  0.18061976539E+04  0.30014069658E+04  0.23971011263E+04 0.  0.
        2    1    3    3  502    0 -0.42509266705E+03 -0.11036481798E+04  0.65972624775E+03  0.13542458427E+04  0.25500000920E-02 0.  1.
       -2    1    3    3    0  502  0.42509266705E+03  0.11036481798E+04  0.11464714061E+04  0.16471611231E+04  0.25500000920E-02 0. -1.
</event>
<event>
 5   0  0.1275948E-06  0.2400610E+04  0.7818609E-02  0.8439275E-01
        2   -1    0    0  501    0  0.00000000000E+00  0.00000000000E+00  0.86289393410E+03  0.86289393410E+03  0.25500000920E-02 0. -1.
       -2   -1    0    0    0  501  0.00000000000E+00  0.00000000000E+00 -0.16696513293E+04  0.16696513293E+04  0.25500000920E-02 0.  1.
    10030    2    1    2    0    0  0.00000000000E+00  0.00000000000E+00 -0.80675739520E+03  0.25325452634E+04  0.24006099259E+04 0.  0.
        1    1    3    3  502    0  0.79182335952E+03 -0.98357873360E+01  0.54822190323E+03  0.96313458592E+03  0.50400001928E-02 0. -1.
       -1    1    3    3    0  502 -0.79182335952E+03  0.98357873360E+01 -0.13549792984E+04  0.15694106775E+04  0.50400001928E-02 0.  1.
</event>
<event>
 5   0  0.5363690E-07  0.2407721E+04  0.7818609E-02  0.8436619E-01
       -1   -1    0    0    0  501  0.00000000000E+00  0.00000000000E+00  0.84278636634E+03  0.84278636636E+03  0.50400001928E-02 0.  1.
        1   -1    0    0  501    0  0.00000000000E+00  0.00000000000E+00 -0.17196287652E+04  0.17196287652E+04  0.50400001928E-02 0. -1.
    10030    2    1    2    0    0  0.00000000000E+00  0.00000000000E+00 -0.87684239888E+03  0.25624151316E+04  0.24077206470E+04 0.  0.
        4    1    3    3  502    0  0.57237467367E+03 -0.86271572477E+03 -0.10922089665E+04  0.15049296423E+04  0.12699999809E+01 0. -1.
       -4    1    3    3    0  502 -0.57237467367E+03  0.86271572477E+03  0.21536656757E+03  0.10574854893E+04  0.12699999809E+01 0.  1.
</event>
<event>
 5   0  0.5690124E-07  0.2399786E+04  0.7818609E-02  0.8439583E-01
       -1   -1    0    0    0  501  0.00000000000E+00  0.00000000000E+00  0.15043529389E+04  0.15043529389E+04  0.50400001928E-02 0.  1.
        1   -1    0    0  501    0  0.00000000000E+00  0.00000000000E+00 -0.95705187322E+03  0.95705187323E+03  0.50400001928E-02 0. -1.
    10030    2    1    2    0    0  0.00000000000E+00  0.00000000000E+00  0.54730106570E+03  0.24614048122E+04  0.23997864890E+04 0.  0.
        2    1    3    3  502    0 -0.96762519261E+03 -0.39987494203E+03  0.87482767141E+03  0.13643760249E+04  0.25500000920E-02 0.  1.
       -2    1    3    3    0  502  0.96762519261E+03  0.39987494203E+03 -0.32752660571E+03  0.10970287873E+04  0.25500000920E-02 0. -1.
</event>
<event>
 5   0  0.5527286E-07  0.2400682E+04  0.7818609E-02  0.8439248E-01
        1   -1    0    0  501    0  0.00000000000E+00  0.00000000000E+00  0.81150916094E+03  0.81150916095E+03  0.50400001928E-02 0.  1.
       -1   -1    0    0    0  501  0.00000000000E+00  0.00000000000E+00 -0.17754808758E+04  0.17754808758E+04  0.50400001928E-02 0. -1.
    10030    2    1    2    0    0  0.00000000000E+00  0.00000000000E+00 -0.96397171488E+03  0.25869900368E+04  0.24006823995E+04 0.  0.
        1    1    3    3  502    0 -0.10387749128E+04 -0.87009946052E+00  0.16616078099E+03  0.10519807421E+04  0.50400001928E-02 0.  1.
       -1    1    3    3    0  502  0.10387749128E+04  0.87009946052E+00 -0.11301324959E+04  0.15350092947E+04  0.50400001928E-02 0. -1.
</event>
<event>
 5   0  0.1275948E-06  0.2399992E+04  0.7818609E-02  0.8439506E-01
       -2   -1    0    0    0  501  0.00000000000E+00  0.00000000000E+00  0.11919620318E+04  0.11919620318E+04  0.25500000920E-02 0. -1.
        2   -1    0    0  501    0  0.00000000000E+00  0.00000000000E+00 -0.12080843886E+04  0.12080843887E+04  0.25500000920E-02 0.  1.
    10030    2    1    2    0    0  0.00000000000E+00  0.00000000000E+00 -0.16122356879E+02  0.24000464204E+04  0.23999922687E+04 0.  0.
        1    1    3    3  502    0  0.19591694809E+03 -0.45421600617E+02 -0.11911111805E+04  0.12079703708E+04  0.50400001928E-02 0.  1.
       -1    1    3    3    0  502 -0.19591694809E+03  0.45421600617E+02  0.11749888236E+04  0.11920760496E+04  0.50400001928E-02 0. -1.
</event>
<event>
 5   0  0.5510176E-07  0.2400314E+04  0.7818609E-02  0.8439386E-01
       -1   -1    0    0    0  501  0.00000000000E+00  0.00000000000E+00  0.13966280460E+04  0.13966280460E+04  0.50400001928E-02 0.  1.
        1   -1    0    0  501    0  0.00000000000E+00  0.00000000000E+00 -0.10313246014E+04  0.10313246015E+04  0.50400001928E-02 0. -1.
    10030    2    1    2    0    0  0.00000000000E+00  0.00000000000E+00  0.36530344453E+03  0.24279526474E+04  0.24003140319E+04 0.  0.
        3    1    3    3  502    0 -0.68450404723E+03  0.31667081363E+03 -0.76166670813E+03  0.10718966272E+04  0.10100000352E+00 0. -1.
       -3    1    3    3    0  502  0.68450404723E+03 -0.31667081363E+03  0.11269701527E+04  0.13560560203E+04  0.10100000352E+00 0.  1.
</event>
<event>
 5   0  0.5452384E-07  0.2402548E+04  0.7818609E-02  0.8438550E-01
       -1   -1    0    0    0  501  0.00000000000E+00  0.00000000000E+00  0.88202193942E+03  0.88202193943E+03  0.50400001928E-02 0.  1.
        1   -1    0    0  501    0  0.00000000000E+00  0.00000000000E+00 -0.16360811828E+04  0.16360811828E+04  0.50400001928E-02 0. -1.
    10030    2    1    2    0    0  0.00000000000E+00  0.00000000000E+00 -0.75405924339E+03  0.25181031223E+04  0.24025482288E+04 0.  0.
        5    1    3    3  502    0  0.10092412742E+04 -0.24058779838E+03  0.25755553435E+03  0.10690216936E+04  0.46999998093E+01 0.  1.
       -5    1    3    3    0  502 -0.10092412742E+04  0.24058779838E+03 -0.10116147777E+04  0.14490814286E+04  0.46999998093E+01 0. -1.
</event>
<event>
 5   0  0.5510176E-07  0.2400318E+04  0.7818609E-02  0.8439385E-01
        1   -1    0    0  501    0  0.00000000000E+00  0.00000000000E+00  0.10003480419E+04  0.10003480419E+04  0.50400001928E-02 0.  1.
       -1   -1    0    0    0  501  0.00000000000E+00  0.00000000000E+00 -0.14398800745E+04  0.14398800745E+04  0.50400001928E-02 0. -1.
    10030    2    1    2    0    0  0.00000000000E+00  0.00000000000E+00 -0.43953203257E+03  0.24402281165E+04  0.24003176566E+04 0.  0.
        3    1    3    3  502    0  0.49357756608E+03 -0.39764382332E+03 -0.12558491430E+04  0.14067325631E+04  0.10100000352E+00 0. -1.
       -3    1    3    3    0  502 -0.49357756608E+03  0.39764382332E+03  0.81631711038E+03  0.10334955534E+04  0.10100000352E+00 0.  1.
</event>
<event>
 5   0  0.1336057E-06  0.2398726E+04  0.7818609E-02  0.8439981E-01
       -2   -1    0    0    0  501  0.00000000000E+00  0.00000000000E+00  0.95520094192E+03  0.95520094192E+03  0.25500000920E-02 0.  1.
        2   -1    0    0  501    0  0.00000000000E+00  0.00000000000E+00 -0.15059361911E+04  0.15059361911E+04  0.25500000920E-02 0. -1.
    10030    2    1    2    0    0  0.00000000000E+00  0.00000000000E+00 -0.55073524919E+03  0.24611371330E+04  0.23987260521E+04 0.  0.
        2    1    3    3  502    0 -0.11046614456E+04 -0.41966026140E+03 -0.64896195457E+02  0.11834708110E+04  0.25500000920E-02 0.  1.
       -2    1    3    3    0  502  0.11046614456E+04  0.41966026140E+03 -0.48583905373E+03  0.12776663220E+04  0.25500000920E-02 0. -1.
</event>
<event>
 5   0  0.1336057E-06  0.2399425E+04  0.7818609E-02  0.8439719E-01
       -2   -1    0    0    0  501  0.00000000000E+00  0.00000000000E+00  0.12226492157E+04  0.12226492157E+04  0.25500000920E-02 0.  1.
        2   -1    0    0  501    0  0.00000000000E+00  0.00000000000E+00 -0.11772058493E+04  0.11772058493E+04  0.25500000920E-02 0. -1.
    10030    2    1    2    0    0  0.00000000000E+00  0.00000000000E+00  0.45443366331E+02  0.23998550650E+04  0.23994247714E+04 0.  0.
        2    1    3    3  502    0 -0.21599953827E+03  0.21465220837E+03 -0.11379080811E+04  0.11779499871E+04  0.25500000920E-02 0. -1.
       -2    1    3    3    0  502  0.21599953827E+03 -0.21465220837E+03  0.11833514475E+04  0.12219050779E+04  0.25500000920E-02 0.  1.
</event>
<event>
 5   0  0.1291468E-06  0.2400588E+04  0.7818609E-02  0.8439283E-01
       -2   -1    0    0    0  501  0.00000000000E+00  0.00000000000E+00  0.69852298591E+03  0.69852298592E+03  0.25500000920E-02 0.  1.
        2   -1    0    0  501    0  0.00000000000E+00  0.00000000000E+00 -0.20625036563E+04  0.20625036563E+04  0.25500000920E-02 0. -1.
    10030    2    1    2    0    0  0.00000000000E+00  0.00000000000E+00 -0.13639806704E+04  0.27610266422E+04  0.24005884382E+04 0.  0.
        4    1    3    3  502    0 -0.52686545307E+03 -0.92864136302E+03 -0.13127303319E+04  0.16921065344E+04  0.12699999809E+01 0. -1.
       -4    1    3    3    0  502  0.52686545307E+03  0.92864136302E+03 -0.51250338532E+02  0.10689201078E+04  0.12699999809E+01 0.  1.
</event>
<event>
 5   0  0.4483375E-07  0.2399939E+04  0.7818609E-02  0.8439527E-01
       -3   -1    0    0    0  501  0.00000000000E+00  0.00000000000E+00  0.11035028825E+04  0.11035028872E+04  0.10100000352E+00 0. -1.
        3   -1    0    0  501    0  0.00000000000E+00  0.00000000000E+00 -0.13048686044E+04  0.13048686083E+04  0.10100000352E+00 0.  1.
    10030    2    1    2    0    0  0.00000000000E+00  0.00000000000E+00 -0.20136572186E+03  0.24083714955E+04  0.23999385630E+04 0.  0.
        4    1    3    3  502    0 -0.71360942443E+02  0.79086157530E+03  0.80212841001E+03  0.11287010297E+04  0.12699999809E+01 0. -1.
       -4    1    3    3    0  502  0.71360942443E+02 -0.79086157530E+03 -0.10034941319E+04  0.12796704658E+04  0.12699999809E+01 0.  1.
</event>
<event>
 5   0  0.5510176E-07  0.2401124E+04  0.7818609E-02  0.8439083E-01
       -1   -1    0    0    0  501  0.00000000000E+00  0.00000000000E+00  0.10323185838E+04  0.10323185838E+04  0.50400001928E-02 0. -1.
        1   -1    0    0  501    0  0.00000000000E+00  0.00000000000E+00 -0.13962253119E+04  0.13962253119E+04  0.50400001928E-02 0.  1.
    10030    2    1    2    0    0  0.00000000000E+00  0.00000000000E+00 -0.36390672810E+03  0.24285438957E+04  0.24011241839E+04 0.  0.
        3    1    3    3  502    0 -0.67285488813E+03 -0.82749069751E+03  0.37559000930E+03  0.11307265011E+04  0.10100000352E+00 0. -1.
       -3    1    3    3    0  502  0.67285488813E+03  0.82749069751E+03 -0.73949673740E+03  0.12978173946E+04  0.10100000352E+00 0.  1.
</event>
<event>
 5   0  0.5363690E-07  0.2402019E+04  0.7818609E-02  0.8438748E-01
        1   -1    0    0  501    0  0.00000000000E+00  0.00000000000E+00  0.14295335124E+04  0.14295335124E+04  0.50400001928E-02 0. -1.
       -1   -1    0    0    0  501  0.00000000000E+00  0.00000000000E+00 -0.10090172808E+04  0.10090172808E+04  0.50400001928E-02 0.  1.
    10030    2    1    2    0    0  0.00000000000E+00  0.00000000000E+00  0.42051623162E+03  0.24385507932E+04  0.24020191651E+04 0.  0.
        4    1    3    3  502    0 -0.68034963011E+03  0.52897231707E+03 -0.63896568849E+03  0.10728308792E+04  0.12699999809E+01 0.  1.
       -4    1    3    3    0  502  0.68034963011E+03 -0.52897231707E+03  0.10594819201E+04  0.13657199139E+04  0.12699999809E+01 0. -1.
</event>
<event>
 5   0  0.1307477E-06  0.2399297E+04  0.7818609E-02  0.8439767E-01
       -2   -1    0    0    0  501  0.00000000000E+00  0.00000000000E+00  0.71814713171E+03  0.71814713172E+03  0.25500000920E-02 0.  1.
        2   -1    0    0  501    0  0.00000000000E+00  0.00000000000E+00 -0.20039854750E+04  0.20039854750E+04  0.25500000920E-02 0. -1.
    10030    2    1    2    0    0  0.00000000000E+00  0.00000000000E+00 -0.12858383433E+04  0.27221326067E+04  0.23992969144E+04 0.  0.
        5    1    3    3  502    0  0.87946124655E+03  0.27704421737E+03 -0.15135953445E+04  0.17723426699E+04  0.46999998093E+01 0. -1.
       -5    1    3    3    0  502 -0.87946124655E+03 -0.27704421737E+03  0.22775700120E+03  0.94978993686E+03  0.46999998093E+01 0.  1.
</event>
<event>
 5   0  0.5452384E-07  0.2399207E+04  0.7818609E-02  0.8439801E-01
        1   -1    0    0  501    0  0.00000000000E+00  0.00000000000E+00  0.22230925414E+04  0.22230925415E+04  0.50400001928E-02 0.  1.
       -1   -1    0    0    0  501  0.00000000000E+00  0.00000000000E+00 -0.64731816698E+03  0.64731816700E+03  0.50400001928E-02 0. -1.
    10030    2    1    2    0    0  0.00000000000E+00  0.00000000000E+00  0.15757743745E+04  0.28704107085E+04  0.23992066931E+04 0.  0.
        5    1    3    3  502    0 -0.15113059770E+03  0.82056422795E+03 -0.24328184302E+03  0.86912269266E+03  0.46999998093E+01 0.  1.
       -5    1    3    3    0  502  0.15113059770E+03 -0.82056422795E+03  0.18190562175E+04  0.20012880158E+04  0.46999998093E+01 0. -1.
</event>
<event>
 5   0  0.5690124E-07  0.2400767E+04  0.7818609E-02  0.8439216E-01
       -1   -1    0    0    0  501  0.00000000000E+00  0.00000000000E+00  0.14819769039E+04  0.14819769039E+04  0.50400001928E-02 0. -1.
        1   -1    0    0  501    0  0.00000000000E+00  0.00000000000E+00 -0.97229620422E+03  0.97229620423E+03  0.50400001928E-02 0.  1.
    10030    2    1    2    0    0  0.00000000000E+00  0.00000000000E+00  0.50968069972E+03  0.24542731082E+04  0.24007669762E+04 0.  0.
        2    1    3    3  502    0 -0.42210194993E+03 -0.77452398852E+02 -0.89119391239E+03  0.98913877677E+03  0.25500000920E-02 0.  1.
       -2    1    3    3    0  502  0.42210194993E+03  0.77452398852E+02  0.14008746121E+04  0.14651343314E+04  0.25500000920E-02 0. -1.
</event>
<event>
 5   0  0.1308662E-06  0.2400722E+04  0.7818609E-02  0.8439233E-01
       -2   -1    0    0    0  501  0.00000000000E+00  0.00000000000E+00  0.87017383159E+03  0.87017383159E+03  0.25500000920E-02 0. -1.
        2   -1    0    0  501    0  0.00000000000E+00  0.00000000000E+00 -0.16558377943E+04  0.16558377943E+04  0.25500000920E-02 0.  1.
    10030    2    1    2    0    0  0.00000000000E+00  0.00000000000E+00 -0.78566396270E+03  0.25260116259E+04  0.24007221563E+04 0.  0.
        3    1    3    3  502    0 -0.21314391447E+03  0.10006299236E+04 -0.10534320404E+04  0.14684718745E+04  0.10100000352E+00 0.  1.
       -3    1    3    3    0  502  0.21314391447E+03 -0.10006299236E+04  0.26776807766E+03  0.10575397514E+04  0.10100000352E+00 0. -1.
</event>
<event>
 5   0  0.5510176E-07  0.2400142E+04  0.7818609E-02  0.8439450E-01
       -1   -1    0    0    0  501  0.00000000000E+00  0.00000000000E+00  0.58505366353E+03  0.58505366355E+03  0.50400001928E-02 0. -1.
        1   -1    0    0  501    0  0.00000000000E+00  0.00000000000E+00 -0.24616045469E+04  0.24616045469E+04  0.50400001928E-02 0.  1.
    10030    2    1    2    0    0  0.00000000000E+00  0.00000000000E+00 -0.18765508834E+04  0.30466582105E+04  0.24001422944E+04 0.  0.
        3    1    3    3  502    0  0.62756415951E+02 -0.27282011486E+03 -0.24195776154E+04  0.24357185860E+04  0.10100000352E+00 0.  1.
       -3    1    3    3    0  502 -0.62756415951E+02  0.27282011486E+03  0.54302673206E+03  0.61093962447E+03  0.10100000352E+00 0. -1.
</event>
<event>
 5   0  0.5510176E-07  0.2397288E+04  0.7818609E-02  0.8440519E-01
        1   -1    0    0  501    0  0.00000000000E+00  0.00000000000E+00  0.16683269728E+04  0.16683269728E+04  0.50400001928E-02 0.  1.
       -1   -1    0    0    0  501  0.00000000000E+00  0.00000000000E+00 -0.86119089321E+03  0.86119089322E+03  0.50400001928E-02 0. -1.
    10030    2    1    2    0    0  0.00000000000E+00  0.00000000000E+00  0.80713607958E+03  0.25295178660E+04  0.23972884648E+04 0.  0.
        3    1    3    3  502    0  0.10128752422E+04 -0.22731138066E+03  0.10359248531E+04  0.14665357246E+04  0.10100000352E+00 0.  1.
       -3    1    3    3    0  502 -0.10128752422E+04  0.22731138066E+03 -0.22878877354E+03  0.10629821414E+04  0.10100000352E+00 0. -1.
</event>
<event>
 5   0  0.5510176E-07  0.2399612E+04  0.7818609E-02  0.8439649E-01
        1   -1    0    0  501    0  0.00000000000E+00  0.00000000000E+00  0.25154323649E+04  0.25154323649E+04  0.50400001928E-02 0. -1.
       -1   -1    0    0    0  501  0.00000000000E+00  0.00000000000E+00 -0.57228122313E+03  0.57228122315E+03  0.50400001928E-02 0.  1.
    10030    2    1    2    0    0  0.00000000000E+00  0.00000000000E+00  0.19431511417E+04  0.30877135880E+04  0.23996122274E+04 0.  0.
        3    1    3    3  502    0 -0.85201537748E+03  0.24950428078E+03 -0.66918102589E+02  0.89031490622E+03  0.10100000352E+00 0.  1.
       -3    1    3    3    0  502  0.85201537748E+03 -0.24950428078E+03  0.20100692443E+04  0.21973986818E+04  0.10100000352E+00 0. -1.
</event>
<event>
 5   0  0.4483375E-07  0.2401349E+04  0.7818609E-02  0.8438999E-01
        4   -1    0    0  501    0  0.00000000000E+00  0.00000000000E+00  0.96919943794E+03  0.96920027002E+03  0.12699999809E+01 0. -1.
       -4   -1    0    0    0  501  0.00000000000E+00  0.00000000000E+00 -0.14874306703E+04  0.14874312124E+04  0.12699999809E+01 0.  1.
    10030    2    1    2    0    0  0.00000000000E+00  0.00000000000E+00 -0.51823123231E+03  0.24566314825E+04  0.24013485025E+04 0.  0.
        5    1    3    3  502    0  0.67175436558E+03 -0.47590191284E+03 -0.11532271706E+04  0.14169303283E+04  0.46999998093E+01 0.  1.
       -5    1    3    3    0  502 -0.67175436558E+03  0.47590191284E+03  0.63499593826E+03  0.10397011541E+04  0.46999998093E+01 0. -1.
</event>
<event>
 5   0  0.5363690E-07  0.2401326E+04  0.7818609E-02  0.8439007E-01
        1   -1    0    0  501    0  0.00000000000E+00  0.00000000000E+00  0.16606575581E+04  0.16606575581E+04  0.50400001928E-02 0.  1.
       -1   -1    0    0    0  501  0.00000000000E+00  0.00000000000E+00 -0.86808516626E+03  0.86808516627E+03  0.50400001928E-02 0. -1.
    10030    2    1    2    0    0  0.00000000000E+00  0.00000000000E+00  0.79257239186E+03  0.25287427244E+04  0.24013264605E+04 0.  0.
        4    1    3    3  502    0 -0.64926199922E+03  0.52525245883E+03  0.13047055823E+04  0.15490931407E+04  0.12699999809E+01 0.  1.
       -4    1    3    3    0  502  0.64926199922E+03 -0.52525245883E+03 -0.51213319047E+03  0.97964958369E+03  0.12699999809E+01 0. -1.
</event>
<event>
 5   0  0.5363690E-07  0.2396936E+04  0.7818609E-02  0.8440652E-01
       -1   -1    0    0    0  501  0.00000000000E+00  0.00000000000E+00  0.59342415762E+03  0.59342415765E+03  0.50400001928E-02 0.  1.
        1   -1    0    0  501    0  0.00000000000E+00  0.00000000000E+00 -0.24204021709E+04  0.24204021709E+04  0.50400001928E-02 0. -1.
    10030    2    1    2    0    0  0.00000000000E+00  0.00000000000E+00 -0.18269780133E+04  0.30138263285E+04  0.23969356432E+04 0.  0.
        4    1    3    3  502    0  0.10595298219E+03 -0.11937447571E+04 -0.92407832105E+03  0.15133323944E+04  0.12699999809E+01 0. -1.
       -4    1    3    3    0  502 -0.10595298219E+03  0.11937447571E+04 -0.90289969221E+03  0.15004939342E+04  0.12699999809E+01 0.  1.
</event>
<event>
 5   0  0.1308662E-06  0.2400257E+04  0.7818609E-02  0.8439407E-01
       -2   -1    0    0    0  501  0.00000000000E+00  0.00000000000E+00  0.84712162366E+03  0.84712162367E+03  0.25500000920E-02 0. -1.
        2   -1    0    0  501    0  0.00000000000E+00  0.00000000000E+00 -0.17002376945E+04  0.17002376945E+04  0.25500000920E-02 0.  1.
    10030    2    1    2    0    0  0.00000000000E+00  0.00000000000E+00 -0.85311607083E+03  0.25473593182E+04  0.24002567499E+04 0.  0.
        3    1    3    3  502    0 -0.44390171670E+03  0.95291009338E+03 -0.10410250694E+04  0.14794659798E+04  0.10100000352E+00 0.  1.
       -3    1    3    3    0  502  0.44390171670E+03 -0.95291009338E+03  0.18790899855E+03  0.10678933383E+04  0.10100000352E+00 0. -1.
</event>
<event>
 5   0  0.1291468E-06  0.2400161E+04  0.7818609E-02  0.8439443E-01
       -2   -1    0    0    0  501  0.00000000000E+00  0.00000000000E+00  0.13780823214E+04  0.13780823214E+04  0.25500000920E-02 0. -1.
        2   -1    0    0  501    0  0.00000000000E+00  0.00000000000E+00 -0.10450706605E+04  0.10450706605E+04  0.25500000920E-02 0.  1.
    10030    2    1    2    0    0  0.00000000000E+00  0.00000000000E+00  0.33301166092E+03  0.24231529819E+04  0.24001611628E+04 0.  0.
        4    1    3    3  502    0  0.27467583569E+03  0.10319269971E+04  0.71935687160E+03  0.12875542954E+04  0.12699999809E+01 0. -1.
       -4    1    3    3    0  502 -0.27467583569E+03 -0.10319269971E+04 -0.38634521068E+03  0.11355986865E+04  0.12699999809E+01 0.  1.
</event>
<event>
 5   0  0.1291468E-06  0.2386675E+04  0.7818609E-02  0.8444509E-01
        2   -1    0    0  501    0  0.00000000000E+00  0.00000000000E+00  0.12823421858E+04  0.12823421858E+04  0.25500000920E-02 0. -1.
       -2   -1    0    0    0  501  0.00000000000E+00  0.00000000000E+00 -0.11105107786E+04  0.11105107786E+04  0.25500000920E-02 0.  1.
    10030    2    1    2    0    0  0.00000000000E+00  0.00000000000E+00  0.17183140719E+03  0.23928529644E+04  0.23866753606E+04 0.  0.
        4    1    3    3  502    0 -0.72995345584E+03 -0.51043574995E+03 -0.71029129211E+03  0.11392506463E+04  0.12699999809E+01 0.  1.
       -4    1    3    3    0  502  0.72995345584E+03  0.51043574995E+03  0.88212269929E+03  0.12536023181E+04  0.12699999809E+01 0. -1.
</event>
<event>
 5   0  0.5452384E-07  0.2402331E+04  0.7818609E-02  0.8438631E-01
        1   -1    0    0  501    0  0.00000000000E+00  0.00000000000E+00  0.13940022167E+04  0.13940022167E+04  0.50400001928E-02 0. -1.
       -1   -1    0    0    0  501  0.00000000000E+00  0.00000000000E+00 -0.10350043230E+04  0.10350043230E+04  0.50400001928E-02 0.  1.
    10030    2    1    2    0    0  0.00000000000E+00  0.00000000000E+00  0.35899789374E+03  0.24290065397E+04  0.24023308020E+04 0.  0.
        5    1    3    3  502    0 -0.13175598322E+03 -0.61554533968E+03 -0.85485636673E+03  0.10616295032E+04  0.46999998093E+01 0.  1.
       -5    1    3    3    0  502  0.13175598322E+03  0.61554533968E+03  0.12138542605E+04  0.13673770365E+04  0.46999998093E+01 0. -1.
</event>
<event>
 5   0  0.5510176E-07  0.2402412E+04  0.7818609E-02  0.8438601E-01
        1   -1    0    0  501    0  0.00000000000E+00  0.00000000000E+00  0.22760757993E+04  0.22760757993E+04  0.50400001928E-02 0. -1.
       -1   -1    0    0    0  501  0.00000000000E+00  0.00000000000E+00 -0.63394004342E+03  0.63394004344E+03  0.50400001928E-02 0.  1.
    10030    2    1    2    0    0  0.00000000000E+00  0.00000000000E+00  0.16421357559E+04  0.29100158428E+04  0.24024117808E+04 0.  0.
        3    1    3    3  502    0  0.13201283084E+03  0.10079427743E+04  0.45918812203E+02  0.10175876234E+04  0.10100000352E+00 0.  1.
       -3    1    3    3    0  502 -0.13201283084E+03 -0.10079427743E+04  0.15962169437E+04  0.18924282193E+04  0.10100000352E+00 0. -1.
</event>
<event>
 5   0  0.1291468E-06  0.2401194E+04  0.7818609E-02  0.8439057E-01
       -2   -1    0    0    0  501  0.00000000000E+00  0.00000000000E+00  0.97331275150E+03  0.97331275151E+03  0.25500000920E-02 0.  1.
        2   -1    0    0  501    0  0.00000000000E+00  0.00000000000E+00 -0.14809561126E+04  0.14809561126E+04  0.25500000920E-02 0. -1.
    10030    2    1    2    0    0  0.00000000000E+00  0.00000000000E+00 -0.50764336113E+03  0.24542688641E+04  0.24011942602E+04 0.  0.
        4    1    3    3  502    0 -0.10754399808E+04 -0.39311624999E+03 -0.62280004887E+03  0.13034542770E+04  0.12699999809E+01 0. -1.
       -4    1    3    3    0  502  0.10754399808E+04  0.39311624999E+03  0.11515668774E+03  0.11508145872E+04  0.12699999809E+01 0.  1.
</event>
<event>
 5   0  0.1307477E-06  0.2397579E+04  0.7818609E-02  0.8440411E-01
        2   -1    0    0  501    0  0.00000000000E+00  0.00000000000E+00  0.15545973217E+04  0.15545973217E+04  0.25500000920E-02 0. -1.
       -2   -1    0    0    0  501  0.00000000000E+00  0.00000000000E+00 -0.92441678671E+03  0.92441678671E+03  0.25500000920E-02 0.  1.
    10030    2    1    2    0    0  0.00000000000E+00  0.00000000000E+00  0.63018053499E+03  0.24790141084E+04  0.23975786625E+04 0.  0.
        5    1    3    3  502    0 -0.74901348558E+03 -0.84641107485E+03 -0.98031582091E+02  0.11344889556E+04  0.46999998093E+01 0.  1.
       -5    1    3    3    0  502  0.74901348558E+03  0.84641107485E+03  0.72821211708E+03  0.13445251529E+04  0.46999998093E+01 0. -1.
</event>
<event>
 5   0  0.5452384E-07  0.2399244E+04  0.7818609E-02  0.8439787E-01
        1   -1    0    0  501    0  0.00000000000E+00  0.00000000000E+00  0.14579660745E+04  0.14579660745E+04  0.50400001928E-02 0. -1.
       -1   -1    0    0    0  501  0.00000000000E+00  0.00000000000E+00 -0.98705480511E+03  0.98705480512E+03  0.50400001928E-02 0.  1.
    10030    2    1    2    0    0  0.00000000000E+00  0.00000000000E+00  0.47091126938E+03  0.24450208796E+04  0.23992435637E+04 0.  0.
        5    1    3    3  502    0  0.84645962934E+03  0.35725903337E+03 -0.55058626651E+03  0.10711186899E+04  0.46999998093E+01 0.  1.
       -5    1    3    3    0  502 -0.84645962934E+03 -0.35725903337E+03  0.10214975359E+04  0.13739021897E+04  0.46999998093E+01 0. -1.
</event>
<event>
 5   0  0.5510176E-07  0.2400438E+04  0.7818609E-02  0.8439340E-01
       -1   -1    0    0    0  501  0.00000000000E+00  0.00000000000E+00  0.16404932632E+04  0.16404932632E+04  0.50400001928E-02 0.  1.
        1   -1    0    0  501    0  0.00000000000E+00  0.00000000000E+00 -0.87810490159E+03  0.87810490160E+03  0.50400001928E-02 0. -1.
    10030    2    1    2    0    0  0.00000000000E+00  0.00000000000E+00  0.76238836159E+03  0.25185981648E+04  0.24004376063E+04 0.  0.
        3    1    3    3  502    0  0.59277874708E+03 -0.67816126795E+03  0.12134851421E+04  0.15112364304E+04  0.10100000352E+00 0.  1.
       -3    1    3    3    0  502 -0.59277874708E+03  0.67816126795E+03 -0.45109678049E+03  0.10073617344E+04  0.10100000352E+00 0. -1.
</event>
<event>
 5   0  0.1336057E-06  0.2399769E+04  0.7818609E-02  0.8439590E-01
       -2   -1    0    0    0  501  0.00000000000E+00  0.00000000000E+00  0.12501339244E+04  0.12501339244E+04  0.25500000920E-02 0. -1.
        2   -1    0    0  501    0  0.00000000000E+00  0.00000000000E+00 -0.11516552635E+04  0.11516552635E+04  0.25500000920E-02 0.  1.
    10030    2    1    2    0    0  0.00000000000E+00  0.00000000000E+00  0.98478660969E+02  0.24017891879E+04  0.23997694174E+04 0.  0.
        2    1    3    3  502    0 -0.20276829385E+03  0.11797419574E+04  0.13187544482E+03  0.12042828572E+04  0.25500000920E-02 0.  1.
       -2    1    3    3    0  502  0.20276829385E+03 -0.11797419574E+04 -0.33396783847E+02  0.11975063308E+04  0.25500000920E-02 0. -1.
</event>
<event>
 5   0  0.1307477E-06  0.2400524E+04  0.7818609E-02  0.8439307E-01
       -2   -1    0    0    0  501  0.00000000000E+00  0.00000000000E+00  0.96051442434E+03  0.96051442434E+03  0.25500000920E-02 0. -1.
        2   -1    0    0  501    0  0.00000000000E+00  0.00000000000E+00 -0.14998517011E+04  0.14998517011E+04  0.25500000920E-02 0.  1.
    10030    2    1    2    0    0  0.00000000000E+00  0.00000000000E+00 -0.53933727671E+03  0.24603661254E+04  0.24005242704E+04 0.  0.
        5    1    3    3  502    0  0.20618757858E+03  0.22561857679E+03 -0.14592881261E+04  0.14909597529E+04  0.46999998093E+01 0.  1.
       -5    1    3    3    0  502 -0.20618757858E+03 -0.22561857679E+03  0.91995084939E+03  0.96940637250E+03  0.46999998093E+01 0. -1.
</event>
<event>
 5   0  0.1275948E-06  0.2399775E+04  0.7818609E-02  0.8439588E-01
       -2   -1    0    0    0  501  0.00000000000E+00  0.00000000000E+00  0.20163310257E+04  0.20163310257E+04  0.25500000920E-02 0. -1.
        2   -1    0    0  501    0  0.00000000000E+00  0.00000000000E+00 -0.71403427724E+03  0.71403427725E+03  0.25500000920E-02 0.  1.
    10030    2    1    2    0    0  0.00000000000E+00  0.00000000000E+00  0.13022967484E+04  0.27303653029E+04  0.23997745449E+04 0.  0.
        1    1    3    3  502    0 -0.88969556102E+03 -0.30838789028E+03 -0.19498661071E+03  0.96160338007E+03  0.50400001928E-02 0.  1.
       -1    1    3    3    0  502  0.88969556102E+03  0.30838789028E+03  0.14972833591E+04  0.17687619229E+04  0.50400001928E-02 0. -1.
</event>
<event>
 5   0  0.1291468E-06  0.2400129E+04  0.7818609E-02  0.8439455E-01
        2   -1    0    0  501    0  0.00000000000E+00  0.00000000000E+00  0.17139509275E+04  0.17139509275E+04  0.25500000920E-02 0. -1.
       -2   -1    0    0    0  501  0.00000000000E+00  0.00000000000E+00 -0.84025419485E+03  0.84025419485E+03  0.25500000920E-02 0.  1.
    10030    2    1    2    0    0  0.00000000000E+00  0.00000000000E+00  0.87369673264E+03  0.25542051223E+04  0.24001287104E+04 0.  0.
        4    1    3    3  502    0 -0.48102725803E+03  0.83224736626E+03  0.12013893425E+04  0.15386230424E+04  0.12699999809E+01 0. -1.
       -4    1    3    3    0  502  0.48102725803E+03 -0.83224736626E+03 -0.32769260982E+03  0.10155820799E+04  0.12699999809E+01 0.  1.
</event>
<event>
 5   0  0.1307477E-06  0.2400107E+04  0.7818609E-02  0.8439464E-01
        2   -1    0    0  501    0  0.00000000000E+00  0.00000000000E+00  0.56546225201E+03  0.56546225202E+03  0.25500000920E-02 0. -1.
       -2   -1    0    0    0  501  0.00000000000E+00  0.00000000000E+00 -0.25468159288E+04  0.25468159288E+04  0.25500000920E-02 0.  1.
    10030    2    1    2    0    0  0.00000000000E+00  0.00000000000E+00 -0.19813536768E+04  0.31122781808E+04  0.24001068898E+04 0.  0.
        5    1    3    3  502    0  0.57433733706E+03 -0.77991877887E+03 -0.19094038606E+04  0.21410235569E+04  0.46999998093E+01 0.  1.
       -5    1    3    3    0  502 -0.57433733706E+03  0.77991877887E+03 -0.71949816156E+02  0.97125462388E+03  0.46999998093E+01 0. -1.
</event>
<event>
 5   0  0.1308662E-06  0.2397527E+04  0.7818609E-02  0.8440430E-01
        2   -1    0    0  501    0  0.00000000000E+00  0.00000000000E+00  0.16492799537E+04  0.16492799537E+04  0.25500000920E-02 0.  1.
       -2   -1    0    0    0  501  0.00000000000E+00  0.00000000000E+00 -0.87130965628E+03  0.87130965629E+03  0.25500000920E-02 0. -1.
    10030    2    1    2    0    0  0.00000000000E+00  0.00000000000E+00  0.77797029744E+03  0.25205896100E+04  0.23975266836E+04 0.  0.
        3    1    3    3  502    0 -0.53176930985E+03  0.84475168767E+02 -0.73702656232E+03  0.91275561724E+03  0.10100000352E+00 0. -1.
       -3    1    3    3    0  502  0.53176930985E+03 -0.84475168767E+02  0.15149968598E+04  0.16078339928E+04  0.10100000352E+00 0.  1.
</event>
<event>
 5   0  0.5363690E-07  0.2400143E+04  0.7818609E-02  0.8439450E-01
        1   -1    0    0  501    0  0.00000000000E+00  0.00000000000E+00  0.99583338132E+03  0.99583338134E+03  0.50400001928E-02 0. -1.
       -1   -1    0    0    0  501  0.00000000000E+00  0.00000000000E+00 -0.14461973460E+04  0.14461973460E+04  0.50400001928E-02 0.  1.
    10030    2    1    2    0    0  0.00000000000E+00  0.00000000000E+00 -0.45036396468E+03  0.24420307274E+04  0.24001429900E+04 0.  0.
        4    1    3    3  502    0 -0.60123452409E+03 -0.90372539925E+03  0.29557806546E+03  0.11249758024E+04  0.12699999809E+01 0. -1.
       -4    1    3    3    0  502  0.60123452409E+03  0.90372539925E+03 -0.74594203014E+03  0.13170549250E+04  0.12699999809E+01 0.  1.
</event>
<event>
 5   0  0.1307477E-06  0.2398988E+04  0.7818609E-02  0.8439883E-01
        2   -1    0    0  501    0  0.00000000000E+00  0.00000000000E+00  0.12611987307E+04  0.12611987307E+04  0.25500000920E-02 0. -1.
       -2   -1    0    0    0  501  0.00000000000E+00  0.00000000000E+00 -0.11408080841E+04  0.11408080841E+04  0.25500000920E-02 0.  1.
    10030    2    1    2    0    0  0.00000000000E+00  0.00000000000E+00  0.12039064664E+03  0.24020068148E+04  0.23989878763E+04 0.  0.
        5    1    3    3  502    0  0.98698366383E+03  0.53406408631E+03 -0.36389691741E+03  0.11797475397E+04  0.46999998093E+01 0. -1.
       -5    1    3    3    0  502 -0.98698366383E+03 -0.53406408631E+03  0.48428756404E+03  0.12222592751E+04  0.46999998093E+01 0.  1.
</event>
<event>
 5   0  0.5452384E-07  0.2399996E+04  0.7818609E-02  0.8439505E-01
       -1   -1    0    0    0  501  0.00000000000E+00  0.00000000000E+00  0.62692016786E+03  0.62692016788E+03  0.50400001928E-02 0.  1.
        1   -1    0    0  501    0  0.00000000000E+00  0.00000000000E+00 -0.22969359911E+04  0.22969359911E+04  0.50400001928E-02 0. -1.
    10030    2    1    2    0    0  0.00000000000E+00  0.00000000000E+00 -0.16700158233E+04  0.29238561590E+04  0.23999962476E+04 0.  0.
        5    1    3    3  502    0 -0.70128780099E+03  0.69263317163E+03 -0.11982591940E+01  0.98568190410E+03  0.46999998093E+01 0.  1.
       -5    1    3    3    0  502  0.70128780099E+03 -0.69263317163E+03 -0.16688175641E+04  0.19381742549E+04  0.46999998093E+01 0. -1.
</event>
<event>
 5   0  0.5452384E-07  0.2402981E+04  0.7818609E-02  0.8438389E-01
        1   -1    0    0  501    0  0.00000000000E+00  0.00000000000E+00  0.15363113865E+04  0.15363113865E+04  0.50400001928E-02 0. -1.
       -1   -1    0    0    0  501  0.00000000000E+00  0.00000000000E+00 -0.93963949013E+03  0.93963949014E+03  0.50400001928E-02 0.  1.
    10030    2    1    2    0    0  0.00000000000E+00  0.00000000000E+00  0.59667189633E+03  0.24759508766E+04  0.24029805225E+04 0.  0.
        5    1    3    3  502    0  0.21449079495E+03  0.64071870659E+03  0.13219988132E+04  0.14846648491E+04  0.46999998093E+01 0. -1.
       -5    1    3    3    0  502 -0.21449079495E+03 -0.64071870659E+03 -0.72532691684E+03  0.99128602753E+03  0.46999998093E+01 0.  1.
</event>
<event>
 5   0  0.5452384E-07  0.2398240E+04  0.7818609E-02  0.8440163E-01
        1   -1    0    0  501    0  0.00000000000E+00  0.00000000000E+00  0.20517297796E+04  0.20517297796E+04  0.50400001928E-02 0. -1.
       -1   -1    0    0    0  501  0.00000000000E+00  0.00000000000E+00 -0.70081757756E+03  0.70081757758E+03  0.50400001928E-02 0.  1.
    10030    2    1    2    0    0  0.00000000000E+00  0.00000000000E+00  0.13509122021E+04  0.27525473572E+04  0.23982395994E+04 0.  0.
        5    1    3    3  502    0  0.96679439938E+03 -0.49332997028E+03  0.90447727656E+02  0.10891596539E+04  0.46999998093E+01 0.  1.
       -5    1    3    3    0  502 -0.96679439938E+03  0.49332997028E+03  0.12604644744E+04  0.16633877033E+04  0.46999998093E+01 0. -1.
</event>
<event>
 5   0  0.5527286E-07  0.2395369E+04  0.7818609E-02  0.8441240E-01
        1   -1    0    0  501    0  0.00000000000E+00  0.00000000000E+00  0.10479499851E+04  0.10479499851E+04  0.50400001928E-02 0. -1.
       -1   -1    0    0    0  501  0.00000000000E+00  0.00000000000E+00 -0.13688131195E+04  0.13688131196E+04  0.50400001928E-02 0.  1.
    10030    2    1    2    0    0  0.00000000000E+00  0.00000000000E+00 -0.32086313441E+03  0.24167631047E+04  0.23953686049E+04 0.  0.
        1    1    3    3  502    0  0.68992715309E+03  0.56196230927E+03 -0.96924401702E+03  0.13157640663E+04  0.50400001928E-02 0.  1.
       -1    1    3    3    0  502 -0.68992715309E+03 -0.56196230927E+03  0.64838088260E+03  0.11009990384E+04  0.50400001928E-02 0. -1.
</event>
<event>
 5   0  0.1308662E-06  0.2401436E+04  0.7818609E-02  0.8438966E-01
       -2   -1    0    0    0  501  0.00000000000E+00  0.00000000000E+00  0.80972219777E+03  0.80972219777E+03  0.25500000920E-02 0.  1.
        2   -1    0    0  501    0  0.00000000000E+00  0.00000000000E+00 -0.17805169930E+04  0.17805169930E+04  0.25500000920E-02 0. -1.
    10030    2    1    2    0    0  0.00000000000E+00  0.00000000000E+00 -0.97079479528E+03  0.25902391908E+04  0.24014363475E+04 0.  0.
        3    1    3    3  502    0  0.55604612548E+03 -0.93821721361E+03 -0.10271671496E+04  0.14981692818E+04  0.10100000352E+00 0. -1.
       -3    1    3    3    0  502 -0.55604612548E+03  0.93821721361E+03  0.56372354348E+02  0.10920699090E+04  0.10100000352E+00 0.  1.
</event>
<event>
 5   0  0.4483375E-07  0.2399973E+04  0.7818609E-02  0.8439514E-01
       -4   -1    0    0    0  501  0.00000000000E+00  0.00000000000E+00  0.81265802523E+03  0.81265901759E+03  0.12699999809E+01 0.  1.
        4   -1    0    0  501    0  0.00000000000E+00  0.00000000000E+00 -0.17719208758E+04  0.17719213310E+04  0.12699999809E+01 0. -1.
    10030    2    1    2    0    0  0.00000000000E+00  0.00000000000E+00 -0.95926285060E+03  0.25845803486E+04  0.23999729918E+04 0.  0.
        1    1    3    3  502    0 -0.23963375926E+03  0.80511752977E+02 -0.17429199290E+04  0.17611576761E+04  0.50400001928E-02 0. -1.
       -1    1    3    3    0  502  0.23963375926E+03 -0.80511752977E+02  0.78365707844E+03  0.82342267248E+03  0.50400001928E-02 0.  1.
</event>
<event>
 5   0  0.5363690E-07  0.2391118E+04  0.7818609E-02  0.8442836E-01
       -1   -1    0    0    0  501  0.00000000000E+00  0.00000000000E+00  0.13889467077E+04  0.13889467077E+04  0.50400001928E-02 0. -1.
        1   -1    0    0  501    0  0.00000000000E+00  0.00000000000E+00 -0.10290971498E+04  0.10290971498E+04  0.50400001928E-02 0.  1.
    10030    2    1    2    0    0  0.00000000000E+00  0.00000000000E+00  0.35984955788E+03  0.24180438575E+04  0.23911178123E+04 0.  0.
        4    1    3    3  502    0 -0.77906981283E+03 -0.41178063398E+03 -0.63716299629E+03  0.10874241861E+04  0.12699999809E+01 0.  1.
       -4    1    3    3    0  502  0.77906981283E+03  0.41178063398E+03  0.99701255416E+03  0.13306196714E+04  0.12699999809E+01 0. -1.
</event>
<event>
 5   0  0.1291468E-06  0.2403133E+04  0.7818609E-02  0.8438331E-01
        2   -1    0    0  501    0  0.00000000000E+00  0.00000000000E+00  0.16797538860E+04  0.16797538860E+04  0.25500000920E-02 0. -1.
       -2   -1    0    0    0  501  0.00000000000E+00  0.00000000000E+00 -0.85950842931E+03  0.85950842931E+03  0.25500000920E-02 0.  1.
    10030    2    1    2    0    0  0.00000000000E+00  0.00000000000E+00  0.82024545673E+03  0.25392623154E+04  0.24031334746E+04 0.  0.
        4    1    3    3  502    0 -0.11892450985E+04 -0.50231988880E+02  0.23671081628E+03  0.12136147579E+04  0.12699999809E+01 0. -1.
       -4    1    3    3    0  502  0.11892450985E+04  0.50231988880E+02  0.58353464046E+03  0.13256475575E+04  0.12699999809E+01 0.  1.
</event>
<event>
 5   0  0.1336057E-06  0.2393791E+04  0.7818609E-02  0.8441832E-01
       -2   -1    0    0    0  501  0.00000000000E+00  0.00000000000E+00  0.94511374249E+03  0.94511374249E+03  0.25500000920E-02 0. -1.
        2   -1    0    0  501    0  0.00000000000E+00  0.00000000000E+00 -0.15157525721E+04  0.15157525721E+04  0.25500000920E-02 0.  1.
    10030    2    1    2    0    0  0.00000000000E+00  0.00000000000E+00 -0.57063882958E+03  0.24608663146E+04  0.23937907896E+04 0.  0.
        2    1    3    3  502    0 -0.25638119699E+02  0.43646947070E+02 -0.15146516624E+04  0.15154972873E+04  0.25500000920E-02 0.  1.
       -2    1    3    3    0  502  0.25638119699E+02 -0.43646947070E+02  0.94401283286E+03  0.94536902730E+03  0.25500000920E-02 0. -1.
</event>
<event>
 5   0  0.5527286E-07  0.2402319E+04  0.7818609E-02  0.8438636E-01
        1   -1    0    0  501    0  0.00000000000E+00  0.00000000000E+00  0.18247630399E+04  0.18247630399E+04  0.50400001928E-02 0. -1.
       -1   -1    0    0    0  501  0.00000000000E+00  0.00000000000E+00 -0.79066900267E+03  0.79066900269E+03  0.50400001928E-02 0.  1.
    10030    2    1    2    0    0  0.00000000000E+00  0.00000000000E+00  0.10340940372E+04  0.26154320426E+04  0.24023185242E+04 0.  0.
        1    1    3    3  502    0  0.94734832629E+03 -0.91736633253E+02  0.13147830213E+04  0.16231262595E+04  0.50400001928E-02 0. -1.
       -1    1    3    3    0  502 -0.94734832629E+03  0.91736633253E+02 -0.28068898413E+03  0.99230578303E+03  0.50400001928E-02 0.  1.
</event>
<event>
 5   0  0.1307477E-06  0.2398548E+04  0.7818609E-02  0.8440047E-01
        2   -1    0    0  501    0  0.00000000000E+00  0.00000000000E+00  0.11137178577E+04  0.11137178577E+04  0.25500000920E-02 0.  1.
       -2   -1    0    0    0  501  0.00000000000E+00  0.00000000000E+00 -0.12914025436E+04  0.12914025436E+04  0.25500000920E-02 0. -1.
    10030    2    1    2    0    0  0.00000000000E+00  0.00000000000E+00 -0.17768468584E+03  0.24051204013E+04  0.23985479560E+04 0.  0.
        5    1    3    3  502    0  0.10460242628E+04  0.38776113698E+03 -0.53017394527E+03  0.12351647501E+04  0.46999998093E+01 0. -1.
       -5    1    3    3    0  502 -0.10460242628E+04 -0.38776113698E+03  0.35248925943E+03  0.11699556512E+04  0.46999998093E+01 0.  1.
</event>
<event>
 5   0  0.5510176E-07  0.2400449E+04  0.7818609E-02  0.8439336E-01
        1   -1    0    0  501    0  0.00000000000E+00  0.00000000000E+00  0.11023683317E+04  0.11023683317E+04  0.50400001928E-02 0.  1.
       -1   -1    0    0    0  501  0.00000000000E+00  0.00000000000E+00 -0.13067671517E+04  0.13067671517E+04  0.50400001928E-02 0. -1.
    10030    2    1    2    0    0  0.00000000000E+00  0.00000000000E+00 -0.20439882005E+03  0.24091354834E+04  0.24004488954E+04 0.  0.
        3    1    3    3  502    0 -0.68128880878E+03 -0.64837996824E+03 -0.85054352561E+03  0.12680596687E+04  0.10100000352E+00 0. -1.
       -3    1    3    3    0  502  0.68128880878E+03  0.64837996824E+03  0.64614470556E+03  0.11410758147E+04  0.10100000352E+00 0.  1.
</event>
<event>
 5   0  0.1291468E-06  0.2400025E+04  0.7818609E-02  0.8439494E-01
        2   -1    0    0  501    0  0.00000000000E+00  0.00000000000E+00  0.59491386499E+03  0.59491386500E+03  0.25500000920E-02 0. -1.
       -2   -1    0    0    0  501  0.00000000000E+00  0.00000000000E+00 -0.24205697314E+04  0.24205697314E+04  0.25500000920E-02 0.  1.
    10030    2    1    2    0    0  0.00000000000E+00  0.00000000000E+00 -0.18256558664E+04  0.30154835964E+04  0.24000254119E+04 0.  0.
        4    1    3    3  502    0 -0.34668531067E+03 -0.61448804632E+03 -0.21324422169E+04  0.22461294898E+04  0.12699999809E+01 0.  1.
       -4    1    3    3    0  502  0.34668531067E+03  0.61448804632E+03  0.30678635043E+03  0.76935410665E+03  0.12699999809E+01 0. -1.
</event>
<event>
 5   0  0.4483375E-07  0.2399320E+04  0.7818609E-02  0.8439758E-01
        4   -1    0    0  501    0  0.00000000000E+00  0.00000000000E+00  0.97182636609E+03  0.97182719592E+03  0.12699999809E+01 0. -1.
       -4   -1    0    0    0  501  0.00000000000E+00  0.00000000000E+00 -0.14809045006E+04  0.14809050451E+04  0.12699999809E+01 0.  1.
    10030    2    1    2    0    0  0.00000000000E+00  0.00000000000E+00 -0.50907813447E+03  0.24527322411E+04  0.23993196743E+04 0.  0.
        1    1    3    3  502    0  0.35243485542E+03  0.90590606350E+03  0.46418248681E+03  0.10771914891E+04  0.50400001928E-02 0. -1.
       -1    1    3    3    0  502 -0.35243485542E+03 -0.90590606350E+03 -0.97326062128E+03  0.13755407519E+04  0.50400001928E-02 0.  1.
</event>
<event>
 5   0  0.5527286E-07  0.2398811E+04  0.7818609E-02  0.8439949E-01
        1   -1    0    0  501    0  0.00000000000E+00  0.00000000000E+00  0.14320003633E+04  0.14320003633E+04  0.50400001928E-02 0. -1.
       -1   -1    0    0    0  501  0.00000000000E+00  0.00000000000E+00 -0.10045905387E+04  0.10045905388E+04  0.50400001928E-02 0.  1.
    10030    2    1    2    0    0  0.00000000000E+00  0.00000000000E+00  0.42740982454E+03  0.24365909020E+04  0.23988113860E+04 0.  0.
        1    1    3    3  502    0  0.69376692717E+03 -0.59089453766E+03  0.10057973081E+04  0.13572387885E+04  0.50400001928E-02 0. -1.
       -1    1    3    3    0  502 -0.69376692717E+03  0.59089453766E+03 -0.57838748359E+03  0.10793521136E+04  0.50400001928E-02 0.  1.
</event>
<event>
 5   0  0.5527286E-07  0.2400050E+04  0.7818609E-02  0.8439485E-01
       -1   -1    0    0    0  501  0.00000000000E+00  0.00000000000E+00  0.86876531526E+03  0.86876531527E+03  0.50400001928E-02 0. -1.
        1   -1    0    0  501    0  0.00000000000E+00  0.00000000000E+00 -0.16575939771E+04  0.16575939771E+04  0.50400001928E-02 0.  1.
    10030    2    1    2    0    0  0.00000000000E+00  0.00000000000E+00 -0.78882866188E+03  0.25263592924E+04  0.24000501279E+04 0.  0.
        1    1    3    3  502    0 -0.19346993632E+03 -0.93011021951E+02 -0.16372188911E+04  0.16512320745E+04  0.50400001928E-02 0.  1.
       -1    1    3    3    0  502  0.19346993632E+03  0.93011021951E+02  0.84839022922E+03  0.87512721791E+03  0.50400001928E-02 0. -1.
</event>
<event>
 5   0  0.5510176E-07  0.2400528E+04  0.7818609E-02  0.8439306E-01
        1   -1    0    0  501    0  0.00000000000E+00  0.00000000000E+00  0.20777841076E+04  0.20777841076E+04  0.50400001928E-02 0.  1.
       -1   -1    0    0    0  501  0.00000000000E+00  0.00000000000E+00 -0.69335127216E+03  0.69335127218E+03  0.50400001928E-02 0. -1.
    10030    2    1    2    0    0  0.00000000000E+00  0.00000000000E+00  0.13844328354E+04  0.27711353798E+04  0.24005284871E+04 0.  0.
        3    1    3    3  502    0  0.93614185331E+03 -0.42085769011E+02 -0.17357386476E+03  0.95302711305E+03  0.10100000352E+00 0. -1.
       -3    1    3    3    0  502 -0.93614185331E+03  0.42085769011E+02  0.15580067002E+04  0.18181082667E+04  0.10100000352E+00 0.  1.
</event>
<event>
 5   0  0.1291468E-06  0.2405264E+04  0.7818609E-02  0.8437535E-01
        2   -1    0    0  501    0  0.00000000000E+00  0.00000000000E+00  0.11182196657E+04  0.11182196657E+04  0.25500000920E-02 0.  1.
       -2   -1    0    0    0  501  0.00000000000E+00  0.00000000000E+00 -0.12934168709E+04  0.12934168709E+04  0.25500000920E-02 0. -1.
    10030    2    1    2    0    0  0.00000000000E+00  0.00000000000E+00 -0.17519720521E+03  0.24116365365E+04  0.24052643771E+04 0.  0.
        4    1    3    3  502    0  0.63034889564E+03  0.28686040242E+03 -0.10734093199E+04  0.12774340694E+04  0.12699999809E+01 0. -1.
       -4    1    3    3    0  502 -0.63034889564E+03 -0.28686040242E+03  0.89821211464E+03  0.11342024672E+04  0.12699999809E+01 0.  1.
</event>
<event>
 5   0  0.1275948E-06  0.2400293E+04  0.7818609E-02  0.8439394E-01
       -2   -1    0    0    0  501  0.00000000000E+00  0.00000000000E+00  0.54932060595E+03  0.54932060595E+03  0.25500000920E-02 0. -1.
        2   -1    0    0  501    0  0.00000000000E+00  0.00000000000E+00 -0.26220599108E+04  0.26220599108E+04  0.25500000920E-02 0.  1.
    10030    2    1    2    0    0  0.00000000000E+00  0.00000000000E+00 -0.20727393048E+04  0.31713805167E+04  0.24002929313E+04 0.  0.
        1    1    3    3  502    0 -0.10147410621E+04  0.42070578198E+03 -0.16750376311E+04  0.20031085452E+04  0.50400001928E-02 0.  1.
       -1    1    3    3    0  502  0.10147410621E+04 -0.42070578198E+03 -0.39770167374E+03  0.11682719716E+04  0.50400001928E-02 0. -1.
</event>
<event>
 5   0  0.4483375E-07  0.2399015E+04  0.7818609E-02  0.8439872E-01
       -4   -1    0    0    0  501  0.00000000000E+00  0.00000000000E+00  0.12824057760E+04  0.12824064049E+04  0.12699999809E+01 0.  1.
        4   -1    0    0  501    0  0.00000000000E+00  0.00000000000E+00 -0.11219668170E+04  0.11219675358E+04  0.12699999809E+01 0. -1.
    10030    2    1    2    0    0  0.00000000000E+00  0.00000000000E+00  0.16043895897E+03  0.24043739407E+04  0.23990150869E+04 0.  0.
        3    1    3    3  502    0  0.23789704015E+03  0.61379096265E+02  0.12569187331E+04  0.12807057066E+04  0.10100000352E+00 0.  1.
       -3    1    3    3    0  502 -0.23789704015E+03 -0.61379096265E+02 -0.10964797741E+04  0.11236682341E+04  0.10100000352E+00 0. -1.
</event>
<event>
 5   0  0.5690124E-07  0.2399435E+04  0.7818609E-02  0.8439715E-01
       -1   -1    0    0    0  501  0.00000000000E+00  0.00000000000E+00  0.75616424864E+03  0.75616424866E+03  0.50400001928E-02 0.  1.
        1   -1    0    0  501    0  0.00000000000E+00  0.00000000000E+00 -0.19034524085E+04  0.19034524085E+04  0.50400001928E-02 0. -1.
    10030    2    1    2    0    0  0.00000000000E+00  0.00000000000E+00 -0.11472881599E+04  0.26596166572E+04  0.23994354839E+04 0.  0.
        2    1    3    3  502    0  0.23551987841E+02  0.81058647735E+03  0.40637581429E+03  0.90705371166E+03  0.25500000920E-02 0.  1.
       -2    1    3    3    0  502 -0.23551987841E+02 -0.81058647735E+03 -0.15536639742E+04  0.17525629455E+04  0.25500000920E-02 0. -1.
</event>
<event>
 5   0  0.5452384E-07  0.2402005E+04  0.7818609E-02  0.8438753E-01
       -1   -1    0    0    0  501  0.00000000000E+00  0.00000000000E+00  0.12368763169E+04  0.12368763169E+04  0.50400001928E-02 0. -1.
        1   -1    0    0  501    0  0.00000000000E+00  0.00000000000E+00 -0.11661688485E+04  0.11661688485E+04  0.50400001928E-02 0.  1.
    10030    2    1    2    0    0  0.00000000000E+00  0.00000000000E+00  0.70707468357E+02  0.24030451654E+04  0.24020046879E+04 0.  0.
        5    1    3    3  502    0 -0.49573142646E+03  0.10410892277E+03  0.11247681418E+04  0.12335776335E+04  0.46999998093E+01 0. -1.
       -5    1    3    3    0  502  0.49573142646E+03 -0.10410892277E+03 -0.10540606734E+04  0.11694675319E+04  0.46999998093E+01 0.  1.
</event>
<event>
 5   0  0.1291468E-06  0.2401155E+04  0.7818609E-02  0.8439071E-01
        2   -1    0    0  501    0  0.00000000000E+00  0.00000000000E+00  0.18228913656E+04  0.18228913656E+04  0.25500000920E-02 0.  1.
       -2   -1    0    0    0  501  0.00000000000E+00  0.00000000000E+00 -0.79071411946E+03  0.79071411946E+03  0.25500000920E-02 0. -1.
    10030    2    1    2    0    0  0.00000000000E+00  0.00000000000E+00  0.10321772462E+04  0.26136054851E+04  0.24011546731E+04 0.  0.
        4    1    3    3  502    0  0.39782084592E+03 -0.72363125050E+03 -0.43250078703E+03  0.93218139642E+03  0.12699999809E+01 0. -1.
       -4    1    3    3    0  502 -0.39782084592E+03  0.72363125050E+03  0.14646780332E+04  0.16814240887E+04  0.12699999809E+01 0.  1.
</event>
<event>
 5   0  0.5510176E-07  0.2400700E+04  0.7818609E-02  0.8439241E-01
       -1   -1    0    0    0  501  0.00000000000E+00  0.00000000000E+00  0.12313575862E+04  0.12313575862E+04  0.50400001928E-02 0.  1.
        1   -1    0    0  501    0  0.00000000000E+00  0.00000000000E+00 -0.11701236413E+04  0.11701236413E+04  0.50400001928E-02 0. -1.
    10030    2    1    2    0    0  0.00000000000E+00  0.00000000000E+00  0.61233944839E+02  0.24014812275E+04  0.24007004165E+04 0.  0.
        3    1    3    3  502    0  0.54292050138E+03  0.50943772800E+03 -0.91125771437E+03  0.11767243100E+04  0.10100000352E+00 0. -1.
       -3    1    3    3    0  502 -0.54292050138E+03 -0.50943772800E+03  0.97249165921E+03  0.12247569175E+04  0.10100000352E+00 0.  1.
</event>
<event>
 5   0  0.1291468E-06  0.2399754E+04  0.7818609E-02  0.8439596E-01
        2   -1    0    0  501    0  0.00000000000E+00  0.00000000000E+00  0.11777802233E+04  0.11777802233E+04  0.25500000920E-02 0. -1.
       -2   -1    0    0    0  501  0.00000000000E+00  0.00000000000E+00 -0.12223880698E+04  0.12223880698E+04  0.25500000920E-02 0.  1.
    10030    2    1    2    0    0  0.00000000000E+00  0.00000000000E+00 -0.44607846484E+02  0.24001682931E+04  0.23997537322E+04 0.  0.
        4    1    3    3  502    0 -0.52142383497E+02  0.11938781907E+04 -0.13020638017E+03  0.12020895460E+04  0.12699999809E+01 0. -1.
       -4    1    3    3    0  502  0.52142383497E+02 -0.11938781907E+04  0.85598533683E+02  0.11980787471E+04  0.12699999809E+01 0.  1.
</event>
<event>
 5   0  0.5510176E-07  0.2400420E+04  0.7818609E-02  0.8439346E-01
        1   -1    0    0  501    0  0.00000000000E+00  0.00000000000E+00  0.18786389321E+04  0.18786389321E+04  0.50400001928E-02 0.  1.
       -1   -1    0    0    0  501  0.00000000000E+00  0.00000000000E+00 -0.76678072014E+03  0.76678072016E+03  0.50400001928E-02 0. -1.
    10030    2    1    2    0    0  0.00000000000E+00  0.00000000000E+00  0.11118582120E+04  0.26454196523E+04  0.24004200576E+04 0.  0.
        3    1    3    3  502    0  0.10355460945E+04  0.17063633014E+03  0.11976223083E+04  0.15924106488E+04  0.10100000352E+00 0. -1.
       -3    1    3    3    0  502 -0.10355460945E+04 -0.17063633014E+03 -0.85764096308E+02  0.10530090035E+04  0.10100000352E+00 0.  1.
</event>
<event>
 5   0  0.5510176E-07  0.2400126E+04  0.7818609E-02  0.8439456E-01
       -1   -1    0    0    0  501  0.00000000000E+00  0.00000000000E+00  0.10007137590E+04  0.10007137590E+04  0.50400001928E-02 0. -1.
        1   -1    0    0  501    0  0.00000000000E+00  0.00000000000E+00 -0.14391243040E+04  0.14391243040E+04  0.50400001928E-02 0.  1.
    10030    2    1    2    0    0  0.00000000000E+00  0.00000000000E+00 -0.43841054500E+03  0.24398380631E+04  0.24001262400E+04 0.  0.
        3    1    3    3  502    0 -0.33723157152E+03  0.61814591067E+03  0.76863554451E+03  0.10424155170E+04  0.10100000352E+00 0. -1.
       -3    1    3    3    0  502  0.33723157152E+03 -0.61814591067E+03 -0.12070460895E+04  0.13974225460E+04  0.10100000352E+00 0.  1.
</event>
<event>
 5   0  0.1291468E-06  0.2400060E+04  0.7818609E-02  0.8439481E-01
       -2   -1    0    0    0  501  0.00000000000E+00  0.00000000000E+00  0.70947021960E+03  0.70947021961E+03  0.25500000920E-02 0.  1.
        2   -1    0    0  501    0  0.00000000000E+00  0.00000000000E+00 -0.20297842584E+04  0.20297842584E+04  0.25500000920E-02 0. -1.
    10030    2    1    2    0    0  0.00000000000E+00  0.00000000000E+00 -0.13203140388E+04  0.27392544780E+04  0.24000595689E+04 0.  0.
        4    1    3    3  502    0 -0.68727184756E+03  0.97474140220E+03 -0.50871493042E+03  0.12966325181E+04  0.12699999809E+01 0. -1.
       -4    1    3    3    0  502  0.68727184756E+03 -0.97474140220E+03 -0.81159910837E+03  0.14426219599E+04  0.12699999809E+01 0.  1.
</event>
<event>
 5   0  0.1275948E-06  0.2399976E+04  0.7818609E-02  0.8439513E-01
       -2   -1    0    0    0  501  0.00000000000E+00  0.00000000000E+00  0.19282866918E+04  0.19282866918E+04  0.25500000920E-02 0.  1.
        2   -1    0    0  501    0  0.00000000000E+00  0.00000000000E+00 -0.74676178384E+03  0.74676178385E+03  0.25500000920E-02 0. -1.
    10030    2    1    2    0    0  0.00000000000E+00  0.00000000000E+00  0.11815249080E+04  0.26750484757E+04  0.23999756747E+04 0.  0.
        1    1    3    3  502    0  0.61951593687E+03  0.54329493609E+03 -0.38157620230E+03  0.90805824802E+03  0.50400001928E-02 0. -1.
       -1    1    3    3    0  502 -0.61951593687E+03 -0.54329493609E+03  0.15631011103E+04  0.17669902277E+04  0.50400001928E-02 0.  1.
</event>
<event>
 5   0  0.1291468E-06  0.2399989E+04  0.7818609E-02  0.8439508E-01
       -2   -1    0    0    0  501  0.00000000000E+00  0.00000000000E+00  0.10432205343E+04  0.10432205343E+04  0.25500000920E-02 0.  1.
        2   -1    0    0  501    0  0.00000000000E+00  0.00000000000E+00 -0.13803279077E+04  0.13803279077E+04  0.25500000920E-02 0. -1.
    10030    2    1    2    0    0  0.00000000000E+00  0.00000000000E+00 -0.33710737337E+03  0.24235484420E+04  0.23999886811E+04 0.  0.
        4    1    3    3  502    0  0.57646233002E+03 -0.68314945692E+03  0.63991964972E+03  0.10993183203E+04  0.12699999809E+01 0.  1.
       -4    1    3    3    0  502 -0.57646233002E+03  0.68314945692E+03 -0.97702702309E+03  0.13242301217E+04  0.12699999809E+01 0. -1.
</event>
<event>
 5   0  0.1291468E-06  0.2400365E+04  0.7818609E-02  0.8439367E-01
       -2   -1    0    0    0  501  0.00000000000E+00  0.00000000000E+00  0.13948801197E+04  0.13948801197E+04  0.25500000920E-02 0.  1.
        2   -1    0    0  501    0  0.00000000000E+00  0.00000000000E+00 -0.10326606983E+04  0.10326606983E+04  0.25500000920E-02 0. -1.
    10030    2    1    2    0    0  0.00000000000E+00  0.00000000000E+00  0.36221942140E+03  0.24275408179E+04  0.24003648709E+04 0.  0.
        4    1    3    3  502    0 -0.51058308667E+03 -0.95586263317E+03 -0.34054777171E+03  0.11359325947E+04  0.12699999809E+01 0. -1.
       -4    1    3    3    0  502  0.51058308667E+03  0.95586263317E+03  0.70276719310E+03  0.12916082233E+04  0.12699999809E+01 0.  1.
</event>
<event>
 5   0  0.5527286E-07  0.2395282E+04  0.7818609E-02  0.8441272E-01
        1   -1    0    0  501    0  0.00000000000E+00  0.00000000000E+00  0.12735071892E+04  0.12735071892E+04  0.50400001928E-02 0. -1.
       -1   -1    0    0    0  501  0.00000000000E+00  0.00000000000E+00 -0.11262942617E+04  0.11262942617E+04  0.50400001928E-02 0.  1.
    10030    2    1    2    0    0  0.00000000000E+00  0.00000000000E+00  0.14721292749E+03  0.23998014510E+04  0.23952818953E+04 0.  0.
        1    1    3    3  502    0 -0.11319271854E+04  0.10287544855E+03  0.45181222164E+03  0.12231013018E+04  0.50400001928E-02 0. -1.
       -1    1    3    3    0  502  0.11319271854E+04 -0.10287544855E+03 -0.30459929416E+03  0.11767001491E+04  0.50400001928E-02 0.  1.
</event>
<event>
 5   0  0.5510176E-07  0.2398083E+04  0.7818609E-02  0.8440222E-01
        1   -1    0    0  501    0  0.00000000000E+00  0.00000000000E+00  0.13610232679E+04  0.13610232679E+04  0.50400001928E-02 0. -1.
       -1   -1    0    0    0  501  0.00000000000E+00  0.00000000000E+00 -0.10563380908E+04  0.10563380908E+04  0.50400001928E-02 0.  1.
    10030    2    1    2    0    0  0.00000000000E+00  0.00000000000E+00  0.30468517708E+03  0.24173613588E+04  0.23980831682E+04 0.  0.
        3    1    3    3  502    0  0.59427668522E+03  0.18006981494E+03 -0.88162773205E+03  0.10783586532E+04  0.10100000352E+00 0.  1.
       -3    1    3    3    0  502 -0.59427668522E+03 -0.18006981494E+03  0.11863129091E+04  0.13390027055E+04  0.10100000352E+00 0. -1.
</event>
<event>
 5   0  0.1336057E-06  0.2395011E+04  0.7818609E-02  0.8441374E-01
        2   -1    0    0  501    0  0.00000000000E+00  0.00000000000E+00  0.11632487017E+04  0.11632487017E+04  0.25500000920E-02 0.  1.
       -2   -1    0    0    0  501  0.00000000000E+00  0.00000000000E+00 -0.12327710208E+04  0.12327710208E+04  0.25500000920E-02 0. -1.
    10030    2    1    2    0    0  0.00000000000E+00  0.00000000000E+00 -0.69522319038E+02  0.23960197225E+04  0.23950108889E+04 0.  0.
        2    1    3    3  502    0  0.80187323497E+03 -0.83355762540E+03 -0.34505352208E+03  0.12070132281E+04  0.25500000920E-02 0. -1.
       -2    1    3    3    0  502 -0.80187323497E+03  0.83355762540E+03  0.27553120304E+03  0.11890064944E+04  0.25500000920E-02 0.  1.
</event>
<event>
 5   0  0.5690124E-07  0.2401732E+04  0.7818609E-02  0.8438855E-01
       -1   -1    0    0    0  501  0.00000000000E+00  0.00000000000E+00  0.96063596937E+03  0.96063596938E+03  0.50400001928E-02 0. -1.
        1   -1    0    0  501    0  0.00000000000E+00  0.00000000000E+00 -0.15011713093E+04  0.15011713093E+04  0.50400001928E-02 0.  1.
    10030    2    1    2    0    0  0.00000000000E+00  0.00000000000E+00 -0.54053533995E+03  0.24618072787E+04  0.24017320050E+04 0.  0.
        2    1    3    3  502    0  0.84448322963E+03  0.24517889055E+02 -0.11450347761E+04  0.14229749437E+04  0.25500000920E-02 0.  1.
       -2    1    3    3    0  502 -0.84448322963E+03 -0.24517889055E+02  0.60449943611E+03  0.10388323350E+04  0.25500000920E-02 0. -1.
</event>
<event>
 5   0  0.5363690E-07  0.2399758E+04  0.7818609E-02  0.8439594E-01
        1   -1    0    0  501    0  0.00000000000E+00  0.00000000000E+00  0.21100109489E+04  0.21100109489E+04  0.50400001928E-02 0. -1.
       -1   -1    0    0    0  501  0.00000000000E+00  0.00000000000E+00 -0.68232347590E+03  0.68232347592E+03  0.50400001928E-02 0.  1.
    10030    2    1    2    0    0  0.00000000000E+00  0.00000000000E+00  0.14276874730E+04  0.27923344248E+04  0.23997583252E+04 0.  0.
        4    1    3    3  502    0 -0.19911129145E+03  0.17584556938E+03  0.20753639027E+04  0.20922963251E+04  0.12699999809E+01 0. -1.
       -4    1    3    3    0  502  0.19911129145E+03 -0.17584556938E+03 -0.64767642966E+03  0.70003809974E+03  0.12699999809E+01 0.  1.
</event>
<event>
 5   0  0.5363690E-07  0.2400144E+04  0.7818609E-02  0.8439450E-01
        1   -1    0    0  501    0  0.00000000000E+00  0.00000000000E+00  0.95613664737E+03  0.95613664738E+03  0.50400001928E-02 0. -1.
       -1   -1    0    0    0  501  0.00000000000E+00  0.00000000000E+00 -0.15062410883E+04  0.15062410883E+04  0.50400001928E-02 0.  1.
    10030    2    1    2    0    0  0.00000000000E+00  0.00000000000E+00 -0.55010444093E+03  0.24623777357E+04  0.24001435826E+04 0.  0.
        4    1    3    3  502    0 -0.50503669155E+03  0.45021309771E+03 -0.12919220044E+04  0.14583613994E+04  0.12699999809E+01 0.  1.
       -4    1    3    3    0  502  0.50503669155E+03 -0.45021309771E+03  0.74181756342E+03  0.10040163363E+04  0.12699999809E+01 0. -1.
</event>
<event>
 5   0  0.1336057E-06  0.2396053E+04  0.7818609E-02  0.8440983E-01
       -2   -1    0    0    0  501  0.00000000000E+00  0.00000000000E+00  0.10370300328E+04  0.10370300328E+04  0.25500000920E-02 0. -1.
        2   -1    0    0  501    0  0.00000000000E+00  0.00000000000E+00 -0.13840167736E+04  0.13840167736E+04  0.25500000920E-02 0.  1.
    10030    2    1    2    0    0  0.00000000000E+00  0.00000000000E+00 -0.34698674084E+03  0.24210468063E+04  0.23960525537E+04 0.  0.
        2    1    3    3  502    0 -0.47994590858E+03  0.76624637889E+03  0.62069890140E+03  0.10966990082E+04  0.25500000920E-02 0. -1.
       -2    1    3    3    0  502  0.47994590858E+03 -0.76624637889E+03 -0.96768564224E+03  0.13243477982E+04  0.25500000920E-02 0.  1.
</event>
<event>
 5   0  0.5527286E-07  0.2397800E+04  0.7818609E-02  0.8440328E-01
        1   -1    0    0  501    0  0.00000000000E+00  0.00000000000E+00  0.16257840157E+04  0.16257840157E+04  0.50400001928E-02 0. -1.
       -1   -1    0    0    0  501  0.00000000000E+00  0.00000000000E+00 -0.88410312000E+03  0.88410312001E+03  0.50400001928E-02 0.  1.
    10030    2    1    2    0    0  0.00000000000E+00  0.00000000000E+00  0.74168089569E+03  0.25098871357E+04  0.23977995919E+04 0.  0.
        1    1    3    3  502    0  0.57035447453E+03  0.34063230776E+03 -0.67382366462E+03  0.94624147380E+03  0.50400001928E-02 0.  1.
       -1    1    3    3    0  502 -0.57035447453E+03 -0.34063230776E+03  0.14155045603E+04  0.15636456619E+04  0.50400001928E-02 0. -1.
</event>
<event>
 5   0  0.1336057E-06  0.2404465E+04  0.7818609E-02  0.8437834E-01
        2   -1    0    0  501    0  0.00000000000E+00  0.00000000000E+00  0.96464903936E+03  0.96464903937E+03  0.25500000920E-02 0. -1.
       -2   -1    0    0    0  501  0.00000000000E+00  0.00000000000E+00 -0.14983301256E+04  0.14983301256E+04  0.25500000920E-02 0.  1.
    10030    2    1    2    0    0  0.00000000000E+00  0.00000000000E+00 -0.53368108623E+03  0.24629791650E+04  0.24044647773E+04 0.  0.
        2    1    3    3  502    0 -0.74288364488E+03  0.75485070336E+03  0.31593989028E+03  0.11052120649E+04  0.25500000920E-02 0. -1.
       -2    1    3    3    0  502  0.74288364488E+03 -0.75485070336E+03 -0.84962097651E+03  0.13577671000E+04  0.25500000920E-02 0.  1.
</event>
<event>
 5   0  0.1336057E-06  0.2401280E+04  0.7818609E-02  0.8439024E-01
        2   -1    0    0  501    0  0.00000000000E+00  0.00000000000E+00  0.20457917060E+04  0.20457917060E+04  0.25500000920E-02 0.  1.
       -2   -1    0    0    0  501  0.00000000000E+00  0.00000000000E+00 -0.70463505405E+03  0.70463505405E+03  0.25500000920E-02 0. -1.
    10030    2    1    2    0    0  0.00000000000E+00  0.00000000000E+00  0.13411566519E+04  0.27504267600E+04  0.24012801164E+04 0.  0.
        2    1    3    3  502    0  0.85103705702E+03 -0.46667265855E+03 -0.13892804415E+03  0.98048378065E+03  0.25500000920E-02 0. -1.
       -2    1    3    3    0  502 -0.85103705702E+03  0.46667265855E+03  0.14800846961E+04  0.17699429794E+04  0.25500000920E-02 0.  1.
</event>
<event>
 5   0  0.1336057E-06  0.2401354E+04  0.7818609E-02  0.8438997E-01
        2   -1    0    0  501    0  0.00000000000E+00  0.00000000000E+00  0.99369724591E+03  0.99369724591E+03  0.25500000920E-02 0.  1.
       -2   -1    0    0    0  501  0.00000000000E+00  0.00000000000E+00 -0.14507690746E+04  0.14507690746E+04  0.25500000920E-02 0. -1.
    10030    2    1    2    0    0  0.00000000000E+00  0.00000000000E+00 -0.45707182869E+03  0.24444663205E+04  0.24013539796E+04 0.  0.
        2    1    3    3  502    0  0.68231620609E+03  0.25549357898E+03 -0.12000244574E+04  0.14038842803E+04  0.25500000920E-02 0. -1.
       -2    1    3    3    0  502 -0.68231620609E+03 -0.25549357898E+03  0.74295262871E+03  0.10405820403E+04  0.25500000920E-02 0.  1.
</event>
<event>
 5   0  0.1275948E-06  0.2399357E+04  0.7818609E-02  0.8439744E-01
       -2   -1    0    0    0  501  0.00000000000E+00  0.00000000000E+00  0.84348400453E+03  0.84348400453E+03  0.25500000920E-02 0. -1.
        2   -1    0    0  501    0  0.00000000000E+00  0.00000000000E+00 -0.17062897134E+04  0.17062897134E+04  0.25500000920E-02 0.  1.
    10030    2    1    2    0    0  0.00000000000E+00  0.00000000000E+00 -0.86280570889E+03  0.25497737180E+04  0.23993566474E+04 0.  0.
        1    1    3    3  502    0 -0.68552391993E+03 -0.73816303542E+03  0.26089774707E+03  0.10406225762E+04  0.50400001928E-02 0. -1.
       -1    1    3    3    0  502  0.68552391993E+03  0.73816303542E+03 -0.11237034560E+04  0.15091511417E+04  0.50400001928E-02 0.  1.
</event>
<event>
 5   0  0.5690124E-07  0.2400089E+04  0.7818609E-02  0.8439470E-01
        1   -1    0    0  501    0  0.00000000000E+00  0.00000000000E+00  0.21333736926E+04  0.21333736926E+04  0.50400001928E-02 0.  1.
       -1   -1    0    0    0  501  0.00000000000E+00  0.00000000000E+00 -0.67503723967E+03  0.67503723969E+03  0.50400001928E-02 0. -1.
    10030    2    1    2    0    0  0.00000000000E+00  0.00000000000E+00  0.14583364529E+04  0.28084109323E+04  0.24000889056E+04 0.  0.
        2    1    3    3  502    0  0.26658650109E+03  0.64755236989E+03  0.18694962671E+04  0.19963488490E+04  0.25500000920E-02 0.  1.
       -2    1    3    3    0  502 -0.26658650109E+03 -0.64755236989E+03 -0.41115981415E+03  0.81206208328E+03  0.25500000920E-02 0. -1.
</event>
<event>
 5   0  0.1291468E-06  0.2400640E+04  0.7818609E-02  0.8439264E-01
        2   -1    0    0  501    0  0.00000000000E+00  0.00000000000E+00  0.22115611091E+04  0.22115611091E+04  0.25500000920E-02 0. -1.
       -2   -1    0    0    0  501  0.00000000000E+00  0.00000000000E+00 -0.65147111290E+03  0.65147111290E+03  0.25500000920E-02 0.  1.
    10030    2    1    2    0    0  0.00000000000E+00  0.00000000000E+00  0.15600899962E+04  0.28630322220E+04  0.24006400621E+04 0.  0.
        4    1    3    3  502    0 -0.22105522995E+03  0.87184775237E+03 -0.16789976720E+03  0.91497314864E+03  0.12699999809E+01 0.  1.
       -4    1    3    3    0  502  0.22105522995E+03 -0.87184775237E+03  0.17279897634E+04  0.19480590734E+04  0.12699999809E+01 0. -1.
</event>
<event>
 5   0  0.1307477E-06  0.2401242E+04  0.7818609E-02  0.8439039E-01
        2   -1    0    0  501    0  0.00000000000E+00  0.00000000000E+00  0.19784521916E+04  0.19784521916E+04  0.25500000920E-02 0. -1.
       -2   -1    0    0    0  501  0.00000000000E+00  0.00000000000E+00 -0.72859530781E+03  0.72859530782E+03  0.25500000920E-02 0.  1.
    10030    2    1    2    0    0  0.00000000000E+00  0.00000000000E+00  0.12498568837E+04  0.27070474994E+04  0.24012421648E+04 0.  0.
        5    1    3    3  502    0 -0.47698191679E+03  0.16693115493E+03  0.18527038920E+04  0.19203935953E+04  0.46999998093E+01 0. -1.
       -5    1    3    3    0  502  0.47698191679E+03 -0.16693115493E+03 -0.60284700826E+03  0.78665390407E+03  0.46999998093E+01 0.  1.
</event>
<event>
 5   0  0.5510176E-07  0.2399788E+04  0.7818609E-02  0.8439583E-01
       -1   -1    0    0    0  501  0.00000000000E+00  0.00000000000E+00  0.73815039490E+03  0.73815039492E+03  0.50400001928E-02 0. -1.
        1   -1    0    0  501    0  0.00000000000E+00  0.00000000000E+00 -0.19504779582E+04  0.19504779582E+04  0.50400001928E-02 0.  1.
    10030    2    1    2    0    0  0.00000000000E+00  0.00000000000E+00 -0.12123275633E+04  0.26886283531E+04  0.23997883866E+04 0.  0.
        3    1    3    3  502    0 -0.22658599254E+03  0.10997778028E+04 -0.13229808168E+03  0.11306437194E+04  0.10100000352E+00 0. -1.
       -3    1    3    3    0  502  0.22658599254E+03 -0.10997778028E+04 -0.10800294816E+04  0.15579846337E+04  0.10100000352E+00 0.  1.
</event>
<event>
 5   0  0.1307477E-06  0.2399340E+04  0.7818609E-02  0.8439751E-01
       -2   -1    0    0    0  501  0.00000000000E+00  0.00000000000E+00  0.98012325973E+03  0.98012325973E+03  0.25500000920E-02 0. -1.
        2   -1    0    0  501    0  0.00000000000E+00  0.00000000000E+00 -0.14683950525E+04  0.14683950525E+04  0.25500000920E-02 0.  1.
    10030    2    1    2    0    0  0.00000000000E+00  0.00000000000E+00 -0.48827179273E+03  0.24485183122E+04  0.23993400304E+04 0.  0.
        5    1    3    3  502    0 -0.42887750219E+03  0.74955570983E+03  0.60564821211E+03  0.10547992799E+04  0.46999998093E+01 0. -1.
       -5    1    3    3    0  502  0.42887750219E+03 -0.74955570983E+03 -0.10939200048E+04  0.13937190323E+04  0.46999998093E+01 0.  1.
</event>
<event>
 5   0  0.5452384E-07  0.2399967E+04  0.7818609E-02  0.8439516E-01
        1   -1    0    0  501    0  0.00000000000E+00  0.00000000000E+00  0.16629469142E+04  0.16629469142E+04  0.50400001928E-02 0. -1.
       -1   -1    0    0    0  501  0.00000000000E+00  0.00000000000E+00 -0.86590875738E+03  0.86590875739E+03  0.50400001928E-02 0.  1.
    10030    2    1    2    0    0  0.00000000000E+00  0.00000000000E+00  0.79703815679E+03  0.25288556716E+04  0.23999669132E+04 0.  0.
        5    1    3    3  502    0 -0.71853591415E+03  0.34679616502E+02  0.14105370995E+04  0.15833930449E+04  0.46999998093E+01 0. -1.
       -5    1    3    3    0  502  0.71853591415E+03 -0.34679616502E+02 -0.61349894267E+03  0.94546262665E+03  0.46999998093E+01 0.  1.
</event>
<event>
 5   0  0.1307477E-06  0.2400377E+04  0.7818609E-02  0.8439363E-01
       -2   -1    0    0    0  501  0.00000000000E+00  0.00000000000E+00  0.12485673409E+04  0.12485673409E+04  0.25500000920E-02 0. -1.
        2   -1    0    0  501    0  0.00000000000E+00  0.00000000000E+00 -0.11536838613E+04  0.11536838613E+04  0.25500000920E-02 0.  1.
    10030    2    1    2    0    0  0.00000000000E+00  0.00000000000E+00  0.94883479672E+02  0.24022512022E+04  0.24003766296E+04 0.  0.
        5    1    3    3  502    0  0.78514477145E+03 -0.28885307219E+02  0.95542268471E+03  0.12369887912E+04  0.46999998093E+01 0. -1.
       -5    1    3    3    0  502 -0.78514477145E+03  0.28885307219E+02 -0.86053920503E+03  0.11652624110E+04  0.46999998093E+01 0.  1.
</event>
<event>
 5   0  0.1336057E-06  0.2400462E+04  0.7818609E-02  0.8439331E-01
       -2   -1    0    0    0  501  0.00000000000E+00  0.00000000000E+00  0.19140037233E+04  0.19140037233E+04  0.25500000920E-02 0. -1.
        2   -1    0    0  501    0  0.00000000000E+00  0.00000000000E+00 -0.75263930041E+03  0.75263930042E+03  0.25500000920E-02 0.  1.
    10030    2    1    2    0    0  0.00000000000E+00  0.00000000000E+00  0.11613644229E+04  0.26666430237E+04  0.24004619750E+04 0.  0.
        2    1    3    3  502    0 -0.19676044697E+03  0.44858348861E+02 -0.73365652628E+03  0.76090659316E+03  0.25500000920E-02 0.  1.
       -2    1    3    3    0  502  0.19676044697E+03 -0.44858348861E+02  0.18950209492E+04  0.19057364306E+04  0.25500000920E-02 0. -1.
</event>
<event>
 5   0  0.5527286E-07  0.2400026E+04  0.7818609E-02  0.8439494E-01
        1   -1    0    0  501    0  0.00000000000E+00  0.00000000000E+00  0.24560145459E+04  0.24560145459E+04  0.50400001928E-02 0.  1.
       -1   -1    0    0    0  501  0.00000000000E+00  0.00000000000E+00 -0.58632835426E+03  0.58632835428E+03  0.50400001928E-02 0. -1.
    10030    2    1    2    0    0  0.00000000000E+00  0.00000000000E+00  0.18696861916E+04  0.30423429002E+04  0.24000258055E+04 0.  0.
        1    1    3    3  502    0  0.44748169809E+03  0.88486952537E+03  0.78093553670E+02  0.99465197441E+03  0.50400001928E-02 0. -1.
       -1    1    3    3    0  502 -0.44748169809E+03 -0.88486952537E+03  0.17915926380E+04  0.20476909258E+04  0.50400001928E-02 0.  1.
</event>
<event>
 5   0  0.5510176E-07  0.2399553E+04  0.7818609E-02  0.8439671E-01
        1   -1    0    0  501    0  0.00000000000E+00  0.00000000000E+00  0.15686694846E+04  0.15686694847E+04  0.50400001928E-02 0. -1.
       -1   -1    0    0    0  501  0.00000000000E+00  0.00000000000E+00 -0.91763322070E+03  0.91763322071E+03  0.50400001928E-02 0.  1.
    10030    2    1    2    0    0  0.00000000000E+00  0.00000000000E+00  0.65103626395E+03  0.24863027054E+04  0.23995526512E+04 0.  0.
        3    1    3    3  502    0 -0.12136395336E+03  0.68862215584E+03  0.13357183115E+04  0.15076714167E+04  0.10100000352E+00 0. -1.
       -3    1    3    3    0  502  0.12136395336E+03 -0.68862215584E+03 -0.68468204759E+03  0.97863128868E+03  0.10100000352E+00 0.  1.
</event>
<event>
 5   0  0.1291468E-06  0.2399808E+04  0.7818609E-02  0.8439575E-01
       -2   -1    0    0    0  501  0.00000000000E+00  0.00000000000E+00  0.60679524351E+03  0.60679524352E+03  0.25500000920E-02 0.  1.
        2   -1    0    0  501    0  0.00000000000E+00  0.00000000000E+00 -0.23727445140E+04  0.23727445140E+04  0.25500000920E-02 0. -1.
    10030    2    1    2    0    0  0.00000000000E+00  0.00000000000E+00 -0.17659492705E+04  0.29795397576E+04  0.23998083967E+04 0.  0.
        4    1    3    3  502    0 -0.40825934226E+03  0.70666568594E+03  0.20912814996E+03  0.84248933419E+03  0.12699999809E+01 0.  1.
       -4    1    3    3    0  502  0.40825934226E+03 -0.70666568594E+03 -0.19750774205E+04  0.21370504234E+04  0.12699999809E+01 0. -1.
</event>
<event>
 5   0  0.1291468E-06  0.2401903E+04  0.7818609E-02  0.8438792E-01
       -2   -1    0    0    0  501  0.00000000000E+00  0.00000000000E+00  0.93769797493E+03  0.93769797494E+03  0.25500000920E-02 0. -1.
        2   -1    0    0  501    0  0.00000000000E+00  0.00000000000E+00 -0.15381118219E+04  0.15381118219E+04  0.25500000920E-02 0.  1.
    10030    2    1    2    0    0  0.00000000000E+00  0.00000000000E+00 -0.60041384697E+03  0.24758097968E+04  0.24019028628E+04 0.  0.
        4    1    3    3  502    0  0.41497290972E+03 -0.26253297238E+03 -0.14299031092E+04  0.15118698991E+04  0.12699999809E+01 0.  1.
       -4    1    3    3    0  502 -0.41497290972E+03  0.26253297238E+03  0.82948926220E+03  0.96393989771E+03  0.12699999809E+01 0. -1.
</event>
<event>
 5   0  0.1275948E-06  0.2400340E+04  0.7818609E-02  0.8439376E-01
        2   -1    0    0  501    0  0.00000000000E+00  0.00000000000E+00  0.17603267031E+04  0.17603267031E+04  0.25500000920E-02 0. -1.
       -2   -1    0    0    0  501  0.00000000000E+00  0.00000000000E+00 -0.81826202247E+03  0.81826202248E+03  0.25500000920E-02 0.  1.
    10030    2    1    2    0    0  0.00000000000E+00  0.00000000000E+00  0.94206468062E+03  0.25785887256E+04  0.24003403828E+04 0.  0.
        1    1    3    3  502    0 -0.32814820294E+03  0.11171666912E+04  0.15845079700E+03  0.11750954489E+04  0.50400001928E-02 0.  1.
       -1    1    3    3    0  502  0.32814820294E+03 -0.11171666912E+04  0.78361388362E+03  0.14034932767E+04  0.50400001928E-02 0. -1.
</event>
<event>
 5   0  0.1307477E-06  0.2402668E+04  0.7818609E-02  0.8438506E-01
        2   -1    0    0  501    0  0.00000000000E+00  0.00000000000E+00  0.15981877915E+04  0.15981877915E+04  0.25500000920E-02 0. -1.
       -2   -1    0    0    0  501  0.00000000000E+00  0.00000000000E+00 -0.90302463839E+03  0.90302463839E+03  0.25500000920E-02 0.  1.
    10030    2    1    2    0    0  0.00000000000E+00  0.00000000000E+00  0.69516315310E+03  0.25012124299E+04  0.24026676445E+04 0.  0.
        5    1    3    3  502    0  0.65311205563E+02 -0.59949565163E+03  0.14291955255E+04  0.15512196911E+04  0.46999998093E+01 0. -1.
       -5    1    3    3    0  502 -0.65311205563E+02  0.59949565163E+03 -0.73403237245E+03  0.94999273876E+03  0.46999998093E+01 0.  1.
</event>
<event>
 5   0  0.5510176E-07  0.2400530E+04  0.7818609E-02  0.8439305E-01
        1   -1    0    0  501    0  0.00000000000E+00  0.00000000000E+00  0.12205885369E+04  0.12205885369E+04  0.50400001928E-02 0.  1.
       -1   -1    0    0    0  501  0.00000000000E+00  0.00000000000E+00 -0.11802795107E+04  0.11802795107E+04  0.50400001928E-02 0. -1.
    10030    2    1    2    0    0  0.00000000000E+00  0.00000000000E+00  0.40309026237E+02  0.24008680476E+04  0.24005296425E+04 0.  0.
        3    1    3    3  502    0  0.80503595993E+03  0.10306265080E+03  0.90454769426E+03  0.12152824150E+04  0.10100000352E+00 0.  1.
       -3    1    3    3    0  502 -0.80503595993E+03 -0.10306265080E+03 -0.86423866803E+03  0.11855856326E+04  0.10100000352E+00 0. -1.
</event>
<event>
 5   0  0.5527286E-07  0.2399771E+04  0.7818609E-02  0.8439589E-01
       -1   -1    0    0    0  501  0.00000000000E+00  0.00000000000E+00  0.75855869889E+03  0.75855869891E+03  0.50400001928E-02 0.  1.
        1   -1    0    0  501    0  0.00000000000E+00  0.00000000000E+00 -0.18979744876E+04  0.18979744876E+04  0.50400001928E-02 0. -1.
    10030    2    1    2    0    0  0.00000000000E+00  0.00000000000E+00 -0.11394157887E+04  0.26565331865E+04  0.23997708706E+04 0.  0.
        1    1    3    3  502    0  0.14284486895E+03 -0.85630584690E+03  0.34720216768E+03  0.93499396003E+03  0.50400001928E-02 0.  1.
       -1    1    3    3    0  502 -0.14284486895E+03  0.85630584690E+03 -0.14866179564E+04  0.17215392265E+04  0.50400001928E-02 0. -1.
</event>
<event>
 5   0  0.1336057E-06  0.2400907E+04  0.7818609E-02  0.8439164E-01
        2   -1    0    0  501    0  0.00000000000E+00  0.00000000000E+00  0.14827779942E+04  0.14827779942E+04  0.25500000920E-02 0.  1.
       -2   -1    0    0    0  501  0.00000000000E+00  0.00000000000E+00 -0.97188434086E+03  0.97188434087E+03  0.25500000920E-02 0. -1.
    10030    2    1    2    0    0  0.00000000000E+00  0.00000000000E+00  0.51089365338E+03  0.24546623351E+04  0.24009070899E+04 0.  0.
        2    1    3    3  502    0  0.42725075120E+02  0.10442053581E+04 -0.34845441936E+03  0.11016400248E+04  0.25500000920E-02 0. -1.
       -2    1    3    3    0  502 -0.42725075120E+02 -0.10442053581E+04  0.85934807274E+03  0.13530223103E+04  0.25500000920E-02 0.  1.
</event>
<event>
 5   0  0.5452384E-07  0.2397535E+04  0.7818609E-02  0.8440427E-01
       -1   -1    0    0    0  501  0.00000000000E+00  0.00000000000E+00  0.54851314382E+03  0.54851314385E+03  0.50400001928E-02 0.  1.
        1   -1    0    0  501    0  0.00000000000E+00  0.00000000000E+00 -0.26198899820E+04  0.26198899820E+04  0.50400001928E-02 0. -1.
    10030    2    1    2    0    0  0.00000000000E+00  0.00000000000E+00 -0.20713768382E+04  0.31684031258E+04  0.23975354767E+04 0.  0.
        5    1    3    3  502    0 -0.55118905859E+03  0.94719185071E+03 -0.39363909013E+03  0.11644550672E+04  0.46999998093E+01 0. -1.
       -5    1    3    3    0  502  0.55118905859E+03 -0.94719185071E+03 -0.16777377480E+04  0.20039480586E+04  0.46999998093E+01 0.  1.
</event>
<event>
 5   0  0.5510176E-07  0.2400704E+04  0.7818609E-02  0.8439240E-01
        1   -1    0    0  501    0  0.00000000000E+00  0.00000000000E+00  0.15509265572E+04  0.15509265572E+04  0.50400001928E-02 0. -1.
       -1   -1    0    0    0  501  0.00000000000E+00  0.00000000000E+00 -0.92902210005E+03  0.92902210006E+03  0.50400001928E-02 0.  1.
    10030    2    1    2    0    0  0.00000000000E+00  0.00000000000E+00  0.62190445715E+03  0.24799486573E+04  0.24007041027E+04 0.  0.
        3    1    3    3  502    0 -0.78623720726E+03 -0.16180642538E+03 -0.61097261793E+03  0.10087803604E+04  0.10100000352E+00 0.  1.
       -3    1    3    3    0  502  0.78623720726E+03  0.16180642538E+03  0.12328770751E+04  0.14711682969E+04  0.10100000352E+00 0. -1.
</event>
<event>
 5   0  0.5690124E-07  0.2400636E+04  0.7818609E-02  0.8439266E-01
       -1   -1    0    0    0  501  0.00000000000E+00  0.00000000000E+00  0.97322348930E+03  0.97322348931E+03  0.50400001928E-02 0. -1.
        1   -1    0    0  501    0  0.00000000000E+00  0.00000000000E+00 -0.14804031155E+04  0.14804031155E+04  0.50400001928E-02 0.  1.
    10030    2    1    2    0    0  0.00000000000E+00  0.00000000000E+00 -0.50717962621E+03  0.24536266048E+04  0.24006358205E+04 0.  0.
        2    1    3    3  502    0  0.34965067635E+03  0.76592090964E+03 -0.11279692772E+04  0.14075528856E+04  0.25500000920E-02 0.  1.
       -2    1    3    3    0  502 -0.34965067635E+03 -0.76592090964E+03  0.62078965102E+03  0.10460737193E+04  0.25500000920E-02 0. -1.
</event>
<event>
 5   0  0.1336057E-06  0.2399131E+04  0.7818609E-02  0.8439829E-01
       -2   -1    0    0    0  501  0.00000000000E+00  0.00000000000E+00  0.62616704429E+03  0.62616704430E+03  0.25500000920E-02 0. -1.
        2   -1    0    0  501    0  0.00000000000E+00  0.00000000000E+00 -0.22980402240E+04  0.22980402240E+04  0.25500000920E-02 0.  1.
    10030    2    1    2    0    0  0.00000000000E+00  0.00000000000E+00 -0.16718731797E+04  0.29242072683E+04  0.23991307215E+04 0.  0.
        2    1    3    3  502    0  0.83174276811E+03  0.59800646994E+03 -0.15966751770E+04  0.18970449102E+04  0.25500000920E-02 0.  1.
       -2    1    3    3    0  502 -0.83174276811E+03 -0.59800646994E+03 -0.75198002745E+02  0.10271623582E+04  0.25500000920E-02 0. -1.
</event>
<event>
 5   0  0.1308662E-06  0.2400678E+04  0.7818609E-02  0.8439250E-01
        2   -1    0    0  501    0  0.00000000000E+00  0.00000000000E+00  0.10534655059E+04  0.10534655059E+04  0.25500000920E-02 0.  1.
       -2   -1    0    0    0  501  0.00000000000E+00  0.00000000000E+00 -0.13676892093E+04  0.13676892093E+04  0.25500000920E-02 0. -1.
    10030    2    1    2    0    0  0.00000000000E+00  0.00000000000E+00 -0.31422370337E+03  0.24211547152E+04  0.24006777416E+04 0.  0.
        3    1    3    3  502    0 -0.40743735252E+03  0.54033598580E+03  0.84272983881E+03  0.10808153243E+04  0.10100000352E+00 0.  1.
       -3    1    3    3    0  502  0.40743735252E+03 -0.54033598580E+03 -0.11569535422E+04  0.13403393909E+04  0.10100000352E+00 0. -1.
</event>
<event>
 5   0  0.5452384E-07  0.2399750E+04  0.7818609E-02  0.8439597E-01
       -1   -1    0    0    0  501  0.00000000000E+00  0.00000000000E+00  0.10604606856E+04  0.10604606857E+04  0.50400001928E-02 0. -1.
        1   -1    0    0  501    0  0.00000000000E+00  0.00000000000E+00 -0.13576180893E+04  0.13576180893E+04  0.50400001928E-02 0.  1.
    10030    2    1    2    0    0  0.00000000000E+00  0.00000000000E+00 -0.29715740362E+03  0.24180787749E+04  0.23997504952E+04 0.  0.
        5    1    3    3  502    0 -0.41435033337E+03  0.10252528015E+04  0.32064839204E+03  0.11513761275E+04  0.46999998093E+01 0. -1.
       -5    1    3    3    0  502  0.41435033337E+03 -0.10252528015E+04 -0.61780579566E+03  0.12667026474E+04  0.46999998093E+01 0.  1.
</event>
<event>
 5   0  0.5527286E-07  0.2400360E+04  0.7818609E-02  0.8439369E-01
        1   -1    0    0  501    0  0.00000000000E+00  0.00000000000E+00  0.15120910931E+04  0.15120910931E+04  0.50400001928E-02 0.  1.
       -1   -1    0    0    0  501  0.00000000000E+00  0.00000000000E+00 -0.95260894697E+03  0.95260894698E+03  0.50400001928E-02 0. -1.
    10030    2    1    2    0    0  0.00000000000E+00  0.00000000000E+00  0.55948214609E+03  0.24647000400E+04  0.24003595597E+04 0.  0.
        1    1    3    3  502    0  0.40063418859E+03 -0.53411430811E+03 -0.74431082318E+03  0.99989221855E+03  0.50400001928E-02 0. -1.
       -1    1    3    3    0  502 -0.40063418859E+03  0.53411430811E+03  0.13037929693E+04  0.14648078215E+04  0.50400001928E-02 0.  1.
</event>
<event>
 5   0  0.5510176E-07  0.2402364E+04  0.7818609E-02  0.8438619E-01
        1   -1    0    0  501    0  0.00000000000E+00  0.00000000000E+00  0.87338128469E+03  0.87338128470E+03  0.50400001928E-02 0.  1.
       -1   -1    0    0    0  501  0.00000000000E+00  0.00000000000E+00 -0.16520141252E+04  0.16520141252E+04  0.50400001928E-02 0. -1.
    10030    2    1    2    0    0  0.00000000000E+00  0.00000000000E+00 -0.77863284052E+03  0.25253954099E+04  0.24023640182E+04 0.  0.
        3    1    3    3  502    0 -0.98254628267E+03 -0.64152667793E+03 -0.11949134470E+03  0.11795049248E+04  0.10100000352E+00 0.  1.
       -3    1    3    3    0  502  0.98254628267E+03  0.64152667793E+03 -0.65914149582E+03  0.13458904851E+04  0.10100000352E+00 0. -1.
</event>
<event>
 5   0  0.1307477E-06  0.2401298E+04  0.7818609E-02  0.8439018E-01
       -2   -1    0    0    0  501  0.00000000000E+00  0.00000000000E+00  0.67688161359E+03  0.67688161359E+03  0.25500000920E-02 0. -1.
        2   -1    0    0  501    0  0.00000000000E+00  0.00000000000E+00 -0.21297050773E+04  0.21297050773E+04  0.25500000920E-02 0.  1.
    10030    2    1    2    0    0  0.00000000000E+00  0.00000000000E+00 -0.14528234637E+04  0.28065866909E+04  0.24012981566E+04 0.  0.
        5    1    3    3  502    0 -0.79082606180E+03 -0.81953070818E+03 -0.28212247398E+03  0.11733079826E+04  0.46999998093E+01 0. -1.
       -5    1    3    3    0  502  0.79082606180E+03  0.81953070818E+03 -0.11707009897E+04  0.16332787083E+04  0.46999998093E+01 0.  1.
</event>
<event>
 5   0  0.4483375E-07  0.2406624E+04  0.7818609E-02  0.8437028E-01
       -3   -1    0    0    0  501  0.00000000000E+00  0.00000000000E+00  0.98940721363E+03  0.98940721879E+03  0.10100000352E+00 0.  1.
        3   -1    0    0  501    0  0.00000000000E+00  0.00000000000E+00 -0.14634619425E+04  0.14634619460E+04  0.10100000352E+00 0. -1.
    10030    2    1    2    0    0  0.00000000000E+00  0.00000000000E+00 -0.47405472885E+03  0.24528691648E+04  0.24066240366E+04 0.  0.
        1    1    3    3  502    0  0.45346931338E+03  0.81754189086E+03 -0.10091804486E+04  0.13756650534E+04  0.50400001928E-02 0. -1.
       -1    1    3    3    0  502 -0.45346931338E+03 -0.81754189086E+03  0.53512571972E+03  0.10772041113E+04  0.50400001928E-02 0.  1.
</event>
<event>
 5   0  0.1336057E-06  0.2400408E+04  0.7818609E-02  0.8439351E-01
       -2   -1    0    0    0  501  0.00000000000E+00  0.00000000000E+00  0.99195402476E+03  0.99195402476E+03  0.25500000920E-02 0.  1.
        2   -1    0    0  501    0  0.00000000000E+00  0.00000000000E+00 -0.14521741998E+04  0.14521741998E+04  0.25500000920E-02 0. -1.
    10030    2    1    2    0    0  0.00000000000E+00  0.00000000000E+00 -0.46022017506E+03  0.24441282246E+04  0.24004083337E+04 0.  0.
        2    1    3    3  502    0 -0.38519504637E+03 -0.88270096637E+03  0.49914252824E+03  0.10847485807E+04  0.25500000920E-02 0.  1.
       -2    1    3    3    0  502  0.38519504637E+03  0.88270096637E+03 -0.95936270330E+03  0.13593796439E+04  0.25500000920E-02 0. -1.
</event>
<event>
 5   0  0.1336057E-06  0.2399259E+04  0.7818609E-02  0.8439781E-01
        2   -1    0    0  501    0  0.00000000000E+00  0.00000000000E+00  0.72279996406E+03  0.72279996407E+03  0.25500000920E-02 0.  1.
       -2   -1    0    0    0  501  0.00000000000E+00  0.00000000000E+00 -0.19910229955E+04  0.19910229955E+04  0.25500000920E-02 0. -1.
    10030    2    1    2    0    0  0.00000000000E+00  0.00000000000E+00 -0.12682230314E+04  0.27138229596E+04  0.23992593437E+04 0.  0.
        2    1    3    3  502    0  0.15307978305E+03  0.55701273531E+03 -0.18233444931E+04  0.19126635219E+04  0.25500000920E-02 0. -1.
       -2    1    3    3    0  502 -0.15307978305E+03 -0.55701273531E+03  0.55512146172E+03  0.80115943766E+03  0.25500000920E-02 0.  1.
</event>
<event>
 5   0  0.1307477E-06  0.2399103E+04  0.7818609E-02  0.8439840E-01
        2   -1    0    0  501    0  0.00000000000E+00  0.00000000000E+00  0.98863685416E+03  0.98863685417E+03  0.25500000920E-02 0. -1.
       -2   -1    0    0    0  501  0.00000000000E+00  0.00000000000E+00 -0.14554620817E+04  0.14554620817E+04  0.25500000920E-02 0.  1.
    10030    2    1    2    0    0  0.00000000000E+00  0.00000000000E+00 -0.46682522750E+03  0.24440989358E+04  0.23991027104E+04 0.  0.
        5    1    3    3  502    0  0.29493740163E+03  0.91068806604E+03 -0.96985410062E+03  0.13627104942E+04  0.46999998093E+01 0.  1.
       -5    1    3    3    0  502 -0.29493740163E+03 -0.91068806604E+03  0.50302887312E+03  0.10813884416E+04  0.46999998093E+01 0. -1.
</event>
<event>
 5   0  0.1275948E-06  0.2400586E+04  0.7818609E-02  0.8439284E-01
        2   -1    0    0  501    0  0.00000000000E+00  0.00000000000E+00  0.20835431457E+04  0.20835431457E+04  0.25500000920E-02 0.  1.
       -2   -1    0    0    0  501  0.00000000000E+00  0.00000000000E+00 -0.69146822106E+03  0.69146822107E+03  0.25500000920E-02 0. -1.
    10030    2    1    2    0    0  0.00000000000E+00  0.00000000000E+00  0.13920749246E+04  0.27750113668E+04  0.24005864887E+04 0.  0.
        1    1    3    3  502    0 -0.91979979334E+02  0.31054490998E+03 -0.64000114707E+03  0.71728650203E+03  0.50400001928E-02 0. -1.
       -1    1    3    3    0  502  0.91979979334E+02 -0.31054490998E+03  0.20320760717E+04  0.20577248647E+04  0.50400001928E-02 0.  1.
</event>
<event>
 5   0  0.1336057E-06  0.2383885E+04  0.7818609E-02  0.8445561E-01
        2   -1    0    0  501    0  0.00000000000E+00  0.00000000000E+00  0.16840120930E+04  0.16840120930E+04  0.25500000920E-02 0.  1.
       -2   -1    0    0    0  501  0.00000000000E+00  0.00000000000E+00 -0.84365622600E+03  0.84365622601E+03  0.25500000920E-02 0. -1.
    10030    2    1    2    0    0  0.00000000000E+00  0.00000000000E+00  0.84035586704E+03  0.25276683191E+04  0.23838853051E+04 0.  0.
        2    1    3    3  502    0 -0.18260319432E+03  0.33581845275E+03  0.16172582085E+04  0.16618189049E+04  0.25500000920E-02 0.  1.
       -2    1    3    3    0  502  0.18260319432E+03 -0.33581845275E+03 -0.77690234146E+03  0.86584941413E+03  0.25500000920E-02 0. -1.
</event>
<event>
 5   0  0.1275948E-06  0.2401849E+04  0.7818609E-02  0.8438812E-01
        2   -1    0    0  501    0  0.00000000000E+00  0.00000000000E+00  0.16681400908E+04  0.16681400908E+04  0.25500000920E-02 0.  1.
       -2   -1    0    0    0  501  0.00000000000E+00  0.00000000000E+00 -0.86456763564E+03  0.86456763564E+03  0.25500000920E-02 0. -1.
    10030    2    1    2    0    0  0.00000000000E+00  0.00000000000E+00  0.80357245521E+03  0.25327077265E+04  0.24018492328E+04 0.  0.
        1    1    3    3  502    0 -0.49408722985E+03 -0.70995140329E+03 -0.47671010312E+03  0.98762629986E+03  0.50400001928E-02 0. -1.
       -1    1    3    3    0  502  0.49408722985E+03  0.70995140329E+03  0.12802825583E+04  0.15450814266E+04  0.50400001928E-02 0.  1.
</event>
<event>
 5   0  0.5363690E-07  0.2399473E+04  0.7818609E-02  0.8439701E-01
       -1   -1    0    0    0  501  0.00000000000E+00  0.00000000000E+00  0.89728303740E+03  0.89728303742E+03  0.50400001928E-02 0.  1.
        1   -1    0    0  501    0  0.00000000000E+00  0.00000000000E+00 -0.16041404752E+04  0.16041404752E+04  0.50400001928E-02 0. -1.
    10030    2    1    2    0    0  0.00000000000E+00  0.00000000000E+00 -0.70685743778E+03  0.25014235126E+04  0.23994733072E+04 0.  0.
        4    1    3    3  502    0  0.48495204336E+03 -0.61585971908E+01  0.79053329071E+03  0.92744860197E+03  0.12699999809E+01 0.  1.
       -4    1    3    3    0  502 -0.48495204336E+03  0.61585971908E+01 -0.14973907285E+04  0.15739749106E+04  0.12699999809E+01 0. -1.
</event>
<event>
 5   0  0.5363690E-07  0.2400556E+04  0.7818609E-02  0.8439295E-01
       -1   -1    0    0    0  501  0.00000000000E+00  0.00000000000E+00  0.15205839250E+04  0.15205839250E+04  0.50400001928E-02 0.  1.
        1   -1    0    0  501    0  0.00000000000E+00  0.00000000000E+00 -0.94744375420E+03  0.94744375422E+03  0.50400001928E-02 0. -1.
    10030    2    1    2    0    0  0.00000000000E+00  0.00000000000E+00  0.57314017078E+03  0.24680276792E+04  0.24005563876E+04 0.  0.
        4    1    3    3  502    0 -0.10918356487E+04  0.49330888447E+03  0.36076056485E+03  0.12512427971E+04  0.12699999809E+01 0. -1.
       -4    1    3    3    0  502  0.10918356487E+04 -0.49330888447E+03  0.21237960593E+03  0.12167848821E+04  0.12699999809E+01 0.  1.
</event>
<event>
 5   0  0.5363690E-07  0.2397922E+04  0.7818609E-02  0.8440282E-01
        1   -1    0    0  501    0  0.00000000000E+00  0.00000000000E+00  0.11638344155E+04  0.11638344155E+04  0.50400001928E-02 0. -1.
       -1   -1    0    0    0  501  0.00000000000E+00  0.00000000000E+00 -0.12351480822E+04  0.12351480822E+04  0.50400001928E-02 0.  1.
    10030    2    1    2    0    0  0.00000000000E+00  0.00000000000E+00 -0.71313666689E+02  0.23989824977E+04  0.23979223059E+04 0.  0.
        4    1    3    3  502    0 -0.88625097554E+03  0.10946549900E+03 -0.83606227441E+03  0.12232846058E+04  0.12699999809E+01 0.  1.
       -4    1    3    3    0  502  0.88625097554E+03 -0.10946549900E+03  0.76474860772E+03  0.11756978919E+04  0.12699999809E+01 0. -1.
</event>
<event>
 5   0  0.1291468E-06  0.2398237E+04  0.7818609E-02  0.8440164E-01
       -2   -1    0    0    0  501  0.00000000000E+00  0.00000000000E+00  0.10061609368E+04  0.10061609368E+04  0.25500000920E-02 0.  1.
        2   -1    0    0  501    0  0.00000000000E+00  0.00000000000E+00 -0.14290807450E+04  0.14290807450E+04  0.25500000920E-02 0. -1.
    10030    2    1    2    0    0  0.00000000000E+00  0.00000000000E+00 -0.42291980817E+03  0.24352416818E+04  0.23982370368E+04 0.  0.
        4    1    3    3  502    0  0.59558627064E+03 -0.16762957524E+03 -0.12544705302E+04  0.13987568067E+04  0.12699999809E+01 0. -1.
       -4    1    3    3    0  502 -0.59558627064E+03  0.16762957524E+03  0.83155072199E+03  0.10364848752E+04  0.12699999809E+01 0.  1.
</event>
<event>
 5   0  0.5452384E-07  0.2400959E+04  0.7818609E-02  0.8439145E-01
        1   -1    0    0  501    0  0.00000000000E+00  0.00000000000E+00  0.20932089597E+04  0.20932089597E+04  0.50400001928E-02 0. -1.
       -1   -1    0    0    0  501  0.00000000000E+00  0.00000000000E+00 -0.68848891301E+03  0.68848891303E+03  0.50400001928E-02 0.  1.
    10030    2    1    2    0    0  0.00000000000E+00  0.00000000000E+00  0.14047200467E+04  0.27816978728E+04  0.24009591095E+04 0.  0.
        5    1    3    3  502    0  0.75318949394E+03 -0.60936960713E+03  0.15236464983E+04  0.18055875702E+04  0.46999998093E+01 0. -1.
       -5    1    3    3    0  502 -0.75318949394E+03  0.60936960713E+03 -0.11892645159E+03  0.97611030256E+03  0.46999998093E+01 0.  1.
</event>
<event>
 5   0  0.5690124E-07  0.2400585E+04  0.7818609E-02  0.8439284E-01
        1   -1    0    0  501    0  0.00000000000E+00  0.00000000000E+00  0.17518248042E+04  0.17518248042E+04  0.50400001928E-02 0. -1.
       -1   -1    0    0    0  501  0.00000000000E+00  0.00000000000E+00 -0.82240104050E+03  0.82240104052E+03  0.50400001928E-02 0.  1.
    10030    2    1    2    0    0  0.00000000000E+00  0.00000000000E+00  0.92942376366E+03  0.25742258447E+04  0.24005853801E+04 0.  0.
        2    1    3    3  502    0 -0.90321542726E+03  0.72920747745E+03  0.13741165944E+03  0.11689412378E+04  0.25500000920E-02 0.  1.
       -2    1    3    3    0  502  0.90321542726E+03 -0.72920747745E+03  0.79201210422E+03  0.14052846069E+04  0.25500000920E-02 0. -1.
</event>
<event>
 5   0  0.5363690E-07  0.2399915E+04  0.7818609E-02  0.8439535E-01
       -1   -1    0    0    0  501  0.00000000000E+00  0.00000000000E+00  0.10680319327E+04  0.10680319328E+04  0.50400001928E-02 0. -1.
        1   -1    0    0  501    0  0.00000000000E+00  0.00000000000E+00 -0.13481787276E+04  0.13481787276E+04  0.50400001928E-02 0.  1.
    10030    2    1    2    0    0  0.00000000000E+00  0.00000000000E+00 -0.28014679482E+03  0.24162106603E+04  0.23999149419E+04 0.  0.
        4    1    3    3  502    0 -0.50095297430E+02  0.52405205998E+03 -0.12257070119E+04  0.13339787825E+04  0.12699999809E+01 0.  1.
       -4    1    3    3    0  502  0.50095297430E+02 -0.52405205998E+03  0.94556021704E+03  0.10822318778E+04  0.12699999809E+01 0. -1.
</event>
<event>
 5   0  0.5363690E-07  0.2399816E+04  0.7818609E-02  0.8439572E-01
       -1   -1    0    0    0  501  0.00000000000E+00  0.00000000000E+00  0.67626107292E+03  0.67626107294E+03  0.50400001928E-02 0.  1.
        1   -1    0    0  501    0  0.00000000000E+00  0.00000000000E+00 -0.21290289389E+04  0.21290289389E+04  0.50400001928E-02 0. -1.
    10030    2    1    2    0    0  0.00000000000E+00  0.00000000000E+00 -0.14527678660E+04  0.28052900118E+04  0.23998161551E+04 0.  0.
        4    1    3    3  502    0  0.58813305198E+03 -0.43645746069E+03 -0.18374389186E+04  0.19780240126E+04  0.12699999809E+01 0. -1.
       -4    1    3    3    0  502 -0.58813305198E+03  0.43645746069E+03  0.38467105267E+03  0.82726599923E+03  0.12699999809E+01 0.  1.
</event>
<event>
 5   0  0.1308662E-06  0.2399358E+04  0.7818609E-02  0.8439744E-01
       -2   -1    0    0    0  501  0.00000000000E+00  0.00000000000E+00  0.19873562464E+04  0.19873562464E+04  0.25500000920E-02 0.  1.
        2   -1    0    0  501    0  0.00000000000E+00  0.00000000000E+00 -0.72419323566E+03  0.72419323567E+03  0.25500000920E-02 0. -1.
    10030    2    1    2    0    0  0.00000000000E+00  0.00000000000E+00  0.12631630108E+04  0.27115494821E+04  0.23993582063E+04 0.  0.
        3    1    3    3  502    0  0.67305284434E+03  0.19522570342E+03  0.17319885202E+04  0.18683943510E+04  0.10100000352E+00 0.  1.
       -3    1    3    3    0  502 -0.67305284434E+03 -0.19522570342E+03 -0.46882550945E+03  0.84315513108E+03  0.10100000352E+00 0. -1.
</event>
<event>
 5   0  0.5690124E-07  0.2398682E+04  0.7818609E-02  0.8439997E-01
       -1   -1    0    0    0  501  0.00000000000E+00  0.00000000000E+00  0.15190552712E+04  0.15190552712E+04  0.50400001928E-02 0.  1.
        1   -1    0    0  501    0  0.00000000000E+00  0.00000000000E+00 -0.94691697314E+03  0.94691697315E+03  0.50400001928E-02 0. -1.
    10030    2    1    2    0    0  0.00000000000E+00  0.00000000000E+00  0.57213829809E+03  0.24659722444E+04  0.23986823212E+04 0.  0.
        2    1    3    3  502    0 -0.60616543733E+03  0.55680108850E+03 -0.61072961886E+03  0.10249169025E+04  0.25500000920E-02 0. -1.
       -2    1    3    3    0  502  0.60616543733E+03 -0.55680108850E+03  0.11828679170E+04  0.14410553419E+04  0.25500000920E-02 0.  1.
</event>
<event>
 5   0  0.1308662E-06  0.2399681E+04  0.7818609E-02  0.8439623E-01
        2   -1    0    0  501    0  0.00000000000E+00  0.00000000000E+00  0.69322976862E+03  0.69322976863E+03  0.25500000920E-02 0.  1.
       -2   -1    0    0    0  501  0.00000000000E+00  0.00000000000E+00 -0.20766818817E+04  0.20766818817E+04  0.25500000920E-02 0. -1.
    10030    2    1    2    0    0  0.00000000000E+00  0.00000000000E+00 -0.13834521131E+04  0.27699116503E+04  0.23996813958E+04 0.  0.
        3    1    3    3  502    0 -0.57144951979E+03  0.62518522310E+03 -0.16726674268E+04  0.18748939830E+04  0.10100000352E+00 0. -1.
       -3    1    3    3    0  502  0.57144951979E+03 -0.62518522310E+03  0.28921531371E+03  0.89501766728E+03  0.10100000352E+00 0.  1.
</event>
<event>
 5   0  0.5452384E-07  0.2400235E+04  0.7818609E-02  0.8439416E-01
       -1   -1    0    0    0  501  0.00000000000E+00  0.00000000000E+00  0.99656433521E+03  0.99656433522E+03  0.50400001928E-02 0. -1.
        1   -1    0    0  501    0  0.00000000000E+00  0.00000000000E+00 -0.14452470705E+04  0.14452470705E+04  0.50400001928E-02 0.  1.
    10030    2    1    2    0    0  0.00000000000E+00  0.00000000000E+00 -0.44868273532E+03  0.24418114058E+04  0.24002347269E+04 0.  0.
        5    1    3    3  502    0 -0.97421124504E+03 -0.51408293449E+03  0.26024013203E+03  0.11318638742E+04  0.46999998093E+01 0. -1.
       -5    1    3    3    0  502  0.97421124504E+03  0.51408293449E+03 -0.70892286735E+03  0.13099475315E+04  0.46999998093E+01 0.  1.
</event>
<event>
 5   0  0.1308662E-06  0.2399816E+04  0.7818609E-02  0.8439572E-01
       -2   -1    0    0    0  501  0.00000000000E+00  0.00000000000E+00  0.61512864993E+03  0.61512864994E+03  0.25500000920E-02 0.  1.
        2   -1    0    0  501    0  0.00000000000E+00  0.00000000000E+00 -0.23406150724E+04  0.23406150724E+04  0.25500000920E-02 0. -1.
    10030    2    1    2    0    0  0.00000000000E+00  0.00000000000E+00 -0.17254864224E+04  0.29557437223E+04  0.23998161509E+04 0.  0.
        3    1    3    3  502    0 -0.15452853618E+03  0.58047235630E+03  0.41660833189E+03  0.73101965591E+03  0.10100000352E+00 0.  1.
       -3    1    3    3    0  502  0.15452853618E+03 -0.58047235630E+03 -0.21420947543E+04  0.22247240664E+04  0.10100000352E+00 0. -1.
</event>
<event>
 5   0  0.5510176E-07  0.2399616E+04  0.7818609E-02  0.8439647E-01
        1   -1    0    0  501    0  0.00000000000E+00  0.00000000000E+00  0.91627540046E+03  0.91627540047E+03  0.50400001928E-02 0.  1.
       -1   -1    0    0    0  501  0.00000000000E+00  0.00000000000E+00 -0.15710773160E+04  0.15710773160E+04  0.50400001928E-02 0. -1.
    10030    2    1    2    0    0  0.00000000000E+00  0.00000000000E+00 -0.65480191555E+03  0.24873527165E+04  0.23996162167E+04 0.  0.
        3    1    3    3  502    0 -0.88431566216E+03 -0.38630037428E+03 -0.10664180701E+04  0.14382244887E+04  0.10100000352E+00 0. -1.
       -3    1    3    3    0  502  0.88431566216E+03  0.38630037428E+03  0.41161615452E+03  0.10491282278E+04  0.10100000352E+00 0.  1.
</event>
<event>
 5   0  0.5452384E-07  0.2400168E+04  0.7818609E-02  0.8439441E-01
        1   -1    0    0  501    0  0.00000000000E+00  0.00000000000E+00  0.11215118379E+04  0.11215118379E+04  0.50400001928E-02 0.  1.
       -1   -1    0    0    0  501  0.00000000000E+00  0.00000000000E+00 -0.12841607351E+04  0.12841607351E+04  0.50400001928E-02 0. -1.
    10030    2    1    2    0    0  0.00000000000E+00  0.00000000000E+00 -0.16264889721E+03  0.24056725731E+04  0.24001678827E+04 0.  0.
        5    1    3    3  502    0  0.27833815804E+02 -0.10378959284E+04 -0.68451585917E+03  0.12436184025E+04  0.46999998093E+01 0. -1.
       -5    1    3    3    0  502 -0.27833815804E+02  0.10378959284E+04  0.52186696196E+03  0.11620541706E+04  0.46999998093E+01 0.  1.
</event>
<event>
 5   0  0.1307477E-06  0.2399892E+04  0.7818609E-02  0.8439544E-01
       -2   -1    0    0    0  501  0.00000000000E+00  0.00000000000E+00  0.16262543913E+04  0.16262543913E+04  0.25500000920E-02 0.  1.
        2   -1    0    0  501    0  0.00000000000E+00  0.00000000000E+00 -0.88539041709E+03  0.88539041709E+03  0.25500000920E-02 0. -1.
    10030    2    1    2    0    0  0.00000000000E+00  0.00000000000E+00  0.74086397419E+03  0.25116448084E+04  0.23998917091E+04 0.  0.
        5    1    3    3  502    0  0.63775404890E+03 -0.16675586040E+03 -0.67890897375E+03  0.94629658591E+03  0.46999998093E+01 0. -1.
       -5    1    3    3    0  502 -0.63775404890E+03  0.16675586040E+03  0.14197729479E+04  0.15653482225E+04  0.46999998093E+01 0.  1.
</event>
<event>
 5   0  0.5510176E-07  0.2398328E+04  0.7818609E-02  0.8440130E-01
       -1   -1    0    0    0  501  0.00000000000E+00  0.00000000000E+00  0.11978689482E+04  0.11978689482E+04  0.50400001928E-02 0.  1.
        1   -1    0    0  501    0  0.00000000000E+00  0.00000000000E+00 -0.12004603225E+04  0.12004603225E+04  0.50400001928E-02 0. -1.
    10030    2    1    2    0    0  0.00000000000E+00  0.00000000000E+00 -0.25913742795E+01  0.23983292707E+04  0.23983278707E+04 0.  0.
        3    1    3    3  502    0 -0.55972157586E+03 -0.88375193254E+02  0.10555378004E+04  0.11980227358E+04  0.10100000352E+00 0.  1.
       -3    1    3    3    0  502  0.55972157586E+03  0.88375193254E+02 -0.10581291747E+04  0.12003065349E+04  0.10100000352E+00 0. -1.
</event>
<event>
 5   0  0.5690124E-07  0.2393800E+04  0.7818609E-02  0.8441828E-01
       -1   -1    0    0    0  501  0.00000000000E+00  0.00000000000E+00  0.70434365192E+03  0.70434365194E+03  0.50400001928E-02 0.  1.
        1   -1    0    0  501    0  0.00000000000E+00  0.00000000000E+00 -0.20339075665E+04  0.20339075665E+04  0.50400001928E-02 0. -1.
    10030    2    1    2    0    0  0.00000000000E+00  0.00000000000E+00 -0.13295639145E+04  0.27382512184E+04  0.23938002281E+04 0.  0.
        2    1    3    3  502    0 -0.27516426821E+03 -0.74510239731E+03 -0.16889826789E+04  0.18664285271E+04  0.25500000920E-02 0. -1.
       -2    1    3    3    0  502  0.27516426821E+03  0.74510239731E+03  0.35941876436E+03  0.87182269135E+03  0.25500000920E-02 0.  1.
</event>
<event>
 5   0  0.1336057E-06  0.2406825E+04  0.7818609E-02  0.8436953E-01
       -2   -1    0    0    0  501  0.00000000000E+00  0.00000000000E+00  0.94399310107E+03  0.94399310107E+03  0.25500000920E-02 0.  1.
        2   -1    0    0  501    0  0.00000000000E+00  0.00000000000E+00 -0.15341231497E+04  0.15341231497E+04  0.25500000920E-02 0. -1.
    10030    2    1    2    0    0  0.00000000000E+00  0.00000000000E+00 -0.59013004868E+03  0.24781162508E+04  0.24068250203E+04 0.  0.
        2    1    3    3  502    0 -0.58711555493E+03  0.89015485633E+03  0.27923925053E+03  0.11022952881E+04  0.25500000920E-02 0. -1.
       -2    1    3    3    0  502  0.58711555493E+03 -0.89015485633E+03 -0.86936929921E+03  0.13758209627E+04  0.25500000920E-02 0.  1.
</event>
<event>
 5   0  0.1336057E-06  0.2402258E+04  0.7818609E-02  0.8438659E-01
        2   -1    0    0  501    0  0.00000000000E+00  0.00000000000E+00  0.92421165837E+03  0.92421165837E+03  0.25500000920E-02 0.  1.
       -2   -1    0    0    0  501  0.00000000000E+00  0.00000000000E+00 -0.15610176485E+04  0.15610176485E+04  0.25500000920E-02 0. -1.
    10030    2    1    2    0    0  0.00000000000E+00  0.00000000000E+00 -0.63680599012E+03  0.24852293069E+04  0.24022578626E+04 0.  0.
        2    1    3    3  502    0  0.35714568787E+03 -0.10579291877E+04  0.13954090098E+03  0.11252727988E+04  0.25500000920E-02 0.  1.
       -2    1    3    3    0  502 -0.35714568787E+03  0.10579291877E+04 -0.77634689111E+03  0.13599565081E+04  0.25500000920E-02 0. -1.
</event>
<event>
 5   0  0.1291468E-06  0.2399341E+04  0.7818609E-02  0.8439750E-01
        2   -1    0    0  501    0  0.00000000000E+00  0.00000000000E+00  0.14098914474E+04  0.14098914474E+04  0.25500000920E-02 0.  1.
       -2   -1    0    0    0  501  0.00000000000E+00  0.00000000000E+00 -0.10207947971E+04  0.10207947971E+04  0.25500000920E-02 0. -1.
    10030    2    1    2    0    0  0.00000000000E+00  0.00000000000E+00  0.38909665025E+03  0.24306862445E+04  0.23993414547E+04 0.  0.
        4    1    3    3  502    0  0.83517098532E+03  0.24491892425E+03  0.10309934193E+04  0.13492386363E+04  0.12699999809E+01 0.  1.
       -4    1    3    3    0  502 -0.83517098532E+03 -0.24491892425E+03 -0.64189676908E+03  0.10814476082E+04  0.12699999809E+01 0. -1.
</event>
<event>
 5   0  0.1275948E-06  0.2399861E+04  0.7818609E-02  0.8439556E-01
        2   -1    0    0  501    0  0.00000000000E+00  0.00000000000E+00  0.14475235211E+04  0.14475235211E+04  0.25500000920E-02 0. -1.
       -2   -1    0    0    0  501  0.00000000000E+00  0.00000000000E+00 -0.99468720719E+03  0.99468720719E+03  0.25500000920E-02 0.  1.
    10030    2    1    2    0    0  0.00000000000E+00  0.00000000000E+00  0.45283631390E+03  0.24422107283E+04  0.23998609364E+04 0.  0.
        1    1    3    3  502    0  0.79527344472E+03  0.53813894602E+03  0.95868537038E+03  0.13568828308E+04  0.50400001928E-02 0. -1.
       -1    1    3    3    0  502 -0.79527344472E+03 -0.53813894602E+03 -0.50584905648E+03  0.10853278975E+04  0.50400001928E-02 0.  1.
</event>
<event>
 5   0  0.4483375E-07  0.2402177E+04  0.7818609E-02  0.8438689E-01
       -4   -1    0    0    0  501  0.00000000000E+00  0.00000000000E+00  0.12195901781E+04  0.12195908394E+04  0.12699999809E+01 0. -1.
        4   -1    0    0  501    0  0.00000000000E+00  0.00000000000E+00 -0.11828658036E+04  0.11828664854E+04  0.12699999809E+01 0.  1.
    10030    2    1    2    0    0  0.00000000000E+00  0.00000000000E+00  0.36724374470E+02  0.24024573248E+04  0.24021766208E+04 0.  0.
        3    1    3    3  502    0 -0.38380985688E+03 -0.10783633669E+04 -0.34559730903E+03  0.11956651151E+04  0.10100000352E+00 0.  1.
       -3    1    3    3    0  502  0.38380985688E+03  0.10783633669E+04  0.38232168350E+03  0.12067922096E+04  0.10100000352E+00 0. -1.
</event>
<event>
 5   0  0.1291468E-06  0.2404314E+04  0.7818609E-02  0.8437890E-01
       -2   -1    0    0    0  501  0.00000000000E+00  0.00000000000E+00  0.73598811996E+03  0.73598811997E+03  0.25500000920E-02 0. -1.
        2   -1    0    0  501    0  0.00000000000E+00  0.00000000000E+00 -0.19635928772E+04  0.19635928772E+04  0.25500000920E-02 0.  1.
    10030    2    1    2    0    0  0.00000000000E+00  0.00000000000E+00 -0.12276047573E+04  0.26995809972E+04  0.24043136485E+04 0.  0.
        4    1    3    3  502    0  0.70107883262E+03 -0.94535786772E+02 -0.17051404216E+04  0.18460644666E+04  0.12699999809E+01 0.  1.
       -4    1    3    3    0  502 -0.70107883262E+03  0.94535786772E+02  0.47753566428E+03  0.85351653065E+03  0.12699999809E+01 0. -1.
</event>
<event>
 5   0  0.1308662E-06  0.2394942E+04  0.7818609E-02  0.8441400E-01
       -2   -1    0    0    0  501  0.00000000000E+00  0.00000000000E+00  0.74502190791E+03  0.74502190791E+03  0.25500000920E-02 0. -1.
        2   -1    0    0  501    0  0.00000000000E+00  0.00000000000E+00 -0.19246909090E+04  0.19246909090E+04  0.25500000920E-02 0.  1.
    10030    2    1    2    0    0  0.00000000000E+00  0.00000000000E+00 -0.11796690010E+04  0.26697128169E+04  0.23949420812E+04 0.  0.
        3    1    3    3  502    0 -0.10552188281E+04 -0.56606817150E+03 -0.59442156505E+03  0.13368832998E+04  0.10100000352E+00 0.  1.
       -3    1    3    3    0  502  0.10552188281E+04  0.56606817150E+03 -0.58524743599E+03  0.13328295171E+04  0.10100000352E+00 0. -1.
</event>
<event>
 5   0  0.4483375E-07  0.2399806E+04  0.7818609E-02  0.8439576E-01
        3   -1    0    0  501    0  0.00000000000E+00  0.00000000000E+00  0.22036293065E+04  0.22036293088E+04  0.10100000352E+00 0. -1.
       -3   -1    0    0    0  501  0.00000000000E+00  0.00000000000E+00 -0.65336175525E+03  0.65336176306E+03  0.10100000352E+00 0.  1.
    10030    2    1    2    0    0  0.00000000000E+00  0.00000000000E+00  0.15502675512E+04  0.28569910718E+04  0.23998059305E+04 0.  0.
        5    1    3    3  502    0  0.54058132825E+02  0.57707556663E+03  0.20259089230E+04  0.21071942354E+04  0.46999998093E+01 0. -1.
       -5    1    3    3    0  502 -0.54058132825E+02 -0.57707556663E+03 -0.47564137182E+03  0.74979683642E+03  0.46999998093E+01 0.  1.
</event>
<event>
 5   0  0.4483375E-07  0.2402319E+04  0.7818609E-02  0.8438636E-01
       -3   -1    0    0    0  501  0.00000000000E+00  0.00000000000E+00  0.11882812616E+04  0.11882812659E+04  0.10100000352E+00 0. -1.
        3   -1    0    0  501    0  0.00000000000E+00  0.00000000000E+00 -0.12141774119E+04  0.12141774161E+04  0.10100000352E+00 0.  1.
    10030    2    1    2    0    0  0.00000000000E+00  0.00000000000E+00 -0.25896150311E+02  0.24024586820E+04  0.24023191104E+04 0.  0.
        3    1    3    3  502    0  0.11695016068E+04 -0.27815592069E+02 -0.28550115713E+03  0.12041671962E+04  0.10100000352E+00 0. -1.
       -3    1    3    3    0  502 -0.11695016068E+04  0.27815592069E+02  0.25960500682E+03  0.11982914859E+04  0.10100000352E+00 0.  1.
</event>
<event>
 5   0  0.5510176E-07  0.2399861E+04  0.7818609E-02  0.8439555E-01
        1   -1    0    0  501    0  0.00000000000E+00  0.00000000000E+00  0.15961648899E+04  0.15961648899E+04  0.50400001928E-02 0. -1.
       -1   -1    0    0    0  501  0.00000000000E+00  0.00000000000E+00 -0.90205821883E+03  0.90205821885E+03  0.50400001928E-02 0.  1.
    10030    2    1    2    0    0  0.00000000000E+00  0.00000000000E+00  0.69410667110E+03  0.24982231088E+04  0.23998613773E+04 0.  0.
        3    1    3    3  502    0  0.92887399633E+03  0.54725925751E+03 -0.20135393353E+03  0.10967419992E+04  0.10100000352E+00 0.  1.
       -3    1    3    3    0  502 -0.92887399633E+03 -0.54725925751E+03  0.89546060463E+03  0.14014811096E+04  0.10100000352E+00 0. -1.
</event>
<event>
 5   0  0.1307477E-06  0.2400119E+04  0.7818609E-02  0.8439459E-01
        2   -1    0    0  501    0  0.00000000000E+00  0.00000000000E+00  0.14554100097E+04  0.14554100097E+04  0.25500000920E-02 0.  1.
       -2   -1    0    0    0  501  0.00000000000E+00  0.00000000000E+00 -0.98950994911E+03  0.98950994912E+03  0.25500000920E-02 0. -1.
    10030    2    1    2    0    0  0.00000000000E+00  0.00000000000E+00  0.46590006056E+03  0.24449199588E+04  0.24001189009E+04 0.  0.
        5    1    3    3  502    0  0.91057475079E+03  0.58130545952E+03 -0.29935366971E+03  0.11210250326E+04  0.46999998093E+01 0.  1.
       -5    1    3    3    0  502 -0.91057475079E+03 -0.58130545952E+03  0.76525373027E+03  0.13238949262E+04  0.46999998093E+01 0. -1.
</event>
<event>
 5   0  0.5363690E-07  0.2400948E+04  0.7818609E-02  0.8439149E-01
       -1   -1    0    0    0  501  0.00000000000E+00  0.00000000000E+00  0.81518794339E+03  0.81518794341E+03  0.50400001928E-02 0. -1.
        1   -1    0    0  501    0  0.00000000000E+00  0.00000000000E+00 -0.17678602947E+04  0.17678602947E+04  0.50400001928E-02 0.  1.
    10030    2    1    2    0    0  0.00000000000E+00  0.00000000000E+00 -0.95267235131E+03  0.25830482381E+04  0.24009484775E+04 0.  0.
        4    1    3    3  502    0 -0.89055998105E+03  0.56970927591E+02 -0.13402296156E+04  0.16101427893E+04  0.12699999809E+01 0.  1.
       -4    1    3    3    0  502  0.89055998105E+03 -0.56970927591E+02  0.38755726426E+03  0.97290544886E+03  0.12699999809E+01 0. -1.
</event>
<event>
 5   0  0.1275948E-06  0.2396207E+04  0.7818609E-02  0.8440925E-01
       -2   -1    0    0    0  501  0.00000000000E+00  0.00000000000E+00  0.16324423197E+04  0.16324423197E+04  0.25500000920E-02 0. -1.
        2   -1    0    0  501    0  0.00000000000E+00  0.00000000000E+00 -0.87932800634E+03  0.87932800634E+03  0.25500000920E-02 0.  1.
    10030    2    1    2    0    0  0.00000000000E+00  0.00000000000E+00  0.75311431333E+03  0.25117703260E+04  0.23962072118E+04 0.  0.
        1    1    3    3  502    0  0.88967284731E+03 -0.36088743331E+03 -0.37473371485E+03  0.10306225652E+04  0.50400001928E-02 0. -1.
       -1    1    3    3    0  502 -0.88967284731E+03  0.36088743331E+03  0.11278480282E+04  0.14811477608E+04  0.50400001928E-02 0.  1.
</event>
<event>
 5   0  0.1336057E-06  0.2399986E+04  0.7818609E-02  0.8439509E-01
       -2   -1    0    0    0  501  0.00000000000E+00  0.00000000000E+00  0.15172696702E+04  0.15172696702E+04  0.25500000920E-02 0.  1.
        2   -1    0    0  501    0  0.00000000000E+00  0.00000000000E+00 -0.94906210246E+03  0.94906210246E+03  0.25500000920E-02 0. -1.
    10030    2    1    2    0    0  0.00000000000E+00  0.00000000000E+00  0.56820756773E+03  0.24663317726E+04  0.23999859526E+04 0.  0.
        2    1    3    3  502    0 -0.10188182809E+04  0.52820444746E+03 -0.76294023166E+02  0.11501353859E+04  0.25500000920E-02 0. -1.
       -2    1    3    3    0  502  0.10188182809E+04 -0.52820444746E+03  0.64450159089E+03  0.13161963868E+04  0.25500000920E-02 0.  1.
</event>
<event>
 5   0  0.5452384E-07  0.2399831E+04  0.7818609E-02  0.8439567E-01
        1   -1    0    0  501    0  0.00000000000E+00  0.00000000000E+00  0.22807588866E+04  0.22807588866E+04  0.50400001928E-02 0.  1.
       -1   -1    0    0    0  501  0.00000000000E+00  0.00000000000E+00 -0.63127982455E+03  0.63127982457E+03  0.50400001928E-02 0. -1.
    10030    2    1    2    0    0  0.00000000000E+00  0.00000000000E+00  0.16494790620E+04  0.29120387111E+04  0.23998308855E+04 0.  0.
        5    1    3    3  502    0 -0.58447180428E+03 -0.10338991692E+04  0.10321630899E+04  0.15735112062E+04  0.46999998093E+01 0.  1.
       -5    1    3    3    0  502  0.58447180428E+03  0.10338991692E+04  0.61731597216E+03  0.13385275049E+04  0.46999998093E+01 0. -1.
</event>
<event>
 5   0  0.1291468E-06  0.2400125E+04  0.7818609E-02  0.8439457E-01
       -2   -1    0    0    0  501  0.00000000000E+00  0.00000000000E+00  0.11197437850E+04  0.11197437850E+04  0.25500000920E-02 0.  1.
        2   -1    0    0  501    0  0.00000000000E+00  0.00000000000E+00 -0.12861428096E+04  0.12861428096E+04  0.25500000920E-02 0. -1.
    10030    2    1    2    0    0  0.00000000000E+00  0.00000000000E+00 -0.16639902457E+03  0.24058865946E+04  0.24001253448E+04 0.  0.
        4    1    3    3  502    0 -0.67392081275E+03  0.81911790938E+03 -0.64581801497E+03  0.12418558421E+04  0.12699999809E+01 0. -1.
       -4    1    3    3    0  502  0.67392081275E+03 -0.81911790938E+03  0.47941899040E+03  0.11640307524E+04  0.12699999809E+01 0.  1.
</event>
<event>
 5   0  0.1307477E-06  0.2400094E+04  0.7818609E-02  0.8439468E-01
       -2   -1    0    0    0  501  0.00000000000E+00  0.00000000000E+00  0.97345593470E+03  0.97345593471E+03  0.25500000920E-02 0. -1.
        2   -1    0    0  501    0  0.00000000000E+00  0.00000000000E+00 -0.14793821490E+04  0.14793821490E+04  0.25500000920E-02 0.  1.
    10030    2    1    2    0    0  0.00000000000E+00  0.00000000000E+00 -0.50592621429E+03  0.24528380837E+04  0.24000944420E+04 0.  0.
        5    1    3    3  502    0  0.87220761365E+03  0.58206148137E+01 -0.10952789130E+04  0.14001564156E+04  0.46999998093E+01 0.  1.
       -5    1    3    3    0  502 -0.87220761365E+03 -0.58206148137E+01  0.58935269872E+03  0.10526816681E+04  0.46999998093E+01 0. -1.
</event>
<event>
 5   0  0.5363690E-07  0.2399077E+04  0.7818609E-02  0.8439849E-01
        1   -1    0    0  501    0  0.00000000000E+00  0.00000000000E+00  0.11285861396E+04  0.11285861396E+04  0.50400001928E-02 0. -1.
       -1   -1    0    0    0  501  0.00000000000E+00  0.00000000000E+00 -0.12749512764E+04  0.12749512764E+04  0.50400001928E-02 0.  1.
    10030    2    1    2    0    0  0.00000000000E+00  0.00000000000E+00 -0.14636513679E+03  0.24035374161E+04  0.23990767718E+04 0.  0.
        4    1    3    3  502    0 -0.10776702508E+04 -0.50534070714E+02 -0.59852750768E+03  0.12337599653E+04  0.12699999809E+01 0.  1.
       -4    1    3    3    0  502  0.10776702508E+04  0.50534070714E+02  0.45216237089E+03  0.11697774507E+04  0.12699999809E+01 0. -1.
</event>
<event>
 5   0  0.1308662E-06  0.2412816E+04  0.7818609E-02  0.8434721E-01
       -2   -1    0    0    0  501  0.00000000000E+00  0.00000000000E+00  0.89081233292E+03  0.89081233293E+03  0.25500000920E-02 0. -1.
        2   -1    0    0  501    0  0.00000000000E+00  0.00000000000E+00 -0.16338127982E+04  0.16338127982E+04  0.25500000920E-02 0.  1.
    10030    2    1    2    0    0  0.00000000000E+00  0.00000000000E+00 -0.74300046529E+03  0.25246251311E+04  0.24128162718E+04 0.  0.
        3    1    3    3  502    0 -0.76396533058E+03 -0.60876703898E+03  0.36924628847E+03  0.10443098993E+04  0.10100000352E+00 0. -1.
       -3    1    3    3    0  502  0.76396533058E+03  0.60876703898E+03 -0.11122467538E+04  0.14803152318E+04  0.10100000352E+00 0.  1.
</event>
<event>
 5   0  0.5452384E-07  0.2402643E+04  0.7818609E-02  0.8438515E-01
        1   -1    0    0  501    0  0.00000000000E+00  0.00000000000E+00  0.12793537198E+04  0.12793537198E+04  0.50400001928E-02 0.  1.
       -1   -1    0    0    0  501  0.00000000000E+00  0.00000000000E+00 -0.11280482833E+04  0.11280482833E+04  0.50400001928E-02 0. -1.
    10030    2    1    2    0    0  0.00000000000E+00  0.00000000000E+00  0.15130543654E+03  0.24074020031E+04  0.24026425180E+04 0.  0.
        5    1    3    3  502    0 -0.56455987488E+03  0.33448578712E+03 -0.93259210420E+03  0.11403327220E+04  0.46999998093E+01 0. -1.
       -5    1    3    3    0  502  0.56455987488E+03 -0.33448578712E+03  0.10838975407E+04  0.12670692810E+04  0.46999998093E+01 0.  1.
</event>
<event>
 5   0  0.5510176E-07  0.2400849E+04  0.7818609E-02  0.8439186E-01
        1   -1    0    0  501    0  0.00000000000E+00  0.00000000000E+00  0.17219999335E+04  0.17219999336E+04  0.50400001928E-02 0. -1.
       -1   -1    0    0    0  501  0.00000000000E+00  0.00000000000E+00 -0.83682897687E+03  0.83682897688E+03  0.50400001928E-02 0.  1.
    10030    2    1    2    0    0  0.00000000000E+00  0.00000000000E+00  0.88517095668E+03  0.25588289104E+04  0.24008493852E+04 0.  0.
        3    1    3    3  502    0 -0.43344331718E+03  0.72839616126E+03  0.13485702769E+04  0.15928201025E+04  0.10100000352E+00 0. -1.
       -3    1    3    3    0  502  0.43344331718E+03 -0.72839616126E+03 -0.46339932019E+03  0.96600880798E+03  0.10100000352E+00 0.  1.
</event>
<event>
 5   0  0.5510176E-07  0.2400219E+04  0.7818609E-02  0.8439422E-01
       -1   -1    0    0    0  501  0.00000000000E+00  0.00000000000E+00  0.10135012221E+04  0.10135012221E+04  0.50400001928E-02 0.  1.
        1   -1    0    0  501    0  0.00000000000E+00  0.00000000000E+00 -0.14210763522E+04  0.14210763522E+04  0.50400001928E-02 0. -1.
    10030    2    1    2    0    0  0.00000000000E+00  0.00000000000E+00 -0.40757513012E+03  0.24345775743E+04  0.24002188397E+04 0.  0.
        3    1    3    3  502    0  0.15624366156E+03 -0.20994684485E+03  0.98420542638E+03  0.10184056613E+04  0.10100000352E+00 0.  1.
       -3    1    3    3    0  502 -0.15624366156E+03  0.20994684485E+03 -0.13917805565E+04  0.14161719130E+04  0.10100000352E+00 0. -1.
</event>
<event>
 5   0  0.5527286E-07  0.2400186E+04  0.7818609E-02  0.8439434E-01
       -1   -1    0    0    0  501  0.00000000000E+00  0.00000000000E+00  0.11043906121E+04  0.11043906121E+04  0.50400001928E-02 0.  1.
        1   -1    0    0  501    0  0.00000000000E+00  0.00000000000E+00 -0.13040889729E+04  0.13040889729E+04  0.50400001928E-02 0. -1.
    10030    2    1    2    0    0  0.00000000000E+00  0.00000000000E+00 -0.19969836079E+03  0.24084795850E+04  0.24001863419E+04 0.  0.
        1    1    3    3  502    0 -0.89317415360E+03 -0.75694784533E+03  0.16467789623E+03  0.11823066094E+04  0.50400001928E-02 0.  1.
       -1    1    3    3    0  502  0.89317415360E+03  0.75694784533E+03 -0.36437625702E+03  0.12261729755E+04  0.50400001928E-02 0. -1.
</event>
<event>
 5   0  0.1308662E-06  0.2399661E+04  0.7818609E-02  0.8439630E-01
        2   -1    0    0  501    0  0.00000000000E+00  0.00000000000E+00  0.16531852764E+04  0.16531852764E+04  0.25500000920E-02 0.  1.
       -2   -1    0    0    0  501  0.00000000000E+00  0.00000000000E+00 -0.87079967096E+03  0.87079967096E+03  0.25500000920E-02 0. -1.
    10030    2    1    2    0    0  0.00000000000E+00  0.00000000000E+00  0.78238560546E+03  0.25239849474E+04  0.23996609717E+04 0.  0.
        3    1    3    3  502    0 -0.95814888758E+03 -0.56046818801E+03 -0.87835814150E+02  0.11135030404E+04  0.10100000352E+00 0. -1.
       -3    1    3    3    0  502  0.95814888758E+03  0.56046818801E+03  0.87022141961E+03  0.14104819070E+04  0.10100000352E+00 0.  1.
</event>
<event>
 5   0  0.4483375E-07  0.2387613E+04  0.7818609E-02  0.8444156E-01
       -3   -1    0    0    0  501  0.00000000000E+00  0.00000000000E+00  0.10538346907E+04  0.10538346956E+04  0.10100000352E+00 0. -1.
        3   -1    0    0  501    0  0.00000000000E+00  0.00000000000E+00 -0.13523698370E+04  0.13523698408E+04  0.10100000352E+00 0.  1.
    10030    2    1    2    0    0  0.00000000000E+00  0.00000000000E+00 -0.29853514625E+03  0.24062045363E+04  0.23876132512E+04 0.  0.
        4    1    3    3  502    0  0.16704484012E+03 -0.68964918385E+03  0.81823516700E+03  0.10830652690E+04  0.12699999809E+01 0. -1.
       -4    1    3    3    0  502 -0.16704484012E+03  0.68964918385E+03 -0.11167703133E+04  0.13231392674E+04  0.12699999809E+01 0.  1.
</event>
<event>
 5   0  0.1308662E-06  0.2400362E+04  0.7818609E-02  0.8439368E-01
       -2   -1    0    0    0  501  0.00000000000E+00  0.00000000000E+00  0.12905501038E+04  0.12905501038E+04  0.25500000920E-02 0. -1.
        2   -1    0    0  501    0  0.00000000000E+00  0.00000000000E+00 -0.11161395481E+04  0.11161395481E+04  0.25500000920E-02 0.  1.
    10030    2    1    2    0    0  0.00000000000E+00  0.00000000000E+00  0.17441055571E+03  0.24066896518E+04  0.24003616474E+04 0.  0.
        3    1    3    3  502    0 -0.55725121865E+03 -0.86119187291E+03 -0.53753740426E+03  0.11580703061E+04  0.10100000352E+00 0.  1.
       -3    1    3    3    0  502  0.55725121865E+03  0.86119187291E+03  0.71194795997E+03  0.12486193457E+04  0.10100000352E+00 0. -1.
</event>
<event>
 5   0  0.1307477E-06  0.2399811E+04  0.7818609E-02  0.8439574E-01
       -2   -1    0    0    0  501  0.00000000000E+00  0.00000000000E+00  0.55157988489E+03  0.55157988489E+03  0.25500000920E-02 0. -1.
        2   -1    0    0  501    0  0.00000000000E+00  0.00000000000E+00 -0.26102710360E+04  0.26102710360E+04  0.25500000920E-02 0.  1.
    10030    2    1    2    0    0  0.00000000000E+00  0.00000000000E+00 -0.20586911511E+04  0.31618509209E+04  0.23998108239E+04 0.  0.
        5    1    3    3  502    0 -0.89706108459E+03  0.26771697666E+03 -0.20182569263E+04  0.22248087737E+04  0.46999998093E+01 0.  1.
       -5    1    3    3    0  502  0.89706108459E+03 -0.26771697666E+03 -0.40434224839E+02  0.93704214719E+03  0.46999998093E+01 0. -1.
</event>
<event>
 5   0  0.5690124E-07  0.2401350E+04  0.7818609E-02  0.8438998E-01
        1   -1    0    0  501    0  0.00000000000E+00  0.00000000000E+00  0.11698758178E+04  0.11698758179E+04  0.50400001928E-02 0. -1.
       -1   -1    0    0    0  501  0.00000000000E+00  0.00000000000E+00 -0.12322846164E+04  0.12322846164E+04  0.50400001928E-02 0.  1.
    10030    2    1    2    0    0  0.00000000000E+00  0.00000000000E+00 -0.62408798586E+02  0.24021604343E+04  0.24013495984E+04 0.  0.
        2    1    3    3  502    0  0.71912579803E+03  0.59129734967E+03  0.72723727462E+03  0.11813756908E+04  0.25500000920E-02 0. -1.
       -2    1    3    3    0  502 -0.71912579803E+03 -0.59129734967E+03 -0.78964607320E+03  0.12207847435E+04  0.25500000920E-02 0.  1.
</event>
<event>
 5   0  0.5363690E-07  0.2399862E+04  0.7818609E-02  0.8439555E-01
        1   -1    0    0  501    0  0.00000000000E+00  0.00000000000E+00  0.80655695582E+03  0.80655695583E+03  0.50400001928E-02 0. -1.
       -1   -1    0    0    0  501  0.00000000000E+00  0.00000000000E+00 -0.17851619235E+04  0.17851619235E+04  0.50400001928E-02 0.  1.
    10030    2    1    2    0    0  0.00000000000E+00  0.00000000000E+00 -0.97860496767E+03  0.25917188793E+04  0.23998623016E+04 0.  0.
        4    1    3    3  502    0 -0.10521235807E+04 -0.56826496154E+03 -0.59699447286E+03  0.13365227679E+04  0.12699999809E+01 0. -1.
       -4    1    3    3    0  502  0.10521235807E+04  0.56826496154E+03 -0.38161049481E+03  0.12551961114E+04  0.12699999809E+01 0.  1.
</event>
<event>
 5   0  0.1336057E-06  0.2400167E+04  0.7818609E-02  0.8439441E-01
       -2   -1    0    0    0  501  0.00000000000E+00  0.00000000000E+00  0.10162022901E+04  0.10162022901E+04  0.25500000920E-02 0. -1.
        2   -1    0    0  501    0  0.00000000000E+00  0.00000000000E+00 -0.14172375019E+04  0.14172375019E+04  0.25500000920E-02 0.  1.
    10030    2    1    2    0    0  0.00000000000E+00  0.00000000000E+00 -0.40103521183E+03  0.24334397920E+04  0.24001666568E+04 0.  0.
        2    1    3    3  502    0 -0.79187865047E+03  0.46435181801E+03  0.58318301800E+03  0.10875646374E+04  0.25500000920E-02 0. -1.
       -2    1    3    3    0  502  0.79187865047E+03 -0.46435181801E+03 -0.98421822983E+03  0.13458751546E+04  0.25500000920E-02 0.  1.
</event>
<event>
 5   0  0.1308662E-06  0.2398443E+04  0.7818609E-02  0.8440087E-01
       -2   -1    0    0    0  501  0.00000000000E+00  0.00000000000E+00  0.82133499074E+03  0.82133499074E+03  0.25500000920E-02 0.  1.
        2   -1    0    0  501    0  0.00000000000E+00  0.00000000000E+00 -0.17509695529E+04  0.17509695529E+04  0.25500000920E-02 0. -1.
    10030    2    1    2    0    0  0.00000000000E+00  0.00000000000E+00 -0.92963456219E+03  0.25723045437E+04  0.23984432964E+04 0.  0.
        3    1    3    3  502    0  0.11682963140E+04 -0.10649010538E+02 -0.75479200982E+03  0.13909495559E+04  0.10100000352E+00 0. -1.
       -3    1    3    3    0  502 -0.11682963140E+04  0.10649010538E+02 -0.17484255237E+03  0.11813549878E+04  0.10100000352E+00 0.  1.
</event>
<event>
 5   0  0.5527286E-07  0.2400106E+04  0.7818609E-02  0.8439464E-01
       -1   -1    0    0    0  501  0.00000000000E+00  0.00000000000E+00  0.78285234575E+03  0.78285234577E+03  0.50400001928E-02 0.  1.
        1   -1    0    0  501    0  0.00000000000E+00  0.00000000000E+00 -0.18395899713E+04  0.18395899713E+04  0.50400001928E-02 0. -1.
    10030    2    1    2    0    0  0.00000000000E+00  0.00000000000E+00 -0.10567376256E+04  0.26224423171E+04  0.24001061012E+04 0.  0.
        1    1    3    3  502    0  0.10747599122E+04  0.49809988819E+03 -0.31843775886E+03  0.12266274796E+04  0.50400001928E-02 0.  1.
       -1    1    3    3    0  502 -0.10747599122E+04 -0.49809988819E+03 -0.73829986670E+03  0.13958148375E+04  0.50400001928E-02 0. -1.
</event>
<event>
 5   0  0.1307477E-06  0.2403569E+04  0.7818609E-02  0.8438169E-01
       -2   -1    0    0    0  501  0.00000000000E+00  0.00000000000E+00  0.48060287094E+03  0.48060287095E+03  0.25500000920E-02 0.  1.
        2   -1    0    0  501    0  0.00000000000E+00  0.00000000000E+00 -0.30051543733E+04  0.30051543733E+04  0.25500000920E-02 0. -1.
    10030    2    1    2    0    0  0.00000000000E+00  0.00000000000E+00 -0.25245515023E+04  0.34857572442E+04  0.24035688627E+04 0.  0.
        5    1    3    3  502    0 -0.47890705497E+03 -0.72190203850E+03 -0.54328194145E+02  0.86802543924E+03  0.46999998093E+01 0.  1.
       -5    1    3    3    0  502  0.47890705497E+03  0.72190203850E+03 -0.24702233082E+04  0.26177318050E+04  0.46999998093E+01 0. -1.
</event>
<event>
 5   0  0.5363690E-07  0.2400118E+04  0.7818609E-02  0.8439460E-01
        1   -1    0    0  501    0  0.00000000000E+00  0.00000000000E+00  0.18204223009E+04  0.18204223009E+04  0.50400001928E-02 0.  1.
       -1   -1    0    0    0  501  0.00000000000E+00  0.00000000000E+00 -0.79110276606E+03  0.79110276607E+03  0.50400001928E-02 0. -1.
    10030    2    1    2    0    0  0.00000000000E+00  0.00000000000E+00  0.10293195349E+04  0.26115250670E+04  0.24001175952E+04 0.  0.
        4    1    3    3  502    0  0.18817242881E+03  0.11441219826E+04  0.85128981921E+03  0.14384435836E+04  0.12699999809E+01 0.  1.
       -4    1    3    3    0  502 -0.18817242881E+03 -0.11441219826E+04  0.17802971566E+03  0.11730814834E+04  0.12699999809E+01 0. -1.
</event>
<event>
 5   0  0.5452384E-07  0.2400450E+04  0.7818609E-02  0.8439335E-01
       -1   -1    0    0    0  501  0.00000000000E+00  0.00000000000E+00  0.94512058944E+03  0.94512058946E+03  0.50400001928E-02 0. -1.
        1   -1    0    0  501    0  0.00000000000E+00  0.00000000000E+00 -0.15241864431E+04  0.15241864431E+04  0.50400001928E-02 0.  1.
    10030    2    1    2    0    0  0.00000000000E+00  0.00000000000E+00 -0.57906585363E+03  0.24693070325E+04  0.24004499491E+04 0.  0.
        5    1    3    3  502    0  0.36600677666E+03 -0.62589840202E+03  0.69435911048E+03  0.10039255124E+04  0.46999998093E+01 0. -1.
       -5    1    3    3    0  502 -0.36600677666E+03  0.62589840202E+03 -0.12734249641E+04  0.14653815201E+04  0.46999998093E+01 0.  1.
</event>
<event>
 5   0  0.1336057E-06  0.2399861E+04  0.7818609E-02  0.8439556E-01
       -2   -1    0    0    0  501  0.00000000000E+00  0.00000000000E+00  0.12503792911E+04  0.12503792911E+04  0.25500000920E-02 0. -1.
        2   -1    0    0  501    0  0.00000000000E+00  0.00000000000E+00 -0.11515171048E+04  0.11515171048E+04  0.25500000920E-02 0.  1.
    10030    2    1    2    0    0  0.00000000000E+00  0.00000000000E+00  0.98862186367E+02  0.24018963959E+04  0.23998609470E+04 0.  0.
        2    1    3    3  502    0  0.82279482359E+03 -0.34362951067E+03  0.85308198366E+03  0.12340265123E+04  0.25500000920E-02 0. -1.
       -2    1    3    3    0  502 -0.82279482359E+03  0.34362951067E+03 -0.75421979729E+03  0.11678698836E+04  0.25500000920E-02 0.  1.
</event>
<event>
 5   0  0.5527286E-07  0.2399484E+04  0.7818609E-02  0.8439697E-01
       -1   -1    0    0    0  501  0.00000000000E+00  0.00000000000E+00  0.88506951218E+03  0.88506951220E+03  0.50400001928E-02 0. -1.
        1   -1    0    0  501    0  0.00000000000E+00  0.00000000000E+00 -0.16262908119E+04  0.16262908119E+04  0.50400001928E-02 0.  1.
    10030    2    1    2    0    0  0.00000000000E+00  0.00000000000E+00 -0.74122129969E+03  0.25113603241E+04  0.23994836241E+04 0.  0.
        1    1    3    3  502    0 -0.49350094205E+03  0.23462747422E+02 -0.15148774260E+04  0.15934074483E+04  0.50400001928E-02 0.  1.
       -1    1    3    3    0  502  0.49350094205E+03 -0.23462747422E+02  0.77365612634E+03  0.91795287579E+03  0.50400001928E-02 0. -1.
</event>
<event>
 5   0  0.5690124E-07  0.2400629E+04  0.7818609E-02  0.8439268E-01
       -1   -1    0    0    0  501  0.00000000000E+00  0.00000000000E+00  0.96974238796E+03  0.96974238797E+03  0.50400001928E-02 0.  1.
        1   -1    0    0  501    0  0.00000000000E+00  0.00000000000E+00 -0.14857086652E+04  0.14857086652E+04  0.50400001928E-02 0. -1.
    10030    2    1    2    0    0  0.00000000000E+00  0.00000000000E+00 -0.51596627725E+03  0.24554510532E+04  0.24006288083E+04 0.  0.
        2    1    3    3  502    0  0.55384067556E+03  0.10246788452E+04 -0.55451481603E+03  0.12900360115E+04  0.25500000920E-02 0. -1.
       -2    1    3    3    0  502 -0.55384067556E+03 -0.10246788452E+04  0.38548538784E+02  0.11654150417E+04  0.25500000920E-02 0.  1.
</event>
<event>
 5   0  0.1307477E-06  0.2413255E+04  0.7818609E-02  0.8434558E-01
       -2   -1    0    0    0  501  0.00000000000E+00  0.00000000000E+00  0.58836308682E+03  0.58836308683E+03  0.25500000920E-02 0.  1.
        2   -1    0    0  501    0  0.00000000000E+00  0.00000000000E+00 -0.24745777763E+04  0.24745777763E+04  0.25500000920E-02 0. -1.
    10030    2    1    2    0    0  0.00000000000E+00  0.00000000000E+00 -0.18862146895E+04  0.30629408631E+04  0.24132552447E+04 0.  0.
        5    1    3    3  502    0 -0.52722141653E+03  0.66741402123E+03  0.14318407907E+03  0.86251241630E+03  0.46999998093E+01 0.  1.
       -5    1    3    3    0  502  0.52722141653E+03 -0.66741402123E+03 -0.20293987685E+04  0.22004284468E+04  0.46999998093E+01 0. -1.
</event>
<event>
 5   0  0.1291468E-06  0.2400034E+04  0.7818609E-02  0.8439491E-01
       -2   -1    0    0    0  501  0.00000000000E+00  0.00000000000E+00  0.10924835420E+04  0.10924835420E+04  0.25500000920E-02 0.  1.
        2   -1    0    0  501    0  0.00000000000E+00  0.00000000000E+00 -0.13181348879E+04  0.13181348879E+04  0.25500000920E-02 0. -1.
    10030    2    1    2    0    0  0.00000000000E+00  0.00000000000E+00 -0.22565134586E+03  0.24106184299E+04  0.24000338924E+04 0.  0.
        4    1    3    3  502    0  0.27214024274E+03 -0.84256180235E+03  0.70072693818E+03  0.11291547978E+04  0.12699999809E+01 0.  1.
       -4    1    3    3    0  502 -0.27214024274E+03  0.84256180235E+03 -0.92637828405E+03  0.12814636322E+04  0.12699999809E+01 0. -1.
</event>
<event>
 5   0  0.5690124E-07  0.2398539E+04  0.7818609E-02  0.8440051E-01
        1   -1    0    0  501    0  0.00000000000E+00  0.00000000000E+00  0.17964869592E+04  0.17964869593E+04  0.50400001928E-02 0.  1.
       -1   -1    0    0    0  501  0.00000000000E+00  0.00000000000E+00 -0.80058854602E+03  0.80058854603E+03  0.50400001928E-02 0. -1.
    10030    2    1    2    0    0  0.00000000000E+00  0.00000000000E+00  0.99589841323E+03  0.25970755053E+04  0.23985386240E+04 0.  0.
        2    1    3    3  502    0  0.84665626932E+03  0.84663697889E+03  0.57159273435E+03  0.13267777758E+04  0.25500000920E-02 0.  1.
       -2    1    3    3    0  502 -0.84665626932E+03 -0.84663697889E+03  0.42430567887E+03  0.12702977295E+04  0.25500000920E-02 0. -1.
</event>
<event>
 5   0  0.5510176E-07  0.2397938E+04  0.7818609E-02  0.8440276E-01
        1   -1    0    0  501    0  0.00000000000E+00  0.00000000000E+00  0.11155708229E+04  0.11155708229E+04  0.50400001928E-02 0.  1.
       -1   -1    0    0    0  501  0.00000000000E+00  0.00000000000E+00 -0.12886020994E+04  0.12886020995E+04  0.50400001928E-02 0. -1.
    10030    2    1    2    0    0  0.00000000000E+00  0.00000000000E+00 -0.17303127652E+03  0.24041729224E+04  0.23979382015E+04 0.  0.
        3    1    3    3  502    0 -0.24162020635E+03  0.14056267485E+03  0.10824440737E+04  0.11179549957E+04  0.10100000352E+00 0.  1.
       -3    1    3    3    0  502  0.24162020635E+03 -0.14056267485E+03 -0.12554753502E+04  0.12862179266E+04  0.10100000352E+00 0. -1.
</event>
<event>
 5   0  0.5690124E-07  0.2400352E+04  0.7818609E-02  0.8439372E-01
        1   -1    0    0  501    0  0.00000000000E+00  0.00000000000E+00  0.17315442619E+04  0.17315442619E+04  0.50400001928E-02 0. -1.
       -1   -1    0    0    0  501  0.00000000000E+00  0.00000000000E+00 -0.83187152703E+03  0.83187152704E+03  0.50400001928E-02 0.  1.
    10030    2    1    2    0    0  0.00000000000E+00  0.00000000000E+00  0.89967273486E+03  0.25634157889E+04  0.24003519486E+04 0.  0.
        2    1    3    3  502    0  0.59442431504E+02 -0.14287892237E+03 -0.82117233248E+03  0.83562658452E+03  0.25500000920E-02 0.  1.
       -2    1    3    3    0  502 -0.59442431504E+02  0.14287892237E+03  0.17208450673E+04  0.17277892044E+04  0.25500000920E-02 0. -1.
</event>
<event>
 5   0  0.1308662E-06  0.2402230E+04  0.7818609E-02  0.8438669E-01
       -2   -1    0    0    0  501  0.00000000000E+00  0.00000000000E+00  0.76171680071E+03  0.76171680071E+03  0.25500000920E-02 0.  1.
        2   -1    0    0  501    0  0.00000000000E+00  0.00000000000E+00 -0.18939812343E+04  0.18939812343E+04  0.25500000920E-02 0. -1.
    10030    2    1    2    0    0  0.00000000000E+00  0.00000000000E+00 -0.11322644336E+04  0.26556980350E+04  0.24022300693E+04 0.  0.
        3    1    3    3  502    0 -0.70231021320E+03 -0.50241456536E+03  0.35683413305E+03  0.93433968115E+03  0.10100000352E+00 0.  1.
       -3    1    3    3    0  502  0.70231021320E+03  0.50241456536E+03 -0.14890985666E+04  0.17213583539E+04  0.10100000352E+00 0. -1.
</event>
<event>
 5   0  0.5452384E-07  0.2399350E+04  0.7818609E-02  0.8439747E-01
        1   -1    0    0  501    0  0.00000000000E+00  0.00000000000E+00  0.11418811204E+04  0.11418811204E+04  0.50400001928E-02 0.  1.
       -1   -1    0    0    0  501  0.00000000000E+00  0.00000000000E+00 -0.12603940101E+04  0.12603940101E+04  0.50400001928E-02 0. -1.
    10030    2    1    2    0    0  0.00000000000E+00  0.00000000000E+00 -0.11851288970E+03  0.24022751305E+04  0.23993500157E+04 0.  0.
        5    1    3    3  502    0  0.33082564803E+01  0.79576092695E+03  0.83958611718E+03  0.11567944224E+04  0.46999998093E+01 0.  1.
       -5    1    3    3    0  502 -0.33082564803E+01 -0.79576092695E+03 -0.95809900689E+03  0.12454807082E+04  0.46999998093E+01 0. -1.
</event>
<event>
 5   0  0.5363690E-07  0.2398889E+04  0.7818609E-02  0.8439920E-01
       -1   -1    0    0    0  501  0.00000000000E+00  0.00000000000E+00  0.80306361781E+03  0.80306361783E+03  0.50400001928E-02 0. -1.
        1   -1    0    0  501    0  0.00000000000E+00  0.00000000000E+00 -0.17914737668E+04  0.17914737668E+04  0.50400001928E-02 0.  1.
    10030    2    1    2    0    0  0.00000000000E+00  0.00000000000E+00 -0.98841014901E+03  0.25945373847E+04  0.23988892467E+04 0.  0.
        4    1    3    3  502    0 -0.10823301329E+04  0.42863759206E+03 -0.18167961357E+03  0.11782095725E+04  0.12699999809E+01 0. -1.
       -4    1    3    3    0  502  0.10823301329E+04 -0.42863759206E+03 -0.80673053544E+03  0.14163278122E+04  0.12699999809E+01 0.  1.
</event>
<event>
 5   0  0.5510176E-07  0.2401046E+04  0.7818609E-02  0.8439112E-01
       -1   -1    0    0    0  501  0.00000000000E+00  0.00000000000E+00  0.12711708154E+04  0.12711708154E+04  0.50400001928E-02 0. -1.
        1   -1    0    0  501    0  0.00000000000E+00  0.00000000000E+00 -0.11338014568E+04  0.11338014568E+04  0.50400001928E-02 0.  1.
    10030    2    1    2    0    0  0.00000000000E+00  0.00000000000E+00  0.13736935865E+03  0.24049722722E+04  0.24010458740E+04 0.  0.
        3    1    3    3  502    0 -0.32567569513E+03 -0.33693205067E+03 -0.10384134494E+04  0.11392499143E+04  0.10100000352E+00 0.  1.
       -3    1    3    3    0  502  0.32567569513E+03  0.33693205067E+03  0.11757828081E+04  0.12657223578E+04  0.10100000352E+00 0. -1.
</event>
<event>
 5   0  0.1275948E-06  0.2398999E+04  0.7818609E-02  0.8439878E-01
       -2   -1    0    0    0  501  0.00000000000E+00  0.00000000000E+00  0.15278895395E+04  0.15278895395E+04  0.25500000920E-02 0.  1.
        2   -1    0    0  501    0  0.00000000000E+00  0.00000000000E+00 -0.94169061353E+03  0.94169061353E+03  0.25500000920E-02 0. -1.
    10030    2    1    2    0    0  0.00000000000E+00  0.00000000000E+00  0.58619892599E+03  0.24695801530E+04  0.23989991562E+04 0.  0.
        1    1    3    3  502    0  0.37959170596E+03  0.59423367443E+02  0.14628308137E+04  0.15124466898E+04  0.50400001928E-02 0.  1.
       -1    1    3    3    0  502 -0.37959170596E+03 -0.59423367443E+02 -0.87663188775E+03  0.95713346325E+03  0.50400001928E-02 0. -1.
</event>
<event>
 5   0  0.5527286E-07  0.2405214E+04  0.7818609E-02  0.8437554E-01
        1   -1    0    0  501    0  0.00000000000E+00  0.00000000000E+00  0.98356628967E+03  0.98356628968E+03  0.50400001928E-02 0.  1.
       -1   -1    0    0    0  501  0.00000000000E+00  0.00000000000E+00 -0.14704277204E+04  0.14704277204E+04  0.50400001928E-02 0. -1.
    10030    2    1    2    0    0  0.00000000000E+00  0.00000000000E+00 -0.48686143070E+03  0.24539940101E+04  0.24052136181E+04 0.  0.
        1    1    3    3  502    0  0.25014414248E+03  0.36638760667E+03  0.89702778800E+03  0.10007351412E+04  0.50400001928E-02 0.  1.
       -1    1    3    3    0  502 -0.25014414248E+03 -0.36638760667E+03 -0.13838892187E+04  0.14532588689E+04  0.50400001928E-02 0. -1.
</event>
<event>
 5   0  0.1308662E-06  0.2398715E+04  0.7818609E-02  0.8439985E-01
        2   -1    0    0  501    0  0.00000000000E+00  0.00000000000E+00  0.21794737586E+04  0.21794737586E+04  0.25500000920E-02 0.  1.
       -2   -1    0    0    0  501  0.00000000000E+00  0.00000000000E+00 -0.66000246184E+03  0.66000246184E+03  0.25500000920E-02 0. -1.
    10030    2    1    2    0    0  0.00000000000E+00  0.00000000000E+00  0.15194712967E+04  0.28394762204E+04  0.23987146943E+04 0.  0.
        3    1    3    3  502    0 -0.97630023047E+03 -0.40096663916E+03  0.14340796182E+04  0.17805956158E+04  0.10100000352E+00 0.  1.
       -3    1    3    3    0  502  0.97630023047E+03  0.40096663916E+03  0.85391678560E+02  0.10588806046E+04  0.10100000352E+00 0. -1.
</event>
<event>
 5   0  0.1308662E-06  0.2399834E+04  0.7818609E-02  0.8439566E-01
       -2   -1    0    0    0  501  0.00000000000E+00  0.00000000000E+00  0.78638577489E+03  0.78638577489E+03  0.25500000920E-02 0. -1.
        2   -1    0    0  501    0  0.00000000000E+00  0.00000000000E+00 -0.18309095078E+04  0.18309095078E+04  0.25500000920E-02 0.  1.
    10030    2    1    2    0    0  0.00000000000E+00  0.00000000000E+00 -0.10445237329E+04  0.26172952827E+04  0.23998343210E+04 0.  0.
        3    1    3    3  502    0  0.10430541995E+04  0.36984886055E+03 -0.10280191363E+04  0.15104878674E+04  0.10100000352E+00 0. -1.
       -3    1    3    3    0  502 -0.10430541995E+04 -0.36984886055E+03 -0.16504596575E+02  0.11068074153E+04  0.10100000352E+00 0.  1.
</event>
<event>
 5   0  0.1291468E-06  0.2399934E+04  0.7818609E-02  0.8439528E-01
       -2   -1    0    0    0  501  0.00000000000E+00  0.00000000000E+00  0.87910524470E+03  0.87910524470E+03  0.25500000920E-02 0. -1.
        2   -1    0    0  501    0  0.00000000000E+00  0.00000000000E+00 -0.16379395895E+04  0.16379395895E+04  0.25500000920E-02 0.  1.
    10030    2    1    2    0    0  0.00000000000E+00  0.00000000000E+00 -0.75883434476E+03  0.25170448342E+04  0.23999344021E+04 0.  0.
        4    1    3    3  502    0 -0.80088671048E+03  0.34046498682E+03 -0.12459191328E+04  0.15197539368E+04  0.12699999809E+01 0.  1.
       -4    1    3    3    0  502  0.80088671048E+03 -0.34046498682E+03  0.48708478800E+03  0.99729089732E+03  0.12699999809E+01 0. -1.
</event>
<event>
 5   0  0.5510176E-07  0.2394250E+04  0.7818609E-02  0.8441659E-01
       -1   -1    0    0    0  501  0.00000000000E+00  0.00000000000E+00  0.13477797477E+04  0.13477797477E+04  0.50400001928E-02 0.  1.
        1   -1    0    0  501    0  0.00000000000E+00  0.00000000000E+00 -0.10633103404E+04  0.10633103404E+04  0.50400001928E-02 0. -1.
    10030    2    1    2    0    0  0.00000000000E+00  0.00000000000E+00  0.28446940726E+03  0.24110900881E+04  0.23942498970E+04 0.  0.
        3    1    3    3  502    0  0.56992957254E+03 -0.14111570106E+03 -0.90835512973E+03  0.10815925345E+04  0.10100000352E+00 0. -1.
       -3    1    3    3    0  502 -0.56992957254E+03  0.14111570106E+03  0.11928245370E+04  0.13294975536E+04  0.10100000352E+00 0.  1.
</event>
<event>
 5   0  0.1291468E-06  0.2398147E+04  0.7818609E-02  0.8440198E-01
       -2   -1    0    0    0  501  0.00000000000E+00  0.00000000000E+00  0.12419562480E+04  0.12419562480E+04  0.25500000920E-02 0.  1.
        2   -1    0    0  501    0  0.00000000000E+00  0.00000000000E+00 -0.11576710798E+04  0.11576710798E+04  0.25500000920E-02 0. -1.
    10030    2    1    2    0    0  0.00000000000E+00  0.00000000000E+00  0.84285168171E+02  0.23996273277E+04  0.23981466432E+04 0.  0.
        4    1    3    3  502    0 -0.10489576998E+03  0.74585813300E+03 -0.89142207674E+03  0.11670228828E+04  0.12699999809E+01 0. -1.
       -4    1    3    3    0  502  0.10489576998E+03 -0.74585813300E+03  0.97570724491E+03  0.12326044450E+04  0.12699999809E+01 0.  1.
</event>
<event>
 5   0  0.5452384E-07  0.2396534E+04  0.7818609E-02  0.8440802E-01
       -1   -1    0    0    0  501  0.00000000000E+00  0.00000000000E+00  0.56619077708E+03  0.56619077710E+03  0.50400001928E-02 0. -1.
        1   -1    0    0  501    0  0.00000000000E+00  0.00000000000E+00 -0.25359709691E+04  0.25359709691E+04  0.50400001928E-02 0.  1.
    10030    2    1    2    0    0  0.00000000000E+00  0.00000000000E+00 -0.19697801920E+04  0.31021617462E+04  0.23965336415E+04 0.  0.
        5    1    3    3  502    0  0.23673278351E+03  0.46338666104E+02 -0.25042038047E+04  0.25157997671E+04  0.46999998093E+01 0.  1.
       -5    1    3    3    0  502 -0.23673278351E+03 -0.46338666104E+02  0.53442361267E+03  0.58636197910E+03  0.46999998093E+01 0. -1.
</event>
<event>
 5   0  0.1275948E-06  0.2400498E+04  0.7818609E-02  0.8439317E-01
        2   -1    0    0  501    0  0.00000000000E+00  0.00000000000E+00  0.20600971573E+04  0.20600971573E+04  0.25500000920E-02 0. -1.
       -2   -1    0    0    0  501  0.00000000000E+00  0.00000000000E+00 -0.69928639658E+03  0.69928639658E+03  0.25500000920E-02 0.  1.
    10030    2    1    2    0    0  0.00000000000E+00  0.00000000000E+00  0.13608107608E+04  0.27593835539E+04  0.24004982131E+04 0.  0.
        1    1    3    3  502    0 -0.82093294198E+03 -0.75818338647E+03  0.17694736481E+03  0.11314076686E+04  0.50400001928E-02 0.  1.
       -1    1    3    3    0  502  0.82093294198E+03  0.75818338647E+03  0.11838633960E+04  0.16279758853E+04  0.50400001928E-02 0. -1.
</event>
<event>
 5   0  0.5690124E-07  0.2400129E+04  0.7818609E-02  0.8439455E-01
       -1   -1    0    0    0  501  0.00000000000E+00  0.00000000000E+00  0.18804046888E+04  0.18804046888E+04  0.50400001928E-02 0.  1.
        1   -1    0    0  501    0  0.00000000000E+00  0.00000000000E+00 -0.76587462816E+03  0.76587462817E+03  0.50400001928E-02 0. -1.
    10030    2    1    2    0    0  0.00000000000E+00  0.00000000000E+00  0.11145300606E+04  0.26462793169E+04  0.24001285314E+04 0.  0.
        2    1    3    3  502    0 -0.22734960263E+03 -0.57957153319E+03  0.16884282662E+04  0.17995502255E+04  0.25500000920E-02 0.  1.
       -2    1    3    3    0  502  0.22734960263E+03  0.57957153319E+03 -0.57389820561E+03  0.84672909145E+03  0.25500000920E-02 0. -1.
</event>
<event>
 5   0  0.1307477E-06  0.2395375E+04  0.7818609E-02  0.8441237E-01
       -2   -1    0    0    0  501  0.00000000000E+00  0.00000000000E+00  0.14244317698E+04  0.14244317698E+04  0.25500000920E-02 0.  1.
        2   -1    0    0  501    0  0.00000000000E+00  0.00000000000E+00 -0.10070371229E+04  0.10070371229E+04  0.25500000920E-02 0. -1.
    10030    2    1    2    0    0  0.00000000000E+00  0.00000000000E+00  0.41739464694E+03  0.24314688927E+04  0.23953752702E+04 0.  0.
        5    1    3    3  502    0 -0.52534630938E+03  0.37350262373E+03  0.12333332879E+04  0.13916271209E+04  0.46999998093E+01 0.  1.
       -5    1    3    3    0  502  0.52534630938E+03 -0.37350262373E+03 -0.81593864091E+03  0.10398417718E+04  0.46999998093E+01 0. -1.
</event>
<event>
 5   0  0.5510176E-07  0.2395471E+04  0.7818609E-02  0.8441201E-01
       -1   -1    0    0    0  501  0.00000000000E+00  0.00000000000E+00  0.14913306631E+04  0.14913306631E+04  0.50400001928E-02 0.  1.
        1   -1    0    0  501    0  0.00000000000E+00  0.00000000000E+00 -0.96193946987E+03  0.96193946989E+03  0.50400001928E-02 0. -1.
    10030    2    1    2    0    0  0.00000000000E+00  0.00000000000E+00  0.52939119323E+03  0.24532701330E+04  0.23954705822E+04 0.  0.
        3    1    3    3  502    0 -0.83069368452E+03 -0.17367105979E+03  0.11302850052E+04  0.14134206160E+04  0.10100000352E+00 0.  1.
       -3    1    3    3    0  502  0.83069368452E+03  0.17367105979E+03 -0.60089381199E+03  0.10398495170E+04  0.10100000352E+00 0. -1.
</event>
<event>
 5   0  0.5510176E-07  0.2396835E+04  0.7818609E-02  0.8440689E-01
        1   -1    0    0  501    0  0.00000000000E+00  0.00000000000E+00  0.16758775643E+04  0.16758775643E+04  0.50400001928E-02 0.  1.
       -1   -1    0    0    0  501  0.00000000000E+00  0.00000000000E+00 -0.85698649047E+03  0.85698649048E+03  0.50400001928E-02 0. -1.
    10030    2    1    2    0    0  0.00000000000E+00  0.00000000000E+00  0.81889107380E+03  0.25328640548E+04  0.23968349399E+04 0.  0.
        3    1    3    3  502    0  0.11934493017E+04 -0.25580018132E+02  0.29746530214E+03  0.12302281046E+04  0.10100000352E+00 0. -1.
       -3    1    3    3    0  502 -0.11934493017E+04  0.25580018132E+02  0.52142577166E+03  0.13026359502E+04  0.10100000352E+00 0.  1.
</event>
<event>
 5   0  0.4483375E-07  0.2399368E+04  0.7818609E-02  0.8439740E-01
        3   -1    0    0  501    0  0.00000000000E+00  0.00000000000E+00  0.73360635721E+03  0.73360636416E+03  0.10100000352E+00 0. -1.
       -3   -1    0    0    0  501  0.00000000000E+00  0.00000000000E+00 -0.19618725824E+04  0.19618725850E+04  0.10100000352E+00 0.  1.
    10030    2    1    2    0    0  0.00000000000E+00  0.00000000000E+00 -0.12282662252E+04  0.26954789491E+04  0.23993684264E+04 0.  0.
        1    1    3    3  502    0 -0.45257681593E+03 -0.15537029819E+03  0.62176112273E+03  0.78457160135E+03  0.50400001928E-02 0. -1.
       -1    1    3    3    0  502  0.45257681593E+03  0.15537029819E+03 -0.18500273479E+04  0.19109073478E+04  0.50400001928E-02 0.  1.
</event>
<event>
 5   0  0.5510176E-07  0.2401028E+04  0.7818609E-02  0.8439119E-01
        1   -1    0    0  501    0  0.00000000000E+00  0.00000000000E+00  0.11656527735E+04  0.11656527735E+04  0.50400001928E-02 0. -1.
       -1   -1    0    0    0  501  0.00000000000E+00  0.00000000000E+00 -0.12364183366E+04  0.12364183366E+04  0.50400001928E-02 0.  1.
    10030    2    1    2    0    0  0.00000000000E+00  0.00000000000E+00 -0.70765563147E+02  0.24020711101E+04  0.24010284990E+04 0.  0.
        3    1    3    3  502    0  0.84038973295E+03  0.29047663780E+03  0.77156704632E+03  0.11772626290E+04  0.10100000352E+00 0. -1.
       -3    1    3    3    0  502 -0.84038973295E+03 -0.29047663780E+03 -0.84233260947E+03  0.12248084812E+04  0.10100000352E+00 0.  1.
</event>
<event>
 5   0  0.5690124E-07  0.2399250E+04  0.7818609E-02  0.8439784E-01
        1   -1    0    0  501    0  0.00000000000E+00  0.00000000000E+00  0.10992629221E+04  0.10992629222E+04  0.50400001928E-02 0. -1.
       -1   -1    0    0    0  501  0.00000000000E+00  0.00000000000E+00 -0.13091502305E+04  0.13091502305E+04  0.50400001928E-02 0.  1.
    10030    2    1    2    0    0  0.00000000000E+00  0.00000000000E+00 -0.20988730837E+03  0.24084131527E+04  0.23992501395E+04 0.  0.
        2    1    3    3  502    0 -0.59764837214E+03  0.96634557198E+03 -0.49124184864E+03  0.12378715180E+04  0.25500000920E-02 0. -1.
       -2    1    3    3    0  502  0.59764837214E+03 -0.96634557198E+03  0.28135454027E+03  0.11705416347E+04  0.25500000920E-02 0.  1.
</event>
<event>
 5   0  0.5452384E-07  0.2396489E+04  0.7818609E-02  0.8440819E-01
        1   -1    0    0  501    0  0.00000000000E+00  0.00000000000E+00  0.95718828127E+03  0.95718828129E+03  0.50400001928E-02 0.  1.
       -1   -1    0    0    0  501  0.00000000000E+00  0.00000000000E+00 -0.15000083636E+04  0.15000083636E+04  0.50400001928E-02 0. -1.
    10030    2    1    2    0    0  0.00000000000E+00  0.00000000000E+00 -0.54282008235E+03  0.24571966449E+04  0.23964894554E+04 0.  0.
        5    1    3    3  502    0 -0.73138058820E+03  0.24208806859E+03  0.66957645312E+03  0.10207247006E+04  0.46999998093E+01 0.  1.
       -5    1    3    3    0  502  0.73138058820E+03 -0.24208806859E+03 -0.12123965355E+04  0.14364719444E+04  0.46999998093E+01 0. -1.
</event>
<event>
 5   0  0.1307477E-06  0.2400578E+04  0.7818609E-02  0.8439287E-01
       -2   -1    0    0    0  501  0.00000000000E+00  0.00000000000E+00  0.11972640397E+04  0.11972640398E+04  0.25500000920E-02 0. -1.
        2   -1    0    0  501    0  0.00000000000E+00  0.00000000000E+00 -0.12033215866E+04  0.12033215866E+04  0.25500000920E-02 0.  1.
    10030    2    1    2    0    0  0.00000000000E+00  0.00000000000E+00 -0.60575468689E+01  0.24005856264E+04  0.24005779837E+04 0.  0.
        5    1    3    3  502    0  0.28388868338E+03 -0.10033499076E+04  0.59142055353E+03  0.11987928023E+04  0.46999998093E+01 0. -1.
       -5    1    3    3    0  502 -0.28388868338E+03  0.10033499076E+04 -0.59747810039E+03  0.12017928241E+04  0.46999998093E+01 0.  1.
</event>
<event>
 5   0  0.5452384E-07  0.2400518E+04  0.7818609E-02  0.8439310E-01
       -1   -1    0    0    0  501  0.00000000000E+00  0.00000000000E+00  0.75913352536E+03  0.75913352538E+03  0.50400001928E-02 0.  1.
        1   -1    0    0  501    0  0.00000000000E+00  0.00000000000E+00 -0.18977188677E+04  0.18977188677E+04  0.50400001928E-02 0. -1.
    10030    2    1    2    0    0  0.00000000000E+00  0.00000000000E+00 -0.11385853423E+04  0.26568523930E+04  0.24005182892E+04 0.  0.
        5    1    3    3  502    0  0.13360999089E+03 -0.77973711959E+03  0.42973337133E+03  0.90029687646E+03  0.46999998093E+01 0.  1.
       -5    1    3    3    0  502 -0.13360999089E+03  0.77973711959E+03 -0.15683187136E+04  0.17565555166E+04  0.46999998093E+01 0. -1.
</event>
<event>
 5   0  0.1275948E-06  0.2400266E+04  0.7818609E-02  0.8439404E-01
        2   -1    0    0  501    0  0.00000000000E+00  0.00000000000E+00  0.93364382686E+03  0.93364382686E+03  0.25500000920E-02 0. -1.
       -2   -1    0    0    0  501  0.00000000000E+00  0.00000000000E+00 -0.15426865449E+04  0.15426865449E+04  0.25500000920E-02 0.  1.
    10030    2    1    2    0    0  0.00000000000E+00  0.00000000000E+00 -0.60904271804E+03  0.24763303718E+04  0.24002664597E+04 0.  0.
        1    1    3    3  502    0  0.70012970984E+03 -0.94721347343E+03 -0.54186561086E+03  0.12965389755E+04  0.50400001928E-02 0.  1.
       -1    1    3    3    0  502 -0.70012970984E+03  0.94721347343E+03 -0.67177107181E+02  0.11797913962E+04  0.50400001928E-02 0. -1.
</event>
<event>
 5   0  0.5527286E-07  0.2400009E+04  0.7818609E-02  0.8439500E-01
        1   -1    0    0  501    0  0.00000000000E+00  0.00000000000E+00  0.15156133979E+04  0.15156133979E+04  0.50400001928E-02 0.  1.
       -1   -1    0    0    0  501  0.00000000000E+00  0.00000000000E+00 -0.95011723973E+03  0.95011723974E+03  0.50400001928E-02 0. -1.
    10030    2    1    2    0    0  0.00000000000E+00  0.00000000000E+00  0.56549615820E+03  0.24657306377E+04  0.24000086818E+04 0.  0.
        1    1    3    3  502    0  0.58453668338E+03 -0.84797878238E+02  0.13559276116E+04  0.14789907039E+04  0.50400001928E-02 0.  1.
       -1    1    3    3    0  502 -0.58453668338E+03  0.84797878238E+02 -0.79043145339E+03  0.98673993377E+03  0.50400001928E-02 0. -1.
</event>
<event>
 5   0  0.1291468E-06  0.2400351E+04  0.7818609E-02  0.8439372E-01
       -2   -1    0    0    0  501  0.00000000000E+00  0.00000000000E+00  0.63646076735E+03  0.63646076736E+03  0.25500000920E-02 0. -1.
        2   -1    0    0  501    0  0.00000000000E+00  0.00000000000E+00 -0.22631736751E+04  0.22631736751E+04  0.25500000920E-02 0.  1.
    10030    2    1    2    0    0  0.00000000000E+00  0.00000000000E+00 -0.16267129078E+04  0.28996344425E+04  0.24003510193E+04 0.  0.
        4    1    3    3  502    0  0.40974278413E+03  0.93761802760E+03 -0.55673901489E+02  0.10247526097E+04  0.12699999809E+01 0. -1.
       -4    1    3    3    0  502 -0.40974278413E+03 -0.93761802760E+03 -0.15710390063E+04  0.18748818328E+04  0.12699999809E+01 0.  1.
</event>
<event>
 5   0  0.1308662E-06  0.2400318E+04  0.7818609E-02  0.8439384E-01
       -2   -1    0    0    0  501  0.00000000000E+00  0.00000000000E+00  0.23246928158E+04  0.23246928158E+04  0.25500000920E-02 0. -1.
        2   -1    0    0  501    0  0.00000000000E+00  0.00000000000E+00 -0.61960088434E+03  0.61960088434E+03  0.25500000920E-02 0.  1.
    10030    2    1    2    0    0  0.00000000000E+00  0.00000000000E+00  0.17050919314E+04  0.29442937001E+04  0.24003180827E+04 0.  0.
        3    1    3    3  502    0 -0.31330193346E+03  0.36526423943E+02 -0.56784799472E+03  0.64957188707E+03  0.10100000352E+00 0.  1.
       -3    1    3    3    0  502  0.31330193346E+03 -0.36526423943E+02  0.22729399262E+04  0.22947218131E+04  0.10100000352E+00 0. -1.
</event>
<event>
 5   0  0.5510176E-07  0.2399645E+04  0.7818609E-02  0.8439637E-01
        1   -1    0    0  501    0  0.00000000000E+00  0.00000000000E+00  0.12792154138E+04  0.12792154138E+04  0.50400001928E-02 0. -1.
       -1   -1    0    0    0  501  0.00000000000E+00  0.00000000000E+00 -0.11253565843E+04  0.11253565843E+04  0.50400001928E-02 0.  1.
    10030    2    1    2    0    0  0.00000000000E+00  0.00000000000E+00  0.15385882954E+03  0.24045719981E+04  0.23996445476E+04 0.  0.
        3    1    3    3  502    0  0.28053037456E+02  0.95974455441E+03 -0.64404567699E+03  0.11561537211E+04  0.10100000352E+00 0.  1.
       -3    1    3    3    0  502 -0.28053037456E+02 -0.95974455441E+03  0.79790450653E+03  0.12484182770E+04  0.10100000352E+00 0. -1.
</event>
<event>
 5   0  0.5452384E-07  0.2401644E+04  0.7818609E-02  0.8438888E-01
       -1   -1    0    0    0  501  0.00000000000E+00  0.00000000000E+00  0.96037982309E+03  0.96037982310E+03  0.50400001928E-02 0. -1.
        1   -1    0    0  501    0  0.00000000000E+00  0.00000000000E+00 -0.15014611863E+04  0.15014611863E+04  0.50400001928E-02 0.  1.
    10030    2    1    2    0    0  0.00000000000E+00  0.00000000000E+00 -0.54108136322E+03  0.24618410094E+04  0.24016436276E+04 0.  0.
        5    1    3    3  502    0 -0.82134425280E+03 -0.47165632483E+03  0.48612460670E+03  0.10646150918E+04  0.46999998093E+01 0. -1.
       -5    1    3    3    0  502  0.82134425280E+03  0.47165632483E+03 -0.10272059699E+04  0.13972259177E+04  0.46999998093E+01 0.  1.
</event>
<event>
 5   0  0.4483375E-07  0.2394574E+04  0.7818609E-02  0.8441538E-01
       -3   -1    0    0    0  501  0.00000000000E+00  0.00000000000E+00  0.14582451114E+04  0.14582451149E+04  0.10100000352E+00 0. -1.
        3   -1    0    0  501    0  0.00000000000E+00  0.00000000000E+00 -0.98302805587E+03  0.98302806106E+03  0.10100000352E+00 0.  1.
    10030    2    1    2    0    0  0.00000000000E+00  0.00000000000E+00  0.47521705553E+03  0.24412731759E+04  0.23945737553E+04 0.  0.
        5    1    3    3  502    0 -0.22156541088E+03  0.46780198193E+03 -0.86304966310E+03  0.10063829970E+04  0.46999998093E+01 0.  1.
       -5    1    3    3    0  502  0.22156541088E+03 -0.46780198193E+03  0.13382667186E+04  0.14348901790E+04  0.46999998093E+01 0. -1.
</event>
<event>
 5   0  0.5363690E-07  0.2400935E+04  0.7818609E-02  0.8439153E-01
       -1   -1    0    0    0  501  0.00000000000E+00  0.00000000000E+00  0.14235907381E+04  0.14235907381E+04  0.50400001928E-02 0.  1.
        1   -1    0    0  501    0  0.00000000000E+00  0.00000000000E+00 -0.10123152500E+04  0.10123152500E+04  0.50400001928E-02 0. -1.
    10030    2    1    2    0    0  0.00000000000E+00  0.00000000000E+00  0.41127548806E+03  0.24359059881E+04  0.24009353293E+04 0.  0.
        4    1    3    3  502    0  0.39071673472E+03 -0.51248635277E+03  0.12332173270E+04  0.13914483163E+04  0.12699999809E+01 0.  1.
       -4    1    3    3    0  502 -0.39071673472E+03  0.51248635277E+03 -0.82194183892E+03  0.10444576717E+04  0.12699999809E+01 0. -1.
</event>
<event>
 5   0  0.1307477E-06  0.2399961E+04  0.7818609E-02  0.8439518E-01
       -2   -1    0    0    0  501  0.00000000000E+00  0.00000000000E+00  0.16501382727E+04  0.16501382727E+04  0.25500000920E-02 0.  1.
        2   -1    0    0  501    0  0.00000000000E+00  0.00000000000E+00 -0.87262552791E+03  0.87262552792E+03  0.25500000920E-02 0. -1.
    10030    2    1    2    0    0  0.00000000000E+00  0.00000000000E+00  0.77751274481E+03  0.25227638006E+04  0.23999606508E+04 0.  0.
        5    1    3    3  502    0  0.80774672752E+03  0.47163576990E+03  0.11789078950E+04  0.15049056416E+04  0.46999998093E+01 0.  1.
       -5    1    3    3    0  502 -0.80774672752E+03 -0.47163576990E+03 -0.40139515020E+03  0.10178581590E+04  0.46999998093E+01 0. -1.
</event>
<event>
 5   0  0.1336057E-06  0.2400533E+04  0.7818609E-02  0.8439304E-01
        2   -1    0    0  501    0  0.00000000000E+00  0.00000000000E+00  0.11469212952E+04  0.11469212952E+04  0.25500000920E-02 0. -1.
       -2   -1    0    0    0  501  0.00000000000E+00  0.00000000000E+00 -0.12560927904E+04  0.12560927904E+04  0.25500000920E-02 0.  1.
    10030    2    1    2    0    0  0.00000000000E+00  0.00000000000E+00 -0.10917149528E+03  0.24030140856E+04  0.24005329159E+04 0.  0.
        2    1    3    3  502    0 -0.88975067260E+03  0.80035025786E+03 -0.14645628597E+03  0.12056808194E+04  0.25500000920E-02 0.  1.
       -2    1    3    3    0  502  0.88975067260E+03 -0.80035025786E+03  0.37284790690E+02  0.11973332662E+04  0.25500000920E-02 0. -1.
</event>
<event>
 5   0  0.1308662E-06  0.2401427E+04  0.7818609E-02  0.8438969E-01
       -2   -1    0    0    0  501  0.00000000000E+00  0.00000000000E+00  0.89281842685E+03  0.89281842685E+03  0.25500000920E-02 0.  1.
        2   -1    0    0  501    0  0.00000000000E+00  0.00000000000E+00 -0.16147885467E+04  0.16147885467E+04  0.25500000920E-02 0. -1.
    10030    2    1    2    0    0  0.00000000000E+00  0.00000000000E+00 -0.72197011981E+03  0.25076069735E+04  0.24014270507E+04 0.  0.
        3    1    3    3  502    0  0.51755132670E+03  0.10820324174E+04 -0.30322728639E+03  0.12371743311E+04  0.10100000352E+00 0.  1.
       -3    1    3    3    0  502 -0.51755132670E+03 -0.10820324174E+04 -0.41874283343E+03  0.12704326424E+04  0.10100000352E+00 0. -1.
</event>
<event>
 5   0  0.1336057E-06  0.2398682E+04  0.7818609E-02  0.8439997E-01
        2   -1    0    0  501    0  0.00000000000E+00  0.00000000000E+00  0.15750180170E+04  0.15750180170E+04  0.25500000920E-02 0. -1.
       -2   -1    0    0    0  501  0.00000000000E+00  0.00000000000E+00 -0.91327113012E+03  0.91327113012E+03  0.25500000920E-02 0.  1.
    10030    2    1    2    0    0  0.00000000000E+00  0.00000000000E+00  0.66174688683E+03  0.24882891471E+04  0.23986817082E+04 0.  0.
        2    1    3    3  502    0  0.60206251600E+03  0.55219759228E+03  0.12417514320E+04  0.14863875918E+04  0.25500000920E-02 0. -1.
       -2    1    3    3    0  502 -0.60206251600E+03 -0.55219759228E+03 -0.58000454518E+03  0.10019015553E+04  0.25500000920E-02 0.  1.
</event>
<event>
 5   0  0.1308662E-06  0.2401768E+04  0.7818609E-02  0.8438842E-01
        2   -1    0    0  501    0  0.00000000000E+00  0.00000000000E+00  0.12054121369E+04  0.12054121369E+04  0.25500000920E-02 0.  1.
       -2   -1    0    0    0  501  0.00000000000E+00  0.00000000000E+00 -0.11963726388E+04  0.11963726388E+04  0.25500000920E-02 0. -1.
    10030    2    1    2    0    0  0.00000000000E+00  0.00000000000E+00  0.90394981372E+01  0.24017847757E+04  0.24017677648E+04 0.  0.
        3    1    3    3  502    0 -0.66516204528E+03 -0.20108448997E+03 -0.97489852638E+03  0.11972061917E+04  0.10100000352E+00 0. -1.
       -3    1    3    3    0  502  0.66516204528E+03  0.20108448997E+03  0.98393802452E+03  0.12045785839E+04  0.10100000352E+00 0.  1.
</event>
<event>
 5   0  0.1307477E-06  0.2401433E+04  0.7818609E-02  0.8438967E-01
        2   -1    0    0  501    0  0.00000000000E+00  0.00000000000E+00  0.13629820104E+04  0.13629820104E+04  0.25500000920E-02 0. -1.
       -2   -1    0    0    0  501  0.00000000000E+00  0.00000000000E+00 -0.10577686612E+04  0.10577686612E+04  0.25500000920E-02 0.  1.
    10030    2    1    2    0    0  0.00000000000E+00  0.00000000000E+00  0.30521334920E+03  0.24207506717E+04  0.24014326195E+04 0.  0.
        5    1    3    3  502    0  0.37005936587E+03 -0.40220410585E+03 -0.92509861380E+03  0.10744959806E+04  0.46999998093E+01 0.  1.
       -5    1    3    3    0  502 -0.37005936587E+03  0.40220410585E+03  0.12303119630E+04  0.13462546911E+04  0.46999998093E+01 0. -1.
</event>
<event>
 5   0  0.1291468E-06  0.2400219E+04  0.7818609E-02  0.8439422E-01
        2   -1    0    0  501    0  0.00000000000E+00  0.00000000000E+00  0.19690860723E+04  0.19690860723E+04  0.25500000920E-02 0. -1.
       -2   -1    0    0    0  501  0.00000000000E+00  0.00000000000E+00 -0.73143693867E+03  0.73143693867E+03  0.25500000920E-02 0.  1.
    10030    2    1    2    0    0  0.00000000000E+00  0.00000000000E+00  0.12376491336E+04  0.27005230110E+04  0.24002185640E+04 0.  0.
        4    1    3    3  502    0 -0.54936619508E+03  0.76108611474E+03 -0.22253718366E+03  0.96466559043E+03  0.12699999809E+01 0.  1.
       -4    1    3    3    0  502  0.54936619508E+03 -0.76108611474E+03  0.14601863173E+04  0.17358574205E+04  0.12699999809E+01 0. -1.
</event>
<event>
 5   0  0.1291468E-06  0.2401304E+04  0.7818609E-02  0.8439015E-01
       -2   -1    0    0    0  501  0.00000000000E+00  0.00000000000E+00  0.13400151558E+04  0.13400151558E+04  0.25500000920E-02 0.  1.
        2   -1    0    0  501    0  0.00000000000E+00  0.00000000000E+00 -0.10757829719E+04  0.10757829719E+04  0.25500000920E-02 0. -1.
    10030    2    1    2    0    0  0.00000000000E+00  0.00000000000E+00  0.26423218389E+03  0.24157981278E+04  0.24013042179E+04 0.  0.
        4    1    3    3  502    0 -0.42634192962E+03 -0.98892495570E+03 -0.40195901962E+03  0.11494836560E+04  0.12699999809E+01 0. -1.
       -4    1    3    3    0  502  0.42634192962E+03  0.98892495570E+03  0.66619120350E+03  0.12663144718E+04  0.12699999809E+01 0.  1.
</event>
<event>
 5   0  0.5527286E-07  0.2399917E+04  0.7818609E-02  0.8439535E-01
        1   -1    0    0  501    0  0.00000000000E+00  0.00000000000E+00  0.83607050536E+03  0.83607050537E+03  0.50400001928E-02 0. -1.
       -1   -1    0    0    0  501  0.00000000000E+00  0.00000000000E+00 -0.17222235062E+04  0.17222235062E+04  0.50400001928E-02 0.  1.
    10030    2    1    2    0    0  0.00000000000E+00  0.00000000000E+00 -0.88615300087E+03  0.25582940116E+04  0.23999168962E+04 0.  0.
        1    1    3    3  502    0 -0.45460204947E+03 -0.90453354188E+03  0.24368789154E+03  0.10412625703E+04  0.50400001928E-02 0. -1.
       -1    1    3    3    0  502  0.45460204947E+03  0.90453354188E+03 -0.11298408924E+04  0.15170314413E+04  0.50400001928E-02 0.  1.
</event>
<event>
 5   0  0.1336057E-06  0.2399206E+04  0.7818609E-02  0.8439801E-01
        2   -1    0    0  501    0  0.00000000000E+00  0.00000000000E+00  0.12957512184E+04  0.12957512184E+04  0.25500000920E-02 0.  1.
       -2   -1    0    0    0  501  0.00000000000E+00  0.00000000000E+00 -0.11105890522E+04  0.11105890522E+04  0.25500000920E-02 0. -1.
    10030    2    1    2    0    0  0.00000000000E+00  0.00000000000E+00  0.18516216618E+03  0.24063402706E+04  0.23992057999E+04 0.  0.
        2    1    3    3  502    0  0.21723401670E+03  0.11141596216E+04 -0.29652208381E+03  0.11732295712E+04  0.25500000920E-02 0. -1.
       -2    1    3    3    0  502 -0.21723401670E+03 -0.11141596216E+04  0.48168424999E+03  0.12331106995E+04  0.25500000920E-02 0.  1.
</event>
<event>
 5   0  0.5452384E-07  0.2399665E+04  0.7818609E-02  0.8439629E-01
       -1   -1    0    0    0  501  0.00000000000E+00  0.00000000000E+00  0.96535250994E+03  0.96535250996E+03  0.50400001928E-02 0. -1.
        1   -1    0    0  501    0  0.00000000000E+00  0.00000000000E+00 -0.14912665983E+04  0.14912665983E+04  0.50400001928E-02 0.  1.
    10030    2    1    2    0    0  0.00000000000E+00  0.00000000000E+00 -0.52591408831E+03  0.24566191082E+04  0.23996649380E+04 0.  0.
        5    1    3    3  502    0  0.94764275014E+03 -0.83986299679E+02 -0.10114008504E+04  0.13885367300E+04  0.46999998093E+01 0.  1.
       -5    1    3    3    0  502 -0.94764275014E+03  0.83986299679E+02  0.48548676209E+03  0.10680823782E+04  0.46999998093E+01 0. -1.
</event>
<event>
 5   0  0.5363690E-07  0.2398469E+04  0.7818609E-02  0.8440077E-01
       -1   -1    0    0    0  501  0.00000000000E+00  0.00000000000E+00  0.10275265822E+04  0.10275265822E+04  0.50400001928E-02 0. -1.
        1   -1    0    0  501    0  0.00000000000E+00  0.00000000000E+00 -0.13996367104E+04  0.13996367104E+04  0.50400001928E-02 0.  1.
    10030    2    1    2    0    0  0.00000000000E+00  0.00000000000E+00 -0.37211012825E+03  0.24271632926E+04  0.23984694497E+04 0.  0.
        4    1    3    3  502    0  0.95356848703E+03  0.28380765164E+03  0.49152427402E+03  0.11097014767E+04  0.12699999809E+01 0. -1.
       -4    1    3    3    0  502 -0.95356848703E+03 -0.28380765164E+03 -0.86363440227E+03  0.13174618159E+04  0.12699999809E+01 0.  1.
</event>
<event>
 5   0  0.5452384E-07  0.2399905E+04  0.7818609E-02  0.8439539E-01
        1   -1    0    0  501    0  0.00000000000E+00  0.00000000000E+00  0.11697414842E+04  0.11697414842E+04  0.50400001928E-02 0. -1.
       -1   -1    0    0    0  501  0.00000000000E+00  0.00000000000E+00 -0.12309440038E+04  0.12309440038E+04  0.50400001928E-02 0.  1.
    10030    2    1    2    0    0  0.00000000000E+00  0.00000000000E+00 -0.61202519669E+02  0.24006854880E+04  0.23999052198E+04 0.  0.
        5    1    3    3  502    0 -0.35004906690E+03 -0.44981286931E+03  0.10256768067E+04  0.11734142357E+04  0.46999998093E+01 0. -1.
       -5    1    3    3    0  502  0.35004906690E+03  0.44981286931E+03 -0.10868793264E+04  0.12272712523E+04  0.46999998093E+01 0.  1.
</event>
<event>
 5   0  0.1275948E-06  0.2400176E+04  0.7818609E-02  0.8439438E-01
       -2   -1    0    0    0  501  0.00000000000E+00  0.00000000000E+00  0.86922764383E+03  0.86922764383E+03  0.25500000920E-02 0. -1.
        2   -1    0    0  501    0  0.00000000000E+00  0.00000000000E+00 -0.16568865646E+04  0.16568865646E+04  0.25500000920E-02 0.  1.
    10030    2    1    2    0    0  0.00000000000E+00  0.00000000000E+00 -0.78765892076E+03  0.25261142084E+04  0.24001763307E+04 0.  0.
        1    1    3    3  502    0  0.11277946970E+04 -0.30937319552E+03 -0.11028890914E+03  0.11746473071E+04  0.50400001928E-02 0. -1.
       -1    1    3    3    0  502 -0.11277946970E+04  0.30937319552E+03 -0.67737001162E+03  0.13514669013E+04  0.50400001928E-02 0.  1.
</event>
<event>
 5   0  0.1308662E-06  0.2399773E+04  0.7818609E-02  0.8439588E-01
        2   -1    0    0  501    0  0.00000000000E+00  0.00000000000E+00  0.12932886708E+04  0.12932886708E+04  0.25500000920E-02 0.  1.
       -2   -1    0    0    0  501  0.00000000000E+00  0.00000000000E+00 -0.11132300188E+04  0.11132300188E+04  0.25500000920E-02 0. -1.
    10030    2    1    2    0    0  0.00000000000E+00  0.00000000000E+00  0.18005865199E+03  0.24065186896E+04  0.23997731320E+04 0.  0.
        3    1    3    3  502    0  0.47635950063E+03  0.10711063400E+04 -0.16669926929E+03  0.11840505994E+04  0.10100000352E+00 0. -1.
       -3    1    3    3    0  502 -0.47635950063E+03 -0.10711063400E+04  0.34675792129E+03  0.12224680902E+04  0.10100000352E+00 0.  1.
</event>
<event>
 5   0  0.1307477E-06  0.2393418E+04  0.7818609E-02  0.8441972E-01
        2   -1    0    0  501    0  0.00000000000E+00  0.00000000000E+00  0.21817918507E+04  0.21817918507E+04  0.25500000920E-02 0.  1.
       -2   -1    0    0    0  501  0.00000000000E+00  0.00000000000E+00 -0.65639261201E+03  0.65639261202E+03  0.25500000920E-02 0. -1.
    10030    2    1    2    0    0  0.00000000000E+00  0.00000000000E+00  0.15253992387E+04  0.28381844627E+04  0.23934176834E+04 0.  0.
        5    1    3    3  502    0 -0.14381752521E+03  0.53209623241E+03  0.20222936195E+04  0.20960685710E+04  0.46999998093E+01 0.  1.
       -5    1    3    3    0  502  0.14381752521E+03 -0.53209623241E+03 -0.49689438076E+03  0.74211589171E+03  0.46999998093E+01 0. -1.
</event>
<event>
 5   0  0.5452384E-07  0.2397612E+04  0.7818609E-02  0.8440398E-01
       -1   -1    0    0    0  501  0.00000000000E+00  0.00000000000E+00  0.65954358990E+03  0.65954358992E+03  0.50400001928E-02 0.  1.
        1   -1    0    0  501    0  0.00000000000E+00  0.00000000000E+00 -0.21789853674E+04  0.21789853674E+04  0.50400001928E-02 0. -1.
    10030    2    1    2    0    0  0.00000000000E+00  0.00000000000E+00 -0.15194417775E+04  0.28385289573E+04  0.23976120049E+04 0.  0.
        5    1    3    3  502    0 -0.64976291911E+03  0.99406655931E+03 -0.95336543253E+03  0.15229208493E+04  0.46999998093E+01 0.  1.
       -5    1    3    3    0  502  0.64976291911E+03 -0.99406655931E+03 -0.56607634493E+03  0.13156081079E+04  0.46999998093E+01 0. -1.
</event>
<event>
 5   0  0.1308662E-06  0.2399234E+04  0.7818609E-02  0.8439790E-01
       -2   -1    0    0    0  501  0.00000000000E+00  0.00000000000E+00  0.10759016214E+04  0.10759016214E+04  0.25500000920E-02 0.  1.
        2   -1    0    0  501    0  0.00000000000E+00  0.00000000000E+00 -0.13375585616E+04  0.13375585616E+04  0.25500000920E-02 0. -1.
    10030    2    1    2    0    0  0.00000000000E+00  0.00000000000E+00 -0.26165694026E+03  0.24134601830E+04  0.23992343988E+04 0.  0.
        3    1    3    3  502    0 -0.32152565066E+03 -0.53470825151E+03  0.89983913085E+03  0.10949895570E+04  0.10100000352E+00 0.  1.
       -3    1    3    3    0  502  0.32152565066E+03  0.53470825151E+03 -0.11614960711E+04  0.13184706260E+04  0.10100000352E+00 0. -1.
</event>
<event>
 5   0  0.1291468E-06  0.2398600E+04  0.7818609E-02  0.8440028E-01
        2   -1    0    0  501    0  0.00000000000E+00  0.00000000000E+00  0.14900733402E+04  0.14900733402E+04  0.25500000920E-02 0. -1.
       -2   -1    0    0    0  501  0.00000000000E+00  0.00000000000E+00 -0.96526839835E+03  0.96526839835E+03  0.25500000920E-02 0.  1.
    10030    2    1    2    0    0  0.00000000000E+00  0.00000000000E+00  0.52480494184E+03  0.24553417386E+04  0.23986001805E+04 0.  0.
        4    1    3    3  502    0  0.37767738643E+03  0.17322898646E+03  0.14140363461E+04  0.14738211869E+04  0.12699999809E+01 0. -1.
       -4    1    3    3    0  502 -0.37767738643E+03 -0.17322898646E+03 -0.88923140429E+03  0.98152055162E+03  0.12699999809E+01 0.  1.
</event>
<event>
 5   0  0.1307477E-06  0.2400080E+04  0.7818609E-02  0.8439474E-01
        2   -1    0    0  501    0  0.00000000000E+00  0.00000000000E+00  0.11138845210E+04  0.11138845210E+04  0.25500000920E-02 0. -1.
       -2   -1    0    0    0  501  0.00000000000E+00  0.00000000000E+00 -0.12928590651E+04  0.12928590651E+04  0.25500000920E-02 0.  1.
    10030    2    1    2    0    0  0.00000000000E+00  0.00000000000E+00 -0.17897454407E+03  0.24067435861E+04  0.24000797491E+04 0.  0.
        5    1    3    3  502    0 -0.35241118885E+03  0.12042050950E+03  0.10544600482E+04  0.11183035493E+04  0.46999998093E+01 0. -1.
       -5    1    3    3    0  502  0.35241118885E+03 -0.12042050950E+03 -0.12334345923E+04  0.12884400368E+04  0.46999998093E+01 0.  1.
</event>
<event>
 5   0  0.5452384E-07  0.2400376E+04  0.7818609E-02  0.8439363E-01
       -1   -1    0    0    0  501  0.00000000000E+00  0.00000000000E+00  0.10713408962E+04  0.10713408962E+04  0.50400001928E-02 0.  1.
        1   -1    0    0  501    0  0.00000000000E+00  0.00000000000E+00 -0.13445309173E+04  0.13445309173E+04  0.50400001928E-02 0. -1.
    10030    2    1    2    0    0  0.00000000000E+00  0.00000000000E+00 -0.27319002103E+03  0.24158718135E+04  0.24003757689E+04 0.  0.
        5    1    3    3  502    0 -0.22652174894E+03 -0.97671212573E+03  0.52732268002E+03  0.11328592049E+04  0.46999998093E+01 0.  1.
       -5    1    3    3    0  502  0.22652174894E+03  0.97671212573E+03 -0.80051270105E+03  0.12830126086E+04  0.46999998093E+01 0. -1.
</event>
<event>
 5   0  0.1308662E-06  0.2398803E+04  0.7818609E-02  0.8439952E-01
       -2   -1    0    0    0  501  0.00000000000E+00  0.00000000000E+00  0.15577462421E+04  0.15577462421E+04  0.25500000920E-02 0. -1.
        2   -1    0    0  501    0  0.00000000000E+00  0.00000000000E+00 -0.92349034138E+03  0.92349034139E+03  0.25500000920E-02 0.  1.
    10030    2    1    2    0    0  0.00000000000E+00  0.00000000000E+00  0.63425590073E+03  0.24812365835E+04  0.23988027088E+04 0.  0.
        3    1    3    3  502    0 -0.10795489181E+04 -0.14895967869E+03 -0.20103476558E+03  0.11081650778E+04  0.10100000352E+00 0.  1.
       -3    1    3    3    0  502  0.10795489181E+04  0.14895967869E+03  0.83529066632E+03  0.13730715057E+04  0.10100000352E+00 0. -1.
</event>
<event>
 5   0  0.1275948E-06  0.2398894E+04  0.7818609E-02  0.8439918E-01
        2   -1    0    0  501    0  0.00000000000E+00  0.00000000000E+00  0.11218426275E+04  0.11218426275E+04  0.25500000920E-02 0.  1.
       -2   -1    0    0    0  501  0.00000000000E+00  0.00000000000E+00 -0.12824197903E+04  0.12824197903E+04  0.25500000920E-02 0. -1.
    10030    2    1    2    0    0  0.00000000000E+00  0.00000000000E+00 -0.16057716279E+03  0.24042624179E+04  0.23988940679E+04 0.  0.
        1    1    3    3  502    0  0.72476356074E+03  0.88461489155E+03 -0.44282650970E+03  0.12263445858E+04  0.50400001928E-02 0. -1.
       -1    1    3    3    0  502 -0.72476356074E+03 -0.88461489155E+03  0.28224934691E+03  0.11779178321E+04  0.50400001928E-02 0.  1.
</event>
<event>
 5   0  0.1291468E-06  0.2399986E+04  0.7818609E-02  0.8439509E-01
       -2   -1    0    0    0  501  0.00000000000E+00  0.00000000000E+00  0.62072506243E+03  0.62072506244E+03  0.25500000920E-02 0. -1.
        2   -1    0    0  501    0  0.00000000000E+00  0.00000000000E+00 -0.23198398628E+04  0.23198398628E+04  0.25500000920E-02 0.  1.
    10030    2    1    2    0    0  0.00000000000E+00  0.00000000000E+00 -0.16991148003E+04  0.29405649252E+04  0.23999856197E+04 0.  0.
        4    1    3    3  502    0 -0.54217649704E+03 -0.62413589683E+03  0.21610809503E+03  0.85452050490E+03  0.12699999809E+01 0. -1.
       -4    1    3    3    0  502  0.54217649704E+03  0.62413589683E+03 -0.19152228954E+04  0.20860444203E+04  0.12699999809E+01 0.  1.
</event>
<event>
 5   0  0.1275948E-06  0.2401706E+04  0.7818609E-02  0.8438865E-01
        2   -1    0    0  501    0  0.00000000000E+00  0.00000000000E+00  0.95785165083E+03  0.95785165083E+03  0.25500000920E-02 0.  1.
       -2   -1    0    0    0  501  0.00000000000E+00  0.00000000000E+00 -0.15055026114E+04  0.15055026114E+04  0.25500000920E-02 0. -1.
    10030    2    1    2    0    0  0.00000000000E+00  0.00000000000E+00 -0.54765096054E+03  0.24633542622E+04  0.24017061949E+04 0.  0.
        1    1    3    3  502    0 -0.88963209432E+03  0.72080614384E+03 -0.64511377652E+03  0.13142216498E+04  0.50400001928E-02 0.  1.
       -1    1    3    3    0  502  0.88963209432E+03 -0.72080614384E+03  0.97462815980E+02  0.11491326124E+04  0.50400001928E-02 0. -1.
</event>
<event>
 5   0  0.1308662E-06  0.2406479E+04  0.7818609E-02  0.8437082E-01
        2   -1    0    0  501    0  0.00000000000E+00  0.00000000000E+00  0.17162367978E+04  0.17162367978E+04  0.25500000920E-02 0. -1.
       -2   -1    0    0    0  501  0.00000000000E+00  0.00000000000E+00 -0.84358103686E+03  0.84358103686E+03  0.25500000920E-02 0.  1.
    10030    2    1    2    0    0  0.00000000000E+00  0.00000000000E+00  0.87265576090E+03  0.25598178346E+04  0.24064786036E+04 0.  0.
        3    1    3    3  502    0  0.32814735491E+03  0.25056106537E+03 -0.76587418145E+03  0.87007172464E+03  0.10100000352E+00 0.  1.
       -3    1    3    3    0  502 -0.32814735491E+03 -0.25056106537E+03  0.16385299423E+04  0.16897461100E+04  0.10100000352E+00 0. -1.
</event>
<event>
 5   0  0.1336057E-06  0.2399920E+04  0.7818609E-02  0.8439533E-01
        2   -1    0    0  501    0  0.00000000000E+00  0.00000000000E+00  0.11902312666E+04  0.11902312666E+04  0.25500000920E-02 0. -1.
       -2   -1    0    0    0  501  0.00000000000E+00  0.00000000000E+00 -0.12097685157E+04  0.12097685157E+04  0.25500000920E-02 0.  1.
    10030    2    1    2    0    0  0.00000000000E+00  0.00000000000E+00 -0.19537249140E+02  0.23999997824E+04  0.23999202593E+04 0.  0.
        2    1    3    3  502    0  0.95805022178E+03 -0.65638505359E+03  0.29223930742E+03  0.11975413892E+04  0.25500000920E-02 0. -1.
       -2    1    3    3    0  502 -0.95805022178E+03  0.65638505359E+03 -0.31177655656E+03  0.12024583932E+04  0.25500000920E-02 0.  1.
</event>
<event>
 5   0  0.1275948E-06  0.2402394E+04  0.7818609E-02  0.8438608E-01
        2   -1    0    0  501    0  0.00000000000E+00  0.00000000000E+00  0.12216376254E+04  0.12216376254E+04  0.25500000920E-02 0. -1.
       -2   -1    0    0    0  501  0.00000000000E+00  0.00000000000E+00 -0.11810987096E+04  0.11810987096E+04  0.25500000920E-02 0.  1.
    10030    2    1    2    0    0  0.00000000000E+00  0.00000000000E+00  0.40538915848E+02  0.24027363350E+04  0.24023943248E+04 0.  0.
        1    1    3    3  502    0  0.10053780640E+04  0.20477599782E+03 -0.60444444214E+03  0.11908280080E+04  0.50400001928E-02 0.  1.
       -1    1    3    3    0  502 -0.10053780640E+04 -0.20477599782E+03  0.64498335799E+03  0.12119083270E+04  0.50400001928E-02 0. -1.
</event>
<event>
 5   0  0.1336057E-06  0.2400769E+04  0.7818609E-02  0.8439216E-01
       -2   -1    0    0    0  501  0.00000000000E+00  0.00000000000E+00  0.11792169618E+04  0.11792169618E+04  0.25500000920E-02 0.  1.
        2   -1    0    0  501    0  0.00000000000E+00  0.00000000000E+00 -0.12219324991E+04  0.12219324991E+04  0.25500000920E-02 0. -1.
    10030    2    1    2    0    0  0.00000000000E+00  0.00000000000E+00 -0.42715537304E+02  0.24011494608E+04  0.24007694842E+04 0.  0.
        2    1    3    3  502    0  0.63029494090E+03  0.65978478608E+03 -0.80144009373E+03  0.12144520988E+04  0.25500000920E-02 0. -1.
       -2    1    3    3    0  502 -0.63029494090E+03 -0.65978478608E+03  0.75872455642E+03  0.11866973620E+04  0.25500000920E-02 0.  1.
</event>
<event>
 5   0  0.5527286E-07  0.2400287E+04  0.7818609E-02  0.8439396E-01
       -1   -1    0    0    0  501  0.00000000000E+00  0.00000000000E+00  0.18334580173E+04  0.18334580174E+04  0.50400001928E-02 0. -1.
        1   -1    0    0  501    0  0.00000000000E+00  0.00000000000E+00 -0.78558899725E+03  0.78558899727E+03  0.50400001928E-02 0.  1.
    10030    2    1    2    0    0  0.00000000000E+00  0.00000000000E+00  0.10478690201E+04  0.26190470146E+04  0.24002870207E+04 0.  0.
        1    1    3    3  502    0 -0.53864844742E+03 -0.10705452601E+04  0.45376873732E+03  0.12814504948E+04  0.50400001928E-02 0.  1.
       -1    1    3    3    0  502  0.53864844742E+03  0.10705452601E+04  0.59410028277E+03  0.13375965198E+04  0.50400001928E-02 0. -1.
</event>
<event>
 5   0  0.5690124E-07  0.2399204E+04  0.7818609E-02  0.8439802E-01
        1   -1    0    0  501    0  0.00000000000E+00  0.00000000000E+00  0.18609305205E+04  0.18609305206E+04  0.50400001928E-02 0. -1.
       -1   -1    0    0    0  501  0.00000000000E+00  0.00000000000E+00 -0.77329299598E+03  0.77329299600E+03  0.50400001928E-02 0.  1.
    10030    2    1    2    0    0  0.00000000000E+00  0.00000000000E+00  0.10876375246E+04  0.26342235165E+04  0.23992036492E+04 0.  0.
        2    1    3    3  502    0  0.42976816689E+03  0.40093607524E+03 -0.60437079643E+03  0.84303883260E+03  0.25500000920E-02 0.  1.
       -2    1    3    3    0  502 -0.42976816689E+03 -0.40093607524E+03  0.16920083210E+04  0.17911846839E+04  0.25500000920E-02 0. -1.
</event>
<event>
 5   0  0.5363690E-07  0.2407903E+04  0.7818609E-02  0.8436551E-01
       -1   -1    0    0    0  501  0.00000000000E+00  0.00000000000E+00  0.86117334190E+03  0.86117334192E+03  0.50400001928E-02 0. -1.
        1   -1    0    0  501    0  0.00000000000E+00  0.00000000000E+00 -0.16831678394E+04  0.16831678394E+04  0.50400001928E-02 0.  1.
    10030    2    1    2    0    0  0.00000000000E+00  0.00000000000E+00 -0.82199449752E+03  0.25443411813E+04  0.24079030489E+04 0.  0.
        4    1    3    3  502    0 -0.79420879484E+03 -0.93114119512E+01 -0.13670541027E+04  0.15810416961E+04  0.12699999809E+01 0.  1.
       -4    1    3    3    0  502  0.79420879484E+03  0.93114119512E+01  0.54505960518E+03  0.96329948525E+03  0.12699999809E+01 0. -1.
</event>
<event>
 5   0  0.5452384E-07  0.2400615E+04  0.7818609E-02  0.8439273E-01
        1   -1    0    0  501    0  0.00000000000E+00  0.00000000000E+00  0.13278772300E+04  0.13278772300E+04  0.50400001928E-02 0.  1.
       -1   -1    0    0    0  501  0.00000000000E+00  0.00000000000E+00 -0.10849934030E+04  0.10849934030E+04  0.50400001928E-02 0. -1.
    10030    2    1    2    0    0  0.00000000000E+00  0.00000000000E+00  0.24288382703E+03  0.24128706330E+04  0.24006149500E+04 0.  0.
        5    1    3    3  502    0 -0.19515874835E+03 -0.77007905374E+03  0.10258172871E+04  0.12974713418E+04  0.46999998093E+01 0.  1.
       -5    1    3    3    0  502  0.19515874835E+03  0.77007905374E+03 -0.78293346012E+03  0.11153992913E+04  0.46999998093E+01 0. -1.
</event>
<event>
 5   0  0.1308662E-06  0.2402291E+04  0.7818609E-02  0.8438646E-01
       -2   -1    0    0    0  501  0.00000000000E+00  0.00000000000E+00  0.93663901194E+03  0.93663901195E+03  0.25500000920E-02 0.  1.
        2   -1    0    0  501    0  0.00000000000E+00  0.00000000000E+00 -0.15403490246E+04  0.15403490246E+04  0.25500000920E-02 0. -1.
    10030    2    1    2    0    0  0.00000000000E+00  0.00000000000E+00 -0.60371001262E+03  0.24769880365E+04  0.24022913965E+04 0.  0.
        3    1    3    3  502    0 -0.67953371376E+03 -0.89663798017E+03  0.13197123908E+03  0.11327586476E+04  0.10100000352E+00 0.  1.
       -3    1    3    3    0  502  0.67953371376E+03  0.89663798017E+03 -0.73568125170E+03  0.13442293889E+04  0.10100000352E+00 0. -1.
</event>
<event>
 5   0  0.1308662E-06  0.2400379E+04  0.7818609E-02  0.8439362E-01
       -2   -1    0    0    0  501  0.00000000000E+00  0.00000000000E+00  0.10034837992E+04  0.10034837992E+04  0.25500000920E-02 0.  1.
        2   -1    0    0  501    0  0.00000000000E+00  0.00000000000E+00 -0.14354534927E+04  0.14354534927E+04  0.25500000920E-02 0. -1.
    10030    2    1    2    0    0  0.00000000000E+00  0.00000000000E+00 -0.43196969352E+03  0.24389372919E+04  0.24003785739E+04 0.  0.
        3    1    3    3  502    0  0.10645465374E+03 -0.97568942222E+03  0.48587307944E+03  0.10951598520E+04  0.10100000352E+00 0.  1.
       -3    1    3    3    0  502 -0.10645465374E+03  0.97568942222E+03 -0.91784277296E+03  0.13437774399E+04  0.10100000352E+00 0. -1.
</event>
<event>
 5   0  0.5510176E-07  0.2397745E+04  0.7818609E-02  0.8440348E-01
        1   -1    0    0  501    0  0.00000000000E+00  0.00000000000E+00  0.10904471482E+04  0.10904471482E+04  0.50400001928E-02 0.  1.
       -1   -1    0    0    0  501  0.00000000000E+00  0.00000000000E+00 -0.13180790903E+04  0.13180790903E+04  0.50400001928E-02 0. -1.
    10030    2    1    2    0    0  0.00000000000E+00  0.00000000000E+00 -0.22763194214E+03  0.24085262385E+04  0.23977452618E+04 0.  0.
        3    1    3    3  502    0 -0.99502786736E+03  0.18195724468E+03 -0.76022060050E+03  0.12653553917E+04  0.10100000352E+00 0. -1.
       -3    1    3    3    0  502  0.99502786736E+03 -0.18195724468E+03  0.53258865835E+03  0.11431708468E+04  0.10100000352E+00 0.  1.
</event>
<event>
 5   0  0.5363690E-07  0.2399233E+04  0.7818609E-02  0.8439791E-01
        1   -1    0    0  501    0  0.00000000000E+00  0.00000000000E+00  0.16961372829E+04  0.16961372829E+04  0.50400001928E-02 0. -1.
       -1   -1    0    0    0  501  0.00000000000E+00  0.00000000000E+00 -0.84844534718E+03  0.84844534720E+03  0.50400001928E-02 0.  1.
    10030    2    1    2    0    0  0.00000000000E+00  0.00000000000E+00  0.84769193570E+03  0.25445826301E+04  0.23992330323E+04 0.  0.
        4    1    3    3  502    0  0.19046560956E+03  0.71529557239E+03 -0.57735285045E+03  0.93875600191E+03  0.12699999809E+01 0.  1.
       -4    1    3    3    0  502 -0.19046560956E+03 -0.71529557239E+03  0.14250447861E+04  0.16058266282E+04  0.12699999809E+01 0. -1.
</event>
<event>
 5   0  0.5452384E-07  0.2400247E+04  0.7818609E-02  0.8439411E-01
       -1   -1    0    0    0  501  0.00000000000E+00  0.00000000000E+00  0.13182148339E+04  0.13182148339E+04  0.50400001928E-02 0. -1.
        1   -1    0    0  501    0  0.00000000000E+00  0.00000000000E+00 -0.10926111949E+04  0.10926111950E+04  0.50400001928E-02 0.  1.
    10030    2    1    2    0    0  0.00000000000E+00  0.00000000000E+00  0.22560363896E+03  0.24108260289E+04  0.24002468914E+04 0.  0.
        5    1    3    3  502    0 -0.74078741139E+03  0.32546063811E+03 -0.77743623382E+03  0.11221050768E+04  0.46999998093E+01 0.  1.
       -5    1    3    3    0  502  0.74078741139E+03 -0.32546063811E+03  0.10030398728E+04  0.12887209520E+04  0.46999998093E+01 0. -1.
</event>
<event>
 5   0  0.1291468E-06  0.2396414E+04  0.7818609E-02  0.8440847E-01
        2   -1    0    0  501    0  0.00000000000E+00  0.00000000000E+00  0.11590465186E+04  0.11590465186E+04  0.25500000920E-02 0.  1.
       -2   -1    0    0    0  501  0.00000000000E+00  0.00000000000E+00 -0.12386907898E+04  0.12386907898E+04  0.25500000920E-02 0. -1.
    10030    2    1    2    0    0  0.00000000000E+00  0.00000000000E+00 -0.79644271172E+02  0.23977373084E+04  0.23964141942E+04 0.  0.
        4    1    3    3  502    0  0.55986794990E+03  0.72903678888E+03  0.72920607501E+03  0.11733242832E+04  0.12699999809E+01 0.  1.
       -4    1    3    3    0  502 -0.55986794990E+03 -0.72903678888E+03 -0.80885034618E+03  0.12244130252E+04  0.12699999809E+01 0. -1.
</event>
<event>
 5   0  0.1291468E-06  0.2406256E+04  0.7818609E-02  0.8437165E-01
       -2   -1    0    0    0  501  0.00000000000E+00  0.00000000000E+00  0.92519785665E+03  0.92519785666E+03  0.25500000920E-02 0.  1.
        2   -1    0    0  501    0  0.00000000000E+00  0.00000000000E+00 -0.15645490164E+04  0.15645490164E+04  0.25500000920E-02 0. -1.
    10030    2    1    2    0    0  0.00000000000E+00  0.00000000000E+00 -0.63935115973E+03  0.24897468730E+04  0.24062563426E+04 0.  0.
        4    1    3    3  502    0 -0.15875143952E+03 -0.11324695998E+04  0.67232540888E+02  0.11455178922E+04  0.12699999809E+01 0.  1.
       -4    1    3    3    0  502  0.15875143952E+03  0.11324695998E+04 -0.70658370062E+03  0.13442289808E+04  0.12699999809E+01 0. -1.
</event>
<event>
 5   0  0.1308662E-06  0.2400438E+04  0.7818609E-02  0.8439339E-01
       -2   -1    0    0    0  501  0.00000000000E+00  0.00000000000E+00  0.10934643132E+04  0.10934643132E+04  0.25500000920E-02 0. -1.
        2   -1    0    0  501    0  0.00000000000E+00  0.00000000000E+00 -0.13173964396E+04  0.13173964396E+04  0.25500000920E-02 0.  1.
    10030    2    1    2    0    0  0.00000000000E+00  0.00000000000E+00 -0.22393212644E+03  0.24108607529E+04  0.24004382876E+04 0.  0.
        3    1    3    3  502    0 -0.50419162105E+03 -0.81002138715E+03 -0.84326363349E+03  0.12733567466E+04  0.10100000352E+00 0.  1.
       -3    1    3    3    0  502  0.50419162105E+03  0.81002138715E+03  0.61933150705E+03  0.11375040062E+04  0.10100000352E+00 0. -1.
</event>
<event>
 5   0  0.5527286E-07  0.2401037E+04  0.7818609E-02  0.8439116E-01
        1   -1    0    0  501    0  0.00000000000E+00  0.00000000000E+00  0.15799861255E+04  0.15799861255E+04  0.50400001928E-02 0.  1.
       -1   -1    0    0    0  501  0.00000000000E+00  0.00000000000E+00 -0.91218798807E+03  0.91218798808E+03  0.50400001928E-02 0. -1.
    10030    2    1    2    0    0  0.00000000000E+00  0.00000000000E+00  0.66779813739E+03  0.24921741135E+04  0.24010367469E+04 0.  0.
        1    1    3    3  502    0 -0.11015544168E+04  0.18203609752E+03 -0.12408030736E+03  0.11233677922E+04  0.50400001928E-02 0. -1.
       -1    1    3    3    0  502  0.11015544168E+04 -0.18203609752E+03  0.79187844475E+03  0.13688063213E+04  0.50400001928E-02 0.  1.
</event>
<event>
 5   0  0.1291468E-06  0.2400541E+04  0.7818609E-02  0.8439301E-01
       -2   -1    0    0    0  501  0.00000000000E+00  0.00000000000E+00  0.72707269589E+03  0.72707269589E+03  0.25500000920E-02 0. -1.
        2   -1    0    0  501    0  0.00000000000E+00  0.00000000000E+00 -0.19814381382E+04  0.19814381382E+04  0.25500000920E-02 0.  1.
    10030    2    1    2    0    0  0.00000000000E+00  0.00000000000E+00 -0.12543654423E+04  0.27085108341E+04  0.24005412464E+04 0.  0.
        4    1    3    3  502    0 -0.78594376309E+03 -0.12336544920E+03 -0.16412159315E+04  0.18238744418E+04  0.12699999809E+01 0.  1.
       -4    1    3    3    0  502  0.78594376309E+03  0.12336544920E+03  0.38685048913E+03  0.88463639233E+03  0.12699999809E+01 0. -1.
</event>
<event>
 5   0  0.5363690E-07  0.2397652E+04  0.7818609E-02  0.8440383E-01
       -1   -1    0    0    0  501  0.00000000000E+00  0.00000000000E+00  0.12684407893E+04  0.12684407893E+04  0.50400001928E-02 0. -1.
        1   -1    0    0  501    0  0.00000000000E+00  0.00000000000E+00 -0.11330321857E+04  0.11330321857E+04  0.50400001928E-02 0.  1.
    10030    2    1    2    0    0  0.00000000000E+00  0.00000000000E+00  0.13540860362E+03  0.24014729750E+04  0.23976523851E+04 0.  0.
        4    1    3    3  502    0  0.27562696108E+03  0.77348232206E+02 -0.10982940413E+04  0.11349909184E+04  0.12699999809E+01 0.  1.
       -4    1    3    3    0  502 -0.27562696108E+03 -0.77348232206E+02  0.12337026450E+04  0.12664820566E+04  0.12699999809E+01 0. -1.
</event>
<event>
 5   0  0.1275948E-06  0.2399505E+04  0.7818609E-02  0.8439689E-01
       -2   -1    0    0    0  501  0.00000000000E+00  0.00000000000E+00  0.10499735160E+04  0.10499735160E+04  0.25500000920E-02 0. -1.
        2   -1    0    0  501    0  0.00000000000E+00  0.00000000000E+00 -0.13708979355E+04  0.13708979355E+04  0.25500000920E-02 0.  1.
    10030    2    1    2    0    0  0.00000000000E+00  0.00000000000E+00 -0.32092441953E+03  0.24208714515E+04  0.23995053869E+04 0.  0.
        1    1    3    3  502    0 -0.84316536135E+03 -0.19502677522E+01  0.70064513704E+03  0.10962824628E+04  0.50400001928E-02 0. -1.
       -1    1    3    3    0  502  0.84316536135E+03  0.19502677522E+01 -0.10215695566E+04  0.13245889887E+04  0.50400001928E-02 0.  1.
</event>
<event>
 5   0  0.1307477E-06  0.2400058E+04  0.7818609E-02  0.8439482E-01
       -2   -1    0    0    0  501  0.00000000000E+00  0.00000000000E+00  0.67868033215E+03  0.67868033215E+03  0.25500000920E-02 0.  1.
        2   -1    0    0  501    0  0.00000000000E+00  0.00000000000E+00 -0.21218676138E+04  0.21218676138E+04  0.25500000920E-02 0. -1.
    10030    2    1    2    0    0  0.00000000000E+00  0.00000000000E+00 -0.14431872816E+04  0.28005479459E+04  0.24000581800E+04 0.  0.
        5    1    3    3  502    0  0.26121748054E+03  0.15372056145E+03 -0.20764575964E+04  0.20984667791E+04  0.46999998093E+01 0. -1.
       -5    1    3    3    0  502 -0.26121748054E+03 -0.15372056145E+03  0.63327031483E+03  0.70208116681E+03  0.46999998093E+01 0.  1.
</event>
<event>
 5   0  0.5527286E-07  0.2399936E+04  0.7818609E-02  0.8439528E-01
        1   -1    0    0  501    0  0.00000000000E+00  0.00000000000E+00  0.96072737885E+03  0.96072737887E+03  0.50400001928E-02 0. -1.
       -1   -1    0    0    0  501  0.00000000000E+00  0.00000000000E+00 -0.14987839486E+04  0.14987839487E+04  0.50400001928E-02 0.  1.
    10030    2    1    2    0    0  0.00000000000E+00  0.00000000000E+00 -0.53805656979E+03  0.24595113275E+04  0.23999356445E+04 0.  0.
        1    1    3    3  502    0 -0.19369355607E+03  0.84530465743E+03  0.58093669409E+03  0.10438125311E+04  0.50400001928E-02 0. -1.
       -1    1    3    3    0  502  0.19369355607E+03 -0.84530465743E+03 -0.11189932639E+04  0.14156987964E+04  0.50400001928E-02 0.  1.
</event>
<event>
 5   0  0.5527286E-07  0.2400228E+04  0.7818609E-02  0.8439418E-01
       -1   -1    0    0    0  501  0.00000000000E+00  0.00000000000E+00  0.84222439092E+03  0.84222439093E+03  0.50400001928E-02 0. -1.
        1   -1    0    0  501    0  0.00000000000E+00  0.00000000000E+00 -0.17100826974E+04  0.17100826974E+04  0.50400001928E-02 0.  1.
    10030    2    1    2    0    0  0.00000000000E+00  0.00000000000E+00 -0.86785830649E+03  0.25523070883E+04  0.24002277877E+04 0.  0.
        1    1    3    3  502    0 -0.11546827366E+04 -0.16948312783E+03 -0.73139764377E+03  0.13773014435E+04  0.50400001928E-02 0.  1.
       -1    1    3    3    0  502  0.11546827366E+04  0.16948312783E+03 -0.13646066272E+03  0.11750056448E+04  0.50400001928E-02 0. -1.
</event>
<event>
 5   0  0.5363690E-07  0.2400181E+04  0.7818609E-02  0.8439436E-01
       -1   -1    0    0    0  501  0.00000000000E+00  0.00000000000E+00  0.10630700813E+04  0.10630700814E+04  0.50400001928E-02 0. -1.
        1   -1    0    0  501    0  0.00000000000E+00  0.00000000000E+00 -0.13547720952E+04  0.13547720952E+04  0.50400001928E-02 0.  1.
    10030    2    1    2    0    0  0.00000000000E+00  0.00000000000E+00 -0.29170201387E+03  0.24178421766E+04  0.24001813944E+04 0.  0.
        4    1    3    3  502    0  0.11308915350E+04 -0.71179861899E+01  0.25866284171E+03  0.11601182734E+04  0.12699999809E+01 0. -1.
       -4    1    3    3    0  502 -0.11308915350E+04  0.71179861899E+01 -0.55036485558E+03  0.12577239032E+04  0.12699999809E+01 0.  1.
</event>
<event>
 5   0  0.1291468E-06  0.2400005E+04  0.7818609E-02  0.8439502E-01
       -2   -1    0    0    0  501  0.00000000000E+00  0.00000000000E+00  0.96145693422E+03  0.96145693422E+03  0.25500000920E-02 0.  1.
        2   -1    0    0  501    0  0.00000000000E+00  0.00000000000E+00 -0.14977333809E+04  0.14977333809E+04  0.25500000920E-02 0. -1.
    10030    2    1    2    0    0  0.00000000000E+00  0.00000000000E+00 -0.53627644672E+03  0.24591903152E+04  0.24000051206E+04 0.  0.
        4    1    3    3  502    0 -0.11135215952E+04  0.29344455768E+03  0.77773060361E+02  0.11541621693E+04  0.12699999809E+01 0. -1.
       -4    1    3    3    0  502  0.11135215952E+04 -0.29344455768E+03 -0.61404950709E+03  0.13050281458E+04  0.12699999809E+01 0.  1.
</event>
<event>
 5   0  0.5527286E-07  0.2401200E+04  0.7818609E-02  0.8439055E-01
       -1   -1    0    0    0  501  0.00000000000E+00  0.00000000000E+00  0.92801921251E+03  0.92801921252E+03  0.50400001928E-02 0.  1.
        1   -1    0    0  501    0  0.00000000000E+00  0.00000000000E+00 -0.15532436352E+04  0.15532436352E+04  0.50400001928E-02 0. -1.
    10030    2    1    2    0    0  0.00000000000E+00  0.00000000000E+00 -0.62522442266E+03  0.24812628477E+04  0.24011996461E+04 0.  0.
        1    1    3    3  502    0  0.53849434527E+03  0.45082054857E+03 -0.13188488187E+04  0.14941812251E+04  0.50400001928E-02 0.  1.
       -1    1    3    3    0  502 -0.53849434527E+03 -0.45082054857E+03  0.69362439601E+03  0.98708162260E+03  0.50400001928E-02 0. -1.
</event>
<event>
 5   0  0.1275948E-06  0.2391143E+04  0.7818609E-02  0.8442827E-01
        2   -1    0    0  501    0  0.00000000000E+00  0.00000000000E+00  0.16540864792E+04  0.16540864792E+04  0.25500000920E-02 0.  1.
       -2   -1    0    0    0  501  0.00000000000E+00  0.00000000000E+00 -0.86415778605E+03  0.86415778606E+03  0.25500000920E-02 0. -1.
    10030    2    1    2    0    0  0.00000000000E+00  0.00000000000E+00  0.78992869312E+03  0.25182442652E+04  0.23911434167E+04 0.  0.
        1    1    3    3  502    0 -0.21280213366E+03 -0.26200549578E+03  0.16028645805E+04  0.16380190754E+04  0.50400001928E-02 0.  1.
       -1    1    3    3    0  502  0.21280213366E+03  0.26200549578E+03 -0.81293588735E+03  0.88022518987E+03  0.50400001928E-02 0. -1.
</event>
<event>
 5   0  0.4483375E-07  0.2398424E+04  0.7818609E-02  0.8440094E-01
        3   -1    0    0  501    0  0.00000000000E+00  0.00000000000E+00  0.21293229068E+04  0.21293229092E+04  0.10100000352E+00 0.  1.
       -3   -1    0    0    0  501  0.00000000000E+00  0.00000000000E+00 -0.67538344898E+03  0.67538345653E+03  0.10100000352E+00 0. -1.
    10030    2    1    2    0    0  0.00000000000E+00  0.00000000000E+00  0.14539394578E+04  0.28047063657E+04  0.23984240349E+04 0.  0.
        3    1    3    3  502    0 -0.16639241680E+03 -0.97125394286E+03  0.15261801847E+04  0.18166580923E+04  0.10100000352E+00 0.  1.
       -3    1    3    3    0  502  0.16639241680E+03  0.97125394286E+03 -0.72240726851E+02  0.98804827347E+03  0.10100000352E+00 0. -1.
</event>
<event>
 5   0  0.5452384E-07  0.2403201E+04  0.7818609E-02  0.8438306E-01
       -1   -1    0    0    0  501  0.00000000000E+00  0.00000000000E+00  0.11878579646E+04  0.11878579646E+04  0.50400001928E-02 0. -1.
        1   -1    0    0  501    0  0.00000000000E+00  0.00000000000E+00 -0.12155021238E+04  0.12155021238E+04  0.50400001928E-02 0.  1.
    10030    2    1    2    0    0  0.00000000000E+00  0.00000000000E+00 -0.27644159210E+02  0.24033600885E+04  0.24032010976E+04 0.  0.
        5    1    3    3  502    0 -0.11385524248E+04  0.11617140400E+03 -0.37993968893E+03  0.12058912374E+04  0.46999998093E+01 0.  1.
       -5    1    3    3    0  502  0.11385524248E+04 -0.11617140400E+03  0.35229552972E+03  0.11974688511E+04  0.46999998093E+01 0. -1.
</event>
<event>
 5   0  0.1308662E-06  0.2399457E+04  0.7818609E-02  0.8439707E-01
        2   -1    0    0  501    0  0.00000000000E+00  0.00000000000E+00  0.11062767074E+04  0.11062767074E+04  0.25500000920E-02 0.  1.
       -2   -1    0    0    0  501  0.00000000000E+00  0.00000000000E+00 -0.13010749256E+04  0.13010749256E+04  0.25500000920E-02 0. -1.
    10030    2    1    2    0    0  0.00000000000E+00  0.00000000000E+00 -0.19479821824E+03  0.24073516330E+04  0.23994573426E+04 0.  0.
        3    1    3    3  502    0  0.42402370290E+03  0.70198401306E+03 -0.97593477835E+03  0.12747652164E+04  0.10100000352E+00 0. -1.
       -3    1    3    3    0  502 -0.42402370290E+03 -0.70198401306E+03  0.78113656012E+03  0.11325864166E+04  0.10100000352E+00 0.  1.
</event>
<event>
 5   0  0.5527286E-07  0.2400697E+04  0.7818609E-02  0.8439243E-01
       -1   -1    0    0    0  501  0.00000000000E+00  0.00000000000E+00  0.10355880793E+04  0.10355880793E+04  0.50400001928E-02 0. -1.
        1   -1    0    0  501    0  0.00000000000E+00  0.00000000000E+00 -0.13913216594E+04  0.13913216594E+04  0.50400001928E-02 0.  1.
    10030    2    1    2    0    0  0.00000000000E+00  0.00000000000E+00 -0.35573358016E+03  0.24269097387E+04  0.24006966697E+04 0.  0.
        1    1    3    3  502    0  0.44526339463E+03 -0.50532999274E+03 -0.11823042896E+04  0.13606841388E+04  0.50400001928E-02 0.  1.
       -1    1    3    3    0  502 -0.44526339463E+03  0.50532999274E+03  0.82657070948E+03  0.10662255999E+04  0.50400001928E-02 0. -1.
</event>
<event>
 5   0  0.5452384E-07  0.2399711E+04  0.7818609E-02  0.8439612E-01
       -1   -1    0    0    0  501  0.00000000000E+00  0.00000000000E+00  0.87974178373E+03  0.87974178375E+03  0.50400001928E-02 0.  1.
        1   -1    0    0  501    0  0.00000000000E+00  0.00000000000E+00 -0.16364493674E+04  0.16364493674E+04  0.50400001928E-02 0. -1.
    10030    2    1    2    0    0  0.00000000000E+00  0.00000000000E+00 -0.75670758370E+03  0.25161911512E+04  0.23997107205E+04 0.  0.
        5    1    3    3  502    0 -0.13327882020E+03  0.11861195854E+04 -0.50672122410E+03  0.12967001981E+04  0.46999998093E+01 0.  1.
       -5    1    3    3    0  502  0.13327882020E+03 -0.11861195854E+04 -0.24998635959E+03  0.12194909531E+04  0.46999998093E+01 0. -1.
</event>
<event>
 5   0  0.1307477E-06  0.2399792E+04  0.7818609E-02  0.8439582E-01
       -2   -1    0    0    0  501  0.00000000000E+00  0.00000000000E+00  0.92497606724E+03  0.92497606724E+03  0.25500000920E-02 0.  1.
        2   -1    0    0  501    0  0.00000000000E+00  0.00000000000E+00 -0.15565268233E+04  0.15565268233E+04  0.25500000920E-02 0. -1.
    10030    2    1    2    0    0  0.00000000000E+00  0.00000000000E+00 -0.63155075601E+03  0.24815028905E+04  0.23997917072E+04 0.  0.
        5    1    3    3  502    0 -0.57860904996E+02  0.22510388303E+03  0.90146724309E+03  0.93095914134E+03  0.46999998093E+01 0.  1.
       -5    1    3    3    0  502  0.57860904996E+02 -0.22510388303E+03 -0.15330179991E+04  0.15505437492E+04  0.46999998093E+01 0. -1.
</event>
<event>
 5   0  0.5527286E-07  0.2400716E+04  0.7818609E-02  0.8439236E-01
       -1   -1    0    0    0  501  0.00000000000E+00  0.00000000000E+00  0.68663984408E+03  0.68663984410E+03  0.50400001928E-02 0.  1.
        1   -1    0    0  501    0  0.00000000000E+00  0.00000000000E+00 -0.20984208014E+04  0.20984208014E+04  0.50400001928E-02 0. -1.
    10030    2    1    2    0    0  0.00000000000E+00  0.00000000000E+00 -0.14117809573E+04  0.27850606455E+04  0.24007160031E+04 0.  0.
        1    1    3    3  502    0  0.14777308095E+03  0.11311894855E+04 -0.27270255837E+03  0.11729421218E+04  0.50400001928E-02 0.  1.
       -1    1    3    3    0  502 -0.14777308095E+03 -0.11311894855E+04 -0.11390783989E+04  0.16121185237E+04  0.50400001928E-02 0. -1.
</event>
<event>
 5   0  0.5452384E-07  0.2399766E+04  0.7818609E-02  0.8439591E-01
       -1   -1    0    0    0  501  0.00000000000E+00  0.00000000000E+00  0.99797301357E+03  0.99797301358E+03  0.50400001928E-02 0.  1.
        1   -1    0    0  501    0  0.00000000000E+00  0.00000000000E+00 -0.14426435691E+04  0.14426435692E+04  0.50400001928E-02 0. -1.
    10030    2    1    2    0    0  0.00000000000E+00  0.00000000000E+00 -0.44467055558E+03  0.24406165827E+04  0.23997661138E+04 0.  0.
        5    1    3    3  502    0  0.39732299208E+03 -0.81916854376E+02  0.92609966057E+03  0.10110680503E+04  0.46999998093E+01 0.  1.
       -5    1    3    3    0  502 -0.39732299208E+03  0.81916854376E+02 -0.13707702161E+04  0.14295485324E+04  0.46999998093E+01 0. -1.
</event>
<event>
 5   0  0.5510176E-07  0.2399027E+04  0.7818609E-02  0.8439868E-01
       -1   -1    0    0    0  501  0.00000000000E+00  0.00000000000E+00  0.18186197238E+04  0.18186197238E+04  0.50400001928E-02 0.  1.
        1   -1    0    0  501    0  0.00000000000E+00  0.00000000000E+00 -0.79116767236E+03  0.79116767237E+03  0.50400001928E-02 0. -1.
    10030    2    1    2    0    0  0.00000000000E+00  0.00000000000E+00  0.10274520514E+04  0.26097873962E+04  0.23990274144E+04 0.  0.
        3    1    3    3  502    0 -0.46740988507E+03 -0.10793770702E+04  0.76955932811E+03  0.14056131865E+04  0.10100000352E+00 0.  1.
       -3    1    3    3    0  502  0.46740988507E+03  0.10793770702E+04  0.25789272330E+03  0.12041742097E+04  0.10100000352E+00 0. -1.
</event>
<event>
 5   0  0.1291468E-06  0.2399880E+04  0.7818609E-02  0.8439549E-01
        2   -1    0    0  501    0  0.00000000000E+00  0.00000000000E+00  0.10167866370E+04  0.10167866370E+04  0.25500000920E-02 0. -1.
       -2   -1    0    0    0  501  0.00000000000E+00  0.00000000000E+00 -0.14160842706E+04  0.14160842706E+04  0.25500000920E-02 0.  1.
    10030    2    1    2    0    0  0.00000000000E+00  0.00000000000E+00 -0.39929763364E+03  0.24328709076E+04  0.23998796330E+04 0.  0.
        4    1    3    3  502    0 -0.30471703528E+03  0.88795561016E+02  0.97346145833E+03  0.10238974299E+04  0.12699999809E+01 0. -1.
       -4    1    3    3    0  502  0.30471703528E+03 -0.88795561016E+02 -0.13727590920E+04  0.14089734777E+04  0.12699999809E+01 0.  1.
</event>
<event>
 5   0  0.5690124E-07  0.2399812E+04  0.7818609E-02  0.8439574E-01
       -1   -1    0    0    0  501  0.00000000000E+00  0.00000000000E+00  0.81263117857E+03  0.81263117859E+03  0.50400001928E-02 0. -1.
        1   -1    0    0  501    0  0.00000000000E+00  0.00000000000E+00 -0.17717435064E+04  0.17717435064E+04  0.50400001928E-02 0.  1.
    10030    2    1    2    0    0  0.00000000000E+00  0.00000000000E+00 -0.95911232786E+03  0.25843746850E+04  0.23998116708E+04 0.  0.
        2    1    3    3  502    0  0.24167249442E+03  0.88216972268E+03 -0.13159083243E+04  0.16025740957E+04  0.25500000920E-02 0.  1.
       -2    1    3    3    0  502 -0.24167249442E+03 -0.88216972268E+03  0.35679599644E+03  0.98180058935E+03  0.25500000920E-02 0. -1.
</event>
<event>
 5   0  0.4483375E-07  0.2402347E+04  0.7818609E-02  0.8438625E-01
       -3   -1    0    0    0  501  0.00000000000E+00  0.00000000000E+00  0.28312487074E+04  0.28312487092E+04  0.10100000352E+00 0. -1.
        3   -1    0    0  501    0  0.00000000000E+00  0.00000000000E+00 -0.50960482035E+03  0.50960483036E+03  0.10100000352E+00 0.  1.
    10030    2    1    2    0    0  0.00000000000E+00  0.00000000000E+00  0.23216438870E+04  0.33408535395E+04  0.24023471927E+04 0.  0.
        1    1    3    3  502    0  0.10559965182E+04 -0.38781208152E+03  0.57527031304E+03  0.12635120854E+04  0.50400001928E-02 0.  1.
       -1    1    3    3    0  502 -0.10559965182E+04  0.38781208152E+03  0.17463735740E+04  0.20773414541E+04  0.50400001928E-02 0. -1.
</event>
<event>
 5   0  0.1275948E-06  0.2400421E+04  0.7818609E-02  0.8439346E-01
        2   -1    0    0  501    0  0.00000000000E+00  0.00000000000E+00  0.15743081663E+04  0.15743081663E+04  0.25500000920E-02 0. -1.
       -2   -1    0    0    0  501  0.00000000000E+00  0.00000000000E+00 -0.91500814765E+03  0.91500814765E+03  0.25500000920E-02 0.  1.
    10030    2    1    2    0    0  0.00000000000E+00  0.00000000000E+00  0.65930001861E+03  0.24893163139E+04  0.24004206290E+04 0.  0.
        1    1    3    3  502    0 -0.38292504854E+03 -0.94946805195E+03  0.97925323407E+03  0.14167067696E+04  0.50400001928E-02 0. -1.
       -1    1    3    3    0  502  0.38292504854E+03  0.94946805195E+03 -0.31995321547E+03  0.10726095443E+04  0.50400001928E-02 0.  1.
</event>
<event>
 5   0  0.1291468E-06  0.2399979E+04  0.7818609E-02  0.8439511E-01
       -2   -1    0    0    0  501  0.00000000000E+00  0.00000000000E+00  0.59372971097E+03  0.59372971098E+03  0.25500000920E-02 0. -1.
        2   -1    0    0  501    0  0.00000000000E+00  0.00000000000E+00 -0.24253038127E+04  0.24253038127E+04  0.25500000920E-02 0.  1.
    10030    2    1    2    0    0  0.00000000000E+00  0.00000000000E+00 -0.18315741018E+04  0.30190335237E+04  0.23999791097E+04 0.  0.
        4    1    3    3  502    0  0.62010409602E+03  0.90894617041E+03 -0.15181047829E+04  0.18749282587E+04  0.12699999809E+01 0.  1.
       -4    1    3    3    0  502 -0.62010409602E+03 -0.90894617041E+03 -0.31346931887E+03  0.11441052650E+04  0.12699999809E+01 0. -1.
</event>
<event>
 5   0  0.1291468E-06  0.2400028E+04  0.7818609E-02  0.8439493E-01
        2   -1    0    0  501    0  0.00000000000E+00  0.00000000000E+00  0.24987719724E+04  0.24987719724E+04  0.25500000920E-02 0. -1.
       -2   -1    0    0    0  501  0.00000000000E+00  0.00000000000E+00 -0.57629645356E+03  0.57629645356E+03  0.25500000920E-02 0.  1.
    10030    2    1    2    0    0  0.00000000000E+00  0.00000000000E+00  0.19224755189E+04  0.30750684260E+04  0.24000278548E+04 0.  0.
        4    1    3    3  502    0 -0.53094949050E+03 -0.40355022160E+03 -0.31699317318E+03  0.73840803595E+03  0.12699999809E+01 0.  1.
       -4    1    3    3    0  502  0.53094949050E+03  0.40355022160E+03  0.22394686921E+04  0.23366603900E+04  0.12699999809E+01 0. -1.
</event>
<event>
 5   0  0.1291468E-06  0.2400746E+04  0.7818609E-02  0.8439224E-01
       -2   -1    0    0    0  501  0.00000000000E+00  0.00000000000E+00  0.14144491596E+04  0.14144491596E+04  0.25500000920E-02 0.  1.
        2   -1    0    0  501    0  0.00000000000E+00  0.00000000000E+00 -0.10186973130E+04  0.10186973130E+04  0.25500000920E-02 0. -1.
    10030    2    1    2    0    0  0.00000000000E+00  0.00000000000E+00  0.39575184652E+03  0.24331464726E+04  0.24007461826E+04 0.  0.
        4    1    3    3  502    0  0.54201340210E+03 -0.10260812723E+04  0.50905819079E+03  0.12671871054E+04  0.12699999809E+01 0.  1.
       -4    1    3    3    0  502 -0.54201340210E+03  0.10260812723E+04 -0.11330634427E+03  0.11659593672E+04  0.12699999809E+01 0. -1.
</event>
<event>
 5   0  0.1308662E-06  0.2399757E+04  0.7818609E-02  0.8439595E-01
       -2   -1    0    0    0  501  0.00000000000E+00  0.00000000000E+00  0.13466729939E+04  0.13466729939E+04  0.25500000920E-02 0.  1.
        2   -1    0    0  501    0  0.00000000000E+00  0.00000000000E+00 -0.10690850486E+04  0.10690850486E+04  0.25500000920E-02 0. -1.
    10030    2    1    2    0    0  0.00000000000E+00  0.00000000000E+00  0.27758794532E+03  0.24157580425E+04  0.23997566236E+04 0.  0.
        3    1    3    3  502    0 -0.98763464018E+02 -0.93130797638E+03  0.89387490493E+03  0.12946432422E+04  0.10100000352E+00 0.  1.
       -3    1    3    3    0  502  0.98763464018E+02  0.93130797638E+03 -0.61628695960E+03  0.11211148003E+04  0.10100000352E+00 0. -1.
</event>
<event>
 5   0  0.5510176E-07  0.2398904E+04  0.7818609E-02  0.8439914E-01
       -1   -1    0    0    0  501  0.00000000000E+00  0.00000000000E+00  0.10282459165E+04  0.10282459165E+04  0.50400001928E-02 0. -1.
        1   -1    0    0  501    0  0.00000000000E+00  0.00000000000E+00 -0.13991645167E+04  0.13991645167E+04  0.50400001928E-02 0.  1.
    10030    2    1    2    0    0  0.00000000000E+00  0.00000000000E+00 -0.37091860025E+03  0.24274104332E+04  0.23989040838E+04 0.  0.
        3    1    3    3  502    0 -0.73719319817E+03  0.87070814288E+03 -0.56012765492E+03  0.12709561289E+04  0.10100000352E+00 0.  1.
       -3    1    3    3    0  502  0.73719319817E+03 -0.87070814288E+03  0.18920905466E+03  0.11564543044E+04  0.10100000352E+00 0. -1.
</event>
<event>
 5   0  0.5363690E-07  0.2402514E+04  0.7818609E-02  0.8438563E-01
       -1   -1    0    0    0  501  0.00000000000E+00  0.00000000000E+00  0.14436017398E+04  0.14436017398E+04  0.50400001928E-02 0.  1.
        1   -1    0    0  501    0  0.00000000000E+00  0.00000000000E+00 -0.99959578453E+03  0.99959578454E+03  0.50400001928E-02 0. -1.
    10030    2    1    2    0    0  0.00000000000E+00  0.00000000000E+00  0.44400595531E+03  0.24431975244E+04  0.24025138615E+04 0.  0.
        4    1    3    3  502    0  0.90417739579E+03  0.73350814063E+03 -0.78716647445E+02  0.11669485331E+04  0.12699999809E+01 0. -1.
       -4    1    3    3    0  502 -0.90417739579E+03 -0.73350814063E+03  0.52272260276E+03  0.12762489913E+04  0.12699999809E+01 0.  1.
</event>
<event>
 5   0  0.1308662E-06  0.2399774E+04  0.7818609E-02  0.8439588E-01
        2   -1    0    0  501    0  0.00000000000E+00  0.00000000000E+00  0.80020350249E+03  0.80020350250E+03  0.25500000920E-02 0. -1.
       -2   -1    0    0    0  501  0.00000000000E+00  0.00000000000E+00 -0.17992029222E+04  0.17992029222E+04  0.25500000920E-02 0.  1.
    10030    2    1    2    0    0  0.00000000000E+00  0.00000000000E+00 -0.99899941967E+03  0.25994064247E+04  0.23997737227E+04 0.  0.
        3    1    3    3  502    0 -0.85506343117E+03 -0.32093222546E+03  0.34343887378E+03  0.97574650135E+03  0.10100000352E+00 0. -1.
       -3    1    3    3    0  502  0.85506343117E+03  0.32093222546E+03 -0.13424382934E+04  0.16236599233E+04  0.10100000352E+00 0.  1.
</event>
<event>
 5   0  0.1336057E-06  0.2398280E+04  0.7818609E-02  0.8440148E-01
        2   -1    0    0  501    0  0.00000000000E+00  0.00000000000E+00  0.21776054212E+04  0.21776054212E+04  0.25500000920E-02 0.  1.
       -2   -1    0    0    0  501  0.00000000000E+00  0.00000000000E+00 -0.66032924911E+03  0.66032924912E+03  0.25500000920E-02 0. -1.
    10030    2    1    2    0    0  0.00000000000E+00  0.00000000000E+00  0.15172761721E+04  0.28379346703E+04  0.23982798441E+04 0.  0.
        2    1    3    3  502    0 -0.67547167768E+03  0.47442553447E+03 -0.27064364204E+03  0.86867114381E+03  0.25500000920E-02 0. -1.
       -2    1    3    3    0  502  0.67547167768E+03 -0.47442553447E+03  0.17879198141E+04  0.19692635265E+04  0.25500000920E-02 0.  1.
</event>
<event>
 5   0  0.5527286E-07  0.2396293E+04  0.7818609E-02  0.8440893E-01
        1   -1    0    0  501    0  0.00000000000E+00  0.00000000000E+00  0.19500660494E+04  0.19500660494E+04  0.50400001928E-02 0.  1.
       -1   -1    0    0    0  501  0.00000000000E+00  0.00000000000E+00 -0.73615714200E+03  0.73615714202E+03  0.50400001928E-02 0. -1.
    10030    2    1    2    0    0  0.00000000000E+00  0.00000000000E+00  0.12139089074E+04  0.26862231914E+04  0.23962930119E+04 0.  0.
        1    1    3    3  502    0 -0.84434934238E+03  0.50704056252E+03  0.13718114735E+04  0.16887518062E+04  0.50400001928E-02 0.  1.
       -1    1    3    3    0  502  0.84434934238E+03 -0.50704056252E+03 -0.15790256608E+03  0.99747138526E+03  0.50400001928E-02 0. -1.
</event>
<event>
 5   0  0.1275948E-06  0.2399438E+04  0.7818609E-02  0.8439714E-01
        2   -1    0    0  501    0  0.00000000000E+00  0.00000000000E+00  0.15755268701E+04  0.15755268701E+04  0.25500000920E-02 0. -1.
       -2   -1    0    0    0  501  0.00000000000E+00  0.00000000000E+00 -0.91355217363E+03  0.91355217363E+03  0.25500000920E-02 0.  1.
    10030    2    1    2    0    0  0.00000000000E+00  0.00000000000E+00  0.66197469644E+03  0.24890790437E+04  0.23994382649E+04 0.  0.
        1    1    3    3  502    0  0.98515801392E+03 -0.68417189855E+03  0.35840382008E+03  0.12518309780E+04  0.50400001928E-02 0.  1.
       -1    1    3    3    0  502 -0.98515801392E+03  0.68417189855E+03  0.30357087636E+03  0.12372480657E+04  0.50400001928E-02 0. -1.
</event>
<event>
 5   0  0.5690124E-07  0.2400079E+04  0.7818609E-02  0.8439474E-01
       -1   -1    0    0    0  501  0.00000000000E+00  0.00000000000E+00  0.68894938827E+03  0.68894938829E+03  0.50400001928E-02 0.  1.
        1   -1    0    0  501    0  0.00000000000E+00  0.00000000000E+00 -0.20902767396E+04  0.20902767396E+04  0.50400001928E-02 0. -1.
    10030    2    1    2    0    0  0.00000000000E+00  0.00000000000E+00 -0.14013273514E+04  0.27792261279E+04  0.24000790663E+04 0.  0.
        2    1    3    3  502    0 -0.34271325140E+03 -0.44258874922E+02 -0.20314175443E+04  0.20605990536E+04  0.25500000920E-02 0. -1.
       -2    1    3    3    0  502  0.34271325140E+03  0.44258874922E+02  0.63009019291E+03  0.71862707429E+03  0.25500000920E-02 0.  1.
</event>
<event>
 5   0  0.1307477E-06  0.2399585E+04  0.7818609E-02  0.8439659E-01
        2   -1    0    0  501    0  0.00000000000E+00  0.00000000000E+00  0.17013741294E+04  0.17013741294E+04  0.25500000920E-02 0. -1.
       -2   -1    0    0    0  501  0.00000000000E+00  0.00000000000E+00 -0.84608192350E+03  0.84608192350E+03  0.25500000920E-02 0.  1.
    10030    2    1    2    0    0  0.00000000000E+00  0.00000000000E+00  0.85529220592E+03  0.25474560529E+04  0.23995848774E+04 0.  0.
        5    1    3    3  502    0 -0.16239014314E+03  0.11839103637E+04  0.31397055741E+03  0.12355621833E+04  0.46999998093E+01 0.  1.
       -5    1    3    3    0  502  0.16239014314E+03 -0.11839103637E+04  0.54132164852E+03  0.13118938696E+04  0.46999998093E+01 0. -1.
</event>
<event>
 5   0  0.5690124E-07  0.2399907E+04  0.7818609E-02  0.8439538E-01
        1   -1    0    0  501    0  0.00000000000E+00  0.00000000000E+00  0.16518300136E+04  0.16518300136E+04  0.50400001928E-02 0.  1.
       -1   -1    0    0    0  501  0.00000000000E+00  0.00000000000E+00 -0.87169289849E+03  0.87169289850E+03  0.50400001928E-02 0. -1.
    10030    2    1    2    0    0  0.00000000000E+00  0.00000000000E+00  0.78013711506E+03  0.25235229121E+04  0.23999070752E+04 0.  0.
        2    1    3    3  502    0  0.24954911581E+03  0.11552127915E+02  0.16241832455E+04  0.16432831247E+04  0.25500000920E-02 0.  1.
       -2    1    3    3    0  502 -0.24954911581E+03 -0.11552127915E+02 -0.84404613048E+03  0.88023978735E+03  0.25500000920E-02 0. -1.
</event>
<event>
 5   0  0.5510176E-07  0.2398696E+04  0.7818609E-02  0.8439992E-01
        1   -1    0    0  501    0  0.00000000000E+00  0.00000000000E+00  0.64021741080E+03  0.64021741082E+03  0.50400001928E-02 0. -1.
       -1   -1    0    0    0  501  0.00000000000E+00  0.00000000000E+00 -0.22467915509E+04  0.22467915509E+04  0.50400001928E-02 0.  1.
    10030    2    1    2    0    0  0.00000000000E+00  0.00000000000E+00 -0.16065741401E+04  0.28870089617E+04  0.23986955366E+04 0.  0.
        3    1    3    3  502    0 -0.32417241504E+03  0.52410541743E+03 -0.20416599269E+04  0.21326390953E+04  0.10100000352E+00 0.  1.
       -3    1    3    3    0  502  0.32417241504E+03 -0.52410541743E+03  0.43508578685E+03  0.75436986643E+03  0.10100000352E+00 0. -1.
</event>
<event>
 5   0  0.5452384E-07  0.2402415E+04  0.7818609E-02  0.8438600E-01
       -1   -1    0    0    0  501  0.00000000000E+00  0.00000000000E+00  0.84830246970E+03  0.84830246971E+03  0.50400001928E-02 0.  1.
        1   -1    0    0  501    0  0.00000000000E+00  0.00000000000E+00 -0.17009252803E+04  0.17009252803E+04  0.50400001928E-02 0. -1.
    10030    2    1    2    0    0  0.00000000000E+00  0.00000000000E+00 -0.85262281057E+03  0.25492277500E+04  0.24024147153E+04 0.  0.
        5    1    3    3  502    0  0.91187189408E+03  0.66842053836E+03  0.41656975683E+01  0.11306351358E+04  0.46999998093E+01 0.  1.
       -5    1    3    3    0  502 -0.91187189408E+03 -0.66842053836E+03 -0.85678850814E+03  0.14185926142E+04  0.46999998093E+01 0. -1.
</event>
<event>
 5   0  0.1275948E-06  0.2394980E+04  0.7818609E-02  0.8441385E-01
       -2   -1    0    0    0  501  0.00000000000E+00  0.00000000000E+00  0.98935574582E+03  0.98935574582E+03  0.25500000920E-02 0. -1.
        2   -1    0    0  501    0  0.00000000000E+00  0.00000000000E+00 -0.14494105130E+04  0.14494105130E+04  0.25500000920E-02 0.  1.
    10030    2    1    2    0    0  0.00000000000E+00  0.00000000000E+00 -0.46005476720E+03  0.24387662589E+04  0.23949802664E+04 0.  0.
        1    1    3    3  502    0 -0.11357099289E+04 -0.37923728965E+03 -0.21167979161E+03  0.12159219953E+04  0.50400001928E-02 0.  1.
       -1    1    3    3    0  502  0.11357099289E+04  0.37923728965E+03 -0.24837497559E+03  0.12228442636E+04  0.50400001928E-02 0. -1.
</event>
<event>
 5   0  0.5510176E-07  0.2399510E+04  0.7818609E-02  0.8439687E-01
       -1   -1    0    0    0  501  0.00000000000E+00  0.00000000000E+00  0.14950356039E+04  0.14950356039E+04  0.50400001928E-02 0.  1.
        1   -1    0    0  501    0  0.00000000000E+00  0.00000000000E+00 -0.96279465654E+03  0.96279465655E+03  0.50400001928E-02 0. -1.
    10030    2    1    2    0    0  0.00000000000E+00  0.00000000000E+00  0.53224094740E+03  0.24578302605E+04  0.23995101924E+04 0.  0.
        3    1    3    3  502    0 -0.95521151073E+02  0.96627180054E+03  0.98795162072E+03  0.13852270203E+04  0.10100000352E+00 0.  1.
       -3    1    3    3    0  502  0.95521151073E+02 -0.96627180054E+03 -0.45571067332E+03  0.10726032402E+04  0.10100000352E+00 0. -1.
</event>
<event>
 5   0  0.1336057E-06  0.2399348E+04  0.7818609E-02  0.8439748E-01
       -2   -1    0    0    0  501  0.00000000000E+00  0.00000000000E+00  0.14628905781E+04  0.14628905781E+04  0.25500000920E-02 0. -1.
        2   -1    0    0  501    0  0.00000000000E+00  0.00000000000E+00 -0.98381766641E+03  0.98381766642E+03  0.25500000920E-02 0.  1.
    10030    2    1    2    0    0  0.00000000000E+00  0.00000000000E+00  0.47907291169E+03  0.24467082445E+04  0.23993479071E+04 0.  0.
        2    1    3    3  502    0  0.26887336237E+03 -0.10707495042E+04  0.71829293548E+03  0.13170960963E+04  0.25500000920E-02 0. -1.
       -2    1    3    3    0  502 -0.26887336237E+03  0.10707495042E+04 -0.23922002379E+03  0.11296121482E+04  0.25500000920E-02 0.  1.
</event>
<event>
 5   0  0.5363690E-07  0.2401807E+04  0.7818609E-02  0.8438827E-01
       -1   -1    0    0    0  501  0.00000000000E+00  0.00000000000E+00  0.72882824880E+03  0.72882824881E+03  0.50400001928E-02 0.  1.
        1   -1    0    0  501    0  0.00000000000E+00  0.00000000000E+00 -0.19787511080E+04  0.19787511080E+04  0.50400001928E-02 0. -1.
    10030    2    1    2    0    0  0.00000000000E+00  0.00000000000E+00 -0.12499228592E+04  0.27075793568E+04  0.24018074068E+04 0.  0.
        4    1    3    3  502    0 -0.47444399559E+03  0.52400060369E+03 -0.17193773276E+04  0.18590141864E+04  0.12699999809E+01 0. -1.
       -4    1    3    3    0  502  0.47444399559E+03 -0.52400060369E+03  0.46945446842E+03  0.84856517041E+03  0.12699999809E+01 0.  1.
</event>
<event>
 5   0  0.5452384E-07  0.2400616E+04  0.7818609E-02  0.8439273E-01
        1   -1    0    0  501    0  0.00000000000E+00  0.00000000000E+00  0.98982811179E+03  0.98982811180E+03  0.50400001928E-02 0.  1.
       -1   -1    0    0    0  501  0.00000000000E+00  0.00000000000E+00 -0.14555450067E+04  0.14555450067E+04  0.50400001928E-02 0. -1.
    10030    2    1    2    0    0  0.00000000000E+00  0.00000000000E+00 -0.46571689494E+03  0.24453731185E+04  0.24006160590E+04 0.  0.
        5    1    3    3  502    0  0.11474105640E+04 -0.14508214158E+03  0.94247544626E+02  0.11603898137E+04  0.46999998093E+01 0. -1.
       -5    1    3    3    0  502 -0.11474105640E+04  0.14508214158E+03 -0.55996443957E+03  0.12849833048E+04  0.46999998093E+01 0.  1.
</event>
<event>
 5   0  0.1307477E-06  0.2398930E+04  0.7818609E-02  0.8439904E-01
        2   -1    0    0  501    0  0.00000000000E+00  0.00000000000E+00  0.10401125670E+04  0.10401125670E+04  0.25500000920E-02 0.  1.
       -2   -1    0    0    0  501  0.00000000000E+00  0.00000000000E+00 -0.13832309956E+04  0.13832309956E+04  0.25500000920E-02 0. -1.
    10030    2    1    2    0    0  0.00000000000E+00  0.00000000000E+00 -0.34311842867E+03  0.24233435626E+04  0.23989297127E+04 0.  0.
        5    1    3    3  502    0 -0.77450515053E+03 -0.89502821114E+03  0.24738017621E+02  0.11838782819E+04  0.46999998093E+01 0. -1.
       -5    1    3    3    0  502  0.77450515053E+03  0.89502821114E+03 -0.36785644630E+03  0.12394652807E+04  0.46999998093E+01 0.  1.
</event>
<event>
 5   0  0.5452384E-07  0.2399775E+04  0.7818609E-02  0.8439588E-01
       -1   -1    0    0    0  501  0.00000000000E+00  0.00000000000E+00  0.60478098894E+03  0.60478098896E+03  0.50400001928E-02 0.  1.
        1   -1    0    0  501    0  0.00000000000E+00  0.00000000000E+00 -0.23805806092E+04  0.23805806092E+04  0.50400001928E-02 0. -1.
    10030    2    1    2    0    0  0.00000000000E+00  0.00000000000E+00 -0.17757996203E+04  0.29853615982E+04  0.23997749021E+04 0.  0.
        5    1    3    3  502    0 -0.11978478877E+04 -0.67503380967E+02 -0.86594240366E+03  0.14796197501E+04  0.46999998093E+01 0. -1.
       -5    1    3    3    0  502  0.11978478877E+04  0.67503380967E+02 -0.90985721663E+03  0.15057418481E+04  0.46999998093E+01 0.  1.
</event>
<event>
 5   0  0.5690124E-07  0.2400358E+04  0.7818609E-02  0.8439369E-01
       -1   -1    0    0    0  501  0.00000000000E+00  0.00000000000E+00  0.10293737258E+04  0.10293737258E+04  0.50400001928E-02 0.  1.
        1   -1    0    0  501    0  0.00000000000E+00  0.00000000000E+00 -0.13993266726E+04  0.13993266726E+04  0.50400001928E-02 0. -1.
    10030    2    1    2    0    0  0.00000000000E+00  0.00000000000E+00 -0.36995294682E+03  0.24287003984E+04  0.24003583988E+04 0.  0.
        2    1    3    3  502    0  0.34333828599E+03  0.10642168366E+04  0.25605023298E+03  0.11471705958E+04  0.25500000920E-02 0.  1.
       -2    1    3    3    0  502 -0.34333828599E+03 -0.10642168366E+04 -0.62600317980E+03  0.12815298027E+04  0.25500000920E-02 0. -1.
</event>
<event>
 5   0  0.1275948E-06  0.2399072E+04  0.7818609E-02  0.8439851E-01
       -2   -1    0    0    0  501  0.00000000000E+00  0.00000000000E+00  0.15286914150E+04  0.15286914150E+04  0.25500000920E-02 0. -1.
        2   -1    0    0  501    0  0.00000000000E+00  0.00000000000E+00 -0.94125366008E+03  0.94125366008E+03  0.25500000920E-02 0.  1.
    10030    2    1    2    0    0  0.00000000000E+00  0.00000000000E+00  0.58743775491E+03  0.24699450751E+04  0.23990718118E+04 0.  0.
        1    1    3    3  502    0  0.63656113741E+02  0.68012545774E+03 -0.72144480512E+03  0.99353175386E+03  0.50400001928E-02 0.  1.
       -1    1    3    3    0  502 -0.63656113741E+02 -0.68012545774E+03  0.13088825600E+04  0.14764133212E+04  0.50400001928E-02 0. -1.
</event>
<event>
 5   0  0.5363690E-07  0.2401667E+04  0.7818609E-02  0.8438880E-01
       -1   -1    0    0    0  501  0.00000000000E+00  0.00000000000E+00  0.14667189943E+04  0.14667189943E+04  0.50400001928E-02 0. -1.
        1   -1    0    0  501    0  0.00000000000E+00  0.00000000000E+00 -0.98314779807E+03  0.98314779808E+03  0.50400001928E-02 0.  1.
    10030    2    1    2    0    0  0.00000000000E+00  0.00000000000E+00  0.48357119620E+03  0.24498667924E+04  0.24016673788E+04 0.  0.
        4    1    3    3  502    0  0.64612653421E+03  0.20451582900E+03  0.12529894162E+04  0.14245316117E+04  0.12699999809E+01 0. -1.
       -4    1    3    3    0  502 -0.64612653421E+03 -0.20451582900E+03 -0.76941822005E+03  0.10253351807E+04  0.12699999809E+01 0.  1.
</event>
<event>
 5   0  0.1275948E-06  0.2398602E+04  0.7818609E-02  0.8440027E-01
       -2   -1    0    0    0  501  0.00000000000E+00  0.00000000000E+00  0.87473111979E+03  0.87473111979E+03  0.25500000920E-02 0.  1.
        2   -1    0    0  501    0  0.00000000000E+00  0.00000000000E+00 -0.16443032634E+04  0.16443032634E+04  0.25500000920E-02 0. -1.
    10030    2    1    2    0    0  0.00000000000E+00  0.00000000000E+00 -0.76957214361E+03  0.25190343832E+04  0.23986022887E+04 0.  0.
        1    1    3    3  502    0  0.73027797254E+03 -0.81965751961E+03 -0.89191740769E+03  0.14144472520E+04  0.50400001928E-02 0. -1.
       -1    1    3    3    0  502 -0.73027797254E+03  0.81965751961E+03  0.12234526409E+03  0.11045871311E+04  0.50400001928E-02 0.  1.
</event>
<event>
 5   0  0.1275948E-06  0.2399753E+04  0.7818609E-02  0.8439596E-01
        2   -1    0    0  501    0  0.00000000000E+00  0.00000000000E+00  0.13818999728E+04  0.13818999728E+04  0.25500000920E-02 0.  1.
       -2   -1    0    0    0  501  0.00000000000E+00  0.00000000000E+00 -0.10418292166E+04  0.10418292166E+04  0.25500000920E-02 0. -1.
    10030    2    1    2    0    0  0.00000000000E+00  0.00000000000E+00  0.34007075621E+03  0.24237291893E+04  0.23997531256E+04 0.  0.
        1    1    3    3  502    0  0.86110846347E+03 -0.15932976715E+03 -0.65840974900E+03  0.10956263771E+04  0.50400001928E-02 0.  1.
       -1    1    3    3    0  502 -0.86110846347E+03  0.15932976715E+03  0.99848050521E+03  0.13281028122E+04  0.50400001928E-02 0. -1.
</event>
<event>
 5   0  0.5363690E-07  0.2399630E+04  0.7818609E-02  0.8439642E-01
       -1   -1    0    0    0  501  0.00000000000E+00  0.00000000000E+00  0.20021175994E+04  0.20021175994E+04  0.50400001928E-02 0.  1.
        1   -1    0    0  501    0  0.00000000000E+00  0.00000000000E+00 -0.71901659245E+03  0.71901659247E+03  0.50400001928E-02 0. -1.
    10030    2    1    2    0    0  0.00000000000E+00  0.00000000000E+00  0.12831010070E+04  0.27211341919E+04  0.23996297831E+04 0.  0.
        4    1    3    3  502    0 -0.62621164678E+02 -0.61247825669E+02 -0.71538513210E+03  0.72072894110E+03  0.12699999809E+01 0. -1.
       -4    1    3    3    0  502  0.62621164678E+02  0.61247825669E+02  0.19984861391E+04  0.20004052508E+04  0.12699999809E+01 0.  1.
</event>
<event>
 5   0  0.5510176E-07  0.2399591E+04  0.7818609E-02  0.8439657E-01
        1   -1    0    0  501    0  0.00000000000E+00  0.00000000000E+00  0.11691576410E+04  0.11691576410E+04  0.50400001928E-02 0. -1.
       -1   -1    0    0    0  501  0.00000000000E+00  0.00000000000E+00 -0.12312363170E+04  0.12312363170E+04  0.50400001928E-02 0.  1.
    10030    2    1    2    0    0  0.00000000000E+00  0.00000000000E+00 -0.62078676032E+02  0.24003939580E+04  0.23995910884E+04 0.  0.
        3    1    3    3  502    0 -0.26637782243E+03  0.44926494686E+03 -0.11115457301E+04  0.12281408946E+04  0.10100000352E+00 0.  1.
       -3    1    3    3    0  502  0.26637782243E+03 -0.44926494686E+03  0.10494670541E+04  0.11722530634E+04  0.10100000352E+00 0. -1.
</event>
<event>
 5   0  0.1291468E-06  0.2408635E+04  0.7818609E-02  0.8436278E-01
       -2   -1    0    0    0  501  0.00000000000E+00  0.00000000000E+00  0.10431247817E+04  0.10431247817E+04  0.25500000920E-02 0.  1.
        2   -1    0    0  501    0  0.00000000000E+00  0.00000000000E+00 -0.13904189534E+04  0.13904189534E+04  0.25500000920E-02 0. -1.
    10030    2    1    2    0    0  0.00000000000E+00  0.00000000000E+00 -0.34729417170E+03  0.24335437350E+04  0.24086348558E+04 0.  0.
        4    1    3    3  502    0  0.29373591290E+03  0.10083245476E+04 -0.76913148870E+03  0.13017542163E+04  0.12699999809E+01 0. -1.
       -4    1    3    3    0  502 -0.29373591290E+03 -0.10083245476E+04  0.42183731700E+03  0.11317895187E+04  0.12699999809E+01 0.  1.
</event>
<event>
 5   0  0.5363690E-07  0.2399226E+04  0.7818609E-02  0.8439793E-01
        1   -1    0    0  501    0  0.00000000000E+00  0.00000000000E+00  0.96888517709E+03  0.96888517711E+03  0.50400001928E-02 0. -1.
       -1   -1    0    0    0  501  0.00000000000E+00  0.00000000000E+00 -0.14852859066E+04  0.14852859066E+04  0.50400001928E-02 0.  1.
    10030    2    1    2    0    0  0.00000000000E+00  0.00000000000E+00 -0.51640072947E+03  0.24541710837E+04  0.23992261241E+04 0.  0.
        4    1    3    3  502    0 -0.85221378492E+03  0.29615176449E+03  0.55053587213E+03  0.10569132236E+04  0.12699999809E+01 0. -1.
       -4    1    3    3    0  502  0.85221378492E+03 -0.29615176449E+03 -0.10669366016E+04  0.13972578601E+04  0.12699999809E+01 0.  1.
</event>
<event>
 5   0  0.5527286E-07  0.2400656E+04  0.7818609E-02  0.8439258E-01
       -1   -1    0    0    0  501  0.00000000000E+00  0.00000000000E+00  0.82743197013E+03  0.82743197014E+03  0.50400001928E-02 0.  1.
        1   -1    0    0  501    0  0.00000000000E+00  0.00000000000E+00 -0.17412751328E+04  0.17412751328E+04  0.50400001928E-02 0. -1.
    10030    2    1    2    0    0  0.00000000000E+00  0.00000000000E+00 -0.91384316269E+03  0.25687071030E+04  0.24006555052E+04 0.  0.
        1    1    3    3  502    0 -0.59951237935E+03 -0.10002817799E+04 -0.76108842633E+03  0.13925639392E+04  0.50400001928E-02 0. -1.
       -1    1    3    3    0  502  0.59951237935E+03  0.10002817799E+04 -0.15275473637E+03  0.11761431637E+04  0.50400001928E-02 0.  1.
</event>
<event>
 5   0  0.5452384E-07  0.2398890E+04  0.7818609E-02  0.8439919E-01
        1   -1    0    0  501    0  0.00000000000E+00  0.00000000000E+00  0.19730757151E+04  0.19730757151E+04  0.50400001928E-02 0. -1.
       -1   -1    0    0    0  501  0.00000000000E+00  0.00000000000E+00 -0.72914993530E+03  0.72914993531E+03  0.50400001928E-02 0.  1.
    10030    2    1    2    0    0  0.00000000000E+00  0.00000000000E+00  0.12439257798E+04  0.27022256504E+04  0.23988897682E+04 0.  0.
        5    1    3    3  502    0  0.49613549879E+02  0.11917332961E+04  0.47967240042E+03  0.12856117046E+04  0.46999998093E+01 0. -1.
       -5    1    3    3    0  502 -0.49613549879E+02 -0.11917332961E+04  0.76425337936E+03  0.14166139457E+04  0.46999998093E+01 0.  1.
</event>
<event>
 5   0  0.1291468E-06  0.2403409E+04  0.7818609E-02  0.8438228E-01
       -2   -1    0    0    0  501  0.00000000000E+00  0.00000000000E+00  0.30688285073E+04  0.30688285073E+04  0.25500000920E-02 0.  1.
        2   -1    0    0  501    0  0.00000000000E+00  0.00000000000E+00 -0.47056849037E+03  0.47056849037E+03  0.25500000920E-02 0. -1.
    10030    2    1    2    0    0  0.00000000000E+00  0.00000000000E+00  0.25982600169E+04  0.35393969976E+04  0.24034092434E+04 0.  0.
        4    1    3    3  502    0  0.73121885668E+03  0.93932202518E+03  0.15414950582E+04  0.19476179067E+04  0.12699999809E+01 0.  1.
       -4    1    3    3    0  502 -0.73121885668E+03 -0.93932202518E+03  0.10567649587E+04  0.15917790909E+04  0.12699999809E+01 0. -1.
</event>
<event>
 5   0  0.1336057E-06  0.2399376E+04  0.7818609E-02  0.8439737E-01
        2   -1    0    0  501    0  0.00000000000E+00  0.00000000000E+00  0.12301641433E+04  0.12301641433E+04  0.25500000920E-02 0.  1.
       -2   -1    0    0    0  501  0.00000000000E+00  0.00000000000E+00 -0.11699667338E+04  0.11699667338E+04  0.25500000920E-02 0. -1.
    10030    2    1    2    0    0  0.00000000000E+00  0.00000000000E+00  0.60197409468E+02  0.24001308772E+04  0.23993758562E+04 0.  0.
        2    1    3    3  502    0  0.42354515658E+03 -0.11209656849E+04 -0.27335026697E+02  0.11986249497E+04  0.25500000920E-02 0. -1.
       -2    1    3    3    0  502 -0.42354515658E+03  0.11209656849E+04  0.87532436165E+02  0.12015059275E+04  0.25500000920E-02 0.  1.
</event>
<event>
 5   0  0.5452384E-07  0.2396801E+04  0.7818609E-02  0.8440702E-01
       -1   -1    0    0    0  501  0.00000000000E+00  0.00000000000E+00  0.17235836500E+04  0.17235836500E+04  0.50400001928E-02 0.  1.
        1   -1    0    0  501    0  0.00000000000E+00  0.00000000000E+00 -0.83324302906E+03  0.83324302908E+03  0.50400001928E-02 0. -1.
    10030    2    1    2    0    0  0.00000000000E+00  0.00000000000E+00  0.89034062089E+03  0.25568266790E+04  0.23968012528E+04 0.  0.
        5    1    3    3  502    0 -0.33982987219E+03 -0.93351949369E+03  0.11601416764E+04  0.15273813494E+04  0.46999998093E+01 0.  1.
       -5    1    3    3    0  502  0.33982987219E+03  0.93351949369E+03 -0.26980105553E+03  0.10294453296E+04  0.46999998093E+01 0. -1.
</event>
<event>
 5   0  0.5527286E-07  0.2399705E+04  0.7818609E-02  0.8439614E-01
        1   -1    0    0  501    0  0.00000000000E+00  0.00000000000E+00  0.62832507914E+03  0.62832507916E+03  0.50400001928E-02 0. -1.
       -1   -1    0    0    0  501  0.00000000000E+00  0.00000000000E+00 -0.22912446787E+04  0.22912446787E+04  0.50400001928E-02 0.  1.
    10030    2    1    2    0    0  0.00000000000E+00  0.00000000000E+00 -0.16629195995E+04  0.29195697578E+04  0.23997053937E+04 0.  0.
        1    1    3    3  502    0 -0.67056611027E+03 -0.18880771433E+03 -0.20199957368E+04  0.21367475372E+04  0.50400001928E-02 0.  1.
       -1    1    3    3    0  502  0.67056611027E+03  0.18880771433E+03  0.35707613726E+03  0.78282222060E+03  0.50400001928E-02 0. -1.
</event>
<event>
 5   0  0.1308662E-06  0.2398638E+04  0.7818609E-02  0.8440014E-01
        2   -1    0    0  501    0  0.00000000000E+00  0.00000000000E+00  0.10192201953E+04  0.10192201953E+04  0.25500000920E-02 0.  1.
       -2   -1    0    0    0  501  0.00000000000E+00  0.00000000000E+00 -0.14112411370E+04  0.14112411370E+04  0.25500000920E-02 0. -1.
    10030    2    1    2    0    0  0.00000000000E+00  0.00000000000E+00 -0.39202094172E+03  0.24304613323E+04  0.23986375027E+04 0.  0.
        3    1    3    3  502    0 -0.70571084934E+02  0.80045906430E+03  0.70611086829E+03  0.10697231231E+04  0.10100000352E+00 0.  1.
       -3    1    3    3    0  502  0.70571084934E+02 -0.80045906430E+03 -0.10981318100E+04  0.13607382092E+04  0.10100000352E+00 0. -1.
</event>
<event>
 5   0  0.1291468E-06  0.2400579E+04  0.7818609E-02  0.8439287E-01
        2   -1    0    0  501    0  0.00000000000E+00  0.00000000000E+00  0.12013732436E+04  0.12013732436E+04  0.25500000920E-02 0. -1.
       -2   -1    0    0    0  501  0.00000000000E+00  0.00000000000E+00 -0.11992070649E+04  0.11992070649E+04  0.25500000920E-02 0.  1.
    10030    2    1    2    0    0  0.00000000000E+00  0.00000000000E+00  0.21661786792E+01  0.24005803086E+04  0.24005793312E+04 0.  0.
        4    1    3    3  502    0  0.53174627363E+03 -0.20050286919E+03 -0.10561487105E+04  0.11993361545E+04  0.12699999809E+01 0.  1.
       -4    1    3    3    0  502 -0.53174627363E+03  0.20050286919E+03  0.10583148892E+04  0.12012441540E+04  0.12699999809E+01 0. -1.
</event>
<event>
 5   0  0.1291468E-06  0.2395957E+04  0.7818609E-02  0.8441019E-01
        2   -1    0    0  501    0  0.00000000000E+00  0.00000000000E+00  0.17276849358E+04  0.17276849358E+04  0.25500000920E-02 0. -1.
       -2   -1    0    0    0  501  0.00000000000E+00  0.00000000000E+00 -0.83067973813E+03  0.83067973814E+03  0.25500000920E-02 0.  1.
    10030    2    1    2    0    0  0.00000000000E+00  0.00000000000E+00  0.89700519767E+03  0.25583646739E+04  0.23959573202E+04 0.  0.
        4    1    3    3  502    0 -0.73021444375E+03 -0.13131587596E+03  0.14528407906E+04  0.16313200081E+04  0.12699999809E+01 0. -1.
       -4    1    3    3    0  502  0.73021444375E+03  0.13131587596E+03 -0.55583559294E+03  0.92704466582E+03  0.12699999809E+01 0.  1.
</event>
<event>
 5   0  0.5510176E-07  0.2399625E+04  0.7818609E-02  0.8439644E-01
        1   -1    0    0  501    0  0.00000000000E+00  0.00000000000E+00  0.16062251417E+04  0.16062251417E+04  0.50400001928E-02 0.  1.
       -1   -1    0    0    0  501  0.00000000000E+00  0.00000000000E+00 -0.89623212046E+03  0.89623212048E+03  0.50400001928E-02 0. -1.
    10030    2    1    2    0    0  0.00000000000E+00  0.00000000000E+00  0.70999302123E+03  0.25024572622E+04  0.23996254414E+04 0.  0.
        3    1    3    3  502    0 -0.80108277187E+03 -0.14767835662E+03  0.12736597212E+04  0.15118702325E+04  0.10100000352E+00 0.  1.
       -3    1    3    3    0  502  0.80108277187E+03  0.14767835662E+03 -0.56366669999E+03  0.99058702963E+03  0.10100000352E+00 0. -1.
</event>
<event>
 5   0  0.5510176E-07  0.2400094E+04  0.7818609E-02  0.8439468E-01
        1   -1    0    0  501    0  0.00000000000E+00  0.00000000000E+00  0.11564740426E+04  0.11564740426E+04  0.50400001928E-02 0. -1.
       -1   -1    0    0    0  501  0.00000000000E+00  0.00000000000E+00 -0.12452620888E+04  0.12452620889E+04  0.50400001928E-02 0.  1.
    10030    2    1    2    0    0  0.00000000000E+00  0.00000000000E+00 -0.88788046232E+02  0.24017361315E+04  0.24000943998E+04 0.  0.
        3    1    3    3  502    0 -0.51250886365E+03 -0.67025976753E+03  0.80953591503E+03  0.11692997474E+04  0.10100000352E+00 0.  1.
       -3    1    3    3    0  502  0.51250886365E+03  0.67025976753E+03 -0.89832396126E+03  0.12324363841E+04  0.10100000352E+00 0. -1.
</event>
<event>
 5   0  0.5527286E-07  0.2400909E+04  0.7818609E-02  0.8439163E-01
        1   -1    0    0  501    0  0.00000000000E+00  0.00000000000E+00  0.10553492915E+04  0.10553492915E+04  0.50400001928E-02 0.  1.
       -1   -1    0    0    0  501  0.00000000000E+00  0.00000000000E+00 -0.13655107731E+04  0.13655107731E+04  0.50400001928E-02 0. -1.
    10030    2    1    2    0    0  0.00000000000E+00  0.00000000000E+00 -0.31016148160E+03  0.24208600646E+04  0.24009088504E+04 0.  0.
        1    1    3    3  502    0 -0.11022497364E+04 -0.21812719591E+03  0.27099057580E+03  0.11558416186E+04  0.50400001928E-02 0.  1.
       -1    1    3    3    0  502  0.11022497364E+04  0.21812719591E+03 -0.58115205740E+03  0.12650184460E+04  0.50400001928E-02 0. -1.
</event>
<event>
 5   0  0.5690124E-07  0.2399489E+04  0.7818609E-02  0.8439695E-01
        1   -1    0    0  501    0  0.00000000000E+00  0.00000000000E+00  0.12342919365E+04  0.12342919365E+04  0.50400001928E-02 0.  1.
       -1   -1    0    0    0  501  0.00000000000E+00  0.00000000000E+00 -0.11661638356E+04  0.11661638356E+04  0.50400001928E-02 0. -1.
    10030    2    1    2    0    0  0.00000000000E+00  0.00000000000E+00  0.68128100907E+02  0.24004557721E+04  0.23994887947E+04 0.  0.
        2    1    3    3  502    0  0.65006647384E+03  0.21667136697E+03 -0.95114433537E+03  0.11722663726E+04  0.25500000920E-02 0. -1.
       -2    1    3    3    0  502 -0.65006647384E+03 -0.21667136697E+03  0.10192724363E+04  0.12281893995E+04  0.25500000920E-02 0.  1.
</event>
<event>
 5   0  0.1308662E-06  0.2400257E+04  0.7818609E-02  0.8439407E-01
       -2   -1    0    0    0  501  0.00000000000E+00  0.00000000000E+00  0.92882958471E+03  0.92882958471E+03  0.25500000920E-02 0.  1.
        2   -1    0    0  501    0  0.00000000000E+00  0.00000000000E+00 -0.15506701602E+04  0.15506701602E+04  0.25500000920E-02 0. -1.
    10030    2    1    2    0    0  0.00000000000E+00  0.00000000000E+00 -0.62184057549E+03  0.24794997449E+04  0.24002569204E+04 0.  0.
        3    1    3    3  502    0  0.25940951353E+03  0.11667458410E+04 -0.19909126421E+03  0.12117039634E+04  0.10100000352E+00 0.  1.
       -3    1    3    3    0  502 -0.25940951353E+03 -0.11667458410E+04 -0.42274931128E+03  0.12677957815E+04  0.10100000352E+00 0. -1.
</event>
<event>
 5   0  0.1308662E-06  0.2399570E+04  0.7818609E-02  0.8439664E-01
       -2   -1    0    0    0  501  0.00000000000E+00  0.00000000000E+00  0.89882456676E+03  0.89882456676E+03  0.25500000920E-02 0.  1.
        2   -1    0    0  501    0  0.00000000000E+00  0.00000000000E+00 -0.16015186362E+04  0.16015186362E+04  0.25500000920E-02 0. -1.
    10030    2    1    2    0    0  0.00000000000E+00  0.00000000000E+00 -0.70269406941E+03  0.25003432029E+04  0.23995702068E+04 0.  0.
        3    1    3    3  502    0 -0.11254404503E+04 -0.43977423887E+02  0.79457704187E+02  0.11290986485E+04  0.10100000352E+00 0.  1.
       -3    1    3    3    0  502  0.11254404503E+04  0.43977423887E+02 -0.78215177360E+03  0.13712445545E+04  0.10100000352E+00 0. -1.
</event>
<event>
 5   0  0.5510176E-07  0.2400737E+04  0.7818609E-02  0.8439228E-01
       -1   -1    0    0    0  501  0.00000000000E+00  0.00000000000E+00  0.16434621481E+04  0.16434621481E+04  0.50400001928E-02 0. -1.
        1   -1    0    0  501    0  0.00000000000E+00  0.00000000000E+00 -0.87673721241E+03  0.87673721242E+03  0.50400001928E-02 0.  1.
    10030    2    1    2    0    0  0.00000000000E+00  0.00000000000E+00  0.76672493569E+03  0.25201993605E+04  0.24007369056E+04 0.  0.
        3    1    3    3  502    0  0.88738565496E+02  0.11547505986E+04  0.71459639234E+03  0.13608715928E+04  0.10100000352E+00 0. -1.
       -3    1    3    3    0  502 -0.88738565496E+02 -0.11547505986E+04  0.52128543347E+02  0.11593277678E+04  0.10100000352E+00 0.  1.
</event>
<event>
 5   0  0.1336057E-06  0.2399675E+04  0.7818609E-02  0.8439625E-01
        2   -1    0    0  501    0  0.00000000000E+00  0.00000000000E+00  0.17291257295E+04  0.17291257295E+04  0.25500000920E-02 0. -1.
       -2   -1    0    0    0  501  0.00000000000E+00  0.00000000000E+00 -0.83256553799E+03  0.83256553799E+03  0.25500000920E-02 0.  1.
    10030    2    1    2    0    0  0.00000000000E+00  0.00000000000E+00  0.89656019152E+03  0.25616912675E+04  0.23996753891E+04 0.  0.
        2    1    3    3  502    0 -0.30951952624E+03  0.24879231822E+03  0.16569373120E+04  0.17038606781E+04  0.25500000920E-02 0. -1.
       -2    1    3    3    0  502  0.30951952624E+03 -0.24879231822E+03 -0.76037712045E+03  0.85783058936E+03  0.25500000920E-02 0.  1.
</event>
<event>
 5   0  0.1275948E-06  0.2400068E+04  0.7818609E-02  0.8439478E-01
       -2   -1    0    0    0  501  0.00000000000E+00  0.00000000000E+00  0.87689115186E+03  0.87689115186E+03  0.25500000920E-02 0. -1.
        2   -1    0    0  501    0  0.00000000000E+00  0.00000000000E+00 -0.16422574988E+04  0.16422574988E+04  0.25500000920E-02 0.  1.
    10030    2    1    2    0    0  0.00000000000E+00  0.00000000000E+00 -0.76536634698E+03  0.25191486507E+04  0.24000675572E+04 0.  0.
        1    1    3    3  502    0 -0.11747812095E+04 -0.19917120267E+02 -0.12649631821E+03  0.11817397770E+04  0.50400001928E-02 0. -1.
       -1    1    3    3    0  502  0.11747812095E+04  0.19917120267E+02 -0.63887002878E+03  0.13374088737E+04  0.50400001928E-02 0.  1.
</event>
<event>
 5   0  0.1291468E-06  0.2398903E+04  0.7818609E-02  0.8439914E-01
        2   -1    0    0  501    0  0.00000000000E+00  0.00000000000E+00  0.18201265099E+04  0.18201265099E+04  0.25500000920E-02 0. -1.
       -2   -1    0    0    0  501  0.00000000000E+00  0.00000000000E+00 -0.79043058612E+03  0.79043058613E+03  0.25500000920E-02 0.  1.
    10030    2    1    2    0    0  0.00000000000E+00  0.00000000000E+00  0.10296959238E+04  0.26105570960E+04  0.23989028026E+04 0.  0.
        4    1    3    3  502    0 -0.97449164208E+03  0.23850168414E+03 -0.20054614597E+03  0.10231018441E+04  0.12699999809E+01 0.  1.
       -4    1    3    3    0  502  0.97449164208E+03 -0.23850168414E+03  0.12302420697E+04  0.15874552519E+04  0.12699999809E+01 0. -1.
</event>
<event>
 5   0  0.5452384E-07  0.2398690E+04  0.7818609E-02  0.8439994E-01
        1   -1    0    0  501    0  0.00000000000E+00  0.00000000000E+00  0.31199853710E+04  0.31199853710E+04  0.50400001928E-02 0.  1.
       -1   -1    0    0    0  501  0.00000000000E+00  0.00000000000E+00 -0.46103707144E+03  0.46103707147E+03  0.50400001928E-02 0. -1.
    10030    2    1    2    0    0  0.00000000000E+00  0.00000000000E+00  0.26589482996E+04  0.35810224425E+04  0.23986904081E+04 0.  0.
        5    1    3    3  502    0  0.75864880566E+02 -0.69879907225E+03  0.27802322857E+04  0.28677149921E+04  0.46999998093E+01 0.  1.
       -5    1    3    3    0  502 -0.75864880566E+02  0.69879907225E+03 -0.12128398613E+03  0.71330745038E+03  0.46999998093E+01 0. -1.
</event>
<event>
 5   0  0.1275948E-06  0.2401028E+04  0.7818609E-02  0.8439119E-01
        2   -1    0    0  501    0  0.00000000000E+00  0.00000000000E+00  0.20214095876E+04  0.20214095876E+04  0.25500000920E-02 0. -1.
       -2   -1    0    0    0  501  0.00000000000E+00  0.00000000000E+00 -0.71298470528E+03  0.71298470528E+03  0.25500000920E-02 0.  1.
    10030    2    1    2    0    0  0.00000000000E+00  0.00000000000E+00  0.13084248823E+04  0.27343942928E+04  0.24010282123E+04 0.  0.
        1    1    3    3  502    0  0.96850527636E+02 -0.14523087695E+03 -0.69845415624E+03  0.71993766447E+03  0.50400001928E-02 0.  1.
       -1    1    3    3    0  502 -0.96850527636E+02  0.14523087695E+03  0.20068790385E+04  0.20144566284E+04  0.50400001928E-02 0. -1.
</event>
<event>
 5   0  0.1308662E-06  0.2400371E+04  0.7818609E-02  0.8439365E-01
        2   -1    0    0  501    0  0.00000000000E+00  0.00000000000E+00  0.12097829228E+04  0.12097829228E+04  0.25500000920E-02 0.  1.
       -2   -1    0    0    0  501  0.00000000000E+00  0.00000000000E+00 -0.11906643737E+04  0.11906643737E+04  0.25500000920E-02 0. -1.
    10030    2    1    2    0    0  0.00000000000E+00  0.00000000000E+00  0.19118549130E+02  0.24004472965E+04  0.24003711597E+04 0.  0.
        3    1    3    3  502    0 -0.83527305469E+03  0.64041339965E+03  0.58632276113E+03  0.12048173259E+04  0.10100000352E+00 0.  1.
       -3    1    3    3    0  502  0.83527305469E+03 -0.64041339965E+03 -0.56720421200E+03  0.11956299706E+04  0.10100000352E+00 0. -1.
</event>
<event>
 5   0  0.5363690E-07  0.2401136E+04  0.7818609E-02  0.8439078E-01
       -1   -1    0    0    0  501  0.00000000000E+00  0.00000000000E+00  0.94344344324E+03  0.94344344325E+03  0.50400001928E-02 0. -1.
        1   -1    0    0  501    0  0.00000000000E+00  0.00000000000E+00 -0.15277686655E+04  0.15277686655E+04  0.50400001928E-02 0.  1.
    10030    2    1    2    0    0  0.00000000000E+00  0.00000000000E+00 -0.58432522225E+03  0.24712121087E+04  0.24011358398E+04 0.  0.
        4    1    3    3  502    0 -0.99829776410E+03 -0.63482558737E+03 -0.50247861299E+03  0.12853358789E+04  0.12699999809E+01 0.  1.
       -4    1    3    3    0  502  0.99829776410E+03  0.63482558737E+03 -0.81846609261E+02  0.11858762299E+04  0.12699999809E+01 0. -1.
</event>
<event>
 5   0  0.1307477E-06  0.2399356E+04  0.7818609E-02  0.8439745E-01
        2   -1    0    0  501    0  0.00000000000E+00  0.00000000000E+00  0.13239154831E+04  0.13239154831E+04  0.25500000920E-02 0.  1.
       -2   -1    0    0    0  501  0.00000000000E+00  0.00000000000E+00 -0.10870987525E+04  0.10870987525E+04  0.25500000920E-02 0. -1.
    10030    2    1    2    0    0  0.00000000000E+00  0.00000000000E+00  0.23681673061E+03  0.24110142356E+04  0.23993556386E+04 0.  0.
        5    1    3    3  502    0 -0.27456235060E+01 -0.44369568835E+03 -0.10016067322E+04  0.10954960238E+04  0.46999998093E+01 0. -1.
       -5    1    3    3    0  502  0.27456235060E+01  0.44369568835E+03  0.12384234628E+04  0.13155182118E+04  0.46999998093E+01 0.  1.
</event>
<event>
 5   0  0.1336057E-06  0.2398858E+04  0.7818609E-02  0.8439931E-01
        2   -1    0    0  501    0  0.00000000000E+00  0.00000000000E+00  0.19794366120E+04  0.19794366120E+04  0.25500000920E-02 0.  1.
       -2   -1    0    0    0  501  0.00000000000E+00  0.00000000000E+00 -0.72678778766E+03  0.72678778767E+03  0.25500000920E-02 0. -1.
    10030    2    1    2    0    0  0.00000000000E+00  0.00000000000E+00  0.12526488244E+04  0.27062243997E+04  0.23988583585E+04 0.  0.
        2    1    3    3  502    0 -0.52226511561E+03  0.83858422819E+03  0.13936569323E+04  0.17082927160E+04  0.25500000920E-02 0.  1.
       -2    1    3    3    0  502  0.52226511561E+03 -0.83858422819E+03 -0.14100810792E+03  0.99793168366E+03  0.25500000920E-02 0. -1.
</event>
<event>
 5   0  0.1336057E-06  0.2400206E+04  0.7818609E-02  0.8439426E-01
       -2   -1    0    0    0  501  0.00000000000E+00  0.00000000000E+00  0.77470183043E+03  0.77470183044E+03  0.25500000920E-02 0. -1.
        2   -1    0    0  501    0  0.00000000000E+00  0.00000000000E+00 -0.18590992602E+04  0.18590992602E+04  0.25500000920E-02 0.  1.
    10030    2    1    2    0    0  0.00000000000E+00  0.00000000000E+00 -0.10843974298E+04  0.26338010907E+04  0.24002063244E+04 0.  0.
        2    1    3    3  502    0 -0.54120951520E+03 -0.88442538106E+02 -0.17135710153E+04  0.17991818825E+04  0.25500000920E-02 0.  1.
       -2    1    3    3    0  502  0.54120951520E+03  0.88442538106E+02  0.62917358552E+03  0.83461920815E+03  0.25500000920E-02 0. -1.
</event>
<event>
 5   0  0.5510176E-07  0.2400436E+04  0.7818609E-02  0.8439340E-01
        1   -1    0    0  501    0  0.00000000000E+00  0.00000000000E+00  0.21364361682E+04  0.21364361682E+04  0.50400001928E-02 0. -1.
       -1   -1    0    0    0  501  0.00000000000E+00  0.00000000000E+00 -0.67426445220E+03  0.67426445222E+03  0.50400001928E-02 0.  1.
    10030    2    1    2    0    0  0.00000000000E+00  0.00000000000E+00  0.14621717160E+04  0.28107006204E+04  0.24004357626E+04 0.  0.
        3    1    3    3  502    0  0.75073470994E+02 -0.98076992952E+03  0.15363616377E+04  0.18242677360E+04  0.10100000352E+00 0. -1.
       -3    1    3    3    0  502 -0.75073470994E+02  0.98076992952E+03 -0.74189921723E+02  0.98643288438E+03  0.10100000352E+00 0.  1.
</event>
<event>
 5   0  0.5690124E-07  0.2400121E+04  0.7818609E-02  0.8439458E-01
       -1   -1    0    0    0  501  0.00000000000E+00  0.00000000000E+00  0.17394188823E+04  0.17394188823E+04  0.50400001928E-02 0.  1.
        1   -1    0    0  501    0  0.00000000000E+00  0.00000000000E+00 -0.82794629125E+03  0.82794629127E+03  0.50400001928E-02 0. -1.
    10030    2    1    2    0    0  0.00000000000E+00  0.00000000000E+00  0.91147259101E+03  0.25673651735E+04  0.24001211740E+04 0.  0.
        2    1    3    3  502    0  0.10241562297E+02 -0.25851747590E+03 -0.79775936693E+03  0.83866333083E+03  0.25500000920E-02 0. -1.
       -2    1    3    3    0  502 -0.10241562297E+02  0.25851747590E+03  0.17092319579E+04  0.17287018427E+04  0.25500000920E-02 0.  1.
</event>
<event>
 5   0  0.1275948E-06  0.2400180E+04  0.7818609E-02  0.8439436E-01
        2   -1    0    0  501    0  0.00000000000E+00  0.00000000000E+00  0.12323526646E+04  0.12323526646E+04  0.25500000920E-02 0.  1.
       -2   -1    0    0    0  501  0.00000000000E+00  0.00000000000E+00 -0.11686723306E+04  0.11686723306E+04  0.25500000920E-02 0. -1.
    10030    2    1    2    0    0  0.00000000000E+00  0.00000000000E+00  0.63680333959E+02  0.24010249952E+04  0.24001803771E+04 0.  0.
        1    1    3    3  502    0 -0.53317844679E+03  0.47120059683E+03  0.99856897972E+03  0.12261522197E+04  0.50400001928E-02 0.  1.
       -1    1    3    3    0  502  0.53317844679E+03 -0.47120059683E+03 -0.93488864576E+03  0.11748727755E+04  0.50400001928E-02 0. -1.
</event>
<event>
 5   0  0.5690124E-07  0.2400793E+04  0.7818609E-02  0.8439207E-01
       -1   -1    0    0    0  501  0.00000000000E+00  0.00000000000E+00  0.77874856859E+03  0.77874856861E+03  0.50400001928E-02 0. -1.
        1   -1    0    0  501    0  0.00000000000E+00  0.00000000000E+00 -0.18503434960E+04  0.18503434960E+04  0.50400001928E-02 0.  1.
    10030    2    1    2    0    0  0.00000000000E+00  0.00000000000E+00 -0.10715949274E+04  0.26290920646E+04  0.24007934929E+04 0.  0.
        2    1    3    3  502    0 -0.11076768604E+04  0.25662266264E+03 -0.11429458708E+03  0.11427451469E+04  0.25500000920E-02 0.  1.
       -2    1    3    3    0  502  0.11076768604E+04 -0.25662266264E+03 -0.95730034028E+03  0.14863469177E+04  0.25500000920E-02 0. -1.
</event>
<event>
 5   0  0.5452384E-07  0.2400270E+04  0.7818609E-02  0.8439402E-01
        1   -1    0    0  501    0  0.00000000000E+00  0.00000000000E+00  0.86170118652E+03  0.86170118653E+03  0.50400001928E-02 0. -1.
       -1   -1    0    0    0  501  0.00000000000E+00  0.00000000000E+00 -0.16714896110E+04  0.16714896110E+04  0.50400001928E-02 0.  1.
    10030    2    1    2    0    0  0.00000000000E+00  0.00000000000E+00 -0.80978842450E+03  0.25331907976E+04  0.24002704690E+04 0.  0.
        5    1    3    3  502    0 -0.68842705202E+03 -0.81108619255E+03  0.18130098174E+03  0.10792056123E+04  0.46999998093E+01 0.  1.
       -5    1    3    3    0  502  0.68842705202E+03  0.81108619255E+03 -0.99108940625E+03  0.14539851852E+04  0.46999998093E+01 0. -1.
</event>
<event>
 5   0  0.1307477E-06  0.2399811E+04  0.7818609E-02  0.8439574E-01
       -2   -1    0    0    0  501  0.00000000000E+00  0.00000000000E+00  0.19044178251E+04  0.19044178251E+04  0.25500000920E-02 0. -1.
        2   -1    0    0  501    0  0.00000000000E+00  0.00000000000E+00 -0.75601776430E+03  0.75601776431E+03  0.25500000920E-02 0.  1.
    10030    2    1    2    0    0  0.00000000000E+00  0.00000000000E+00  0.11484000608E+04  0.26604355894E+04  0.23998114146E+04 0.  0.
        5    1    3    3  502    0 -0.10332609085E+04 -0.53208481373E+03  0.24345507008E+03  0.11874488684E+04  0.46999998093E+01 0.  1.
       -5    1    3    3    0  502  0.10332609085E+04  0.53208481373E+03  0.90494499068E+03  0.14729867210E+04  0.46999998093E+01 0. -1.
</event>
<event>
 5   0  0.5690124E-07  0.2402999E+04  0.7818609E-02  0.8438382E-01
       -1   -1    0    0    0  501  0.00000000000E+00  0.00000000000E+00  0.10447292099E+04  0.10447292099E+04  0.50400001928E-02 0.  1.
        1   -1    0    0  501    0  0.00000000000E+00  0.00000000000E+00 -0.13817942993E+04  0.13817942993E+04  0.50400001928E-02 0. -1.
    10030    2    1    2    0    0  0.00000000000E+00  0.00000000000E+00 -0.33706508938E+03  0.24265235092E+04  0.24029988486E+04 0.  0.
        2    1    3    3  502    0  0.52264259953E+03  0.73179759309E+03  0.63608539869E+03  0.11014933674E+04  0.25500000920E-02 0.  1.
       -2    1    3    3    0  502 -0.52264259953E+03 -0.73179759309E+03 -0.97315048807E+03  0.13250301417E+04  0.25500000920E-02 0. -1.
</event>
<event>
 5   0  0.5510176E-07  0.2400437E+04  0.7818609E-02  0.8439340E-01
        1   -1    0    0  501    0  0.00000000000E+00  0.00000000000E+00  0.16553837976E+04  0.16553837976E+04  0.50400001928E-02 0. -1.
       -1   -1    0    0    0  501  0.00000000000E+00  0.00000000000E+00 -0.87020541382E+03  0.87020541383E+03  0.50400001928E-02 0.  1.
    10030    2    1    2    0    0  0.00000000000E+00  0.00000000000E+00  0.78517838375E+03  0.25255892114E+04  0.24004365791E+04 0.  0.
        3    1    3    3  502    0 -0.95435066261E+03  0.40228279958E+03  0.10307669688E+04  0.14611971777E+04  0.10100000352E+00 0. -1.
       -3    1    3    3    0  502  0.95435066261E+03 -0.40228279958E+03 -0.24558858504E+03  0.10643920337E+04  0.10100000352E+00 0.  1.
</event>
<event>
 5   0  0.5452384E-07  0.2399372E+04  0.7818609E-02  0.8439739E-01
       -1   -1    0    0    0  501  0.00000000000E+00  0.00000000000E+00  0.81019928343E+03  0.81019928345E+03  0.50400001928E-02 0. -1.
        1   -1    0    0  501    0  0.00000000000E+00  0.00000000000E+00 -0.17764105165E+04  0.17764105165E+04  0.50400001928E-02 0.  1.
    10030    2    1    2    0    0  0.00000000000E+00  0.00000000000E+00 -0.96621123304E+03  0.25866097999E+04  0.23993720241E+04 0.  0.
        5    1    3    3  502    0 -0.98396384396E+03 -0.61451649133E+03 -0.81258470774E+03  0.14163796672E+04  0.46999998093E+01 0.  1.
       -5    1    3    3    0  502  0.98396384396E+03  0.61451649133E+03 -0.15362652530E+03  0.11702301328E+04  0.46999998093E+01 0. -1.
</event>
<event>
 5   0  0.1336057E-06  0.2399667E+04  0.7818609E-02  0.8439628E-01
       -2   -1    0    0    0  501  0.00000000000E+00  0.00000000000E+00  0.13230122460E+04  0.13230122460E+04  0.25500000920E-02 0. -1.
        2   -1    0    0  501    0  0.00000000000E+00  0.00000000000E+00 -0.10881234771E+04  0.10881234771E+04  0.25500000920E-02 0.  1.
    10030    2    1    2    0    0  0.00000000000E+00  0.00000000000E+00  0.23488876895E+03  0.24111357232E+04  0.23996672148E+04 0.  0.
        2    1    3    3  502    0  0.11488040383E+04 -0.34029641725E+03  0.18137484180E+03  0.12117958587E+04  0.25500000920E-02 0. -1.
       -2    1    3    3    0  502 -0.11488040383E+04  0.34029641725E+03  0.53513927144E+02  0.11993398644E+04  0.25500000920E-02 0.  1.
</event>
<event>
 5   0  0.1275948E-06  0.2411721E+04  0.7818609E-02  0.8435128E-01
        2   -1    0    0  501    0  0.00000000000E+00  0.00000000000E+00  0.17288162502E+04  0.17288162502E+04  0.25500000920E-02 0.  1.
       -2   -1    0    0    0  501  0.00000000000E+00  0.00000000000E+00 -0.84109540010E+03  0.84109540010E+03  0.25500000920E-02 0. -1.
    10030    2    1    2    0    0  0.00000000000E+00  0.00000000000E+00  0.88772085012E+03  0.25699116503E+04  0.24117208758E+04 0.  0.
        1    1    3    3  502    0  0.24613840514E+03  0.72129548407E+01 -0.81401870314E+03  0.85044846422E+03  0.50400001928E-02 0. -1.
       -1    1    3    3    0  502 -0.24613840514E+03 -0.72129548407E+01  0.17017395533E+04  0.17194631861E+04  0.50400001928E-02 0.  1.
</event>
<event>
 5   0  0.5510176E-07  0.2395373E+04  0.7818609E-02  0.8441238E-01
       -1   -1    0    0    0  501  0.00000000000E+00  0.00000000000E+00  0.17036477346E+04  0.17036477346E+04  0.50400001928E-02 0. -1.
        1   -1    0    0  501    0  0.00000000000E+00  0.00000000000E+00 -0.84198889631E+03  0.84198889633E+03  0.50400001928E-02 0.  1.
    10030    2    1    2    0    0  0.00000000000E+00  0.00000000000E+00  0.86165883828E+03  0.25456366309E+04  0.23953726021E+04 0.  0.
        3    1    3    3  502    0 -0.42412358789E+03  0.20664952964E+03 -0.73907646319E+03  0.87682317177E+03  0.10100000352E+00 0.  1.
       -3    1    3    3    0  502  0.42412358789E+03 -0.20664952964E+03  0.16007353015E+04  0.16688134592E+04  0.10100000352E+00 0. -1.
</event>
<event>
 5   0  0.1275948E-06  0.2399698E+04  0.7818609E-02  0.8439617E-01
        2   -1    0    0  501    0  0.00000000000E+00  0.00000000000E+00  0.13480600471E+04  0.13480600471E+04  0.25500000920E-02 0. -1.
       -2   -1    0    0    0  501  0.00000000000E+00  0.00000000000E+00 -0.10679325501E+04  0.10679325502E+04  0.25500000920E-02 0.  1.
    10030    2    1    2    0    0  0.00000000000E+00  0.00000000000E+00  0.28012749698E+03  0.24159925973E+04  0.23996976509E+04 0.  0.
        1    1    3    3  502    0  0.45843139402E+03 -0.52121322676E+03  0.11253894399E+04  0.13222420211E+04  0.50400001928E-02 0. -1.
       -1    1    3    3    0  502 -0.45843139402E+03  0.52121322676E+03 -0.84526194294E+03  0.10937505762E+04  0.50400001928E-02 0.  1.
</event>
<event>
 5   0  0.1275948E-06  0.2398842E+04  0.7818609E-02  0.8439937E-01
       -2   -1    0    0    0  501  0.00000000000E+00  0.00000000000E+00  0.53015004343E+03  0.53015004344E+03  0.25500000920E-02 0. -1.
        2   -1    0    0  501    0  0.00000000000E+00  0.00000000000E+00 -0.27135916215E+04  0.27135916215E+04  0.25500000920E-02 0.  1.
    10030    2    1    2    0    0  0.00000000000E+00  0.00000000000E+00 -0.21834415781E+04  0.32437416649E+04  0.23988419840E+04 0.  0.
        1    1    3    3  502    0 -0.40785855454E+03  0.11200854848E+04 -0.12714714678E+04  0.17428653956E+04  0.50400001928E-02 0.  1.
       -1    1    3    3    0  502  0.40785855454E+03 -0.11200854848E+04 -0.91197011030E+03  0.15008762694E+04  0.50400001928E-02 0. -1.
</event>
<event>
 5   0  0.1307477E-06  0.2399897E+04  0.7818609E-02  0.8439542E-01
       -2   -1    0    0    0  501  0.00000000000E+00  0.00000000000E+00  0.49942362831E+03  0.49942362831E+03  0.25500000920E-02 0. -1.
        2   -1    0    0  501    0  0.00000000000E+00  0.00000000000E+00 -0.28830773250E+04  0.28830773250E+04  0.25500000920E-02 0.  1.
    10030    2    1    2    0    0  0.00000000000E+00  0.00000000000E+00 -0.23836536967E+04  0.33825009533E+04  0.23998974464E+04 0.  0.
        5    1    3    3  502    0 -0.86193409687E+03 -0.63288775870E+03 -0.42452208749E+03  0.11505296151E+04  0.46999998093E+01 0. -1.
       -5    1    3    3    0  502  0.86193409687E+03  0.63288775870E+03 -0.19591316092E+04  0.22319713382E+04  0.46999998093E+01 0.  1.
</event>
<event>
 5   0  0.1308662E-06  0.2399638E+04  0.7818609E-02  0.8439639E-01
       -2   -1    0    0    0  501  0.00000000000E+00  0.00000000000E+00  0.60028128081E+03  0.60028128082E+03  0.25500000920E-02 0.  1.
        2   -1    0    0  501    0  0.00000000000E+00  0.00000000000E+00 -0.23981527931E+04  0.23981527931E+04  0.25500000920E-02 0. -1.
    10030    2    1    2    0    0  0.00000000000E+00  0.00000000000E+00 -0.17978715123E+04  0.29984340739E+04  0.23996384980E+04 0.  0.
        3    1    3    3  502    0  0.10550216442E+03  0.46749744566E+03 -0.22733578536E+04  0.23233253128E+04  0.10100000352E+00 0. -1.
       -3    1    3    3    0  502 -0.10550216442E+03 -0.46749744566E+03  0.47548634129E+03  0.67510876113E+03  0.10100000352E+00 0.  1.
</event>
<event>
 5   0  0.5527286E-07  0.2400209E+04  0.7818609E-02  0.8439425E-01
        1   -1    0    0  501    0  0.00000000000E+00  0.00000000000E+00  0.10556083562E+04  0.10556083562E+04  0.50400001928E-02 0. -1.
       -1   -1    0    0    0  501  0.00000000000E+00  0.00000000000E+00 -0.13643801201E+04  0.13643801201E+04  0.50400001928E-02 0.  1.
    10030    2    1    2    0    0  0.00000000000E+00  0.00000000000E+00 -0.30877176387E+03  0.24199884763E+04  0.24002092041E+04 0.  0.
        1    1    3    3  502    0 -0.35847857222E+02  0.75546106441E+03  0.78508914103E+03  0.10901245104E+04  0.50400001928E-02 0. -1.
       -1    1    3    3    0  502  0.35847857222E+02 -0.75546106441E+03 -0.10938609049E+04  0.13298639660E+04  0.50400001928E-02 0.  1.
</event>
<event>
 5   0  0.5527286E-07  0.2400895E+04  0.7818609E-02  0.8439169E-01
       -1   -1    0    0    0  501  0.00000000000E+00  0.00000000000E+00  0.85629198315E+03  0.85629198316E+03  0.50400001928E-02 0. -1.
        1   -1    0    0  501    0  0.00000000000E+00  0.00000000000E+00 -0.16829235371E+04  0.16829235371E+04  0.50400001928E-02 0.  1.
    10030    2    1    2    0    0  0.00000000000E+00  0.00000000000E+00 -0.82663155396E+03  0.25392155203E+04  0.24008947775E+04 0.  0.
        1    1    3    3  502    0 -0.32528657291E+03  0.11182537810E+04 -0.72124453034E+03  0.13698527460E+04  0.50400001928E-02 0.  1.
       -1    1    3    3    0  502  0.32528657291E+03 -0.11182537810E+04 -0.10538702362E+03  0.11693627743E+04  0.50400001928E-02 0. -1.
</event>
<event>
 5   0  0.5527286E-07  0.2399779E+04  0.7818609E-02  0.8439586E-01
        1   -1    0    0  501    0  0.00000000000E+00  0.00000000000E+00  0.12550085733E+04  0.12550085733E+04  0.50400001928E-02 0. -1.
       -1   -1    0    0    0  501  0.00000000000E+00  0.00000000000E+00 -0.11471911670E+04  0.11471911670E+04  0.50400001928E-02 0.  1.
    10030    2    1    2    0    0  0.00000000000E+00  0.00000000000E+00  0.10781740630E+03  0.24021997404E+04  0.23997789481E+04 0.  0.
        1    1    3    3  502    0  0.81330210855E+03  0.28705879275E+03  0.88893943175E+03  0.12385783720E+04  0.50400001928E-02 0. -1.
       -1    1    3    3    0  502 -0.81330210855E+03 -0.28705879275E+03 -0.78112202545E+03  0.11636213684E+04  0.50400001928E-02 0.  1.
</event>
<event>
 5   0  0.1307477E-06  0.2401710E+04  0.7818609E-02  0.8438864E-01
       -2   -1    0    0    0  501  0.00000000000E+00  0.00000000000E+00  0.12940314577E+04  0.12940314577E+04  0.25500000920E-02 0. -1.
        2   -1    0    0  501    0  0.00000000000E+00  0.00000000000E+00 -0.11143877656E+04  0.11143877656E+04  0.25500000920E-02 0.  1.
    10030    2    1    2    0    0  0.00000000000E+00  0.00000000000E+00  0.17964369207E+03  0.24084192233E+04  0.24017100781E+04 0.  0.
        5    1    3    3  502    0  0.75442144277E+03 -0.23000947890E+03 -0.81823224733E+03  0.11364779691E+04  0.46999998093E+01 0.  1.
       -5    1    3    3    0  502 -0.75442144277E+03  0.23000947890E+03  0.99787593940E+03  0.12719412542E+04  0.46999998093E+01 0. -1.
</event>
<event>
 5   0  0.1275948E-06  0.2402486E+04  0.7818609E-02  0.8438573E-01
        2   -1    0    0  501    0  0.00000000000E+00  0.00000000000E+00  0.16416180067E+04  0.16416180067E+04  0.25500000920E-02 0. -1.
       -2   -1    0    0    0  501  0.00000000000E+00  0.00000000000E+00 -0.87900174637E+03  0.87900174637E+03  0.25500000920E-02 0.  1.
    10030    2    1    2    0    0  0.00000000000E+00  0.00000000000E+00  0.76261626038E+03  0.25206197531E+04  0.24024862912E+04 0.  0.
        1    1    3    3  502    0  0.79121129525E+02  0.11984463356E+04  0.40359709010E+03  0.12670534257E+04  0.50400001928E-02 0. -1.
       -1    1    3    3    0  502 -0.79121129525E+02 -0.11984463356E+04  0.35901917027E+03  0.12535663274E+04  0.50400001928E-02 0.  1.
</event>
<event>
 5   0  0.5452384E-07  0.2400001E+04  0.7818609E-02  0.8439503E-01
        1   -1    0    0  501    0  0.00000000000E+00  0.00000000000E+00  0.16963357694E+04  0.16963357694E+04  0.50400001928E-02 0.  1.
       -1   -1    0    0    0  501  0.00000000000E+00  0.00000000000E+00 -0.84888910197E+03  0.84888910199E+03  0.50400001928E-02 0. -1.
    10030    2    1    2    0    0  0.00000000000E+00  0.00000000000E+00  0.84744666745E+03  0.25452248714E+04  0.24000007900E+04 0.  0.
        5    1    3    3  502    0  0.61961365764E+03 -0.80861098635E+03  0.10962957797E+04  0.14965491434E+04  0.46999998093E+01 0.  1.
       -5    1    3    3    0  502 -0.61961365764E+03  0.80861098635E+03 -0.24884911220E+03  0.10486757281E+04  0.46999998093E+01 0. -1.
</event>
<event>
 5   0  0.5510176E-07  0.2393753E+04  0.7818609E-02  0.8441846E-01
       -1   -1    0    0    0  501  0.00000000000E+00  0.00000000000E+00  0.10171649719E+04  0.10171649719E+04  0.50400001928E-02 0.  1.
        1   -1    0    0  501    0  0.00000000000E+00  0.00000000000E+00 -0.14083389043E+04  0.14083389043E+04  0.50400001928E-02 0. -1.
    10030    2    1    2    0    0  0.00000000000E+00  0.00000000000E+00 -0.39117393242E+03  0.24255038762E+04  0.23937527040E+04 0.  0.
        3    1    3    3  502    0 -0.17369264179E+03  0.49358494547E+03  0.89512862907E+03  0.10368464230E+04  0.10100000352E+00 0.  1.
       -3    1    3    3    0  502  0.17369264179E+03 -0.49358494547E+03 -0.12863025615E+04  0.13886574531E+04  0.10100000352E+00 0. -1.
</event>
<event>
 5   0  0.1275948E-06  0.2401092E+04  0.7818609E-02  0.8439095E-01
       -2   -1    0    0    0  501  0.00000000000E+00  0.00000000000E+00  0.60968230386E+03  0.60968230387E+03  0.25500000920E-02 0.  1.
        2   -1    0    0  501    0  0.00000000000E+00  0.00000000000E+00 -0.23640360646E+04  0.23640360646E+04  0.25500000920E-02 0. -1.
    10030    2    1    2    0    0  0.00000000000E+00  0.00000000000E+00 -0.17543537608E+04  0.29737183685E+04  0.24010922134E+04 0.  0.
        1    1    3    3  502    0 -0.18840286042E+03 -0.82010265658E+03  0.18333644167E+03  0.86120627959E+03  0.50400001928E-02 0.  1.
       -1    1    3    3    0  502  0.18840286042E+03  0.82010265658E+03 -0.19376902024E+04  0.21125120889E+04  0.50400001928E-02 0. -1.
</event>
<event>
 5   0  0.5527286E-07  0.2400740E+04  0.7818609E-02  0.8439227E-01
        1   -1    0    0  501    0  0.00000000000E+00  0.00000000000E+00  0.12762638270E+04  0.12762638270E+04  0.50400001928E-02 0. -1.
       -1   -1    0    0    0  501  0.00000000000E+00  0.00000000000E+00 -0.11289893031E+04  0.11289893031E+04  0.50400001928E-02 0.  1.
    10030    2    1    2    0    0  0.00000000000E+00  0.00000000000E+00  0.14727452396E+03  0.24052531301E+04  0.24007400597E+04 0.  0.
        1    1    3    3  502    0 -0.67533203878E+03  0.97902946815E+03 -0.88890216154E+02  0.11926749485E+04  0.50400001928E-02 0.  1.
       -1    1    3    3    0  502  0.67533203878E+03 -0.97902946815E+03  0.23616474011E+03  0.12125781816E+04  0.50400001928E-02 0. -1.
</event>
<event>
 5   0  0.5690124E-07  0.2399980E+04  0.7818609E-02  0.8439511E-01
       -1   -1    0    0    0  501  0.00000000000E+00  0.00000000000E+00  0.86617888266E+03  0.86617888267E+03  0.50400001928E-02 0.  1.
        1   -1    0    0  501    0  0.00000000000E+00  0.00000000000E+00 -0.16624466532E+04  0.16624466532E+04  0.50400001928E-02 0. -1.
    10030    2    1    2    0    0  0.00000000000E+00  0.00000000000E+00 -0.79626777053E+03  0.25286255359E+04  0.23999801537E+04 0.  0.
        2    1    3    3  502    0 -0.16763333493E+03 -0.14628699356E+03  0.84425774937E+03  0.87308187866E+03  0.25500000920E-02 0.  1.
       -2    1    3    3    0  502  0.16763333493E+03  0.14628699356E+03 -0.16405255199E+04  0.16555436572E+04  0.25500000920E-02 0. -1.
</event>
<event>
 5   0  0.5363690E-07  0.2399752E+04  0.7818609E-02  0.8439596E-01
        1   -1    0    0  501    0  0.00000000000E+00  0.00000000000E+00  0.24554226520E+04  0.24554226520E+04  0.50400001928E-02 0.  1.
       -1   -1    0    0    0  501  0.00000000000E+00  0.00000000000E+00 -0.58633594872E+03  0.58633594874E+03  0.50400001928E-02 0. -1.
    10030    2    1    2    0    0  0.00000000000E+00  0.00000000000E+00  0.18690867033E+04  0.30417586008E+04  0.23997521290E+04 0.  0.
        4    1    3    3  502    0  0.61055027192E+03 -0.43458655310E+03 -0.25319671777E+03  0.79104190626E+03  0.12699999809E+01 0. -1.
       -4    1    3    3    0  502 -0.61055027192E+03  0.43458655310E+03  0.21222834211E+04  0.22507166945E+04  0.12699999809E+01 0.  1.
</event>
<event>
 5   0  0.5363690E-07  0.2400070E+04  0.7818609E-02  0.8439477E-01
       -1   -1    0    0    0  501  0.00000000000E+00  0.00000000000E+00  0.12151251386E+04  0.12151251386E+04  0.50400001928E-02 0. -1.
        1   -1    0    0  501    0  0.00000000000E+00  0.00000000000E+00 -0.11851324610E+04  0.11851324610E+04  0.50400001928E-02 0.  1.
    10030    2    1    2    0    0  0.00000000000E+00  0.00000000000E+00  0.29992677533E+02  0.24002575996E+04  0.24000702039E+04 0.  0.
        4    1    3    3  502    0  0.97794883102E+03 -0.66102459561E+03 -0.20122692750E+03  0.11974269587E+04  0.12699999809E+01 0. -1.
       -4    1    3    3    0  502 -0.97794883102E+03  0.66102459561E+03  0.23121960503E+03  0.12028306409E+04  0.12699999809E+01 0.  1.
</event>
<event>
 5   0  0.5527286E-07  0.2398953E+04  0.7818609E-02  0.8439896E-01
       -1   -1    0    0    0  501  0.00000000000E+00  0.00000000000E+00  0.92012205567E+03  0.92012205568E+03  0.50400001928E-02 0.  1.
        1   -1    0    0  501    0  0.00000000000E+00  0.00000000000E+00 -0.15636443003E+04  0.15636443003E+04  0.50400001928E-02 0. -1.
    10030    2    1    2    0    0  0.00000000000E+00  0.00000000000E+00 -0.64352224464E+03  0.24837663560E+04  0.23989527782E+04 0.  0.
        1    1    3    3  502    0  0.13398683311E+03  0.71212136483E+03 -0.13114182228E+04  0.14982947190E+04  0.50400001928E-02 0. -1.
       -1    1    3    3    0  502 -0.13398683311E+03 -0.71212136483E+03  0.66789597819E+03  0.98547163704E+03  0.50400001928E-02 0.  1.
</event>
<event>
 5   0  0.5510176E-07  0.2400725E+04  0.7818609E-02  0.8439232E-01
       -1   -1    0    0    0  501  0.00000000000E+00  0.00000000000E+00  0.80553594750E+03  0.80553594751E+03  0.50400001928E-02 0.  1.
        1   -1    0    0  501    0  0.00000000000E+00  0.00000000000E+00 -0.17887094234E+04  0.17887094234E+04  0.50400001928E-02 0. -1.
    10030    2    1    2    0    0  0.00000000000E+00  0.00000000000E+00 -0.98317347589E+03  0.25942453709E+04  0.24007246741E+04 0.  0.
        3    1    3    3  502    0  0.11316984939E+04 -0.37387103487E+03 -0.64573442422E+03  0.13555419538E+04  0.10100000352E+00 0.  1.
       -3    1    3    3    0  502 -0.11316984939E+04  0.37387103487E+03 -0.33743905167E+03  0.12387034171E+04  0.10100000352E+00 0. -1.
</event>
<event>
 5   0  0.5363690E-07  0.2399769E+04  0.7818609E-02  0.8439590E-01
        1   -1    0    0  501    0  0.00000000000E+00  0.00000000000E+00  0.22281601342E+04  0.22281601342E+04  0.50400001928E-02 0.  1.
       -1   -1    0    0    0  501  0.00000000000E+00  0.00000000000E+00 -0.64614877952E+03  0.64614877954E+03  0.50400001928E-02 0. -1.
    10030    2    1    2    0    0  0.00000000000E+00  0.00000000000E+00  0.15820113546E+04  0.28743089137E+04  0.23997691150E+04 0.  0.
        4    1    3    3  502    0 -0.61094809306E+03  0.73026345224E+03  0.16655876533E+04  0.19185218597E+04  0.12699999809E+01 0.  1.
       -4    1    3    3    0  502  0.61094809306E+03 -0.73026345224E+03 -0.83576298713E+02  0.95578705405E+03  0.12699999809E+01 0. -1.
</event>
<event>
 5   0  0.1308662E-06  0.2399876E+04  0.7818609E-02  0.8439550E-01
       -2   -1    0    0    0  501  0.00000000000E+00  0.00000000000E+00  0.72234420561E+03  0.72234420561E+03  0.25500000920E-02 0.  1.
        2   -1    0    0  501    0  0.00000000000E+00  0.00000000000E+00 -0.19933036857E+04  0.19933036857E+04  0.25500000920E-02 0. -1.
    10030    2    1    2    0    0  0.00000000000E+00  0.00000000000E+00 -0.12709594801E+04  0.27156478913E+04  0.23998761363E+04 0.  0.
        3    1    3    3  502    0  0.36302948477E+03 -0.10995781724E+04 -0.99150240495E+03  0.15244473074E+04  0.10100000352E+00 0.  1.
       -3    1    3    3    0  502 -0.36302948477E+03  0.10995781724E+04 -0.27945707514E+03  0.11912005839E+04  0.10100000352E+00 0. -1.
</event>
<event>
 5   0  0.5690124E-07  0.2396592E+04  0.7818609E-02  0.8440781E-01
       -1   -1    0    0    0  501  0.00000000000E+00  0.00000000000E+00  0.81624046888E+03  0.81624046890E+03  0.50400001928E-02 0. -1.
        1   -1    0    0  501    0  0.00000000000E+00  0.00000000000E+00 -0.17591792883E+04  0.17591792883E+04  0.50400001928E-02 0.  1.
    10030    2    1    2    0    0  0.00000000000E+00  0.00000000000E+00 -0.94293881937E+03  0.25754197572E+04  0.23965920196E+04 0.  0.
        2    1    3    3  502    0  0.23131277662E+03  0.26757480198E+03  0.75886742853E+03  0.83724646871E+03  0.25500000920E-02 0. -1.
       -2    1    3    3    0  502 -0.23131277662E+03 -0.26757480198E+03 -0.17018062479E+04  0.17381732884E+04  0.25500000920E-02 0.  1.
</event>
<event>
 5   0  0.5510176E-07  0.2400562E+04  0.7818609E-02  0.8439293E-01
        1   -1    0    0  501    0  0.00000000000E+00  0.00000000000E+00  0.16384948800E+04  0.16384948800E+04  0.50400001928E-02 0. -1.
       -1   -1    0    0    0  501  0.00000000000E+00  0.00000000000E+00 -0.87926733415E+03  0.87926733417E+03  0.50400001928E-02 0.  1.
    10030    2    1    2    0    0  0.00000000000E+00  0.00000000000E+00  0.75922754581E+03  0.25177622141E+04  0.24005624551E+04 0.  0.
        3    1    3    3  502    0  0.46375961043E+03  0.47135132481E+03 -0.67100519083E+03  0.94206848158E+03  0.10100000352E+00 0.  1.
       -3    1    3    3    0  502 -0.46375961043E+03 -0.47135132481E+03  0.14302327366E+04  0.15756937326E+04  0.10100000352E+00 0. -1.
</event>
<event>
 5   0  0.5690124E-07  0.2399904E+04  0.7818609E-02  0.8439539E-01
        1   -1    0    0  501    0  0.00000000000E+00  0.00000000000E+00  0.12690536171E+04  0.12690536171E+04  0.50400001928E-02 0. -1.
       -1   -1    0    0    0  501  0.00000000000E+00  0.00000000000E+00 -0.11346133700E+04  0.11346133700E+04  0.50400001928E-02 0.  1.
    10030    2    1    2    0    0  0.00000000000E+00  0.00000000000E+00  0.13444024709E+03  0.24036669871E+04  0.23999043324E+04 0.  0.
        2    1    3    3  502    0 -0.67265137643E+03 -0.29420671349E+03  0.10178487448E+04  0.12550033991E+04  0.25500000920E-02 0. -1.
       -2    1    3    3    0  502  0.67265137643E+03  0.29420671349E+03 -0.88340849771E+03  0.11486635880E+04  0.25500000920E-02 0.  1.
</event>
<event>
 5   0  0.1275948E-06  0.2401261E+04  0.7818609E-02  0.8439031E-01
       -2   -1    0    0    0  501  0.00000000000E+00  0.00000000000E+00  0.57698040069E+03  0.57698040070E+03  0.25500000920E-02 0. -1.
        2   -1    0    0  501    0  0.00000000000E+00  0.00000000000E+00 -0.24983760944E+04  0.24983760944E+04  0.25500000920E-02 0.  1.
    10030    2    1    2    0    0  0.00000000000E+00  0.00000000000E+00 -0.19213956937E+04  0.30753564951E+04  0.24012613686E+04 0.  0.
        1    1    3    3  502    0 -0.10359120957E+03  0.91313861257E+03 -0.19502277670E+04  0.21559085341E+04  0.50400001928E-02 0.  1.
       -1    1    3    3    0  502  0.10359120957E+03 -0.91313861257E+03  0.28832073245E+02  0.91944796097E+03  0.50400001928E-02 0. -1.
</event>
<event>
 5   0  0.5527286E-07  0.2400020E+04  0.7818609E-02  0.8439496E-01
       -1   -1    0    0    0  501  0.00000000000E+00  0.00000000000E+00  0.10243971125E+04  0.10243971125E+04  0.50400001928E-02 0.  1.
        1   -1    0    0  501    0  0.00000000000E+00  0.00000000000E+00 -0.14057278626E+04  0.14057278626E+04  0.50400001928E-02 0. -1.
    10030    2    1    2    0    0  0.00000000000E+00  0.00000000000E+00 -0.38133075011E+03  0.24301249751E+04  0.24000196361E+04 0.  0.
        1    1    3    3  502    0  0.92708374737E+03 -0.53340314217E+03 -0.74156771540E+03  0.13015090715E+04  0.50400001928E-02 0. -1.
       -1    1    3    3    0  502 -0.92708374737E+03  0.53340314217E+03  0.36023696529E+03  0.11286159036E+04  0.50400001928E-02 0.  1.
</event>
<event>
 5   0  0.1336057E-06  0.2399594E+04  0.7818609E-02  0.8439656E-01
       -2   -1    0    0    0  501  0.00000000000E+00  0.00000000000E+00  0.10682199836E+04  0.10682199836E+04  0.25500000920E-02 0.  1.
        2   -1    0    0  501    0  0.00000000000E+00  0.00000000000E+00 -0.13475807297E+04  0.13475807297E+04  0.25500000920E-02 0. -1.
    10030    2    1    2    0    0  0.00000000000E+00  0.00000000000E+00 -0.27936074608E+03  0.24158007133E+04  0.23995938531E+04 0.  0.
        2    1    3    3  502    0 -0.39893064099E+02 -0.57973389678E+03  0.91708998951E+03  0.10856965029E+04  0.25500000920E-02 0.  1.
       -2    1    3    3    0  502  0.39893064099E+02  0.57973389678E+03 -0.11964507356E+04  0.13301042103E+04  0.25500000920E-02 0. -1.
</event>
<event>
 5   0  0.5452384E-07  0.2398601E+04  0.7818609E-02  0.8440027E-01
       -1   -1    0    0    0  501  0.00000000000E+00  0.00000000000E+00  0.10143423165E+04  0.10143423165E+04  0.50400001928E-02 0. -1.
        1   -1    0    0  501    0  0.00000000000E+00  0.00000000000E+00 -0.14179846056E+04  0.14179846056E+04  0.50400001928E-02 0.  1.
    10030    2    1    2    0    0  0.00000000000E+00  0.00000000000E+00 -0.40364228915E+03  0.24323269221E+04  0.23986010836E+04 0.  0.
        5    1    3    3  502    0 -0.88785070483E+03 -0.76675612117E+03 -0.45453570660E+03  0.12581011970E+04  0.46999998093E+01 0. -1.
       -5    1    3    3    0  502  0.88785070483E+03  0.76675612117E+03  0.50893417456E+02  0.11742257250E+04  0.46999998093E+01 0.  1.
</event>
<event>
 5   0  0.5527286E-07  0.2401855E+04  0.7818609E-02  0.8438810E-01
       -1   -1    0    0    0  501  0.00000000000E+00  0.00000000000E+00  0.12446696325E+04  0.12446696325E+04  0.50400001928E-02 0.  1.
        1   -1    0    0  501    0  0.00000000000E+00  0.00000000000E+00 -0.11587222353E+04  0.11587222354E+04  0.50400001928E-02 0. -1.
    10030    2    1    2    0    0  0.00000000000E+00  0.00000000000E+00  0.85947397182E+02  0.24033918679E+04  0.24018545992E+04 0.  0.
        1    1    3    3  502    0  0.93546918756E+03  0.61534275155E+03  0.47739102883E+03  0.12172310780E+04  0.50400001928E-02 0. -1.
       -1    1    3    3    0  502 -0.93546918756E+03 -0.61534275155E+03 -0.39144363164E+03  0.11861607899E+04  0.50400001928E-02 0.  1.
</event>
<event>
 5   0  0.5510176E-07  0.2397300E+04  0.7818609E-02  0.8440515E-01
        1   -1    0    0  501    0  0.00000000000E+00  0.00000000000E+00  0.98328144751E+03  0.98328144753E+03  0.50400001928E-02 0. -1.
       -1   -1    0    0    0  501  0.00000000000E+00  0.00000000000E+00 -0.14611903646E+04  0.14611903646E+04  0.50400001928E-02 0.  1.
    10030    2    1    2    0    0  0.00000000000E+00  0.00000000000E+00 -0.47790891711E+03  0.24444718122E+04  0.23972996282E+04 0.  0.
        3    1    3    3  502    0  0.95288394603E+03 -0.40176079546E+03 -0.85698469336E+03  0.13430645279E+04  0.10100000352E+00 0.  1.
       -3    1    3    3    0  502 -0.95288394603E+03  0.40176079546E+03  0.37907577625E+03  0.11014072842E+04  0.10100000352E+00 0. -1.
</event>
<event>
 5   0  0.1308662E-06  0.2400107E+04  0.7818609E-02  0.8439464E-01
       -2   -1    0    0    0  501  0.00000000000E+00  0.00000000000E+00  0.11249790418E+04  0.11249790418E+04  0.25500000920E-02 0. -1.
        2   -1    0    0  501    0  0.00000000000E+00  0.00000000000E+00 -0.12801377555E+04  0.12801377555E+04  0.25500000920E-02 0.  1.
    10030    2    1    2    0    0  0.00000000000E+00  0.00000000000E+00 -0.15515871367E+03  0.24051167973E+04  0.24001067856E+04 0.  0.
        3    1    3    3  502    0 -0.11036197378E+04 -0.38155370032E+03  0.19970817728E+03  0.11846700461E+04  0.10100000352E+00 0. -1.
       -3    1    3    3    0  502  0.11036197378E+04  0.38155370032E+03 -0.35486689095E+03  0.12204467512E+04  0.10100000352E+00 0.  1.
</event>
<event>
 5   0  0.1291468E-06  0.2398673E+04  0.7818609E-02  0.8440001E-01
       -2   -1    0    0    0  501  0.00000000000E+00  0.00000000000E+00  0.77109470745E+03  0.77109470746E+03  0.25500000920E-02 0. -1.
        2   -1    0    0  501    0  0.00000000000E+00  0.00000000000E+00 -0.18654097245E+04  0.18654097245E+04  0.25500000920E-02 0.  1.
    10030    2    1    2    0    0  0.00000000000E+00  0.00000000000E+00 -0.10943150171E+04  0.26365044320E+04  0.23986726044E+04 0.  0.
        4    1    3    3  502    0 -0.50283380910E+03 -0.86474126938E+03  0.18010096127E+03  0.10163942501E+04  0.12699999809E+01 0. -1.
       -4    1    3    3    0  502  0.50283380910E+03  0.86474126938E+03 -0.12744159783E+04  0.16201101818E+04  0.12699999809E+01 0.  1.
</event>
<event>
 5   0  0.5527286E-07  0.2401699E+04  0.7818609E-02  0.8438868E-01
       -1   -1    0    0    0  501  0.00000000000E+00  0.00000000000E+00  0.11785514077E+04  0.11785514077E+04  0.50400001928E-02 0. -1.
        1   -1    0    0  501    0  0.00000000000E+00  0.00000000000E+00 -0.12235692766E+04  0.12235692766E+04  0.50400001928E-02 0.  1.
    10030    2    1    2    0    0  0.00000000000E+00  0.00000000000E+00 -0.45017868917E+02  0.24021206843E+04  0.24016988098E+04 0.  0.
        1    1    3    3  502    0  0.80040803520E+01 -0.35980260522E+03 -0.11683616556E+04  0.12225346369E+04  0.50400001928E-02 0.  1.
       -1    1    3    3    0  502 -0.80040803520E+01  0.35980260522E+03  0.11233437867E+04  0.11795860474E+04  0.50400001928E-02 0. -1.
</event>
<event>
 5   0  0.5452384E-07  0.2399982E+04  0.7818609E-02  0.8439510E-01
       -1   -1    0    0    0  501  0.00000000000E+00  0.00000000000E+00  0.92952076123E+03  0.92952076124E+03  0.50400001928E-02 0.  1.
        1   -1    0    0  501    0  0.00000000000E+00  0.00000000000E+00 -0.15491615309E+04  0.15491615309E+04  0.50400001928E-02 0. -1.
    10030    2    1    2    0    0  0.00000000000E+00  0.00000000000E+00 -0.61964076968E+03  0.24786822922E+04  0.23999815045E+04 0.  0.
        5    1    3    3  502    0  0.98927426694E+03 -0.17401405346E+03 -0.98786343998E+03  0.14088437572E+04  0.46999998093E+01 0. -1.
       -5    1    3    3    0  502 -0.98927426694E+03  0.17401405346E+03  0.36822267030E+03  0.10698385350E+04  0.46999998093E+01 0.  1.
</event>
<event>
 5   0  0.1308662E-06  0.2400127E+04  0.7818609E-02  0.8439456E-01
       -2   -1    0    0    0  501  0.00000000000E+00  0.00000000000E+00  0.92866809038E+03  0.92866809038E+03  0.25500000920E-02 0. -1.
        2   -1    0    0  501    0  0.00000000000E+00  0.00000000000E+00 -0.15507722530E+04  0.15507722530E+04  0.25500000920E-02 0.  1.
    10030    2    1    2    0    0  0.00000000000E+00  0.00000000000E+00 -0.62210416263E+03  0.24794403434E+04  0.24001272523E+04 0.  0.
        3    1    3    3  502    0 -0.15674321641E+03 -0.77865234270E+03 -0.12403823538E+04  0.14728938524E+04  0.10100000352E+00 0.  1.
       -3    1    3    3    0  502  0.15674321641E+03  0.77865234270E+03  0.61827819114E+03  0.10065464910E+04  0.10100000352E+00 0. -1.
</event>
<event>
 5   0  0.5363690E-07  0.2401374E+04  0.7818609E-02  0.8438989E-01
       -1   -1    0    0    0  501  0.00000000000E+00  0.00000000000E+00  0.62290359219E+03  0.62290359221E+03  0.50400001928E-02 0.  1.
        1   -1    0    0  501    0  0.00000000000E+00  0.00000000000E+00 -0.23144023277E+04  0.23144023277E+04  0.50400001928E-02 0. -1.
    10030    2    1    2    0    0  0.00000000000E+00  0.00000000000E+00 -0.16914987355E+04  0.29373059199E+04  0.24013742097E+04 0.  0.
        4    1    3    3  502    0 -0.63611821742E+03  0.70348864998E+03  0.54848973135E+02  0.95002773114E+03  0.12699999809E+01 0.  1.
       -4    1    3    3    0  502  0.63611821742E+03 -0.70348864998E+03 -0.17463477087E+04  0.19872781888E+04  0.12699999809E+01 0. -1.
</event>
<event>
 5   0  0.1308662E-06  0.2399751E+04  0.7818609E-02  0.8439597E-01
       -2   -1    0    0    0  501  0.00000000000E+00  0.00000000000E+00  0.99805625176E+03  0.99805625176E+03  0.25500000920E-02 0.  1.
        2   -1    0    0  501    0  0.00000000000E+00  0.00000000000E+00 -0.14425046447E+04  0.14425046447E+04  0.25500000920E-02 0. -1.
    10030    2    1    2    0    0  0.00000000000E+00  0.00000000000E+00 -0.44444839293E+03  0.24405608964E+04  0.23997506361E+04 0.  0.
        3    1    3    3  502    0  0.62656542578E+02  0.11495663561E+04  0.12156614695E+03  0.11576730919E+04  0.10100000352E+00 0. -1.
       -3    1    3    3    0  502 -0.62656542578E+02 -0.11495663561E+04 -0.56601453988E+03  0.12828878045E+04  0.10100000352E+00 0.  1.
</event>
<event>
 5   0  0.5452384E-07  0.2403094E+04  0.7818609E-02  0.8438346E-01
       -1   -1    0    0    0  501  0.00000000000E+00  0.00000000000E+00  0.67041585455E+03  0.67041585457E+03  0.50400001928E-02 0. -1.
        1   -1    0    0  501    0  0.00000000000E+00  0.00000000000E+00 -0.21534615907E+04  0.21534615907E+04  0.50400001928E-02 0.  1.
    10030    2    1    2    0    0  0.00000000000E+00  0.00000000000E+00 -0.14830457362E+04  0.28238774453E+04  0.24030936666E+04 0.  0.
        5    1    3    3  502    0 -0.41013747812E+02  0.42200793804E+02 -0.21517563524E+04  0.21525660326E+04  0.46999998093E+01 0.  1.
       -5    1    3    3    0  502  0.41013747812E+02 -0.42200793804E+02  0.66871061626E+03  0.67131141269E+03  0.46999998093E+01 0. -1.
</event>
<event>
 5   0  0.5690124E-07  0.2399725E+04  0.7818609E-02  0.8439606E-01
        1   -1    0    0  501    0  0.00000000000E+00  0.00000000000E+00  0.15305805643E+04  0.15305805643E+04  0.50400001928E-02 0. -1.
       -1   -1    0    0    0  501  0.00000000000E+00  0.00000000000E+00 -0.94060423367E+03  0.94060423368E+03  0.50400001928E-02 0.  1.
    10030    2    1    2    0    0  0.00000000000E+00  0.00000000000E+00  0.58997633062E+03  0.24711847980E+04  0.23997254499E+04 0.  0.
        2    1    3    3  502    0 -0.32159138297E+03 -0.24936178547E+03  0.14573464391E+04  0.15130964812E+04  0.25500000920E-02 0. -1.
       -2    1    3    3    0  502  0.32159138297E+03  0.24936178547E+03 -0.86737010852E+03  0.95808831681E+03  0.25500000920E-02 0.  1.
</event>
<event>
 5   0  0.1307477E-06  0.2400374E+04  0.7818609E-02  0.8439363E-01
       -2   -1    0    0    0  501  0.00000000000E+00  0.00000000000E+00  0.16792827771E+04  0.16792827771E+04  0.25500000920E-02 0.  1.
        2   -1    0    0  501    0  0.00000000000E+00  0.00000000000E+00 -0.85777656997E+03  0.85777656998E+03  0.25500000920E-02 0. -1.
    10030    2    1    2    0    0  0.00000000000E+00  0.00000000000E+00  0.82150620712E+03  0.25370593471E+04  0.24003744879E+04 0.  0.
        5    1    3    3  502    0  0.52463444813E+03 -0.14968655547E+03  0.15406346934E+04  0.16343881784E+04  0.46999998093E+01 0.  1.
       -5    1    3    3    0  502 -0.52463444813E+03  0.14968655547E+03 -0.71912848628E+03  0.90267116872E+03  0.46999998093E+01 0. -1.
</event>
<event>
 5   0  0.5527286E-07  0.2400010E+04  0.7818609E-02  0.8439500E-01
       -1   -1    0    0    0  501  0.00000000000E+00  0.00000000000E+00  0.14181661074E+04  0.14181661074E+04  0.50400001928E-02 0.  1.
        1   -1    0    0  501    0  0.00000000000E+00  0.00000000000E+00 -0.10154039048E+04  0.10154039048E+04  0.50400001928E-02 0. -1.
    10030    2    1    2    0    0  0.00000000000E+00  0.00000000000E+00  0.40276220266E+03  0.24335700122E+04  0.24000095026E+04 0.  0.
        1    1    3    3  502    0  0.56107389977E+03 -0.82605662001E+03 -0.47338506143E+03  0.11051094411E+04  0.50400001928E-02 0. -1.
       -1    1    3    3    0  502 -0.56107389977E+03  0.82605662001E+03  0.87614726410E+03  0.13284605711E+04  0.50400001928E-02 0.  1.
</event>
<event>
 5   0  0.5527286E-07  0.2399459E+04  0.7818609E-02  0.8439706E-01
       -1   -1    0    0    0  501  0.00000000000E+00  0.00000000000E+00  0.79446774026E+03  0.79446774027E+03  0.50400001928E-02 0. -1.
        1   -1    0    0  501    0  0.00000000000E+00  0.00000000000E+00 -0.18117165593E+04  0.18117165593E+04  0.50400001928E-02 0.  1.
    10030    2    1    2    0    0  0.00000000000E+00  0.00000000000E+00 -0.10172488191E+04  0.26061842996E+04  0.23994585730E+04 0.  0.
        1    1    3    3  502    0 -0.18644249594E+03 -0.31551284169E+03  0.73218186162E+03  0.81877923525E+03  0.50400001928E-02 0. -1.
       -1    1    3    3    0  502  0.18644249594E+03  0.31551284169E+03 -0.17494306807E+04  0.17874050644E+04  0.50400001928E-02 0.  1.
</event>
<event>
 5   0  0.1308662E-06  0.2400166E+04  0.7818609E-02  0.8439441E-01
       -2   -1    0    0    0  501  0.00000000000E+00  0.00000000000E+00  0.84993106670E+03  0.84993106670E+03  0.25500000920E-02 0. -1.
        2   -1    0    0  501    0  0.00000000000E+00  0.00000000000E+00 -0.16944896422E+04  0.16944896422E+04  0.25500000920E-02 0.  1.
    10030    2    1    2    0    0  0.00000000000E+00  0.00000000000E+00 -0.84455857554E+03  0.25444207089E+04  0.24001661519E+04 0.  0.
        3    1    3    3  502    0  0.53501240326E+03  0.56263020327E+02  0.71494652127E+03  0.89473590381E+03  0.10100000352E+00 0. -1.
       -3    1    3    3    0  502 -0.53501240326E+03 -0.56263020327E+02 -0.15595050968E+04  0.16496848051E+04  0.10100000352E+00 0.  1.
</event>
<event>
 5   0  0.5363690E-07  0.2399589E+04  0.7818609E-02  0.8439657E-01
       -1   -1    0    0    0  501  0.00000000000E+00  0.00000000000E+00  0.16961535680E+04  0.16961535680E+04  0.50400001928E-02 0.  1.
        1   -1    0    0  501    0  0.00000000000E+00  0.00000000000E+00 -0.84868903936E+03  0.84868903937E+03  0.50400001928E-02 0. -1.
    10030    2    1    2    0    0  0.00000000000E+00  0.00000000000E+00  0.84746452867E+03  0.25448426074E+04  0.23995890834E+04 0.  0.
        4    1    3    3  502    0 -0.61198868151E+03  0.88836942814E+03 -0.13319881093E+03  0.10869562656E+04  0.12699999809E+01 0.  1.
       -4    1    3    3    0  502  0.61198868151E+03 -0.88836942814E+03  0.98066333959E+03  0.14578863418E+04  0.12699999809E+01 0. -1.
</event>
<event>
 5   0  0.5527286E-07  0.2401568E+04  0.7818609E-02  0.8438917E-01
        1   -1    0    0  501    0  0.00000000000E+00  0.00000000000E+00  0.12528865538E+04  0.12528865538E+04  0.50400001928E-02 0.  1.
       -1   -1    0    0    0  501  0.00000000000E+00  0.00000000000E+00 -0.11508479944E+04  0.11508479944E+04  0.50400001928E-02 0. -1.
    10030    2    1    2    0    0  0.00000000000E+00  0.00000000000E+00  0.10203855943E+03  0.24037345482E+04  0.24015678026E+04 0.  0.
        1    1    3    3  502    0  0.57392159107E+03 -0.63470798084E+03  0.89418168959E+03  0.12376595282E+04  0.50400001928E-02 0.  1.
       -1    1    3    3    0  502 -0.57392159107E+03  0.63470798084E+03 -0.79214313015E+03  0.11660750200E+04  0.50400001928E-02 0. -1.
</event>
<event>
 5   0  0.1307477E-06  0.2399902E+04  0.7818609E-02  0.8439540E-01
        2   -1    0    0  501    0  0.00000000000E+00  0.00000000000E+00  0.13521403229E+04  0.13521403229E+04  0.25500000920E-02 0.  1.
       -2   -1    0    0    0  501  0.00000000000E+00  0.00000000000E+00 -0.10648908482E+04  0.10648908483E+04  0.25500000920E-02 0. -1.
    10030    2    1    2    0    0  0.00000000000E+00  0.00000000000E+00  0.28724947463E+03  0.24170311711E+04  0.23999015441E+04 0.  0.
        5    1    3    3  502    0  0.79516205108E+03  0.26603031013E+03 -0.72087545489E+03  0.11057749883E+04  0.46999998093E+01 0. -1.
       -5    1    3    3    0  502 -0.79516205108E+03 -0.26603031013E+03  0.10081249295E+04  0.13112561828E+04  0.46999998093E+01 0.  1.
</event>
<event>
 5   0  0.5452384E-07  0.2399710E+04  0.7818609E-02  0.8439612E-01
        1   -1    0    0  501    0  0.00000000000E+00  0.00000000000E+00  0.50252665298E+03  0.50252665300E+03  0.50400001928E-02 0. -1.
       -1   -1    0    0    0  501  0.00000000000E+00  0.00000000000E+00 -0.28648263521E+04  0.28648263521E+04  0.50400001928E-02 0.  1.
    10030    2    1    2    0    0  0.00000000000E+00  0.00000000000E+00 -0.23622996991E+04  0.33673530051E+04  0.23997096476E+04 0.  0.
        5    1    3    3  502    0 -0.72997052050E+02 -0.44838274641E+03  0.37716851663E+03  0.59046916670E+03  0.46999998093E+01 0. -1.
       -5    1    3    3    0  502  0.72997052050E+02  0.44838274641E+03 -0.27394682158E+04  0.27768838384E+04  0.46999998093E+01 0.  1.
</event>
<event>
 5   0  0.1308662E-06  0.2399419E+04  0.7818609E-02  0.8439721E-01
        2   -1    0    0  501    0  0.00000000000E+00  0.00000000000E+00  0.26439969570E+04  0.26439969570E+04  0.25500000920E-02 0. -1.
       -2   -1    0    0    0  501  0.00000000000E+00  0.00000000000E+00 -0.54436614313E+03  0.54436614313E+03  0.25500000920E-02 0.  1.
    10030    2    1    2    0    0  0.00000000000E+00  0.00000000000E+00  0.20996308138E+04  0.31883631001E+04  0.23994186178E+04 0.  0.
        3    1    3    3  502    0  0.41341582941E+03  0.71860422437E+03  0.22021272265E+04  0.23530127520E+04  0.10100000352E+00 0. -1.
       -3    1    3    3    0  502 -0.41341582941E+03 -0.71860422437E+03 -0.10249641262E+03  0.83535034811E+03  0.10100000352E+00 0.  1.
</event>
<event>
 5   0  0.5690124E-07  0.2401624E+04  0.7818609E-02  0.8438896E-01
       -1   -1    0    0    0  501  0.00000000000E+00  0.00000000000E+00  0.86825397071E+03  0.86825397073E+03  0.50400001928E-02 0. -1.
        1   -1    0    0  501    0  0.00000000000E+00  0.00000000000E+00 -0.16607456232E+04  0.16607456232E+04  0.50400001928E-02 0.  1.
    10030    2    1    2    0    0  0.00000000000E+00  0.00000000000E+00 -0.79249165253E+03  0.25289995940E+04  0.24016236023E+04 0.  0.
        2    1    3    3  502    0  0.31248791924E+02  0.33628598937E+03  0.81720986503E+03  0.88424923927E+03  0.25500000920E-02 0. -1.
       -2    1    3    3    0  502 -0.31248791924E+02 -0.33628598937E+03 -0.16097015176E+04  0.16447503547E+04  0.25500000920E-02 0.  1.
</event>
<event>
 5   0  0.5363690E-07  0.2400598E+04  0.7818609E-02  0.8439280E-01
        1   -1    0    0  501    0  0.00000000000E+00  0.00000000000E+00  0.20793159010E+04  0.20793159010E+04  0.50400001928E-02 0. -1.
       -1   -1    0    0    0  501  0.00000000000E+00  0.00000000000E+00 -0.69288068239E+03  0.69288068240E+03  0.50400001928E-02 0.  1.
    10030    2    1    2    0    0  0.00000000000E+00  0.00000000000E+00  0.13864352186E+04  0.27721965834E+04  0.24005981091E+04 0.  0.
        4    1    3    3  502    0 -0.31196895507E+03 -0.15776721269E+03  0.20192215357E+04  0.20492614146E+04  0.12699999809E+01 0. -1.
       -4    1    3    3    0  502  0.31196895507E+03  0.15776721269E+03 -0.63278631707E+03  0.72293516881E+03  0.12699999809E+01 0.  1.
</event>
<event>
 5   0  0.5527286E-07  0.2400310E+04  0.7818609E-02  0.8439388E-01
        1   -1    0    0  501    0  0.00000000000E+00  0.00000000000E+00  0.25209122193E+04  0.25209122193E+04  0.50400001928E-02 0. -1.
       -1   -1    0    0    0  501  0.00000000000E+00  0.00000000000E+00 -0.57136913374E+03  0.57136913376E+03  0.50400001928E-02 0.  1.
    10030    2    1    2    0    0  0.00000000000E+00  0.00000000000E+00  0.19495430856E+04  0.30922813531E+04  0.24003095059E+04 0.  0.
        1    1    3    3  502    0 -0.95649973483E+03  0.22289947027E+03  0.86139583876E+02  0.98589854676E+03  0.50400001928E-02 0.  1.
       -1    1    3    3    0  502  0.95649973483E+03 -0.22289947027E+03  0.18634035017E+04  0.21063828063E+04  0.50400001928E-02 0. -1.
</event>
<event>
 5   0  0.5363690E-07  0.2400328E+04  0.7818609E-02  0.8439381E-01
        1   -1    0    0  501    0  0.00000000000E+00  0.00000000000E+00  0.17897312156E+04  0.17897312156E+04  0.50400001928E-02 0.  1.
       -1   -1    0    0    0  501  0.00000000000E+00  0.00000000000E+00 -0.80480972942E+03  0.80480972944E+03  0.50400001928E-02 0. -1.
    10030    2    1    2    0    0  0.00000000000E+00  0.00000000000E+00  0.98492148622E+03  0.25945409451E+04  0.24003275572E+04 0.  0.
        4    1    3    3  502    0 -0.58953037111E+03  0.35624598442E+03 -0.56987989320E+03  0.89399215066E+03  0.12699999809E+01 0. -1.
       -4    1    3    3    0  502  0.58953037111E+03 -0.35624598442E+03  0.15548013794E+04  0.17005487944E+04  0.12699999809E+01 0.  1.
</event>
<event>
 5   0  0.1336057E-06  0.2400758E+04  0.7818609E-02  0.8439220E-01
        2   -1    0    0  501    0  0.00000000000E+00  0.00000000000E+00  0.15919647867E+04  0.15919647867E+04  0.25500000920E-02 0.  1.
       -2   -1    0    0    0  501  0.00000000000E+00  0.00000000000E+00 -0.90511409691E+03  0.90511409692E+03  0.25500000920E-02 0. -1.
    10030    2    1    2    0    0  0.00000000000E+00  0.00000000000E+00  0.68685068975E+03  0.24970788836E+04  0.24007580221E+04 0.  0.
        2    1    3    3  502    0 -0.60906141251E+03  0.27780709911E+03 -0.69293256551E+03  0.96347710345E+03  0.25500000920E-02 0. -1.
       -2    1    3    3    0  502  0.60906141251E+03 -0.27780709911E+03  0.13797832553E+04  0.15336017801E+04  0.25500000920E-02 0.  1.
</event>
<event>
 5   0  0.1275948E-06  0.2399351E+04  0.7818609E-02  0.8439747E-01
        2   -1    0    0  501    0  0.00000000000E+00  0.00000000000E+00  0.18096459217E+04  0.18096459217E+04  0.25500000920E-02 0.  1.
       -2   -1    0    0    0  501  0.00000000000E+00  0.00000000000E+00 -0.79530526599E+03  0.79530526600E+03  0.25500000920E-02 0. -1.
    10030    2    1    2    0    0  0.00000000000E+00  0.00000000000E+00  0.10143406557E+04  0.26049511877E+04  0.23993506881E+04 0.  0.
        1    1    3    3  502    0  0.11599221847E+04 -0.14399663049E+03  0.80064106042E+03  0.14167500174E+04  0.50400001928E-02 0.  1.
       -1    1    3    3    0  502 -0.11599221847E+04  0.14399663049E+03  0.21369959528E+03  0.11882011703E+04  0.50400001928E-02 0. -1.
</event>
<event>
 5   0  0.1308662E-06  0.2399014E+04  0.7818609E-02  0.8439873E-01
       -2   -1    0    0    0  501  0.00000000000E+00  0.00000000000E+00  0.80062079532E+03  0.80062079532E+03  0.25500000920E-02 0. -1.
        2   -1    0    0  501    0  0.00000000000E+00  0.00000000000E+00 -0.17971270989E+04  0.17971270989E+04  0.25500000920E-02 0.  1.
    10030    2    1    2    0    0  0.00000000000E+00  0.00000000000E+00 -0.99650630355E+03  0.25977478942E+04  0.23990142369E+04 0.  0.
        3    1    3    3  502    0 -0.86678171847E+03  0.82903770669E+03 -0.48281554741E+03  0.12929520214E+04  0.10100000352E+00 0.  1.
       -3    1    3    3    0  502  0.86678171847E+03 -0.82903770669E+03 -0.51369075614E+03  0.13047958728E+04  0.10100000352E+00 0. -1.
</event>
<event>
 5   0  0.1275948E-06  0.2398685E+04  0.7818609E-02  0.8439996E-01
        2   -1    0    0  501    0  0.00000000000E+00  0.00000000000E+00  0.10940208554E+04  0.10940208554E+04  0.25500000920E-02 0. -1.
       -2   -1    0    0    0  501  0.00000000000E+00  0.00000000000E+00 -0.13148031538E+04  0.13148031538E+04  0.25500000920E-02 0.  1.
    10030    2    1    2    0    0  0.00000000000E+00  0.00000000000E+00 -0.22078229842E+03  0.24088240092E+04  0.23986846987E+04 0.  0.
        1    1    3    3  502    0  0.88392456386E+02 -0.97720396938E+03  0.58222070696E+03  0.11409302239E+04  0.50400001928E-02 0. -1.
       -1    1    3    3    0  502 -0.88392456386E+02  0.97720396938E+03 -0.80300300538E+03  0.12678937853E+04  0.50400001928E-02 0.  1.
</event>
<event>
 5   0  0.1291468E-06  0.2400479E+04  0.7818609E-02  0.8439324E-01
        2   -1    0    0  501    0  0.00000000000E+00  0.00000000000E+00  0.27397311778E+04  0.27397311778E+04  0.25500000920E-02 0. -1.
       -2   -1    0    0    0  501  0.00000000000E+00  0.00000000000E+00 -0.52580895825E+03  0.52580895825E+03  0.25500000920E-02 0.  1.
    10030    2    1    2    0    0  0.00000000000E+00  0.00000000000E+00  0.22139222196E+04  0.32655401361E+04  0.24004792825E+04 0.  0.
        4    1    3    3  502    0  0.96558326905E+03 -0.21092796746E+03  0.20333440789E+04  0.22608253831E+04  0.12699999809E+01 0. -1.
       -4    1    3    3    0  502 -0.96558326905E+03  0.21092796746E+03  0.18057814064E+03  0.10047147529E+04  0.12699999809E+01 0.  1.
</event>
<event>
 5   0  0.5510176E-07  0.2400196E+04  0.7818609E-02  0.8439430E-01
       -1   -1    0    0    0  501  0.00000000000E+00  0.00000000000E+00  0.99958888800E+03  0.99958888801E+03  0.50400001928E-02 0. -1.
        1   -1    0    0  501    0  0.00000000000E+00  0.00000000000E+00 -0.14408281458E+04  0.14408281458E+04  0.50400001928E-02 0.  1.
    10030    2    1    2    0    0  0.00000000000E+00  0.00000000000E+00 -0.44123925781E+03  0.24404170338E+04  0.24001964954E+04 0.  0.
        3    1    3    3  502    0 -0.50873717272E+02 -0.54860759473E+03  0.86339678055E+03  0.10242130828E+04  0.10100000352E+00 0. -1.
       -3    1    3    3    0  502  0.50873717272E+02  0.54860759473E+03 -0.13046360384E+04  0.14162039510E+04  0.10100000352E+00 0.  1.
</event>
<event>
 5   0  0.5527286E-07  0.2399778E+04  0.7818609E-02  0.8439587E-01
       -1   -1    0    0    0  501  0.00000000000E+00  0.00000000000E+00  0.10154900237E+04  0.10154900237E+04  0.50400001928E-02 0. -1.
        1   -1    0    0  501    0  0.00000000000E+00  0.00000000000E+00 -0.14177724544E+04  0.14177724544E+04  0.50400001928E-02 0.  1.
    10030    2    1    2    0    0  0.00000000000E+00  0.00000000000E+00 -0.40228243073E+03  0.24332624781E+04  0.23997781425E+04 0.  0.
        1    1    3    3  502    0  0.52590673793E+03 -0.91320927709E+03 -0.78291062404E+03  0.13128130583E+04  0.50400001928E-02 0.  1.
       -1    1    3    3    0  502 -0.52590673793E+03  0.91320927709E+03  0.38062819332E+03  0.11204494198E+04  0.50400001928E-02 0. -1.
</event>
<event>
 5   0  0.4483375E-07  0.2399841E+04  0.7818609E-02  0.8439563E-01
       -3   -1    0    0    0  501  0.00000000000E+00  0.00000000000E+00  0.11458205595E+04  0.11458205640E+04  0.10100000352E+00 0. -1.
        3   -1    0    0  501    0  0.00000000000E+00  0.00000000000E+00 -0.12565749976E+04  0.12565750017E+04  0.10100000352E+00 0.  1.
    10030    2    1    2    0    0  0.00000000000E+00  0.00000000000E+00 -0.11075443808E+03  0.24023955657E+04  0.23998412257E+04 0.  0.
        2    1    3    3  502    0 -0.34972110827E+03  0.11464087851E+04 -0.11246002139E+03  0.12038293951E+04  0.25500000920E-02 0. -1.
       -2    1    3    3    0  502  0.34972110827E+03 -0.11464087851E+04  0.17055833077E+01  0.11985661705E+04  0.25500000920E-02 0.  1.
</event>
<event>
 5   0  0.5527286E-07  0.2400954E+04  0.7818609E-02  0.8439146E-01
       -1   -1    0    0    0  501  0.00000000000E+00  0.00000000000E+00  0.12111002888E+04  0.12111002888E+04  0.50400001928E-02 0.  1.
        1   -1    0    0  501    0  0.00000000000E+00  0.00000000000E+00 -0.11899470027E+04  0.11899470027E+04  0.50400001928E-02 0. -1.
    10030    2    1    2    0    0  0.00000000000E+00  0.00000000000E+00  0.21153286153E+02  0.24010472915E+04  0.24009541093E+04 0.  0.
        1    1    3    3  502    0 -0.28653809256E+03  0.23497570628E+03  0.11524736192E+04  0.12105837864E+04  0.50400001928E-02 0.  1.
       -1    1    3    3    0  502  0.28653809256E+03 -0.23497570628E+03 -0.11313203330E+04  0.11904635051E+04  0.50400001928E-02 0. -1.
</event>
<event>
 5   0  0.5363690E-07  0.2398277E+04  0.7818609E-02  0.8440149E-01
        1   -1    0    0  501    0  0.00000000000E+00  0.00000000000E+00  0.12607088441E+04  0.12607088441E+04  0.50400001928E-02 0.  1.
       -1   -1    0    0    0  501  0.00000000000E+00  0.00000000000E+00 -0.11405753937E+04  0.11405753937E+04  0.50400001928E-02 0. -1.
    10030    2    1    2    0    0  0.00000000000E+00  0.00000000000E+00  0.12013345044E+03  0.24012842379E+04  0.23982772869E+04 0.  0.
        4    1    3    3  502    0 -0.40465286261E+03 -0.15937536390E+03 -0.10588259597E+04  0.11446652226E+04  0.12699999809E+01 0. -1.
       -4    1    3    3    0  502  0.40465286261E+03  0.15937536390E+03  0.11789594102E+04  0.12566190153E+04  0.12699999809E+01 0.  1.
</event>
<event>
 5   0  0.5510176E-07  0.2400009E+04  0.7818609E-02  0.8439500E-01
       -1   -1    0    0    0  501  0.00000000000E+00  0.00000000000E+00  0.28673619941E+04  0.28673619941E+04  0.50400001928E-02 0. -1.
        1   -1    0    0  501    0  0.00000000000E+00  0.00000000000E+00 -0.50220746323E+03  0.50220746325E+03  0.50400001928E-02 0.  1.
    10030    2    1    2    0    0  0.00000000000E+00  0.00000000000E+00  0.23651545308E+04  0.33695694573E+04  0.24000088277E+04 0.  0.
        3    1    3    3  502    0 -0.62016020106E+03  0.17767753892E+03 -0.23804354318E+03  0.68762833090E+03  0.10100000352E+00 0.  1.
       -3    1    3    3    0  502  0.62016020106E+03 -0.17767753892E+03  0.26031980740E+04  0.26819411264E+04  0.10100000352E+00 0. -1.
</event>
<event>
 5   0  0.1291468E-06  0.2399262E+04  0.7818609E-02  0.8439780E-01
       -2   -1    0    0    0  501  0.00000000000E+00  0.00000000000E+00  0.10979898020E+04  0.10979898020E+04  0.25500000920E-02 0. -1.
        2   -1    0    0  501    0  0.00000000000E+00  0.00000000000E+00 -0.13106806087E+04  0.13106806087E+04  0.25500000920E-02 0.  1.
    10030    2    1    2    0    0  0.00000000000E+00  0.00000000000E+00 -0.21269080670E+03  0.24086704108E+04  0.23992615048E+04 0.  0.
        4    1    3    3  502    0  0.61754211743E+03  0.93381935502E+03 -0.53900587715E+03  0.12425400610E+04  0.12699999809E+01 0.  1.
       -4    1    3    3    0  502 -0.61754211743E+03 -0.93381935502E+03  0.32631507045E+03  0.11661303498E+04  0.12699999809E+01 0. -1.
</event>
<event>
 5   0  0.5690124E-07  0.2400407E+04  0.7818609E-02  0.8439351E-01
       -1   -1    0    0    0  501  0.00000000000E+00  0.00000000000E+00  0.21461726902E+04  0.21461726902E+04  0.50400001928E-02 0.  1.
        1   -1    0    0  501    0  0.00000000000E+00  0.00000000000E+00 -0.67118970315E+03  0.67118970316E+03  0.50400001928E-02 0. -1.
    10030    2    1    2    0    0  0.00000000000E+00  0.00000000000E+00  0.14749829871E+04  0.28173623934E+04  0.24004074745E+04 0.  0.
        2    1    3    3  502    0 -0.85192540474E+02 -0.70794211371E+03  0.18706147760E+04  0.20019089504E+04  0.25500000920E-02 0.  1.
       -2    1    3    3    0  502  0.85192540474E+02  0.70794211371E+03 -0.39563178894E+03  0.81545344302E+03  0.25500000920E-02 0. -1.
</event>
<event>
 5   0  0.5510176E-07  0.2398735E+04  0.7818609E-02  0.8439977E-01
       -1   -1    0    0    0  501  0.00000000000E+00  0.00000000000E+00  0.10050167455E+04  0.10050167456E+04  0.50400001928E-02 0.  1.
        1   -1    0    0  501    0  0.00000000000E+00  0.00000000000E+00 -0.14313017758E+04  0.14313017758E+04  0.50400001928E-02 0. -1.
    10030    2    1    2    0    0  0.00000000000E+00  0.00000000000E+00 -0.42628503030E+03  0.24363185214E+04  0.23987348771E+04 0.  0.
        3    1    3    3  502    0 -0.85192422926E+03  0.53370154127E+03 -0.87750904227E+03  0.13344041206E+04  0.10100000352E+00 0. -1.
       -3    1    3    3    0  502  0.85192422926E+03 -0.53370154127E+03  0.45122401198E+03  0.11019144008E+04  0.10100000352E+00 0.  1.
</event>
<event>
 5   0  0.1307477E-06  0.2401597E+04  0.7818609E-02  0.8438906E-01
        2   -1    0    0  501    0  0.00000000000E+00  0.00000000000E+00  0.18883626960E+04  0.18883626960E+04  0.25500000920E-02 0.  1.
       -2   -1    0    0    0  501  0.00000000000E+00  0.00000000000E+00 -0.76358040957E+03  0.76358040957E+03  0.25500000920E-02 0. -1.
    10030    2    1    2    0    0  0.00000000000E+00  0.00000000000E+00  0.11247822865E+04  0.26519431056E+04  0.24015967695E+04 0.  0.
        5    1    3    3  502    0 -0.77025120331E+03 -0.62205557236E+03 -0.18788770780E+03  0.10077519199E+04  0.46999998093E+01 0. -1.
       -5    1    3    3    0  502  0.77025120331E+03  0.62205557236E+03  0.13126699943E+04  0.16441911857E+04  0.46999998093E+01 0.  1.
</event>
<event>
 5   0  0.5690124E-07  0.2410626E+04  0.7818609E-02  0.8435536E-01
       -1   -1    0    0    0  501  0.00000000000E+00  0.00000000000E+00  0.74689385057E+03  0.74689385059E+03  0.50400001928E-02 0.  1.
        1   -1    0    0  501    0  0.00000000000E+00  0.00000000000E+00 -0.19450945725E+04  0.19450945725E+04  0.50400001928E-02 0. -1.
    10030    2    1    2    0    0  0.00000000000E+00  0.00000000000E+00 -0.11982007220E+04  0.26919884231E+04  0.24106257901E+04 0.  0.
        2    1    3    3  502    0 -0.47991550887E+03 -0.98834448961E+03 -0.45636955826E+02  0.10996483336E+04  0.25500000920E-02 0. -1.
       -2    1    3    3    0  502  0.47991550887E+03  0.98834448961E+03 -0.11525637661E+04  0.15923400896E+04  0.25500000920E-02 0.  1.
</event>
<event>
 5   0  0.5452384E-07  0.2400121E+04  0.7818609E-02  0.8439458E-01
        1   -1    0    0  501    0  0.00000000000E+00  0.00000000000E+00  0.15614928281E+04  0.15614928281E+04  0.50400001928E-02 0. -1.
       -1   -1    0    0    0  501  0.00000000000E+00  0.00000000000E+00 -0.92228767580E+03  0.92228767581E+03  0.50400001928E-02 0.  1.
    10030    2    1    2    0    0  0.00000000000E+00  0.00000000000E+00  0.63920515229E+03  0.24837805039E+04  0.24001213229E+04 0.  0.
        5    1    3    3  502    0 -0.20298776223E+03 -0.10168743889E+04  0.94471565755E+03  0.14027641705E+04  0.46999998093E+01 0. -1.
       -5    1    3    3    0  502  0.20298776223E+03  0.10168743889E+04 -0.30551050527E+03  0.10810163334E+04  0.46999998093E+01 0.  1.
</event>
<event>
 5   0  0.5452384E-07  0.2399588E+04  0.7818609E-02  0.8439658E-01
       -1   -1    0    0    0  501  0.00000000000E+00  0.00000000000E+00  0.17381998802E+04  0.17381998802E+04  0.50400001928E-02 0.  1.
        1   -1    0    0  501    0  0.00000000000E+00  0.00000000000E+00 -0.82815917481E+03  0.82815917483E+03  0.50400001928E-02 0. -1.
    10030    2    1    2    0    0  0.00000000000E+00  0.00000000000E+00  0.91004070535E+03  0.25663590550E+04  0.23995884468E+04 0.  0.
        5    1    3    3  502    0 -0.67754121641E+03  0.61643227192E+03 -0.37370956947E+03  0.98930873751E+03  0.46999998093E+01 0. -1.
       -5    1    3    3    0  502  0.67754121641E+03 -0.61643227192E+03  0.12837502748E+04  0.15770503175E+04  0.46999998093E+01 0.  1.
</event>
<event>
 5   0  0.1336057E-06  0.2400544E+04  0.7818609E-02  0.8439300E-01
        2   -1    0    0  501    0  0.00000000000E+00  0.00000000000E+00  0.18681237390E+04  0.18681237390E+04  0.25500000920E-02 0. -1.
       -2   -1    0    0    0  501  0.00000000000E+00  0.00000000000E+00 -0.77117619000E+03  0.77117619001E+03  0.25500000920E-02 0.  1.
    10030    2    1    2    0    0  0.00000000000E+00  0.00000000000E+00  0.10969475490E+04  0.26392999290E+04  0.24005437280E+04 0.  0.
        2    1    3    3  502    0  0.79617411322E+03  0.68502411400E+03  0.11872030832E+04  0.15851190542E+04  0.25500000920E-02 0. -1.
       -2    1    3    3    0  502 -0.79617411322E+03 -0.68502411400E+03 -0.90255534190E+02  0.10541808748E+04  0.25500000920E-02 0.  1.
</event>
<event>
 5   0  0.1336057E-06  0.2399945E+04  0.7818609E-02  0.8439524E-01
        2   -1    0    0  501    0  0.00000000000E+00  0.00000000000E+00  0.17982864791E+04  0.17982864791E+04  0.25500000920E-02 0.  1.
       -2   -1    0    0    0  501  0.00000000000E+00  0.00000000000E+00 -0.80072557273E+03  0.80072557273E+03  0.25500000920E-02 0. -1.
    10030    2    1    2    0    0  0.00000000000E+00  0.00000000000E+00  0.99756090638E+03  0.25990120518E+04  0.23999449751E+04 0.  0.
        2    1    3    3  502    0 -0.31762912364E+03 -0.11567456407E+04  0.53277244181E+03  0.13125529369E+04  0.25500000920E-02 0. -1.
       -2    1    3    3    0  502  0.31762912364E+03  0.11567456407E+04  0.46478846458E+03  0.12864591149E+04  0.25500000920E-02 0.  1.
</event>
<event>
 5   0  0.1307477E-06  0.2399732E+04  0.7818609E-02  0.8439604E-01
       -2   -1    0    0    0  501  0.00000000000E+00  0.00000000000E+00  0.11541446497E+04  0.11541446497E+04  0.25500000920E-02 0. -1.
        2   -1    0    0  501    0  0.00000000000E+00  0.00000000000E+00 -0.12473990195E+04  0.12473990195E+04  0.25500000920E-02 0.  1.
    10030    2    1    2    0    0  0.00000000000E+00  0.00000000000E+00 -0.93254369758E+02  0.24015436691E+04  0.23997324054E+04 0.  0.
        5    1    3    3  502    0  0.21197066849E+03  0.67255566412E+03 -0.10181297640E+04  0.12384962624E+04  0.46999998093E+01 0.  1.
       -5    1    3    3    0  502 -0.21197066849E+03 -0.67255566412E+03  0.92487539420E+03  0.11630474068E+04  0.46999998093E+01 0. -1.
</event>
<event>
 5   0  0.1291468E-06  0.2400120E+04  0.7818609E-02  0.8439459E-01
       -2   -1    0    0    0  501  0.00000000000E+00  0.00000000000E+00  0.95433998312E+03  0.95433998312E+03  0.25500000920E-02 0. -1.
        2   -1    0    0  501    0  0.00000000000E+00  0.00000000000E+00 -0.15090473722E+04  0.15090473722E+04  0.25500000920E-02 0.  1.
    10030    2    1    2    0    0  0.00000000000E+00  0.00000000000E+00 -0.55470738907E+03  0.24633873553E+04  0.24001202001E+04 0.  0.
        4    1    3    3  502    0 -0.10660312150E+03  0.13110107475E+03  0.94206863339E+03  0.95710325474E+03  0.12699999809E+01 0. -1.
       -4    1    3    3    0  502  0.10660312150E+03 -0.13110107475E+03 -0.14967760225E+04  0.15062841006E+04  0.12699999809E+01 0.  1.
</event>
<event>
 5   0  0.5527286E-07  0.2398649E+04  0.7818609E-02  0.8440010E-01
        1   -1    0    0  501    0  0.00000000000E+00  0.00000000000E+00  0.12597710833E+04  0.12597710834E+04  0.50400001928E-02 0.  1.
       -1   -1    0    0    0  501  0.00000000000E+00  0.00000000000E+00 -0.11417778403E+04  0.11417778403E+04  0.50400001928E-02 0. -1.
    10030    2    1    2    0    0  0.00000000000E+00  0.00000000000E+00  0.11799324307E+03  0.24015489236E+04  0.23986485418E+04 0.  0.
        1    1    3    3  502    0  0.63089478603E+03 -0.49138815790E+03  0.95388282131E+03  0.12447421378E+04  0.50400001928E-02 0.  1.
       -1    1    3    3    0  502 -0.63089478603E+03  0.49138815790E+03 -0.83588957824E+03  0.11568067859E+04  0.50400001928E-02 0. -1.
</event>
<event>
 5   0  0.1291468E-06  0.2400673E+04  0.7818609E-02  0.8439251E-01
        2   -1    0    0  501    0  0.00000000000E+00  0.00000000000E+00  0.66025474746E+03  0.66025474746E+03  0.25500000920E-02 0.  1.
       -2   -1    0    0    0  501  0.00000000000E+00  0.00000000000E+00 -0.21822004627E+04  0.21822004627E+04  0.25500000920E-02 0. -1.
    10030    2    1    2    0    0  0.00000000000E+00  0.00000000000E+00 -0.15219457153E+04  0.28424552102E+04  0.24006734184E+04 0.  0.
        4    1    3    3  502    0 -0.60655493652E+03  0.10110121726E+04 -0.10277124895E+04  0.15640489373E+04  0.12699999809E+01 0. -1.
       -4    1    3    3    0  502  0.60655493652E+03 -0.10110121726E+04 -0.49423322574E+03  0.12784062729E+04  0.12699999809E+01 0.  1.
</event>
<event>
 5   0  0.5363690E-07  0.2401058E+04  0.7818609E-02  0.8439107E-01
       -1   -1    0    0    0  501  0.00000000000E+00  0.00000000000E+00  0.72528954127E+03  0.72528954128E+03  0.50400001928E-02 0. -1.
        1   -1    0    0  501    0  0.00000000000E+00  0.00000000000E+00 -0.19871655200E+04  0.19871655200E+04  0.50400001928E-02 0.  1.
    10030    2    1    2    0    0  0.00000000000E+00  0.00000000000E+00 -0.12618759787E+04  0.27124550613E+04  0.24010584070E+04 0.  0.
        4    1    3    3  502    0 -0.10049473684E+04  0.13517618094E+02 -0.13727305808E+04  0.17013208985E+04  0.12699999809E+01 0.  1.
       -4    1    3    3    0  502  0.10049473684E+04 -0.13517618094E+02  0.11085460214E+03  0.10111341627E+04  0.12699999809E+01 0. -1.
</event>
<event>
 5   0  0.1275948E-06  0.2384023E+04  0.7818609E-02  0.8445510E-01
       -2   -1    0    0    0  501  0.00000000000E+00  0.00000000000E+00  0.92762787490E+03  0.92762787491E+03  0.25500000920E-02 0. -1.
        2   -1    0    0  501    0  0.00000000000E+00  0.00000000000E+00 -0.15317469183E+04  0.15317469183E+04  0.25500000920E-02 0.  1.
    10030    2    1    2    0    0  0.00000000000E+00  0.00000000000E+00 -0.60411904344E+03  0.24593747933E+04  0.23840227673E+04 0.  0.
        1    1    3    3  502    0  0.82804949824E+03  0.36247422725E+03  0.49957127939E+03  0.10327753871E+04  0.50400001928E-02 0. -1.
       -1    1    3    3    0  502 -0.82804949824E+03 -0.36247422725E+03 -0.11036903228E+04  0.14265994062E+04  0.50400001928E-02 0.  1.
</event>
<event>
 5   0  0.5510176E-07  0.2398594E+04  0.7818609E-02  0.8440030E-01
        1   -1    0    0  501    0  0.00000000000E+00  0.00000000000E+00  0.80981243321E+03  0.80981243322E+03  0.50400001928E-02 0. -1.
       -1   -1    0    0    0  501  0.00000000000E+00  0.00000000000E+00 -0.17761063762E+04  0.17761063762E+04  0.50400001928E-02 0.  1.
    10030    2    1    2    0    0  0.00000000000E+00  0.00000000000E+00 -0.96629394295E+03  0.25859188094E+04  0.23985937765E+04 0.  0.
        3    1    3    3  502    0 -0.80324085946E+03  0.16367678572E+03  0.46062105447E+03  0.94029662050E+03  0.10100000352E+00 0. -1.
       -3    1    3    3    0  502  0.80324085946E+03 -0.16367678572E+03 -0.14269149974E+04  0.16456221889E+04  0.10100000352E+00 0.  1.
</event>
<event>
 5   0  0.1308662E-06  0.2401084E+04  0.7818609E-02  0.8439098E-01
        2   -1    0    0  501    0  0.00000000000E+00  0.00000000000E+00  0.17309720255E+04  0.17309720256E+04  0.25500000920E-02 0. -1.
       -2   -1    0    0    0  501  0.00000000000E+00  0.00000000000E+00 -0.83265393068E+03  0.83265393069E+03  0.25500000920E-02 0.  1.
    10030    2    1    2    0    0  0.00000000000E+00  0.00000000000E+00  0.89831809487E+03  0.25636259562E+04  0.24010836395E+04 0.  0.
        3    1    3    3  502    0 -0.97994631013E+03 -0.13798573560E+03 -0.27653288007E+03  0.10275238576E+04  0.10100000352E+00 0.  1.
       -3    1    3    3    0  502  0.97994631013E+03  0.13798573560E+03  0.11748509749E+04  0.15361020986E+04  0.10100000352E+00 0. -1.
</event>
<event>
 5   0  0.5452384E-07  0.2397774E+04  0.7818609E-02  0.8440338E-01
        1   -1    0    0  501    0  0.00000000000E+00  0.00000000000E+00  0.14429889242E+04  0.14429889242E+04  0.50400001928E-02 0. -1.
       -1   -1    0    0    0  501  0.00000000000E+00  0.00000000000E+00 -0.99607813405E+03  0.99607813406E+03  0.50400001928E-02 0.  1.
    10030    2    1    2    0    0  0.00000000000E+00  0.00000000000E+00  0.44691079017E+03  0.24390670583E+04  0.23977737300E+04 0.  0.
        5    1    3    3  502    0 -0.90167840991E+03  0.45449548963E+03  0.88089655249E+03  0.13399966161E+04  0.46999998093E+01 0. -1.
       -5    1    3    3    0  502  0.90167840991E+03 -0.45449548963E+03 -0.43398576232E+03  0.10990704422E+04  0.46999998093E+01 0.  1.
</event>
<event>
 5   0  0.1275948E-06  0.2398408E+04  0.7818609E-02  0.8440100E-01
       -2   -1    0    0    0  501  0.00000000000E+00  0.00000000000E+00  0.60178108971E+03  0.60178108972E+03  0.25500000920E-02 0. -1.
        2   -1    0    0  501    0  0.00000000000E+00  0.00000000000E+00 -0.23897240175E+04  0.23897240175E+04  0.25500000920E-02 0.  1.
    10030    2    1    2    0    0  0.00000000000E+00  0.00000000000E+00 -0.17879429278E+04  0.29915051072E+04  0.23984084084E+04 0.  0.
        1    1    3    3  502    0 -0.39632350342E+03  0.10212799857E+04 -0.28547200886E+03  0.11320686359E+04  0.50400001928E-02 0. -1.
       -1    1    3    3    0  502  0.39632350342E+03 -0.10212799857E+04 -0.15024709189E+04  0.18594364713E+04  0.50400001928E-02 0.  1.
</event>
<event>
 5   0  0.1308662E-06  0.2403570E+04  0.7818609E-02  0.8438168E-01
       -2   -1    0    0    0  501  0.00000000000E+00  0.00000000000E+00  0.11954420800E+04  0.11954420800E+04  0.25500000920E-02 0. -1.
        2   -1    0    0  501    0  0.00000000000E+00  0.00000000000E+00 -0.12081620244E+04  0.12081620245E+04  0.25500000920E-02 0.  1.
    10030    2    1    2    0    0  0.00000000000E+00  0.00000000000E+00 -0.12719944475E+02  0.24036041044E+04  0.24035704470E+04 0.  0.
        3    1    3    3  502    0  0.67570900073E+03 -0.85073032320E+03  0.50742049588E+03  0.11990831107E+04  0.10100000352E+00 0. -1.
       -3    1    3    3    0  502 -0.67570900073E+03  0.85073032320E+03 -0.52014044036E+03  0.12045209937E+04  0.10100000352E+00 0.  1.
</event>
<event>
 5   0  0.4483375E-07  0.2399967E+04  0.7818609E-02  0.8439516E-01
        3   -1    0    0  501    0  0.00000000000E+00  0.00000000000E+00  0.91734035881E+03  0.91734036437E+03  0.10100000352E+00 0. -1.
       -3   -1    0    0    0  501  0.00000000000E+00  0.00000000000E+00 -0.15697118348E+04  0.15697118380E+04  0.10100000352E+00 0.  1.
    10030    2    1    2    0    0  0.00000000000E+00  0.00000000000E+00 -0.65237147598E+03  0.24870522024E+04  0.23999666904E+04 0.  0.
        2    1    3    3  502    0 -0.12871213691E+03 -0.53348230870E+03 -0.14320491235E+04  0.15336019301E+04  0.25500000920E-02 0.  1.
       -2    1    3    3    0  502  0.12871213691E+03  0.53348230870E+03  0.77967764748E+03  0.95345027236E+03  0.25500000920E-02 0. -1.
</event>
<event>
 5   0  0.5363690E-07  0.2399922E+04  0.7818609E-02  0.8439533E-01
        1   -1    0    0  501    0  0.00000000000E+00  0.00000000000E+00  0.75161838878E+03  0.75161838880E+03  0.50400001928E-02 0.  1.
       -1   -1    0    0    0  501  0.00000000000E+00  0.00000000000E+00 -0.19157416153E+04  0.19157416153E+04  0.50400001928E-02 0. -1.
    10030    2    1    2    0    0  0.00000000000E+00  0.00000000000E+00 -0.11641232265E+04  0.26673600041E+04  0.23999221873E+04 0.  0.
        4    1    3    3  502    0  0.83102907990E+03 -0.85399888445E+03 -0.42495319227E+03  0.12651127439E+04  0.12699999809E+01 0.  1.
       -4    1    3    3    0  502 -0.83102907990E+03  0.85399888445E+03 -0.73917003427E+03  0.14022472602E+04  0.12699999809E+01 0. -1.
</event>
<event>
 5   0  0.5690124E-07  0.2402030E+04  0.7818609E-02  0.8438744E-01
        1   -1    0    0  501    0  0.00000000000E+00  0.00000000000E+00  0.11864696480E+04  0.11864696480E+04  0.50400001928E-02 0. -1.
       -1   -1    0    0    0  501  0.00000000000E+00  0.00000000000E+00 -0.12157381838E+04  0.12157381838E+04  0.50400001928E-02 0.  1.
    10030    2    1    2    0    0  0.00000000000E+00  0.00000000000E+00 -0.29268535801E+02  0.24022078319E+04  0.24020295211E+04 0.  0.
        2    1    3    3  502    0  0.11306370574E+04 -0.74230527515E+02  0.38362403277E+03  0.11962515309E+04  0.25500000920E-02 0.  1.
       -2    1    3    3    0  502 -0.11306370574E+04  0.74230527515E+02 -0.41289256857E+03  0.12059563010E+04  0.25500000920E-02 0. -1.
</event>
<event>
 5   0  0.1291468E-06  0.2400210E+04  0.7818609E-02  0.8439425E-01
        2   -1    0    0  501    0  0.00000000000E+00  0.00000000000E+00  0.13546248863E+04  0.13546248863E+04  0.25500000920E-02 0. -1.
       -2   -1    0    0    0  501  0.00000000000E+00  0.00000000000E+00 -0.10632109559E+04  0.10632109559E+04  0.25500000920E-02 0.  1.
    10030    2    1    2    0    0  0.00000000000E+00  0.00000000000E+00  0.29141393035E+03  0.24178358422E+04  0.24002100077E+04 0.  0.
        4    1    3    3  502    0 -0.10080511280E+04 -0.53701592358E+03  0.51678312863E+03  0.12536425303E+04  0.12699999809E+01 0.  1.
       -4    1    3    3    0  502  0.10080511280E+04  0.53701592358E+03 -0.22536919828E+03  0.11641933119E+04  0.12699999809E+01 0. -1.
</event>
<event>
 5   0  0.1275948E-06  0.2397079E+04  0.7818609E-02  0.8440598E-01
       -2   -1    0    0    0  501  0.00000000000E+00  0.00000000000E+00  0.82829621191E+03  0.82829621191E+03  0.25500000920E-02 0.  1.
        2   -1    0    0  501    0  0.00000000000E+00  0.00000000000E+00 -0.17342788955E+04  0.17342788955E+04  0.25500000920E-02 0. -1.
    10030    2    1    2    0    0  0.00000000000E+00  0.00000000000E+00 -0.90598268356E+03  0.25625751074E+04  0.23970787551E+04 0.  0.
        1    1    3    3  502    0  0.19815880198E+02  0.62437247070E+03 -0.15464811295E+04  0.16678841492E+04  0.50400001928E-02 0. -1.
       -1    1    3    3    0  502 -0.19815880198E+02 -0.62437247070E+03  0.64049844596E+03  0.89469095814E+03  0.50400001928E-02 0.  1.
</event>
<event>
 5   0  0.5527286E-07  0.2399831E+04  0.7818609E-02  0.8439567E-01
       -1   -1    0    0    0  501  0.00000000000E+00  0.00000000000E+00  0.83494348826E+03  0.83494348827E+03  0.50400001928E-02 0.  1.
        1   -1    0    0  501    0  0.00000000000E+00  0.00000000000E+00 -0.17244249062E+04  0.17244249062E+04  0.50400001928E-02 0. -1.
    10030    2    1    2    0    0  0.00000000000E+00  0.00000000000E+00 -0.88948141791E+03  0.25593683944E+04  0.23998311161E+04 0.  0.
        1    1    3    3  502    0  0.77921085530E+02 -0.82583491552E+03 -0.13693981137E+04  0.16010390992E+04  0.50400001928E-02 0. -1.
       -1    1    3    3    0  502 -0.77921085530E+02  0.82583491552E+03  0.47991669578E+03  0.95832929527E+03  0.50400001928E-02 0.  1.
</event>
<event>
 5   0  0.1307477E-06  0.2399830E+04  0.7818609E-02  0.8439567E-01
        2   -1    0    0  501    0  0.00000000000E+00  0.00000000000E+00  0.15711886658E+04  0.15711886658E+04  0.25500000920E-02 0.  1.
       -2   -1    0    0    0  501  0.00000000000E+00  0.00000000000E+00 -0.91637374160E+03  0.91637374160E+03  0.25500000920E-02 0. -1.
    10030    2    1    2    0    0  0.00000000000E+00  0.00000000000E+00  0.65481492418E+03  0.24875624074E+04  0.23998300243E+04 0.  0.
        5    1    3    3  502    0 -0.11943134343E+04  0.16517172959E+02  0.44612183835E+03  0.12750310510E+04  0.46999998093E+01 0.  1.
       -5    1    3    3    0  502  0.11943134343E+04 -0.16517172959E+02  0.20869308584E+03  0.12125313564E+04  0.46999998093E+01 0. -1.
</event>
<event>
 5   0  0.5363690E-07  0.2399840E+04  0.7818609E-02  0.8439563E-01
        1   -1    0    0  501    0  0.00000000000E+00  0.00000000000E+00  0.30435193060E+04  0.30435193060E+04  0.50400001928E-02 0. -1.
       -1   -1    0    0    0  501  0.00000000000E+00  0.00000000000E+00 -0.47307351894E+03  0.47307351897E+03  0.50400001928E-02 0.  1.
    10030    2    1    2    0    0  0.00000000000E+00  0.00000000000E+00  0.25704457870E+04  0.35165928250E+04  0.23998403181E+04 0.  0.
        4    1    3    3  502    0 -0.60621526058E+03 -0.97604399755E+03  0.77835781878E+03  0.13878045015E+04  0.12699999809E+01 0.  1.
       -4    1    3    3    0  502  0.60621526058E+03  0.97604399755E+03  0.17920879683E+04  0.21287883235E+04  0.12699999809E+01 0. -1.
</event>
<event>
 5   0  0.5510176E-07  0.2400768E+04  0.7818609E-02  0.8439216E-01
       -1   -1    0    0    0  501  0.00000000000E+00  0.00000000000E+00  0.20341311466E+04  0.20341311466E+04  0.50400001928E-02 0. -1.
        1   -1    0    0  501    0  0.00000000000E+00  0.00000000000E+00 -0.70837191866E+03  0.70837191868E+03  0.50400001928E-02 0.  1.
    10030    2    1    2    0    0  0.00000000000E+00  0.00000000000E+00  0.13257592279E+04  0.27425030652E+04  0.24007676965E+04 0.  0.
        3    1    3    3  502    0  0.39581248528E+03  0.55104109306E+03  0.17940931731E+04  0.19180938803E+04  0.10100000352E+00 0. -1.
       -3    1    3    3    0  502 -0.39581248528E+03 -0.55104109306E+03 -0.46833394521E+03  0.82440918492E+03  0.10100000352E+00 0.  1.
</event>
<event>
 5   0  0.5690124E-07  0.2399561E+04  0.7818609E-02  0.8439668E-01
        1   -1    0    0  501    0  0.00000000000E+00  0.00000000000E+00  0.13524740656E+04  0.13524740656E+04  0.50400001928E-02 0.  1.
       -1   -1    0    0    0  501  0.00000000000E+00  0.00000000000E+00 -0.10643257521E+04  0.10643257521E+04  0.50400001928E-02 0. -1.
    10030    2    1    2    0    0  0.00000000000E+00  0.00000000000E+00  0.28814831350E+03  0.24167998176E+04  0.23995607740E+04 0.  0.
        2    1    3    3  502    0 -0.28066265658E+03 -0.11222737162E+04  0.46448407704E+03  0.12466014915E+04  0.25500000920E-02 0.  1.
       -2    1    3    3    0  502  0.28066265658E+03  0.11222737162E+04 -0.17633576354E+03  0.11701983261E+04  0.25500000920E-02 0. -1.
</event>
<event>
 5   0  0.1291468E-06  0.2400377E+04  0.7818609E-02  0.8439362E-01
        2   -1    0    0  501    0  0.00000000000E+00  0.00000000000E+00  0.28138853471E+04  0.28138853471E+04  0.25500000920E-02 0. -1.
       -2   -1    0    0    0  501  0.00000000000E+00  0.00000000000E+00 -0.51190892605E+03  0.51190892605E+03  0.25500000920E-02 0.  1.
    10030    2    1    2    0    0  0.00000000000E+00  0.00000000000E+00  0.23019764210E+04  0.33257942731E+04  0.24003774920E+04 0.  0.
        4    1    3    3  502    0  0.15026947094E+03  0.11699650466E+04  0.14578518803E+04  0.18752954013E+04  0.12699999809E+01 0. -1.
       -4    1    3    3    0  502 -0.15026947094E+03 -0.11699650466E+04  0.84412454069E+03  0.14504988718E+04  0.12699999809E+01 0.  1.
</event>
<event>
 5   0  0.5527286E-07  0.2400192E+04  0.7818609E-02  0.8439432E-01
        1   -1    0    0  501    0  0.00000000000E+00  0.00000000000E+00  0.21933379881E+04  0.21933379881E+04  0.50400001928E-02 0.  1.
       -1   -1    0    0    0  501  0.00000000000E+00  0.00000000000E+00 -0.65663878554E+03  0.65663878556E+03  0.50400001928E-02 0. -1.
    10030    2    1    2    0    0  0.00000000000E+00  0.00000000000E+00  0.15366992025E+04  0.28499767736E+04  0.24001923196E+04 0.  0.
        1    1    3    3  502    0  0.11518403608E+04 -0.33393022041E+03  0.82125447246E+03  0.14535145398E+04  0.50400001928E-02 0. -1.
       -1    1    3    3    0  502 -0.11518403608E+04  0.33393022041E+03  0.71544473005E+03  0.13964622338E+04  0.50400001928E-02 0.  1.
</event>
<event>
 5   0  0.5510176E-07  0.2400654E+04  0.7818609E-02  0.8439259E-01
       -1   -1    0    0    0  501  0.00000000000E+00  0.00000000000E+00  0.90855818795E+03  0.90855818796E+03  0.50400001928E-02 0. -1.
        1   -1    0    0  501    0  0.00000000000E+00  0.00000000000E+00 -0.15857926730E+04  0.15857926730E+04  0.50400001928E-02 0.  1.
    10030    2    1    2    0    0  0.00000000000E+00  0.00000000000E+00 -0.67723448504E+03  0.24943508610E+04  0.24006540088E+04 0.  0.
        3    1    3    3  502    0 -0.54415292564E+03  0.10698983228E+04 -0.33832388547E+03  0.12470957819E+04  0.10100000352E+00 0. -1.
       -3    1    3    3    0  502  0.54415292564E+03 -0.10698983228E+04 -0.33891059957E+03  0.12472550791E+04  0.10100000352E+00 0.  1.
</event>
<event>
 5   0  0.1336057E-06  0.2399248E+04  0.7818609E-02  0.8439785E-01
        2   -1    0    0  501    0  0.00000000000E+00  0.00000000000E+00  0.23224154382E+04  0.23224154382E+04  0.25500000920E-02 0. -1.
       -2   -1    0    0    0  501  0.00000000000E+00  0.00000000000E+00 -0.61965535665E+03  0.61965535665E+03  0.25500000920E-02 0.  1.
    10030    2    1    2    0    0  0.00000000000E+00  0.00000000000E+00  0.17027600816E+04  0.29420707949E+04  0.23992475209E+04 0.  0.
        2    1    3    3  502    0 -0.51356644619E+03  0.93946685594E+03  0.15148565496E+04  0.18550306827E+04  0.25500000920E-02 0. -1.
       -2    1    3    3    0  502  0.51356644619E+03 -0.93946685594E+03  0.18790353198E+03  0.10870401121E+04  0.25500000920E-02 0.  1.
</event>
<event>
 5   0  0.1291468E-06  0.2399832E+04  0.7818609E-02  0.8439567E-01
       -2   -1    0    0    0  501  0.00000000000E+00  0.00000000000E+00  0.23208110694E+04  0.23208110694E+04  0.25500000920E-02 0. -1.
        2   -1    0    0  501    0  0.00000000000E+00  0.00000000000E+00 -0.62038567031E+03  0.62038567032E+03  0.25500000920E-02 0.  1.
    10030    2    1    2    0    0  0.00000000000E+00  0.00000000000E+00  0.17004253991E+04  0.29411967398E+04  0.23998316033E+04 0.  0.
        4    1    3    3  502    0  0.18611501472E+03  0.11483675111E+04  0.12104795075E+04  0.16788832569E+04  0.12699999809E+01 0. -1.
       -4    1    3    3    0  502 -0.18611501472E+03 -0.11483675111E+04  0.48994589158E+03  0.12623134828E+04  0.12699999809E+01 0.  1.
</event>
<event>
 5   0  0.5452384E-07  0.2400098E+04  0.7818609E-02  0.8439467E-01
        1   -1    0    0  501    0  0.00000000000E+00  0.00000000000E+00  0.11685601377E+04  0.11685601377E+04  0.50400001928E-02 0. -1.
       -1   -1    0    0    0  501  0.00000000000E+00  0.00000000000E+00 -0.12323867952E+04  0.12323867952E+04  0.50400001928E-02 0.  1.
    10030    2    1    2    0    0  0.00000000000E+00  0.00000000000E+00 -0.63826657469E+02  0.24009469329E+04  0.24000984006E+04 0.  0.
        5    1    3    3  502    0  0.21698173071E+02 -0.82667208179E+03  0.83801383383E+03  0.11773473647E+04  0.46999998093E+01 0. -1.
       -5    1    3    3    0  502 -0.21698173071E+02  0.82667208179E+03 -0.90184049130E+03  0.12235995682E+04  0.46999998093E+01 0.  1.
</event>
<event>
 5   0  0.1291468E-06  0.2399867E+04  0.7818609E-02  0.8439553E-01
       -2   -1    0    0    0  501  0.00000000000E+00  0.00000000000E+00  0.90500847184E+03  0.90500847184E+03  0.25500000920E-02 0. -1.
        2   -1    0    0  501    0  0.00000000000E+00  0.00000000000E+00 -0.15909693090E+04  0.15909693090E+04  0.25500000920E-02 0.  1.
    10030    2    1    2    0    0  0.00000000000E+00  0.00000000000E+00 -0.68596083716E+03  0.24959777808E+04  0.23998672489E+04 0.  0.
        4    1    3    3  502    0  0.62089512965E+03 -0.51850283527E+03 -0.12647490598E+04  0.15013153397E+04  0.12699999809E+01 0.  1.
       -4    1    3    3    0  502 -0.62089512965E+03  0.51850283527E+03  0.57878822261E+03  0.99466244111E+03  0.12699999809E+01 0. -1.
</event>
<event>
 5   0  0.5690124E-07  0.2400772E+04  0.7818609E-02  0.8439214E-01
        1   -1    0    0  501    0  0.00000000000E+00  0.00000000000E+00  0.13029301557E+04  0.13029301558E+04  0.50400001928E-02 0.  1.
       -1   -1    0    0    0  501  0.00000000000E+00  0.00000000000E+00 -0.11059127167E+04  0.11059127168E+04  0.50400001928E-02 0. -1.
    10030    2    1    2    0    0  0.00000000000E+00  0.00000000000E+00  0.19701743900E+03  0.24088428725E+04  0.24007723993E+04 0.  0.
        2    1    3    3  502    0 -0.94614425538E+03  0.68936552244E+03 -0.16792725116E+03  0.11826298395E+04  0.25500000920E-02 0. -1.
       -2    1    3    3    0  502  0.94614425538E+03 -0.68936552244E+03  0.36494469016E+03  0.12262130330E+04  0.25500000920E-02 0.  1.
</event>
<event>
 5   0  0.1307477E-06  0.2398500E+04  0.7818609E-02  0.8440065E-01
        2   -1    0    0  501    0  0.00000000000E+00  0.00000000000E+00  0.11880711366E+04  0.11880711366E+04  0.25500000920E-02 0.  1.
       -2   -1    0    0    0  501  0.00000000000E+00  0.00000000000E+00 -0.12105338720E+04  0.12105338720E+04  0.25500000920E-02 0. -1.
    10030    2    1    2    0    0  0.00000000000E+00  0.00000000000E+00 -0.22462735472E+02  0.23986050086E+04  0.23984998255E+04 0.  0.
        5    1    3    3  502    0  0.18781277510E+03 -0.41354263683E+03 -0.11211841416E+04  0.12096971193E+04  0.46999998093E+01 0. -1.
       -5    1    3    3    0  502 -0.18781277510E+03  0.41354263683E+03  0.10987214062E+04  0.11889078893E+04  0.46999998093E+01 0.  1.
</event>
<event>
 5   0  0.5363690E-07  0.2401204E+04  0.7818609E-02  0.8439053E-01
       -1   -1    0    0    0  501  0.00000000000E+00  0.00000000000E+00  0.17754141254E+04  0.17754141254E+04  0.50400001928E-02 0.  1.
        1   -1    0    0  501    0  0.00000000000E+00  0.00000000000E+00 -0.81189267945E+03  0.81189267946E+03  0.50400001928E-02 0. -1.
    10030    2    1    2    0    0  0.00000000000E+00  0.00000000000E+00  0.96352144595E+03  0.25873068049E+04  0.24012044739E+04 0.  0.
        4    1    3    3  502    0 -0.23623620655E+03 -0.79866096442E+03  0.14135225355E+04  0.16406445235E+04  0.12699999809E+01 0.  1.
       -4    1    3    3    0  502  0.23623620655E+03  0.79866096442E+03 -0.45000108955E+03  0.94666228132E+03  0.12699999809E+01 0. -1.
</event>
<event>
 5   0  0.1308662E-06  0.2384937E+04  0.7818609E-02  0.8445165E-01
        2   -1    0    0  501    0  0.00000000000E+00  0.00000000000E+00  0.10112940308E+04  0.10112940308E+04  0.25500000920E-02 0. -1.
       -2   -1    0    0    0  501  0.00000000000E+00  0.00000000000E+00 -0.14061001758E+04  0.14061001758E+04  0.25500000920E-02 0.  1.
    10030    2    1    2    0    0  0.00000000000E+00  0.00000000000E+00 -0.39480614499E+03  0.24173942065E+04  0.23849366570E+04 0.  0.
        3    1    3    3  502    0  0.46287416576E+03  0.51583140446E+03 -0.11809939701E+04  0.13693360795E+04  0.10100000352E+00 0.  1.
       -3    1    3    3    0  502 -0.46287416576E+03 -0.51583140446E+03  0.78618782506E+03  0.10480581270E+04  0.10100000352E+00 0. -1.
</event>
<event>
 5   0  0.5690124E-07  0.2397366E+04  0.7818609E-02  0.8440490E-01
        1   -1    0    0  501    0  0.00000000000E+00  0.00000000000E+00  0.75690421458E+03  0.75690421460E+03  0.50400001928E-02 0.  1.
       -1   -1    0    0    0  501  0.00000000000E+00  0.00000000000E+00 -0.18983131188E+04  0.18983131188E+04  0.50400001928E-02 0. -1.
    10030    2    1    2    0    0  0.00000000000E+00  0.00000000000E+00 -0.11414089042E+04  0.26552173334E+04  0.23973662217E+04 0.  0.
        2    1    3    3  502    0  0.55736634354E+03  0.95492203785E+03 -0.57979157463E+02  0.11072013918E+04  0.25500000920E-02 0.  1.
       -2    1    3    3    0  502 -0.55736634354E+03 -0.95492203785E+03 -0.10834297467E+04  0.15480159416E+04  0.25500000920E-02 0. -1.
</event>
<event>
 5   0  0.1336057E-06  0.2398717E+04  0.7818609E-02  0.8439984E-01
        2   -1    0    0  501    0  0.00000000000E+00  0.00000000000E+00  0.17033787134E+04  0.17033787134E+04  0.25500000920E-02 0.  1.
       -2   -1    0    0    0  501  0.00000000000E+00  0.00000000000E+00 -0.84447483118E+03  0.84447483119E+03  0.25500000920E-02 0. -1.
    10030    2    1    2    0    0  0.00000000000E+00  0.00000000000E+00  0.85890388226E+03  0.25478535446E+04  0.23987166998E+04 0.  0.
        2    1    3    3  502    0  0.14538543632E+03 -0.10304755064E+04  0.10627103232E+04  0.14874037534E+04  0.25500000920E-02 0.  1.
       -2    1    3    3    0  502 -0.14538543632E+03  0.10304755064E+04 -0.20380644098E+03  0.10604497913E+04  0.25500000920E-02 0. -1.
</event>
<event>
 5   0  0.4483375E-07  0.2398923E+04  0.7818609E-02  0.8439907E-01
       -3   -1    0    0    0  501  0.00000000000E+00  0.00000000000E+00  0.12376479855E+04  0.12376479896E+04  0.10100000352E+00 0.  1.
        3   -1    0    0  501    0  0.00000000000E+00  0.00000000000E+00 -0.11624531579E+04  0.11624531623E+04  0.10100000352E+00 0. -1.
    10030    2    1    2    0    0  0.00000000000E+00  0.00000000000E+00  0.75194827603E+02  0.24001011518E+04  0.23989229410E+04 0.  0.
        1    1    3    3  502    0 -0.51681731598E+03 -0.68970220284E+03  0.87222446193E+03  0.12261993226E+04  0.50400001928E-02 0.  1.
       -1    1    3    3    0  502  0.51681731598E+03  0.68970220284E+03 -0.79702963433E+03  0.11739018293E+04  0.50400001928E-02 0. -1.
</event>
<event>
 5   0  0.1291468E-06  0.2401891E+04  0.7818609E-02  0.8438796E-01
       -2   -1    0    0    0  501  0.00000000000E+00  0.00000000000E+00  0.73655651639E+03  0.73655651639E+03  0.25500000920E-02 0.  1.
        2   -1    0    0  501    0  0.00000000000E+00  0.00000000000E+00 -0.19581247743E+04  0.19581247743E+04  0.25500000920E-02 0. -1.
    10030    2    1    2    0    0  0.00000000000E+00  0.00000000000E+00 -0.12215682579E+04  0.26946812907E+04  0.24018905574E+04 0.  0.
        4    1    3    3  502    0 -0.67418922359E+03  0.64195945605E+03  0.24040090147E+03  0.96147660333E+03  0.12699999809E+01 0.  1.
       -4    1    3    3    0  502  0.67418922359E+03 -0.64195945605E+03 -0.14619691594E+04  0.17332046873E+04  0.12699999809E+01 0. -1.
</event>
<event>
 5   0  0.1307477E-06  0.2401046E+04  0.7818609E-02  0.8439112E-01
       -2   -1    0    0    0  501  0.00000000000E+00  0.00000000000E+00  0.81984805942E+03  0.81984805943E+03  0.25500000920E-02 0. -1.
        2   -1    0    0  501    0  0.00000000000E+00  0.00000000000E+00 -0.17579539493E+04  0.17579539493E+04  0.25500000920E-02 0.  1.
    10030    2    1    2    0    0  0.00000000000E+00  0.00000000000E+00 -0.93810588990E+03  0.25778020087E+04  0.24010457171E+04 0.  0.
        5    1    3    3  502    0 -0.82830917008E+03  0.69101995645E+03 -0.10347462773E+04  0.14947664064E+04  0.46999998093E+01 0.  1.
       -5    1    3    3    0  502  0.82830917008E+03 -0.69101995645E+03  0.96640387355E+02  0.10830356023E+04  0.46999998093E+01 0. -1.
</event>
<event>
 5   0  0.5363690E-07  0.2400106E+04  0.7818609E-02  0.8439464E-01
        1   -1    0    0  501    0  0.00000000000E+00  0.00000000000E+00  0.13220658833E+04  0.13220658833E+04  0.50400001928E-02 0.  1.
       -1   -1    0    0    0  501  0.00000000000E+00  0.00000000000E+00 -0.10893005574E+04  0.10893005574E+04  0.50400001928E-02 0. -1.
    10030    2    1    2    0    0  0.00000000000E+00  0.00000000000E+00  0.23276532589E+03  0.24113664408E+04  0.24001059174E+04 0.  0.
        4    1    3    3  502    0  0.17568493070E+03 -0.10738194111E+04  0.62489181880E+03  0.12547687917E+04  0.12699999809E+01 0.  1.
       -4    1    3    3    0  502 -0.17568493070E+03  0.10738194111E+04 -0.39212649292E+03  0.11565976491E+04  0.12699999809E+01 0. -1.
</event>
<event>
 5   0  0.5690124E-07  0.2401976E+04  0.7818609E-02  0.8438764E-01
       -1   -1    0    0    0  501  0.00000000000E+00  0.00000000000E+00  0.21597001914E+04  0.21597001914E+04  0.50400001928E-02 0. -1.
        1   -1    0    0  501    0  0.00000000000E+00  0.00000000000E+00 -0.66785767751E+03  0.66785767753E+03  0.50400001928E-02 0.  1.
    10030    2    1    2    0    0  0.00000000000E+00  0.00000000000E+00  0.14918425139E+04  0.28275578689E+04  0.24019761481E+04 0.  0.
        2    1    3    3  502    0 -0.71588565134E+03 -0.60779555178E+03 -0.13536485548E+03  0.94880521851E+03  0.25500000920E-02 0.  1.
       -2    1    3    3    0  502  0.71588565134E+03  0.60779555178E+03  0.16272073694E+04  0.18787526504E+04  0.25500000920E-02 0. -1.
</event>
<event>
 5   0  0.1307477E-06  0.2399261E+04  0.7818609E-02  0.8439780E-01
        2   -1    0    0  501    0  0.00000000000E+00  0.00000000000E+00  0.12928777878E+04  0.12928777878E+04  0.25500000920E-02 0.  1.
       -2   -1    0    0    0  501  0.00000000000E+00  0.00000000000E+00 -0.11131088130E+04  0.11131088130E+04  0.25500000920E-02 0. -1.
    10030    2    1    2    0    0  0.00000000000E+00  0.00000000000E+00  0.17976897482E+03  0.24059866007E+04  0.23992612694E+04 0.  0.
        5    1    3    3  502    0  0.93443662910E+03  0.10311795943E+03  0.83714872091E+03  0.12588269136E+04  0.46999998093E+01 0.  1.
       -5    1    3    3    0  502 -0.93443662910E+03 -0.10311795943E+03 -0.65737974609E+03  0.11471596872E+04  0.46999998093E+01 0. -1.
</event>
<event>
 5   0  0.5510176E-07  0.2400000E+04  0.7818609E-02  0.8439504E-01
        1   -1    0    0  501    0  0.00000000000E+00  0.00000000000E+00  0.15231858968E+04  0.15231858968E+04  0.50400001928E-02 0. -1.
       -1   -1    0    0    0  501  0.00000000000E+00  0.00000000000E+00 -0.94538668016E+03  0.94538668018E+03  0.50400001928E-02 0.  1.
    10030    2    1    2    0    0  0.00000000000E+00  0.00000000000E+00  0.57779921659E+03  0.24685725769E+04  0.23999997152E+04 0.  0.
        3    1    3    3  502    0 -0.52589669708E+03  0.44916376795E+03  0.12975739076E+04  0.14703786867E+04  0.10100000352E+00 0. -1.
       -3    1    3    3    0  502  0.52589669708E+03 -0.44916376795E+03 -0.71977469102E+03  0.99819389022E+03  0.10100000352E+00 0.  1.
</event>
<event>
 5   0  0.1275948E-06  0.2399015E+04  0.7818609E-02  0.8439873E-01
        2   -1    0    0  501    0  0.00000000000E+00  0.00000000000E+00  0.98595726850E+03  0.98595726851E+03  0.25500000920E-02 0. -1.
       -2   -1    0    0    0  501  0.00000000000E+00  0.00000000000E+00 -0.14593105725E+04  0.14593105725E+04  0.25500000920E-02 0.  1.
    10030    2    1    2    0    0  0.00000000000E+00  0.00000000000E+00 -0.47335330403E+03  0.24452678410E+04  0.23990146861E+04 0.  0.
        1    1    3    3  502    0 -0.68502342383E+03  0.95557388372E+02  0.76223318245E+03  0.10292656266E+04  0.50400001928E-02 0. -1.
       -1    1    3    3    0  502  0.68502342383E+03 -0.95557388372E+02 -0.12355864865E+04  0.14160022144E+04  0.50400001928E-02 0.  1.
</event>
<event>
 5   0  0.5527286E-07  0.2398612E+04  0.7818609E-02  0.8440023E-01
       -1   -1    0    0    0  501  0.00000000000E+00  0.00000000000E+00  0.99748207042E+03  0.99748207043E+03  0.50400001928E-02 0. -1.
        1   -1    0    0  501    0  0.00000000000E+00  0.00000000000E+00 -0.14419655998E+04  0.14419655998E+04  0.50400001928E-02 0.  1.
    10030    2    1    2    0    0  0.00000000000E+00  0.00000000000E+00 -0.44448352940E+03  0.24394476703E+04  0.23986119586E+04 0.  0.
        1    1    3    3  502    0  0.10702732092E+04 -0.19960621103E+03  0.28932010574E+03  0.11265138727E+04  0.50400001928E-02 0.  1.
       -1    1    3    3    0  502 -0.10702732092E+04  0.19960621103E+03 -0.73380363513E+03  0.13129337976E+04  0.50400001928E-02 0. -1.
</event>
<event>
 5   0  0.1275948E-06  0.2400083E+04  0.7818609E-02  0.8439472E-01
        2   -1    0    0  501    0  0.00000000000E+00  0.00000000000E+00  0.31074203218E+04  0.31074203218E+04  0.25500000920E-02 0.  1.
       -2   -1    0    0    0  501  0.00000000000E+00  0.00000000000E+00 -0.46343894211E+03  0.46343894211E+03  0.25500000920E-02 0. -1.
    10030    2    1    2    0    0  0.00000000000E+00  0.00000000000E+00  0.26439813797E+04  0.35708592639E+04  0.24000829874E+04 0.  0.
        1    1    3    3  502    0 -0.99033326625E+02 -0.24831436872E+03  0.30625539583E+04  0.30741997940E+04  0.50400001928E-02 0.  1.
       -1    1    3    3    0  502  0.99033326625E+02  0.24831436872E+03 -0.41857257863E+03  0.49665946996E+03  0.50400001928E-02 0. -1.
</event>
<event>
 5   0  0.1275948E-06  0.2400022E+04  0.7818609E-02  0.8439495E-01
        2   -1    0    0  501    0  0.00000000000E+00  0.00000000000E+00  0.13868299719E+04  0.13868299719E+04  0.25500000920E-02 0.  1.
       -2   -1    0    0    0  501  0.00000000000E+00  0.00000000000E+00 -0.10383583911E+04  0.10383583911E+04  0.25500000920E-02 0. -1.
    10030    2    1    2    0    0  0.00000000000E+00  0.00000000000E+00  0.34847158086E+03  0.24251883630E+04  0.24000221152E+04 0.  0.
        1    1    3    3  502    0  0.19710668228E+03 -0.11489698900E+04 -0.11343106410E+03  0.11712597742E+04  0.50400001928E-02 0.  1.
       -1    1    3    3    0  502 -0.19710668228E+03  0.11489698900E+04  0.46190264496E+03  0.12539285888E+04  0.50400001928E-02 0. -1.
</event>
<event>
 5   0  0.1307477E-06  0.2400169E+04  0.7818609E-02  0.8439440E-01
       -2   -1    0    0    0  501  0.00000000000E+00  0.00000000000E+00  0.18873009515E+04  0.18873009515E+04  0.25500000920E-02 0.  1.
        2   -1    0    0  501    0  0.00000000000E+00  0.00000000000E+00 -0.76310191735E+03  0.76310191736E+03  0.25500000920E-02 0. -1.
    10030    2    1    2    0    0  0.00000000000E+00  0.00000000000E+00  0.11241990342E+04  0.26504028689E+04  0.24001691397E+04 0.  0.
        5    1    3    3  502    0  0.98795720489E+02 -0.94215034821E+03 -0.25144096422E+03  0.98012882904E+03  0.46999998093E+01 0. -1.
       -5    1    3    3    0  502 -0.98795720489E+02  0.94215034821E+03  0.13756399984E+04  0.16702740398E+04  0.46999998093E+01 0.  1.
</event>
<event>
 5   0  0.1308662E-06  0.2399572E+04  0.7818609E-02  0.8439664E-01
       -2   -1    0    0    0  501  0.00000000000E+00  0.00000000000E+00  0.79470688451E+03  0.79470688451E+03  0.25500000920E-02 0.  1.
        2   -1    0    0  501    0  0.00000000000E+00  0.00000000000E+00 -0.18113420390E+04  0.18113420390E+04  0.25500000920E-02 0. -1.
    10030    2    1    2    0    0  0.00000000000E+00  0.00000000000E+00 -0.10166351545E+04  0.26060489235E+04  0.23995716189E+04 0.  0.
        3    1    3    3  502    0  0.10795731218E+04 -0.34041714753E+03 -0.76452814882E+02  0.11345514544E+04  0.10100000352E+00 0.  1.
       -3    1    3    3    0  502 -0.10795731218E+04  0.34041714753E+03 -0.94018233964E+03  0.14714974691E+04  0.10100000352E+00 0. -1.
</event>
<event>
 5   0  0.5690124E-07  0.2399124E+04  0.7818609E-02  0.8439832E-01
        1   -1    0    0  501    0  0.00000000000E+00  0.00000000000E+00  0.11274950968E+04  0.11274950968E+04  0.50400001928E-02 0. -1.
       -1   -1    0    0    0  501  0.00000000000E+00  0.00000000000E+00 -0.12762354423E+04  0.12762354423E+04  0.50400001928E-02 0.  1.
    10030    2    1    2    0    0  0.00000000000E+00  0.00000000000E+00 -0.14874034556E+03  0.24037305391E+04  0.23991241765E+04 0.  0.
        2    1    3    3  502    0 -0.16376820874E+03  0.80028258631E+03  0.80576792554E+03  0.11474032395E+04  0.25500000920E-02 0. -1.
       -2    1    3    3    0  502  0.16376820874E+03 -0.80028258631E+03 -0.95450827110E+03  0.12563272996E+04  0.25500000920E-02 0.  1.
</event>
<event>
 5   0  0.5510176E-07  0.2400552E+04  0.7818609E-02  0.8439297E-01
        1   -1    0    0  501    0  0.00000000000E+00  0.00000000000E+00  0.87015387792E+03  0.87015387793E+03  0.50400001928E-02 0.  1.
       -1   -1    0    0    0  501  0.00000000000E+00  0.00000000000E+00 -0.16556409708E+04  0.16556409708E+04  0.50400001928E-02 0. -1.
    10030    2    1    2    0    0  0.00000000000E+00  0.00000000000E+00 -0.78548709290E+03  0.25257948488E+04  0.24005519459E+04 0.  0.
        3    1    3    3  502    0 -0.10830786671E+04 -0.27529631159E+03  0.68073125741E+02  0.11195898440E+04  0.10100000352E+00 0. -1.
       -3    1    3    3    0  502  0.10830786671E+04  0.27529631159E+03 -0.85356021864E+03  0.14062050047E+04  0.10100000352E+00 0.  1.
</event>
<event>
 5   0  0.4483375E-07  0.2399607E+04  0.7818609E-02  0.8439651E-01
       -3   -1    0    0    0  501  0.00000000000E+00  0.00000000000E+00  0.11350037478E+04  0.11350037523E+04  0.10100000352E+00 0. -1.
        3   -1    0    0  501    0  0.00000000000E+00  0.00000000000E+00 -0.12683026357E+04  0.12683026397E+04  0.10100000352E+00 0.  1.
    10030    2    1    2    0    0  0.00000000000E+00  0.00000000000E+00 -0.13329888786E+03  0.24033063920E+04  0.23996068471E+04 0.  0.
        5    1    3    3  502    0  0.61117013784E+02  0.14894603906E+03  0.11241267936E+04  0.11356070403E+04  0.46999998093E+01 0. -1.
       -5    1    3    3    0  502 -0.61117013784E+02 -0.14894603906E+03 -0.12574256815E+04  0.12676993517E+04  0.46999998093E+01 0.  1.
</event>
<event>
 5   0  0.5690124E-07  0.2399907E+04  0.7818609E-02  0.8439538E-01
        1   -1    0    0  501    0  0.00000000000E+00  0.00000000000E+00  0.10402465447E+04  0.10402465447E+04  0.50400001928E-02 0.  1.
       -1   -1    0    0    0  501  0.00000000000E+00  0.00000000000E+00 -0.13841804728E+04  0.13841804728E+04  0.50400001928E-02 0. -1.
    10030    2    1    2    0    0  0.00000000000E+00  0.00000000000E+00 -0.34393392804E+03  0.24244270175E+04  0.23999074600E+04 0.  0.
        2    1    3    3  502    0  0.11629844845E+04  0.42735969513E+02  0.12347558564E+03  0.11703014545E+04  0.25500000920E-02 0.  1.
       -2    1    3    3    0  502 -0.11629844845E+04 -0.42735969513E+02 -0.46740951368E+03  0.12541255630E+04  0.25500000920E-02 0. -1.
</event>
<event>
 5   0  0.5527286E-07  0.2410322E+04  0.7818609E-02  0.8435649E-01
        1   -1    0    0  501    0  0.00000000000E+00  0.00000000000E+00  0.12079752796E+04  0.12079752796E+04  0.50400001928E-02 0.  1.
       -1   -1    0    0    0  501  0.00000000000E+00  0.00000000000E+00 -0.12023534633E+04  0.12023534633E+04  0.50400001928E-02 0. -1.
    10030    2    1    2    0    0  0.00000000000E+00  0.00000000000E+00  0.56218163338E+01  0.24103287430E+04  0.24103221868E+04 0.  0.
        1    1    3    3  502    0 -0.35834578620E+03 -0.93616971189E+03  0.67183277925E+03  0.12067247885E+04  0.50400001928E-02 0.  1.
       -1    1    3    3    0  502  0.35834578620E+03  0.93616971189E+03 -0.66621096292E+03  0.12036039544E+04  0.50400001928E-02 0. -1.
</event>
<event>
 5   0  0.1275948E-06  0.2400149E+04  0.7818609E-02  0.8439448E-01
        2   -1    0    0  501    0  0.00000000000E+00  0.00000000000E+00  0.10014597579E+04  0.10014597579E+04  0.25500000920E-02 0. -1.
       -2   -1    0    0    0  501  0.00000000000E+00  0.00000000000E+00 -0.14380793645E+04  0.14380793645E+04  0.25500000920E-02 0.  1.
    10030    2    1    2    0    0  0.00000000000E+00  0.00000000000E+00 -0.43661960662E+03  0.24395391224E+04  0.24001488389E+04 0.  0.
        1    1    3    3  502    0 -0.11513781123E+04 -0.33627701232E+03 -0.25667615165E+03  0.12266362270E+04  0.50400001928E-02 0. -1.
       -1    1    3    3    0  502  0.11513781123E+04  0.33627701232E+03 -0.17994345497E+03  0.12129028954E+04  0.50400001928E-02 0.  1.
</event>
<event>
 5   0  0.5510176E-07  0.2404157E+04  0.7818609E-02  0.8437949E-01
       -1   -1    0    0    0  501  0.00000000000E+00  0.00000000000E+00  0.15474896984E+04  0.15474896984E+04  0.50400001928E-02 0. -1.
        1   -1    0    0  501    0  0.00000000000E+00  0.00000000000E+00 -0.93376543584E+03  0.93376543586E+03  0.50400001928E-02 0.  1.
    10030    2    1    2    0    0  0.00000000000E+00  0.00000000000E+00  0.61372426260E+03  0.24812551343E+04  0.24041567276E+04 0.  0.
        3    1    3    3  502    0 -0.79071644452E+03  0.81880139493E+03  0.70567915735E+03  0.13392726770E+04  0.10100000352E+00 0. -1.
       -3    1    3    3    0  502  0.79071644452E+03 -0.81880139493E+03 -0.91954894751E+02  0.11419824573E+04  0.10100000352E+00 0.  1.
</event>
<event>
 5   0  0.1336057E-06  0.2401421E+04  0.7818609E-02  0.8438972E-01
       -2   -1    0    0    0  501  0.00000000000E+00  0.00000000000E+00  0.10372074605E+04  0.10372074605E+04  0.25500000920E-02 0. -1.
        2   -1    0    0  501    0  0.00000000000E+00  0.00000000000E+00 -0.13899879687E+04  0.13899879687E+04  0.25500000920E-02 0.  1.
    10030    2    1    2    0    0  0.00000000000E+00  0.00000000000E+00 -0.35278050817E+03  0.24271954292E+04  0.24014211552E+04 0.  0.
        2    1    3    3  502    0  0.94770616361E+03 -0.71506044925E+03 -0.35789344071E+03  0.12399782795E+04  0.25500000920E-02 0.  1.
       -2    1    3    3    0  502 -0.94770616361E+03  0.71506044925E+03  0.51129325394E+01  0.11872171498E+04  0.25500000920E-02 0. -1.
</event>
<event>
 5   0  0.5452384E-07  0.2399852E+04  0.7818609E-02  0.8439559E-01
        1   -1    0    0  501    0  0.00000000000E+00  0.00000000000E+00  0.15861816847E+04  0.15861816847E+04  0.50400001928E-02 0. -1.
       -1   -1    0    0    0  501  0.00000000000E+00  0.00000000000E+00 -0.90772851299E+03  0.90772851300E+03  0.50400001928E-02 0.  1.
    10030    2    1    2    0    0  0.00000000000E+00  0.00000000000E+00  0.67845317173E+03  0.24939101977E+04  0.23998519471E+04 0.  0.
        5    1    3    3  502    0 -0.50937565596E+02  0.11918370152E+04  0.47364111722E+03  0.12835217584E+04  0.46999998093E+01 0.  1.
       -5    1    3    3    0  502  0.50937565596E+02 -0.11918370152E+04  0.20481205451E+03  0.12103884393E+04  0.46999998093E+01 0. -1.
</event>
<event>
 5   0  0.1291468E-06  0.2400983E+04  0.7818609E-02  0.8439136E-01
       -2   -1    0    0    0  501  0.00000000000E+00  0.00000000000E+00  0.94022714872E+03  0.94022714873E+03  0.25500000920E-02 0.  1.
        2   -1    0    0  501    0  0.00000000000E+00  0.00000000000E+00 -0.15327992388E+04  0.15327992388E+04  0.25500000920E-02 0. -1.
    10030    2    1    2    0    0  0.00000000000E+00  0.00000000000E+00 -0.59257209006E+03  0.24730263875E+04  0.24009826804E+04 0.  0.
        4    1    3    3  502    0 -0.78325043064E+03  0.57485270326E+03  0.43002588687E+03  0.10624785851E+04  0.12699999809E+01 0.  1.
       -4    1    3    3    0  502  0.78325043064E+03 -0.57485270326E+03 -0.10225979769E+04  0.14105478024E+04  0.12699999809E+01 0. -1.
</event>
<event>
 5   0  0.1275948E-06  0.2397788E+04  0.7818609E-02  0.8440332E-01
        2   -1    0    0  501    0  0.00000000000E+00  0.00000000000E+00  0.13703356987E+04  0.13703356987E+04  0.25500000920E-02 0.  1.
       -2   -1    0    0    0  501  0.00000000000E+00  0.00000000000E+00 -0.10489010049E+04  0.10489010049E+04  0.25500000920E-02 0. -1.
    10030    2    1    2    0    0  0.00000000000E+00  0.00000000000E+00  0.32143469379E+03  0.24192367036E+04  0.23977877233E+04 0.  0.
        1    1    3    3  502    0 -0.28443477997E+02  0.18867245724E+02  0.13698453867E+04  0.13702705528E+04  0.50400001928E-02 0.  1.
       -1    1    3    3    0  502  0.28443477997E+02 -0.18867245724E+02 -0.10484106930E+04  0.10489661508E+04  0.50400001928E-02 0. -1.
</event>
<event>
 5   0  0.1275948E-06  0.2399388E+04  0.7818609E-02  0.8439733E-01
        2   -1    0    0  501    0  0.00000000000E+00  0.00000000000E+00  0.36059424074E+04  0.36059424074E+04  0.25500000920E-02 0.  1.
       -2   -1    0    0    0  501  0.00000000000E+00  0.00000000000E+00 -0.39913719471E+03  0.39913719472E+03  0.25500000920E-02 0. -1.
    10030    2    1    2    0    0  0.00000000000E+00  0.00000000000E+00  0.32068052127E+04  0.40050796021E+04  0.23993880360E+04 0.  0.
        1    1    3    3  502    0  0.91789964091E+03  0.71211840372E+03  0.21030884618E+04  0.24026305271E+04  0.50400001928E-02 0.  1.
       -1    1    3    3    0  502 -0.91789964091E+03 -0.71211840372E+03  0.11037167509E+04  0.16024490750E+04  0.50400001928E-02 0. -1.
</event>
<event>
 5   0  0.5363690E-07  0.2399651E+04  0.7818609E-02  0.8439634E-01
       -1   -1    0    0    0  501  0.00000000000E+00  0.00000000000E+00  0.15764482302E+04  0.15764482302E+04  0.50400001928E-02 0.  1.
        1   -1    0    0  501    0  0.00000000000E+00  0.00000000000E+00 -0.91318027339E+03  0.91318027341E+03  0.50400001928E-02 0. -1.
    10030    2    1    2    0    0  0.00000000000E+00  0.00000000000E+00  0.66326795682E+03  0.24896285036E+04  0.23996511629E+04 0.  0.
        4    1    3    3  502    0  0.83120819738E+03 -0.85350756400E+03  0.47908104734E+03  0.12840959824E+04  0.12699999809E+01 0.  1.
       -4    1    3    3    0  502 -0.83120819738E+03  0.85350756400E+03  0.18418690948E+03  0.12055325212E+04  0.12699999809E+01 0. -1.
</event>
<event>
 5   0  0.1291468E-06  0.2399788E+04  0.7818609E-02  0.8439583E-01
        2   -1    0    0  501    0  0.00000000000E+00  0.00000000000E+00  0.10650398754E+04  0.10650398754E+04  0.25500000920E-02 0. -1.
       -2   -1    0    0    0  501  0.00000000000E+00  0.00000000000E+00 -0.13518236485E+04  0.13518236485E+04  0.25500000920E-02 0.  1.
    10030    2    1    2    0    0  0.00000000000E+00  0.00000000000E+00 -0.28678377303E+03  0.24168635239E+04  0.23997883992E+04 0.  0.
        4    1    3    3  502    0  0.35491141498E+03  0.61147615464E+03 -0.11197636580E+04  0.13242875303E+04  0.12699999809E+01 0.  1.
       -4    1    3    3    0  502 -0.35491141498E+03 -0.61147615464E+03  0.83297988497E+03  0.10925759936E+04  0.12699999809E+01 0. -1.
</event>
<event>
 5   0  0.1291468E-06  0.2399580E+04  0.7818609E-02  0.8439661E-01
        2   -1    0    0  501    0  0.00000000000E+00  0.00000000000E+00  0.21446965787E+04  0.21446965787E+04  0.25500000920E-02 0. -1.
       -2   -1    0    0    0  501  0.00000000000E+00  0.00000000000E+00 -0.67118894452E+03  0.67118894452E+03  0.25500000920E-02 0.  1.
    10030    2    1    2    0    0  0.00000000000E+00  0.00000000000E+00  0.14735076342E+04  0.28158855232E+04  0.23995804908E+04 0.  0.
        4    1    3    3  502    0 -0.61341199683E+03 -0.17746767112E+03  0.19287142891E+04  0.20316765181E+04  0.12699999809E+01 0. -1.
       -4    1    3    3    0  502  0.61341199683E+03  0.17746767112E+03 -0.45520665494E+03  0.78420900515E+03  0.12699999809E+01 0.  1.
</event>
<event>
 5   0  0.5690124E-07  0.2401346E+04  0.7818609E-02  0.8439000E-01
       -1   -1    0    0    0  501  0.00000000000E+00  0.00000000000E+00  0.17501367048E+04  0.17501367048E+04  0.50400001928E-02 0.  1.
        1   -1    0    0  501    0  0.00000000000E+00  0.00000000000E+00 -0.82371592364E+03  0.82371592366E+03  0.50400001928E-02 0. -1.
    10030    2    1    2    0    0  0.00000000000E+00  0.00000000000E+00  0.92642078118E+03  0.25738526285E+04  0.24013458496E+04 0.  0.
        2    1    3    3  502    0 -0.55142740390E+03 -0.89399591103E+02  0.16023629406E+04  0.16969476898E+04  0.25500000920E-02 0.  1.
       -2    1    3    3    0  502  0.55142740390E+03  0.89399591103E+02 -0.67594215937E+03  0.87690493868E+03  0.25500000920E-02 0. -1.
</event>
<event>
 5   0  0.1275948E-06  0.2399823E+04  0.7818609E-02  0.8439570E-01
       -2   -1    0    0    0  501  0.00000000000E+00  0.00000000000E+00  0.11565322449E+04  0.11565322449E+04  0.25500000920E-02 0. -1.
        2   -1    0    0  501    0  0.00000000000E+00  0.00000000000E+00 -0.12449182235E+04  0.12449182235E+04  0.25500000920E-02 0.  1.
    10030    2    1    2    0    0  0.00000000000E+00  0.00000000000E+00 -0.88385978680E+02  0.24014504684E+04  0.23998233833E+04 0.  0.
        1    1    3    3  502    0 -0.26792107464E+03  0.20958323766E+03  0.11072744658E+04  0.11583451896E+04  0.50400001928E-02 0. -1.
       -1    1    3    3    0  502  0.26792107464E+03 -0.20958323766E+03 -0.11956604444E+04  0.12431052788E+04  0.50400001928E-02 0.  1.
</event>
<event>
 5   0  0.5452384E-07  0.2398039E+04  0.7818609E-02  0.8440238E-01
        1   -1    0    0  501    0  0.00000000000E+00  0.00000000000E+00  0.13044774617E+04  0.13044774617E+04  0.50400001928E-02 0.  1.
       -1   -1    0    0    0  501  0.00000000000E+00  0.00000000000E+00 -0.11020872198E+04  0.11020872198E+04  0.50400001928E-02 0. -1.
    10030    2    1    2    0    0  0.00000000000E+00  0.00000000000E+00  0.20239024186E+03  0.24065646815E+04  0.23980391482E+04 0.  0.
        5    1    3    3  502    0  0.76294138050E+03  0.45414338402E+03 -0.70746122709E+03  0.11352749628E+04  0.46999998093E+01 0. -1.
       -5    1    3    3    0  502 -0.76294138050E+03 -0.45414338402E+03  0.90985146895E+03  0.12712897187E+04  0.46999998093E+01 0.  1.
</event>
<event>
 5   0  0.5452384E-07  0.2394785E+04  0.7818609E-02  0.8441459E-01
        1   -1    0    0  501    0  0.00000000000E+00  0.00000000000E+00  0.16543392875E+04  0.16543392875E+04  0.50400001928E-02 0. -1.
       -1   -1    0    0    0  501  0.00000000000E+00  0.00000000000E+00 -0.86665925596E+03  0.86665925598E+03  0.50400001928E-02 0.  1.
    10030    2    1    2    0    0  0.00000000000E+00  0.00000000000E+00  0.78768003149E+03  0.25209985434E+04  0.23947847135E+04 0.  0.
        5    1    3    3  502    0 -0.41409116840E+03  0.18403439716E+03 -0.77289863170E+03  0.89595454124E+03  0.46999998093E+01 0.  1.
       -5    1    3    3    0  502  0.41409116840E+03 -0.18403439716E+03  0.15605786632E+04  0.16250440022E+04  0.46999998093E+01 0. -1.
</event>
<event>
 5   0  0.5452384E-07  0.2398522E+04  0.7818609E-02  0.8440057E-01
        1   -1    0    0  501    0  0.00000000000E+00  0.00000000000E+00  0.11102197126E+04  0.11102197127E+04  0.50400001928E-02 0. -1.
       -1   -1    0    0    0  501  0.00000000000E+00  0.00000000000E+00 -0.12954440206E+04  0.12954440207E+04  0.50400001928E-02 0.  1.
    10030    2    1    2    0    0  0.00000000000E+00  0.00000000000E+00 -0.18522430800E+03  0.24056637333E+04  0.23985224521E+04 0.  0.
        5    1    3    3  502    0 -0.16811479955E+02 -0.48952145364E+03 -0.11905363992E+04  0.12873666484E+04  0.46999998093E+01 0.  1.
       -5    1    3    3    0  502  0.16811479955E+02  0.48952145364E+03  0.10053120912E+04  0.11182970849E+04  0.46999998093E+01 0. -1.
</event>
<event>
 5   0  0.5690124E-07  0.2400099E+04  0.7818609E-02  0.8439467E-01
        1   -1    0    0  501    0  0.00000000000E+00  0.00000000000E+00  0.19961908109E+04  0.19961908109E+04  0.50400001928E-02 0.  1.
       -1   -1    0    0    0  501  0.00000000000E+00  0.00000000000E+00 -0.72143335662E+03  0.72143335664E+03  0.50400001928E-02 0. -1.
    10030    2    1    2    0    0  0.00000000000E+00  0.00000000000E+00  0.12747574543E+04  0.27176241675E+04  0.24000988623E+04 0.  0.
        2    1    3    3  502    0 -0.51412631270E+03  0.63498761150E+03  0.16326305478E+04  0.18256553995E+04  0.25500000920E-02 0.  1.
       -2    1    3    3    0  502  0.51412631270E+03 -0.63498761150E+03 -0.35787309347E+03  0.89196876807E+03  0.25500000920E-02 0. -1.
</event>
<event>
 5   0  0.1308662E-06  0.2399521E+04  0.7818609E-02  0.8439683E-01
       -2   -1    0    0    0  501  0.00000000000E+00  0.00000000000E+00  0.10305545875E+04  0.10305545875E+04  0.25500000920E-02 0.  1.
        2   -1    0    0  501    0  0.00000000000E+00  0.00000000000E+00 -0.13967482015E+04  0.13967482015E+04  0.25500000920E-02 0. -1.
    10030    2    1    2    0    0  0.00000000000E+00  0.00000000000E+00 -0.36619361399E+03  0.24273027891E+04  0.23995210078E+04 0.  0.
        3    1    3    3  502    0  0.53585455573E+02  0.92594011472E+03 -0.95295273942E+03  0.13297952590E+04  0.10100000352E+00 0. -1.
       -3    1    3    3    0  502 -0.53585455573E+02 -0.92594011472E+03  0.58675912543E+03  0.10975075301E+04  0.10100000352E+00 0.  1.
</event>
<event>
 5   0  0.1307477E-06  0.2397923E+04  0.7818609E-02  0.8440282E-01
       -2   -1    0    0    0  501  0.00000000000E+00  0.00000000000E+00  0.90071014326E+03  0.90071014326E+03  0.25500000920E-02 0. -1.
        2   -1    0    0  501    0  0.00000000000E+00  0.00000000000E+00 -0.15959719244E+04  0.15959719244E+04  0.25500000920E-02 0.  1.
    10030    2    1    2    0    0  0.00000000000E+00  0.00000000000E+00 -0.69526178111E+03  0.24966820676E+04  0.23979225180E+04 0.  0.
        5    1    3    3  502    0 -0.44190679747E+03 -0.10407668041E+04 -0.76281311143E+03  0.13639586105E+04  0.46999998093E+01 0.  1.
       -5    1    3    3    0  502  0.44190679747E+03  0.10407668041E+04  0.67551330314E+02  0.11327234572E+04  0.46999998093E+01 0. -1.
</event>
<event>
 5   0  0.1336057E-06  0.2399041E+04  0.7818609E-02  0.8439863E-01
       -2   -1    0    0    0  501  0.00000000000E+00  0.00000000000E+00  0.95764486434E+03  0.95764486434E+03  0.25500000920E-02 0.  1.
        2   -1    0    0  501    0  0.00000000000E+00  0.00000000000E+00 -0.15024873903E+04  0.15024873903E+04  0.25500000920E-02 0. -1.
    10030    2    1    2    0    0  0.00000000000E+00  0.00000000000E+00 -0.54484252594E+03  0.24601322546E+04  0.23990409192E+04 0.  0.
        2    1    3    3  502    0  0.91772984787E+03  0.66139689054E+03 -0.68154887548E+03  0.13206751267E+04  0.25500000920E-02 0. -1.
       -2    1    3    3    0  502 -0.91772984787E+03 -0.66139689054E+03  0.13670634953E+03  0.11394571280E+04  0.25500000920E-02 0.  1.
</event>
<event>
 5   0  0.5363690E-07  0.2400024E+04  0.7818609E-02  0.8439495E-01
       -1   -1    0    0    0  501  0.00000000000E+00  0.00000000000E+00  0.13589541898E+04  0.13589541899E+04  0.50400001928E-02 0.  1.
        1   -1    0    0  501    0  0.00000000000E+00  0.00000000000E+00 -0.10596591888E+04  0.10596591888E+04  0.50400001928E-02 0. -1.
    10030    2    1    2    0    0  0.00000000000E+00  0.00000000000E+00  0.29929500109E+03  0.24186133786E+04  0.24000235785E+04 0.  0.
        4    1    3    3  502    0  0.56697763995E+03  0.50135526435E+02  0.12142627055E+04  0.13410491215E+04  0.12699999809E+01 0.  1.
       -4    1    3    3    0  502 -0.56697763995E+03 -0.50135526435E+02 -0.91496770446E+03  0.10775642572E+04  0.12699999809E+01 0. -1.
</event>
<event>
 5   0  0.1275948E-06  0.2399368E+04  0.7818609E-02  0.8439740E-01
        2   -1    0    0  501    0  0.00000000000E+00  0.00000000000E+00  0.13167158981E+04  0.13167158981E+04  0.25500000920E-02 0. -1.
       -2   -1    0    0    0  501  0.00000000000E+00  0.00000000000E+00 -0.10930538284E+04  0.10930538284E+04  0.25500000920E-02 0.  1.
    10030    2    1    2    0    0  0.00000000000E+00  0.00000000000E+00  0.22366206972E+03  0.24097697265E+04  0.23993677112E+04 0.  0.
        1    1    3    3  502    0  0.94483209333E+03 -0.72569722917E+03  0.25349999959E+03  0.12180338266E+04  0.50400001928E-02 0.  1.
       -1    1    3    3    0  502 -0.94483209333E+03  0.72569722917E+03 -0.29837929876E+02  0.11917358999E+04  0.50400001928E-02 0. -1.
</event>
<event>
 5   0  0.5690124E-07  0.2400738E+04  0.7818609E-02  0.8439227E-01
        1   -1    0    0  501    0  0.00000000000E+00  0.00000000000E+00  0.16083390292E+04  0.16083390292E+04  0.50400001928E-02 0.  1.
       -1   -1    0    0    0  501  0.00000000000E+00  0.00000000000E+00 -0.89588463951E+03  0.89588463952E+03  0.50400001928E-02 0. -1.
    10030    2    1    2    0    0  0.00000000000E+00  0.00000000000E+00  0.71245438965E+03  0.25042236687E+04  0.24007384125E+04 0.  0.
        2    1    3    3  502    0  0.83767283938E+02  0.31603987355E+03  0.15609974809E+04  0.15948703066E+04  0.25500000920E-02 0.  1.
       -2    1    3    3    0  502 -0.83767283938E+02 -0.31603987355E+03 -0.84854309121E+03  0.90935336211E+03  0.25500000920E-02 0. -1.
</event>
<event>
 5   0  0.5527286E-07  0.2414705E+04  0.7818609E-02  0.8434019E-01
        1   -1    0    0  501    0  0.00000000000E+00  0.00000000000E+00  0.21967526613E+04  0.21967526613E+04  0.50400001928E-02 0.  1.
       -1   -1    0    0    0  501  0.00000000000E+00  0.00000000000E+00 -0.66357017264E+03  0.66357017266E+03  0.50400001928E-02 0. -1.
    10030    2    1    2    0    0  0.00000000000E+00  0.00000000000E+00  0.15331824886E+04  0.28603228339E+04  0.24147045722E+04 0.  0.
        1    1    3    3  502    0 -0.76790024642E+02 -0.10356306602E+04  0.14960931363E+04  0.18211870428E+04  0.50400001928E-02 0.  1.
       -1    1    3    3    0  502  0.76790024642E+02  0.10356306602E+04  0.37089352283E+02  0.10391357911E+04  0.50400001928E-02 0. -1.
</event>
<event>
 5   0  0.5510176E-07  0.2399664E+04  0.7818609E-02  0.8439629E-01
       -1   -1    0    0    0  501  0.00000000000E+00  0.00000000000E+00  0.98012633847E+03  0.98012633848E+03  0.50400001928E-02 0. -1.
        1   -1    0    0  501    0  0.00000000000E+00  0.00000000000E+00 -0.14687871053E+04  0.14687871053E+04  0.50400001928E-02 0.  1.
    10030    2    1    2    0    0  0.00000000000E+00  0.00000000000E+00 -0.48866076684E+03  0.24489134438E+04  0.23996640828E+04 0.  0.
        3    1    3    3  502    0 -0.81223722030E+03  0.29776753873E+03  0.60411816542E+03  0.10551557123E+04  0.10100000352E+00 0. -1.
       -3    1    3    3    0  502  0.81223722030E+03 -0.29776753873E+03 -0.10927789323E+04  0.13937577315E+04  0.10100000352E+00 0.  1.
</event>
<event>
 5   0  0.5690124E-07  0.2400575E+04  0.7818609E-02  0.8439288E-01
       -1   -1    0    0    0  501  0.00000000000E+00  0.00000000000E+00  0.19305421466E+04  0.19305421466E+04  0.50400001928E-02 0. -1.
        1   -1    0    0  501    0  0.00000000000E+00  0.00000000000E+00 -0.74626208341E+03  0.74626208343E+03  0.50400001928E-02 0.  1.
    10030    2    1    2    0    0  0.00000000000E+00  0.00000000000E+00  0.11842800632E+04  0.26768042301E+04  0.24005752681E+04 0.  0.
        2    1    3    3  502    0  0.11565440562E+04  0.20381854453E+03  0.86878979894E+03  0.14607983666E+04  0.25500000920E-02 0.  1.
       -2    1    3    3    0  502 -0.11565440562E+04 -0.20381854453E+03  0.31549026429E+03  0.12160058635E+04  0.25500000920E-02 0. -1.
</event>
<event>
 5   0  0.5510176E-07  0.2400378E+04  0.7818609E-02  0.8439362E-01
        1   -1    0    0  501    0  0.00000000000E+00  0.00000000000E+00  0.99373026204E+03  0.99373026205E+03  0.50400001928E-02 0. -1.
       -1   -1    0    0    0  501  0.00000000000E+00  0.00000000000E+00 -0.14495424276E+04  0.14495424276E+04  0.50400001928E-02 0.  1.
    10030    2    1    2    0    0  0.00000000000E+00  0.00000000000E+00 -0.45581216560E+03  0.24432726897E+04  0.24003784506E+04 0.  0.
        3    1    3    3  502    0  0.90157377294E+02 -0.67951454536E+03  0.77488205300E+03  0.10345581551E+04  0.10100000352E+00 0. -1.
       -3    1    3    3    0  502 -0.90157377294E+02  0.67951454536E+03 -0.12306942186E+04  0.14087145346E+04  0.10100000352E+00 0.  1.
</event>
<event>
 5   0  0.5527286E-07  0.2400771E+04  0.7818609E-02  0.8439215E-01
       -1   -1    0    0    0  501  0.00000000000E+00  0.00000000000E+00  0.10130427205E+04  0.10130427205E+04  0.50400001928E-02 0.  1.
        1   -1    0    0  501    0  0.00000000000E+00  0.00000000000E+00 -0.14223738535E+04  0.14223738536E+04  0.50400001928E-02 0. -1.
    10030    2    1    2    0    0  0.00000000000E+00  0.00000000000E+00 -0.40933113308E+03  0.24354165740E+04  0.24007711079E+04 0.  0.
        1    1    3    3  502    0 -0.79866478235E+03  0.89464505082E+03 -0.15224513083E+03  0.12088977547E+04  0.50400001928E-02 0. -1.
       -1    1    3    3    0  502  0.79866478235E+03 -0.89464505082E+03 -0.25708600225E+03  0.12265188193E+04  0.50400001928E-02 0.  1.
</event>
<event>
 5   0  0.5690124E-07  0.2401325E+04  0.7818609E-02  0.8439008E-01
       -1   -1    0    0    0  501  0.00000000000E+00  0.00000000000E+00  0.80483130704E+03  0.80483130706E+03  0.50400001928E-02 0. -1.
        1   -1    0    0  501    0  0.00000000000E+00  0.00000000000E+00 -0.17911709039E+04  0.17911709039E+04  0.50400001928E-02 0.  1.
    10030    2    1    2    0    0  0.00000000000E+00  0.00000000000E+00 -0.98633959688E+03  0.25960022110E+04  0.24013249841E+04 0.  0.
        2    1    3    3  502    0  0.31055420155E+03 -0.57111021752E+02  0.75913989331E+03  0.82219155830E+03  0.25500000920E-02 0. -1.
       -2    1    3    3    0  502 -0.31055420155E+03  0.57111021752E+02 -0.17454794902E+04  0.17738106527E+04  0.25500000920E-02 0.  1.
</event>
<event>
 5   0  0.1336057E-06  0.2400220E+04  0.7818609E-02  0.8439421E-01
       -2   -1    0    0    0  501  0.00000000000E+00  0.00000000000E+00  0.12274491523E+04  0.12274491523E+04  0.25500000920E-02 0.  1.
        2   -1    0    0  501    0  0.00000000000E+00  0.00000000000E+00 -0.11733795719E+04  0.11733795719E+04  0.25500000920E-02 0. -1.
    10030    2    1    2    0    0  0.00000000000E+00  0.00000000000E+00  0.54069580371E+02  0.24008287242E+04  0.24002197907E+04 0.  0.
        2    1    3    3  502    0  0.26138331988E+03  0.87762225853E+03 -0.74886922676E+03  0.11829400608E+04  0.25500000920E-02 0. -1.
       -2    1    3    3    0  502 -0.26138331988E+03 -0.87762225853E+03  0.80293880713E+03  0.12178886635E+04  0.25500000920E-02 0.  1.
</event>
<event>
 5   0  0.5690124E-07  0.2387351E+04  0.7818609E-02  0.8444255E-01
       -1   -1    0    0    0  501  0.00000000000E+00  0.00000000000E+00  0.10802704215E+04  0.10802704215E+04  0.50400001928E-02 0.  1.
        1   -1    0    0  501    0  0.00000000000E+00  0.00000000000E+00 -0.13189851801E+04  0.13189851801E+04  0.50400001928E-02 0. -1.
    10030    2    1    2    0    0  0.00000000000E+00  0.00000000000E+00 -0.23871475861E+03  0.23992556017E+04  0.23873505621E+04 0.  0.
        2    1    3    3  502    0  0.84653153933E+02  0.11741738081E+04 -0.31785278467E+03  0.12193771692E+04  0.25500000920E-02 0. -1.
       -2    1    3    3    0  502 -0.84653153933E+02 -0.11741738081E+04  0.79138026052E+02  0.11798784324E+04  0.25500000920E-02 0.  1.
</event>
<event>
 5   0  0.5452384E-07  0.2399467E+04  0.7818609E-02  0.8439703E-01
       -1   -1    0    0    0  501  0.00000000000E+00  0.00000000000E+00  0.13742884170E+04  0.13742884171E+04  0.50400001928E-02 0.  1.
        1   -1    0    0  501    0  0.00000000000E+00  0.00000000000E+00 -0.10473497533E+04  0.10473497533E+04  0.50400001928E-02 0. -1.
    10030    2    1    2    0    0  0.00000000000E+00  0.00000000000E+00  0.32693866374E+03  0.24216381704E+04  0.23994671363E+04 0.  0.
        5    1    3    3  502    0  0.10342332056E+04  0.32043776241E+02 -0.44932587489E+03  0.11280873012E+04  0.46999998093E+01 0. -1.
       -5    1    3    3    0  502 -0.10342332056E+04 -0.32043776241E+02  0.77626453863E+03  0.12935508692E+04  0.46999998093E+01 0.  1.
</event>
<event>
 5   0  0.4483375E-07  0.2400166E+04  0.7818609E-02  0.8439441E-01
       -3   -1    0    0    0  501  0.00000000000E+00  0.00000000000E+00  0.15738756371E+04  0.15738756404E+04  0.10100000352E+00 0.  1.
        3   -1    0    0  501    0  0.00000000000E+00  0.00000000000E+00 -0.91506546507E+03  0.91506547064E+03  0.10100000352E+00 0. -1.
    10030    2    1    2    0    0  0.00000000000E+00  0.00000000000E+00  0.65881017207E+03  0.24889411110E+04  0.24001660383E+04 0.  0.
        3    1    3    3  502    0 -0.97193691071E+03  0.69480902023E+03  0.21218284001E+03  0.12134424176E+04  0.10100000352E+00 0. -1.
       -3    1    3    3    0  502  0.97193691071E+03 -0.69480902023E+03  0.44662733206E+03  0.12754986934E+04  0.10100000352E+00 0.  1.
</event>
<event>
 5   0  0.1308662E-06  0.2399893E+04  0.7818609E-02  0.8439544E-01
       -2   -1    0    0    0  501  0.00000000000E+00  0.00000000000E+00  0.10540100392E+04  0.10540100392E+04  0.25500000920E-02 0. -1.
        2   -1    0    0  501    0  0.00000000000E+00  0.00000000000E+00 -0.13660885549E+04  0.13660885549E+04  0.25500000920E-02 0.  1.
    10030    2    1    2    0    0  0.00000000000E+00  0.00000000000E+00 -0.31207851567E+03  0.24200985941E+04  0.23998925404E+04 0.  0.
        3    1    3    3  502    0 -0.57478188312E+03  0.22328667946E+02  0.90591716436E+03  0.10731070317E+04  0.10100000352E+00 0. -1.
       -3    1    3    3    0  502  0.57478188312E+03 -0.22328667946E+02 -0.12179956800E+04  0.13469915625E+04  0.10100000352E+00 0.  1.
</event>
<event>
 5   0  0.1308662E-06  0.2400940E+04  0.7818609E-02  0.8439152E-01
       -2   -1    0    0    0  501  0.00000000000E+00  0.00000000000E+00  0.73801888857E+03  0.73801888857E+03  0.25500000920E-02 0. -1.
        2   -1    0    0  501    0  0.00000000000E+00  0.00000000000E+00 -0.19526986815E+04  0.19526986815E+04  0.25500000920E-02 0.  1.
    10030    2    1    2    0    0  0.00000000000E+00  0.00000000000E+00 -0.12146797929E+04  0.26907175700E+04  0.24009402413E+04 0.  0.
        3    1    3    3  502    0  0.30872188745E+03  0.11492105393E+04 -0.42966694758E+03  0.12651512808E+04  0.10100000352E+00 0. -1.
       -3    1    3    3    0  502 -0.30872188745E+03 -0.11492105393E+04 -0.78501284530E+03  0.14255662892E+04  0.10100000352E+00 0.  1.
</event>
<event>
 5   0  0.1291468E-06  0.2415611E+04  0.7818609E-02  0.8433682E-01
       -2   -1    0    0    0  501  0.00000000000E+00  0.00000000000E+00  0.56495664413E+03  0.56495664414E+03  0.25500000920E-02 0.  1.
        2   -1    0    0  501    0  0.00000000000E+00  0.00000000000E+00 -0.25821352930E+04  0.25821352930E+04  0.25500000920E-02 0. -1.
    10030    2    1    2    0    0  0.00000000000E+00  0.00000000000E+00 -0.20171786489E+04  0.31470919372E+04  0.24156113014E+04 0.  0.
        4    1    3    3  502    0  0.17800931883E+03 -0.24570916742E+03 -0.25316743512E+04  0.25497915495E+04  0.12699999809E+01 0. -1.
       -4    1    3    3    0  502 -0.17800931883E+03  0.24570916742E+03  0.51449570229E+03  0.59730038768E+03  0.12699999809E+01 0.  1.
</event>
<event>
 5   0  0.1308662E-06  0.2399157E+04  0.7818609E-02  0.8439819E-01
        2   -1    0    0  501    0  0.00000000000E+00  0.00000000000E+00  0.15678486063E+04  0.15678486063E+04  0.25500000920E-02 0. -1.
       -2   -1    0    0    0  501  0.00000000000E+00  0.00000000000E+00 -0.91781066234E+03  0.91781066234E+03  0.25500000920E-02 0.  1.
    10030    2    1    2    0    0  0.00000000000E+00  0.00000000000E+00  0.65003794393E+03  0.24856592686E+04  0.23991566583E+04 0.  0.
        3    1    3    3  502    0  0.11581387391E+04  0.14019018258E+03  0.35572581472E+02  0.11671349730E+04  0.10100000352E+00 0.  1.
       -3    1    3    3    0  502 -0.11581387391E+04 -0.14019018258E+03  0.61446536246E+03  0.13185242956E+04  0.10100000352E+00 0. -1.
</event>
<event>
 5   0  0.1275948E-06  0.2399912E+04  0.7818609E-02  0.8439536E-01
        2   -1    0    0  501    0  0.00000000000E+00  0.00000000000E+00  0.19959161670E+04  0.19959161670E+04  0.25500000920E-02 0.  1.
       -2   -1    0    0    0  501  0.00000000000E+00  0.00000000000E+00 -0.72142052594E+03  0.72142052594E+03  0.25500000920E-02 0. -1.
    10030    2    1    2    0    0  0.00000000000E+00  0.00000000000E+00  0.12744956411E+04  0.27173366930E+04  0.23999124075E+04 0.  0.
        1    1    3    3  502    0  0.59134727412E+03  0.56484847944E+03  0.16315476144E+04  0.18250186359E+04  0.50400001928E-02 0.  1.
       -1    1    3    3    0  502 -0.59134727412E+03 -0.56484847944E+03 -0.35705197329E+03  0.89231805708E+03  0.50400001928E-02 0. -1.
</event>
<event>
 5   0  0.1308662E-06  0.2400548E+04  0.7818609E-02  0.8439298E-01
        2   -1    0    0  501    0  0.00000000000E+00  0.00000000000E+00  0.18070833717E+04  0.18070833717E+04  0.25500000920E-02 0. -1.
       -2   -1    0    0    0  501  0.00000000000E+00  0.00000000000E+00 -0.79722825417E+03  0.79722825417E+03  0.25500000920E-02 0.  1.
    10030    2    1    2    0    0  0.00000000000E+00  0.00000000000E+00  0.10098551175E+04  0.26043116259E+04  0.24005482054E+04 0.  0.
        3    1    3    3  502    0  0.12556035541E+03 -0.11248237427E+04  0.93842455998E+03  0.14702498155E+04  0.10100000352E+00 0. -1.
       -3    1    3    3    0  502 -0.12556035541E+03  0.11248237427E+04  0.71430557546E+02  0.11340618104E+04  0.10100000352E+00 0.  1.
</event>
<event>
 5   0  0.1307477E-06  0.2399644E+04  0.7818609E-02  0.8439637E-01
        2   -1    0    0  501    0  0.00000000000E+00  0.00000000000E+00  0.16921468445E+04  0.16921468445E+04  0.25500000920E-02 0. -1.
       -2   -1    0    0    0  501  0.00000000000E+00  0.00000000000E+00 -0.85073756120E+03  0.85073756121E+03  0.25500000920E-02 0.  1.
    10030    2    1    2    0    0  0.00000000000E+00  0.00000000000E+00  0.84140928327E+03  0.25428844057E+04  0.23996440400E+04 0.  0.
        5    1    3    3  502    0  0.60858717367E+03 -0.91469642007E+03  0.93167297080E+03  0.14405153603E+04  0.46999998093E+01 0. -1.
       -5    1    3    3    0  502 -0.60858717367E+03  0.91469642007E+03 -0.90263687532E+02  0.11023690453E+04  0.46999998093E+01 0.  1.
</event>
<event>
 5   0  0.5510176E-07  0.2397824E+04  0.7818609E-02  0.8440319E-01
       -1   -1    0    0    0  501  0.00000000000E+00  0.00000000000E+00  0.95218353525E+03  0.95218353526E+03  0.50400001928E-02 0.  1.
        1   -1    0    0  501    0  0.00000000000E+00  0.00000000000E+00 -0.15095718693E+04  0.15095718693E+04  0.50400001928E-02 0. -1.
    10030    2    1    2    0    0  0.00000000000E+00  0.00000000000E+00 -0.55738833409E+03  0.24617554046E+04  0.23978235792E+04 0.  0.
        3    1    3    3  502    0  0.10991110624E+04  0.21828885322E+03  0.15892702686E+03  0.11317919248E+04  0.10100000352E+00 0. -1.
       -3    1    3    3    0  502 -0.10991110624E+04 -0.21828885322E+03 -0.71631536095E+03  0.13299634798E+04  0.10100000352E+00 0.  1.
</event>
<event>
 5   0  0.5527286E-07  0.2400157E+04  0.7818609E-02  0.8439445E-01
       -1   -1    0    0    0  501  0.00000000000E+00  0.00000000000E+00  0.89375265601E+03  0.89375265602E+03  0.50400001928E-02 0. -1.
        1   -1    0    0  501    0  0.00000000000E+00  0.00000000000E+00 -0.16113952713E+04  0.16113952713E+04  0.50400001928E-02 0.  1.
    10030    2    1    2    0    0  0.00000000000E+00  0.00000000000E+00 -0.71764261526E+03  0.25051479273E+04  0.24001573312E+04 0.  0.
        1    1    3    3  502    0  0.77779412361E+03  0.86793264265E+03 -0.65755446008E+03  0.13381512018E+04  0.50400001928E-02 0.  1.
       -1    1    3    3    0  502 -0.77779412361E+03 -0.86793264265E+03 -0.60088155183E+02  0.11669967255E+04  0.50400001928E-02 0. -1.
</event>
<event>
 5   0  0.5510176E-07  0.2397766E+04  0.7818609E-02  0.8440340E-01
       -1   -1    0    0    0  501  0.00000000000E+00  0.00000000000E+00  0.10680266753E+04  0.10680266753E+04  0.50400001928E-02 0.  1.
        1   -1    0    0  501    0  0.00000000000E+00  0.00000000000E+00 -0.13457725371E+04  0.13457725371E+04  0.50400001928E-02 0. -1.
    10030    2    1    2    0    0  0.00000000000E+00  0.00000000000E+00 -0.27774586186E+03  0.24137992124E+04  0.23977664344E+04 0.  0.
        3    1    3    3  502    0 -0.44563049432E+03 -0.27007738699E+03 -0.12258112929E+04  0.13319690944E+04  0.10100000352E+00 0. -1.
       -3    1    3    3    0  502  0.44563049432E+03  0.27007738699E+03  0.94806543106E+03  0.10818301180E+04  0.10100000352E+00 0.  1.
</event>
<event>
 5   0  0.5527286E-07  0.2400838E+04  0.7818609E-02  0.8439190E-01
        1   -1    0    0  501    0  0.00000000000E+00  0.00000000000E+00  0.13564103684E+04  0.13564103685E+04  0.50400001928E-02 0. -1.
       -1   -1    0    0    0  501  0.00000000000E+00  0.00000000000E+00 -0.10623672424E+04  0.10623672425E+04  0.50400001928E-02 0.  1.
    10030    2    1    2    0    0  0.00000000000E+00  0.00000000000E+00  0.29404312600E+03  0.24187776109E+04  0.24008381393E+04 0.  0.
        1    1    3    3  502    0 -0.78491592165E+03 -0.60941762859E+03 -0.53145173638E+03  0.11269089574E+04  0.50400001928E-02 0.  1.
       -1    1    3    3    0  502  0.78491592165E+03  0.60941762859E+03  0.82549486239E+03  0.12918686535E+04  0.50400001928E-02 0. -1.
</event>
<event>
 5   0  0.5363690E-07  0.2396129E+04  0.7818609E-02  0.8440954E-01
        1   -1    0    0  501    0  0.00000000000E+00  0.00000000000E+00  0.19874264861E+04  0.19874264861E+04  0.50400001928E-02 0. -1.
       -1   -1    0    0    0  501  0.00000000000E+00  0.00000000000E+00 -0.72221993668E+03  0.72221993669E+03  0.50400001928E-02 0.  1.
    10030    2    1    2    0    0  0.00000000000E+00  0.00000000000E+00  0.12652065494E+04  0.27096464228E+04  0.23961294046E+04 0.  0.
        4    1    3    3  502    0 -0.74442244555E+03  0.78666951822E+03  0.12118154512E+04  0.16252729029E+04  0.12699999809E+01 0. -1.
       -4    1    3    3    0  502  0.74442244555E+03 -0.78666951822E+03  0.53391098231E+02  0.10843735199E+04  0.12699999809E+01 0.  1.
</event>
<event>
 5   0  0.1291468E-06  0.2398011E+04  0.7818609E-02  0.8440249E-01
        2   -1    0    0  501    0  0.00000000000E+00  0.00000000000E+00  0.11471214748E+04  0.11471214748E+04  0.25500000920E-02 0.  1.
       -2   -1    0    0    0  501  0.00000000000E+00  0.00000000000E+00 -0.12532364177E+04  0.12532364177E+04  0.25500000920E-02 0. -1.
    10030    2    1    2    0    0  0.00000000000E+00  0.00000000000E+00 -0.10611494291E+03  0.24003578925E+04  0.23980111824E+04 0.  0.
        4    1    3    3  502    0 -0.30181452719E+03  0.11337865263E+04  0.19426507709E+03  0.11892453191E+04  0.12699999809E+01 0.  1.
       -4    1    3    3    0  502  0.30181452719E+03 -0.11337865263E+04 -0.30038002000E+03  0.12111125733E+04  0.12699999809E+01 0. -1.
</event>
<event>
 5   0  0.1307477E-06  0.2398548E+04  0.7818609E-02  0.8440047E-01
        2   -1    0    0  501    0  0.00000000000E+00  0.00000000000E+00  0.25960287519E+04  0.25960287519E+04  0.25500000920E-02 0.  1.
       -2   -1    0    0    0  501  0.00000000000E+00  0.00000000000E+00 -0.55402230334E+03  0.55402230334E+03  0.25500000920E-02 0. -1.
    10030    2    1    2    0    0  0.00000000000E+00  0.00000000000E+00  0.20420064485E+04  0.31500510552E+04  0.23985477512E+04 0.  0.
        5    1    3    3  502    0 -0.45384010750E+02 -0.22235502248E+03 -0.52555348224E+03  0.57247708875E+03  0.46999998093E+01 0. -1.
       -5    1    3    3    0  502  0.45384010750E+02  0.22235502248E+03  0.25675599308E+04  0.25775739665E+04  0.46999998093E+01 0.  1.
</event>
<event>
 5   0  0.5527286E-07  0.2397219E+04  0.7818609E-02  0.8440546E-01
        1   -1    0    0  501    0  0.00000000000E+00  0.00000000000E+00  0.28607742462E+04  0.28607742462E+04  0.50400001928E-02 0. -1.
       -1   -1    0    0    0  501  0.00000000000E+00  0.00000000000E+00 -0.50219422146E+03  0.50219422149E+03  0.50400001928E-02 0.  1.
    10030    2    1    2    0    0  0.00000000000E+00  0.00000000000E+00  0.23585800248E+04  0.33629684677E+04  0.23972186345E+04 0.  0.
        1    1    3    3  502    0 -0.22192259841E+03  0.17414006362E+03  0.28135436430E+04  0.28276495951E+04  0.50400001928E-02 0. -1.
       -1    1    3    3    0  502  0.22192259841E+03 -0.17414006362E+03 -0.45496361825E+03  0.53531887263E+03  0.50400001928E-02 0.  1.
</event>
<event>
 5   0  0.1308662E-06  0.2399453E+04  0.7818609E-02  0.8439708E-01
       -2   -1    0    0    0  501  0.00000000000E+00  0.00000000000E+00  0.10611583687E+04  0.10611583687E+04  0.25500000920E-02 0.  1.
        2   -1    0    0  501    0  0.00000000000E+00  0.00000000000E+00 -0.13563894608E+04  0.13563894608E+04  0.25500000920E-02 0. -1.
    10030    2    1    2    0    0  0.00000000000E+00  0.00000000000E+00 -0.29523109211E+03  0.24175478295E+04  0.23994532940E+04 0.  0.
        3    1    3    3  502    0 -0.10798048251E+04  0.87039693320E+01 -0.67432908768E+03  0.12730962054E+04  0.10100000352E+00 0. -1.
       -3    1    3    3    0  502  0.10798048251E+04 -0.87039693320E+01  0.37909799557E+03  0.11444516241E+04  0.10100000352E+00 0.  1.
</event>
<event>
 5   0  0.1275948E-06  0.2400344E+04  0.7818609E-02  0.8439375E-01
       -2   -1    0    0    0  501  0.00000000000E+00  0.00000000000E+00  0.62433386861E+03  0.62433386862E+03  0.25500000920E-02 0.  1.
        2   -1    0    0  501    0  0.00000000000E+00  0.00000000000E+00 -0.23071194460E+04  0.23071194460E+04  0.25500000920E-02 0. -1.
    10030    2    1    2    0    0  0.00000000000E+00  0.00000000000E+00 -0.16827855774E+04  0.29314533146E+04  0.24003439829E+04 0.  0.
        1    1    3    3  502    0 -0.47682376226E+02  0.36545042738E+03  0.55351571004E+03  0.66498666540E+03  0.50400001928E-02 0.  1.
       -1    1    3    3    0  502  0.47682376226E+02 -0.36545042738E+03 -0.22363012875E+04  0.22664666492E+04  0.50400001928E-02 0. -1.
</event>
<event>
 5   0  0.1336057E-06  0.2400387E+04  0.7818609E-02  0.8439359E-01
       -2   -1    0    0    0  501  0.00000000000E+00  0.00000000000E+00  0.71676331232E+03  0.71676331232E+03  0.25500000920E-02 0. -1.
        2   -1    0    0  501    0  0.00000000000E+00  0.00000000000E+00 -0.20096788934E+04  0.20096788934E+04  0.25500000920E-02 0.  1.
    10030    2    1    2    0    0  0.00000000000E+00  0.00000000000E+00 -0.12929155811E+04  0.27264422057E+04  0.24003867191E+04 0.  0.
        2    1    3    3  502    0 -0.70776562408E+02 -0.46492769821E+03  0.60775098734E+03  0.76845842370E+03  0.25500000920E-02 0. -1.
       -2    1    3    3    0  502  0.70776562408E+02  0.46492769821E+03 -0.19006665684E+04  0.19579837820E+04  0.25500000920E-02 0.  1.
</event>
<event>
 5   0  0.5690124E-07  0.2400319E+04  0.7818609E-02  0.8439384E-01
       -1   -1    0    0    0  501  0.00000000000E+00  0.00000000000E+00  0.77183023560E+03  0.77183023561E+03  0.50400001928E-02 0. -1.
        1   -1    0    0  501    0  0.00000000000E+00  0.00000000000E+00 -0.18661911660E+04  0.18661911660E+04  0.50400001928E-02 0.  1.
    10030    2    1    2    0    0  0.00000000000E+00  0.00000000000E+00 -0.10943609304E+04  0.26380214016E+04  0.24003189516E+04 0.  0.
        2    1    3    3  502    0 -0.73205157054E+03  0.74648036728E+03 -0.11948160330E+04  0.15876768542E+04  0.25500000920E-02 0.  1.
       -2    1    3    3    0  502  0.73205157054E+03 -0.74648036728E+03  0.10045510260E+03  0.10503445474E+04  0.25500000920E-02 0. -1.
</event>
<event>
 5   0  0.5363690E-07  0.2399629E+04  0.7818609E-02  0.8439643E-01
       -1   -1    0    0    0  501  0.00000000000E+00  0.00000000000E+00  0.85580151968E+03  0.85580151970E+03  0.50400001928E-02 0.  1.
        1   -1    0    0  501    0  0.00000000000E+00  0.00000000000E+00 -0.16821125583E+04  0.16821125583E+04  0.50400001928E-02 0. -1.
    10030    2    1    2    0    0  0.00000000000E+00  0.00000000000E+00 -0.82631103859E+03  0.25379140780E+04  0.23996287077E+04 0.  0.
        4    1    3    3  502    0 -0.13491057928E+03 -0.89956268499E+02 -0.16704698929E+04  0.16783218614E+04  0.12699999809E+01 0. -1.
       -4    1    3    3    0  502  0.13491057928E+03  0.89956268499E+02  0.84415885427E+03  0.85959221657E+03  0.12699999809E+01 0.  1.
</event>
<event>
 5   0  0.1307477E-06  0.2400128E+04  0.7818609E-02  0.8439456E-01
       -2   -1    0    0    0  501  0.00000000000E+00  0.00000000000E+00  0.72761164326E+03  0.72761164326E+03  0.25500000920E-02 0. -1.
        2   -1    0    0  501    0  0.00000000000E+00  0.00000000000E+00 -0.19792887294E+04  0.19792887294E+04  0.25500000920E-02 0.  1.
    10030    2    1    2    0    0  0.00000000000E+00  0.00000000000E+00 -0.12516770861E+04  0.27069003726E+04  0.24001279340E+04 0.  0.
        5    1    3    3  502    0 -0.26624316616E+03  0.67020259168E+03  0.45596743474E+03  0.85322056290E+03  0.46999998093E+01 0. -1.
       -5    1    3    3    0  502  0.26624316616E+03 -0.67020259168E+03 -0.17076445209E+04  0.18536798097E+04  0.46999998093E+01 0.  1.
</event>
<event>
 5   0  0.4483375E-07  0.2399308E+04  0.7818609E-02  0.8439763E-01
       -4   -1    0    0    0  501  0.00000000000E+00  0.00000000000E+00  0.17954027107E+04  0.17954031599E+04  0.12699999809E+01 0.  1.
        4   -1    0    0  501    0  0.00000000000E+00  0.00000000000E+00 -0.80158514566E+03  0.80158615173E+03  0.12699999809E+01 0. -1.
    10030    2    1    2    0    0  0.00000000000E+00  0.00000000000E+00  0.99381756506E+03  0.25969893116E+04  0.23993082612E+04 0.  0.
        5    1    3    3  502    0 -0.30487959380E+02  0.52310794089E+03 -0.67115921598E+03  0.85149763164E+03  0.46999998093E+01 0. -1.
       -5    1    3    3    0  502  0.30487959380E+02 -0.52310794089E+03  0.16649767810E+04  0.17454916800E+04  0.46999998093E+01 0.  1.
</event>
<event>
 5   0  0.5452384E-07  0.2399369E+04  0.7818609E-02  0.8439740E-01
       -1   -1    0    0    0  501  0.00000000000E+00  0.00000000000E+00  0.55818764210E+03  0.55818764212E+03  0.50400001928E-02 0.  1.
        1   -1    0    0  501    0  0.00000000000E+00  0.00000000000E+00 -0.25784207256E+04  0.25784207256E+04  0.50400001928E-02 0. -1.
    10030    2    1    2    0    0  0.00000000000E+00  0.00000000000E+00 -0.20202330835E+04  0.31366083678E+04  0.23993687380E+04 0.  0.
        5    1    3    3  502    0  0.72963789284E+03  0.50784007988E+03  0.42979742682E+02  0.89002379164E+03  0.46999998093E+01 0.  1.
       -5    1    3    3    0  502 -0.72963789284E+03 -0.50784007988E+03 -0.20632128262E+04  0.22465845761E+04  0.46999998093E+01 0. -1.
</event>
<event>
 5   0  0.5363690E-07  0.2399900E+04  0.7818609E-02  0.8439541E-01
       -1   -1    0    0    0  501  0.00000000000E+00  0.00000000000E+00  0.21010915727E+04  0.21010915727E+04  0.50400001928E-02 0. -1.
        1   -1    0    0  501    0  0.00000000000E+00  0.00000000000E+00 -0.68530110662E+03  0.68530110664E+03  0.50400001928E-02 0.  1.
    10030    2    1    2    0    0  0.00000000000E+00  0.00000000000E+00  0.14157904661E+04  0.27863926794E+04  0.23999003146E+04 0.  0.
        4    1    3    3  502    0 -0.68484024927E+03  0.39809534703E+03 -0.33858763403E+03  0.86146925143E+03  0.12699999809E+01 0.  1.
       -4    1    3    3    0  502  0.68484024927E+03 -0.39809534703E+03  0.17543781001E+04  0.19249234280E+04  0.12699999809E+01 0. -1.
</event>
<event>
 5   0  0.5510176E-07  0.2401382E+04  0.7818609E-02  0.8438986E-01
       -1   -1    0    0    0  501  0.00000000000E+00  0.00000000000E+00  0.10958048443E+04  0.10958048444E+04  0.50400001928E-02 0. -1.
        1   -1    0    0  501    0  0.00000000000E+00  0.00000000000E+00 -0.13156167016E+04  0.13156167016E+04  0.50400001928E-02 0.  1.
    10030    2    1    2    0    0  0.00000000000E+00  0.00000000000E+00 -0.21981185724E+03  0.24114215459E+04  0.24013822311E+04 0.  0.
        3    1    3    3  502    0  0.60274369339E+03  0.71674182718E+03 -0.86447290557E+03  0.12744929272E+04  0.10100000352E+00 0.  1.
       -3    1    3    3    0  502 -0.60274369339E+03 -0.71674182718E+03  0.64466104833E+03  0.11369286188E+04  0.10100000352E+00 0. -1.
</event>
<event>
 5   0  0.5452384E-07  0.2399673E+04  0.7818609E-02  0.8439626E-01
        1   -1    0    0  501    0  0.00000000000E+00  0.00000000000E+00  0.21827257776E+04  0.21827257776E+04  0.50400001928E-02 0.  1.
       -1   -1    0    0    0  501  0.00000000000E+00  0.00000000000E+00 -0.65954601116E+03  0.65954601118E+03  0.50400001928E-02 0. -1.
    10030    2    1    2    0    0  0.00000000000E+00  0.00000000000E+00  0.15231797664E+04  0.28422717888E+04  0.23996733778E+04 0.  0.
        5    1    3    3  502    0  0.41150081302E+03  0.10044717518E+04  0.13670346208E+04  0.17455950744E+04  0.46999998093E+01 0.  1.
       -5    1    3    3    0  502 -0.41150081302E+03 -0.10044717518E+04  0.15614514562E+03  0.10966767144E+04  0.46999998093E+01 0. -1.
</event>
<event>
 5   0  0.5527286E-07  0.2399296E+04  0.7818609E-02  0.8439767E-01
        1   -1    0    0  501    0  0.00000000000E+00  0.00000000000E+00  0.17064865253E+04  0.17064865254E+04  0.50400001928E-02 0.  1.
       -1   -1    0    0    0  501  0.00000000000E+00  0.00000000000E+00 -0.84334442521E+03  0.84334442523E+03  0.50400001928E-02 0. -1.
    10030    2    1    2    0    0  0.00000000000E+00  0.00000000000E+00  0.86314210013E+03  0.25498309506E+04  0.23992964785E+04 0.  0.
        1    1    3    3  502    0 -0.51698761564E+02  0.30620975292E+03 -0.79988805532E+03  0.85805482098E+03  0.50400001928E-02 0. -1.
       -1    1    3    3    0  502  0.51698761564E+02 -0.30620975292E+03  0.16630301555E+04  0.16917761296E+04  0.50400001928E-02 0.  1.
</event>
<event>
 5   0  0.4483375E-07  0.2401066E+04  0.7818609E-02  0.8439105E-01
       -3   -1    0    0    0  501  0.00000000000E+00  0.00000000000E+00  0.11958245737E+04  0.11958245779E+04  0.10100000352E+00 0. -1.
        3   -1    0    0  501    0  0.00000000000E+00  0.00000000000E+00 -0.12052600708E+04  0.12052600750E+04  0.10100000352E+00 0.  1.
    10030    2    1    2    0    0  0.00000000000E+00  0.00000000000E+00 -0.94354971144E+01  0.24010846529E+04  0.24010661136E+04 0.  0.
        3    1    3    3  502    0 -0.11911333060E+04  0.16029316663E+02  0.14436096129E+03  0.11999564947E+04  0.10100000352E+00 0. -1.
       -3    1    3    3    0  502  0.11911333060E+04 -0.16029316663E+02 -0.15379645841E+03  0.12011281583E+04  0.10100000352E+00 0.  1.
</event>
<event>
 5   0  0.1275948E-06  0.2401361E+04  0.7818609E-02  0.8438994E-01
       -2   -1    0    0    0  501  0.00000000000E+00  0.00000000000E+00  0.11593397592E+04  0.11593397592E+04  0.25500000920E-02 0. -1.
        2   -1    0    0  501    0  0.00000000000E+00  0.00000000000E+00 -0.12434950612E+04  0.12434950612E+04  0.25500000920E-02 0.  1.
    10030    2    1    2    0    0  0.00000000000E+00  0.00000000000E+00 -0.84155302041E+02  0.24028348204E+04  0.24013606683E+04 0.  0.
        1    1    3    3  502    0 -0.31432289377E+03  0.91424250298E+03  0.67039528906E+03  0.11764642279E+04  0.50400001928E-02 0. -1.
       -1    1    3    3    0  502  0.31432289377E+03 -0.91424250298E+03 -0.75455059110E+03  0.12263705926E+04  0.50400001928E-02 0.  1.
</event>
<event>
 5   0  0.5527286E-07  0.2399807E+04  0.7818609E-02  0.8439576E-01
        1   -1    0    0  501    0  0.00000000000E+00  0.00000000000E+00  0.84644471096E+03  0.84644471098E+03  0.50400001928E-02 0. -1.
       -1   -1    0    0    0  501  0.00000000000E+00  0.00000000000E+00 -0.17009594759E+04  0.17009594759E+04  0.50400001928E-02 0.  1.
    10030    2    1    2    0    0  0.00000000000E+00  0.00000000000E+00 -0.85451476492E+03  0.25474041869E+04  0.23998067855E+04 0.  0.
        1    1    3    3  502    0 -0.10438029704E+04  0.38198755551E+03  0.52571742596E+02  0.11127456680E+04  0.50400001928E-02 0. -1.
       -1    1    3    3    0  502  0.10438029704E+04 -0.38198755551E+03 -0.90708650752E+03  0.14346585188E+04  0.50400001928E-02 0.  1.
</event>
<event>
 5   0  0.1291468E-06  0.2401133E+04  0.7818609E-02  0.8439080E-01
       -2   -1    0    0    0  501  0.00000000000E+00  0.00000000000E+00  0.61532163107E+03  0.61532163108E+03  0.25500000920E-02 0. -1.
        2   -1    0    0  501    0  0.00000000000E+00  0.00000000000E+00 -0.23424489412E+04  0.23424489412E+04  0.25500000920E-02 0.  1.
    10030    2    1    2    0    0  0.00000000000E+00  0.00000000000E+00 -0.17271273101E+04  0.29577705723E+04  0.24011326521E+04 0.  0.
        4    1    3    3  502    0  0.34318994299E+03 -0.11406579502E+04 -0.10482467335E+04  0.15867270476E+04  0.12699999809E+01 0. -1.
       -4    1    3    3    0  502 -0.34318994299E+03  0.11406579502E+04 -0.67888057664E+03  0.13710435247E+04  0.12699999809E+01 0.  1.
</event>
<event>
 5   0  0.1307477E-06  0.2399352E+04  0.7818609E-02  0.8439746E-01
       -2   -1    0    0    0  501  0.00000000000E+00  0.00000000000E+00  0.48904804194E+03  0.48904804195E+03  0.25500000920E-02 0.  1.
        2   -1    0    0  501    0  0.00000000000E+00  0.00000000000E+00 -0.29429072861E+04  0.29429072861E+04  0.25500000920E-02 0. -1.
    10030    2    1    2    0    0  0.00000000000E+00  0.00000000000E+00 -0.24538592442E+04  0.34319553281E+04  0.23993524509E+04 0.  0.
        5    1    3    3  502    0  0.47560219564E+03 -0.37117513932E+03 -0.27101264037E+04  0.27764681966E+04  0.46999998093E+01 0. -1.
       -5    1    3    3    0  502 -0.47560219564E+03  0.37117513932E+03  0.25626715951E+03  0.65548713152E+03  0.46999998093E+01 0.  1.
</event>
<event>
 5   0  0.5690124E-07  0.2401074E+04  0.7818609E-02  0.8439102E-01
       -1   -1    0    0    0  501  0.00000000000E+00  0.00000000000E+00  0.59128432556E+03  0.59128432558E+03  0.50400001928E-02 0. -1.
        1   -1    0    0  501    0  0.00000000000E+00  0.00000000000E+00 -0.24375562550E+04  0.24375562550E+04  0.50400001928E-02 0.  1.
    10030    2    1    2    0    0  0.00000000000E+00  0.00000000000E+00 -0.18462719294E+04  0.30288405806E+04  0.24010737650E+04 0.  0.
        2    1    3    3  502    0  0.80602513215E+03  0.87876751512E+03 -0.74752678868E+03  0.14073752730E+04  0.25500000920E-02 0.  1.
       -2    1    3    3    0  502 -0.80602513215E+03 -0.87876751512E+03 -0.10987451407E+04  0.16214653076E+04  0.25500000920E-02 0. -1.
</event>
<event>
 5   0  0.5527286E-07  0.2399746E+04  0.7818609E-02  0.8439599E-01
        1   -1    0    0  501    0  0.00000000000E+00  0.00000000000E+00  0.17503275080E+04  0.17503275080E+04  0.50400001928E-02 0.  1.
       -1   -1    0    0    0  501  0.00000000000E+00  0.00000000000E+00 -0.82252907919E+03  0.82252907920E+03  0.50400001928E-02 0. -1.
    10030    2    1    2    0    0  0.00000000000E+00  0.00000000000E+00  0.92779842882E+03  0.25728565872E+04  0.23997460478E+04 0.  0.
        1    1    3    3  502    0 -0.10463926470E+04 -0.57253234701E+03  0.60354239000E+03  0.13367850525E+04  0.50400001928E-02 0.  1.
       -1    1    3    3    0  502  0.10463926470E+04  0.57253234701E+03  0.32425603882E+03  0.12360715347E+04  0.50400001928E-02 0. -1.
</event>
<event>
 5   0  0.1336057E-06  0.2398033E+04  0.7818609E-02  0.8440240E-01
        2   -1    0    0  501    0  0.00000000000E+00  0.00000000000E+00  0.12854964093E+04  0.12854964093E+04  0.25500000920E-02 0. -1.
       -2   -1    0    0    0  501  0.00000000000E+00  0.00000000000E+00 -0.11183545371E+04  0.11183545371E+04  0.25500000920E-02 0.  1.
    10030    2    1    2    0    0  0.00000000000E+00  0.00000000000E+00  0.16714187215E+03  0.24038509464E+04  0.23980331455E+04 0.  0.
        2    1    3    3  502    0 -0.91654598746E+03 -0.45920706457E+03  0.70694219786E+03  0.12452690257E+04  0.25500000920E-02 0. -1.
       -2    1    3    3    0  502  0.91654598746E+03  0.45920706457E+03 -0.53980032571E+03  0.11585819207E+04  0.25500000920E-02 0.  1.
</event>
<event>
 5   0  0.5510176E-07  0.2396030E+04  0.7818609E-02  0.8440991E-01
        1   -1    0    0  501    0  0.00000000000E+00  0.00000000000E+00  0.18276493939E+04  0.18276493939E+04  0.50400001928E-02 0.  1.
       -1   -1    0    0    0  501  0.00000000000E+00  0.00000000000E+00 -0.78529272412E+03  0.78529272413E+03  0.50400001928E-02 0. -1.
    10030    2    1    2    0    0  0.00000000000E+00  0.00000000000E+00  0.10423566697E+04  0.26129421180E+04  0.23960298590E+04 0.  0.
        3    1    3    3  502    0  0.13143716980E+03  0.10433228661E+04  0.11471096355E+04  0.15561680046E+04  0.10100000352E+00 0.  1.
       -3    1    3    3    0  502 -0.13143716980E+03 -0.10433228661E+04 -0.10475296574E+03  0.10567741134E+04  0.10100000352E+00 0. -1.
</event>
<event>
 5   0  0.5510176E-07  0.2399633E+04  0.7818609E-02  0.8439641E-01
       -1   -1    0    0    0  501  0.00000000000E+00  0.00000000000E+00  0.24463805049E+04  0.24463805049E+04  0.50400001928E-02 0.  1.
        1   -1    0    0  501    0  0.00000000000E+00  0.00000000000E+00 -0.58844472748E+03  0.58844472750E+03  0.50400001928E-02 0. -1.
    10030    2    1    2    0    0  0.00000000000E+00  0.00000000000E+00  0.18579357774E+04  0.30348252324E+04  0.23996330632E+04 0.  0.
        3    1    3    3  502    0 -0.11879693874E+04  0.15932224684E+03  0.86080450669E+03  0.14756826395E+04  0.10100000352E+00 0. -1.
       -3    1    3    3    0  502  0.11879693874E+04 -0.15932224684E+03  0.99713127071E+03  0.15591425929E+04  0.10100000352E+00 0.  1.
</event>
<event>
 5   0  0.1336057E-06  0.2400280E+04  0.7818609E-02  0.8439399E-01
        2   -1    0    0  501    0  0.00000000000E+00  0.00000000000E+00  0.21846392080E+04  0.21846392080E+04  0.25500000920E-02 0.  1.
       -2   -1    0    0    0  501  0.00000000000E+00  0.00000000000E+00 -0.65930160261E+03  0.65930160262E+03  0.25500000920E-02 0. -1.
    10030    2    1    2    0    0  0.00000000000E+00  0.00000000000E+00  0.15253376053E+04  0.28439408106E+04  0.24002800928E+04 0.  0.
        2    1    3    3  502    0 -0.42577311395E+03  0.10818717024E+04  0.11153584089E+04  0.16111342295E+04  0.25500000920E-02 0.  1.
       -2    1    3    3    0  502  0.42577311395E+03 -0.10818717024E+04  0.40997919641E+03  0.12328065811E+04  0.25500000920E-02 0. -1.
</event>
<event>
 5   0  0.5452384E-07  0.2399408E+04  0.7818609E-02  0.8439725E-01
        1   -1    0    0  501    0  0.00000000000E+00  0.00000000000E+00  0.15120332383E+04  0.15120332383E+04  0.50400001928E-02 0. -1.
       -1   -1    0    0    0  501  0.00000000000E+00  0.00000000000E+00 -0.95188994847E+03  0.95188994848E+03  0.50400001928E-02 0.  1.
    10030    2    1    2    0    0  0.00000000000E+00  0.00000000000E+00  0.56014328979E+03  0.24639231867E+04  0.23994076279E+04 0.  0.
        5    1    3    3  502    0  0.65449360836E+03  0.69638191490E+03  0.10248009678E+04  0.14012668441E+04  0.46999998093E+01 0. -1.
       -5    1    3    3    0  502 -0.65449360836E+03 -0.69638191490E+03 -0.46465767802E+03  0.10626563426E+04  0.46999998093E+01 0.  1.
</event>
<event>
 5   0  0.1308662E-06  0.2399542E+04  0.7818609E-02  0.8439675E-01
       -2   -1    0    0    0  501  0.00000000000E+00  0.00000000000E+00  0.10040204334E+04  0.10040204334E+04  0.25500000920E-02 0.  1.
        2   -1    0    0  501    0  0.00000000000E+00  0.00000000000E+00 -0.14336869534E+04  0.14336869534E+04  0.25500000920E-02 0. -1.
    10030    2    1    2    0    0  0.00000000000E+00  0.00000000000E+00 -0.42966652003E+03  0.24377073868E+04  0.23995424533E+04 0.  0.
        3    1    3    3  502    0  0.63319620079E+03  0.71808158717E+03 -0.94943337310E+03  0.13483331690E+04  0.10100000352E+00 0. -1.
       -3    1    3    3    0  502 -0.63319620079E+03 -0.71808158717E+03  0.51976685307E+03  0.10893742177E+04  0.10100000352E+00 0.  1.
</event>
<event>
 5   0  0.1308662E-06  0.2400998E+04  0.7818609E-02  0.8439130E-01
        2   -1    0    0  501    0  0.00000000000E+00  0.00000000000E+00  0.78950790175E+03  0.78950790176E+03  0.25500000920E-02 0.  1.
       -2   -1    0    0    0  501  0.00000000000E+00  0.00000000000E+00 -0.18254380690E+04  0.18254380690E+04  0.25500000920E-02 0. -1.
    10030    2    1    2    0    0  0.00000000000E+00  0.00000000000E+00 -0.10359301672E+04  0.26149459707E+04  0.24009979422E+04 0.  0.
        3    1    3    3  502    0 -0.70718356824E+03  0.79110060271E+03  0.93536794966E+02  0.10652219980E+04  0.10100000352E+00 0.  1.
       -3    1    3    3    0  502  0.70718356824E+03 -0.79110060271E+03 -0.11294669622E+04  0.15497239727E+04  0.10100000352E+00 0. -1.
</event>
<event>
 5   0  0.1336057E-06  0.2400190E+04  0.7818609E-02  0.8439432E-01
       -2   -1    0    0    0  501  0.00000000000E+00  0.00000000000E+00  0.91649006712E+03  0.91649006713E+03  0.25500000920E-02 0. -1.
        2   -1    0    0  501    0  0.00000000000E+00  0.00000000000E+00 -0.15714611927E+04  0.15714611927E+04  0.25500000920E-02 0.  1.
    10030    2    1    2    0    0  0.00000000000E+00  0.00000000000E+00 -0.65497112556E+03  0.24879512598E+04  0.24001904707E+04 0.  0.
        2    1    3    3  502    0  0.48142744301E+03 -0.10515497283E+04 -0.65967057185E+03  0.13314257310E+04  0.25500000920E-02 0. -1.
       -2    1    3    3    0  502 -0.48142744301E+03  0.10515497283E+04  0.46994462897E+01  0.11565255288E+04  0.25500000920E-02 0.  1.
</event>
<event>
 5   0  0.5363690E-07  0.2401490E+04  0.7818609E-02  0.8438946E-01
        1   -1    0    0  501    0  0.00000000000E+00  0.00000000000E+00  0.18722308616E+04  0.18722308616E+04  0.50400001928E-02 0. -1.
       -1   -1    0    0    0  501  0.00000000000E+00  0.00000000000E+00 -0.77009143536E+03  0.77009143538E+03  0.50400001928E-02 0.  1.
    10030    2    1    2    0    0  0.00000000000E+00  0.00000000000E+00  0.11021394263E+04  0.26423222970E+04  0.24014903303E+04 0.  0.
        4    1    3    3  502    0  0.39043920092E+03 -0.55311062054E+03 -0.54005141721E+03  0.86604345982E+03  0.12699999809E+01 0.  1.
       -4    1    3    3    0  502 -0.39043920092E+03  0.55311062054E+03  0.16421908435E+04  0.17762788372E+04  0.12699999809E+01 0. -1.
</event>
<event>
 5   0  0.1275948E-06  0.2401402E+04  0.7818609E-02  0.8438979E-01
        2   -1    0    0  501    0  0.00000000000E+00  0.00000000000E+00  0.10683982146E+04  0.10683982146E+04  0.25500000920E-02 0. -1.
       -2   -1    0    0    0  501  0.00000000000E+00  0.00000000000E+00 -0.13493877309E+04  0.13493877309E+04  0.25500000920E-02 0.  1.
    10030    2    1    2    0    0  0.00000000000E+00  0.00000000000E+00 -0.28098951629E+03  0.24177859454E+04  0.24014024589E+04 0.  0.
        1    1    3    3  502    0 -0.59834432963E+03  0.91776562928E+02 -0.11845092482E+04  0.13302259332E+04  0.50400001928E-02 0.  1.
       -1    1    3    3    0  502  0.59834432963E+03 -0.91776562928E+02  0.90351973189E+03  0.10875600122E+04  0.50400001928E-02 0. -1.
</event>
<event>
 5   0  0.1336057E-06  0.2401246E+04  0.7818609E-02  0.8439037E-01
       -2   -1    0    0    0  501  0.00000000000E+00  0.00000000000E+00  0.61753033093E+03  0.61753033093E+03  0.25500000920E-02 0.  1.
        2   -1    0    0  501    0  0.00000000000E+00  0.00000000000E+00 -0.23342914816E+04  0.23342914816E+04  0.25500000920E-02 0. -1.
    10030    2    1    2    0    0  0.00000000000E+00  0.00000000000E+00 -0.17167611507E+04  0.29518218125E+04  0.24012461691E+04 0.  0.
        2    1    3    3  502    0 -0.15899759875E+03 -0.69945906462E+03 -0.20419313516E+04  0.21642566539E+04  0.25500000920E-02 0. -1.
       -2    1    3    3    0  502  0.15899759875E+03  0.69945906462E+03  0.32517020091E+03  0.78756515861E+03  0.25500000920E-02 0.  1.
</event>
<event>
 5   0  0.1275948E-06  0.2397220E+04  0.7818609E-02  0.8440545E-01
       -2   -1    0    0    0  501  0.00000000000E+00  0.00000000000E+00  0.10915976594E+04  0.10915976594E+04  0.25500000920E-02 0. -1.
        2   -1    0    0  501    0  0.00000000000E+00  0.00000000000E+00 -0.13161128752E+04  0.13161128752E+04  0.25500000920E-02 0.  1.
    10030    2    1    2    0    0  0.00000000000E+00  0.00000000000E+00 -0.22451521583E+03  0.24077105347E+04  0.23972198348E+04 0.  0.
        1    1    3    3  502    0  0.28026181294E+03 -0.93250408674E+03  0.58976843126E+03  0.11383924447E+04  0.50400001928E-02 0. -1.
       -1    1    3    3    0  502 -0.28026181294E+03  0.93250408674E+03 -0.81428364709E+03  0.12693180900E+04  0.50400001928E-02 0.  1.
</event>
<event>
 5   0  0.1308662E-06  0.2394378E+04  0.7818609E-02  0.8441611E-01
       -2   -1    0    0    0  501  0.00000000000E+00  0.00000000000E+00  0.78300501737E+03  0.78300501738E+03  0.25500000920E-02 0. -1.
        2   -1    0    0  501    0  0.00000000000E+00  0.00000000000E+00 -0.18304627490E+04  0.18304627490E+04  0.25500000920E-02 0.  1.
    10030    2    1    2    0    0  0.00000000000E+00  0.00000000000E+00 -0.10474577316E+04  0.26134677663E+04  0.23943780124E+04 0.  0.
        3    1    3    3  502    0 -0.88048954810E+03  0.75298292206E+03 -0.85302316649E+03  0.14387125001E+04  0.10100000352E+00 0.  1.
       -3    1    3    3    0  502  0.88048954810E+03 -0.75298292206E+03 -0.19443456511E+03  0.11747552662E+04  0.10100000352E+00 0. -1.
</event>
<event>
 5   0  0.5690124E-07  0.2400346E+04  0.7818609E-02  0.8439374E-01
        1   -1    0    0  501    0  0.00000000000E+00  0.00000000000E+00  0.11330268103E+04  0.11330268103E+04  0.50400001928E-02 0. -1.
       -1   -1    0    0    0  501  0.00000000000E+00  0.00000000000E+00 -0.12712987039E+04  0.12712987039E+04  0.50400001928E-02 0.  1.
    10030    2    1    2    0    0  0.00000000000E+00  0.00000000000E+00 -0.13827189360E+03  0.24043255143E+04  0.24003462380E+04 0.  0.
        2    1    3    3  502    0  0.37996679743E+03 -0.36487895057E+03 -0.11493039909E+04  0.12642828320E+04  0.25500000920E-02 0.  1.
       -2    1    3    3    0  502 -0.37996679743E+03  0.36487895057E+03  0.10110320973E+04  0.11400426823E+04  0.25500000920E-02 0. -1.
</event>
<event>
 5   0  0.1275948E-06  0.2405878E+04  0.7818609E-02  0.8437306E-01
        2   -1    0    0  501    0  0.00000000000E+00  0.00000000000E+00  0.15869003183E+04  0.15869003183E+04  0.25500000920E-02 0.  1.
       -2   -1    0    0    0  501  0.00000000000E+00  0.00000000000E+00 -0.91187959500E+03  0.91187959500E+03  0.25500000920E-02 0. -1.
    10030    2    1    2    0    0  0.00000000000E+00  0.00000000000E+00  0.67502072329E+03  0.24987799133E+04  0.24058778186E+04 0.  0.
        1    1    3    3  502    0  0.55940346691E+02  0.12004219522E+04  0.39363240892E+03  0.12645507736E+04  0.50400001928E-02 0. -1.
       -1    1    3    3    0  502 -0.55940346691E+02 -0.12004219522E+04  0.28138831438E+03  0.12342291397E+04  0.50400001928E-02 0.  1.
</event>
<event>
 5   0  0.1291468E-06  0.2400415E+04  0.7818609E-02  0.8439348E-01
        2   -1    0    0  501    0  0.00000000000E+00  0.00000000000E+00  0.19380930427E+04  0.19380930427E+04  0.25500000920E-02 0. -1.
       -2   -1    0    0    0  501  0.00000000000E+00  0.00000000000E+00 -0.74325556186E+03  0.74325556187E+03  0.25500000920E-02 0.  1.
    10030    2    1    2    0    0  0.00000000000E+00  0.00000000000E+00  0.11948374808E+04  0.26813486046E+04  0.24004153252E+04 0.  0.
        4    1    3    3  502    0  0.53539183716E+01 -0.10142851412E+04  0.13141462231E+04  0.16600556980E+04  0.12699999809E+01 0. -1.
       -4    1    3    3    0  502 -0.53539183716E+01  0.10142851412E+04 -0.11930874223E+03  0.10212929065E+04  0.12699999809E+01 0.  1.
</event>
<event>
 5   0  0.5527286E-07  0.2399809E+04  0.7818609E-02  0.8439575E-01
       -1   -1    0    0    0  501  0.00000000000E+00  0.00000000000E+00  0.11036164758E+04  0.11036164759E+04  0.50400001928E-02 0. -1.
        1   -1    0    0  501    0  0.00000000000E+00  0.00000000000E+00 -0.13045932824E+04  0.13045932824E+04  0.50400001928E-02 0.  1.
    10030    2    1    2    0    0  0.00000000000E+00  0.00000000000E+00 -0.20097680655E+03  0.24082097583E+04  0.23998088597E+04 0.  0.
        1    1    3    3  502    0 -0.46044131375E+03 -0.53873998258E+03 -0.10721359978E+04  0.12851935924E+04  0.50400001928E-02 0.  1.
       -1    1    3    3    0  502  0.46044131375E+03  0.53873998258E+03  0.87115919123E+03  0.11230161658E+04  0.50400001928E-02 0. -1.
</event>
<event>
 5   0  0.5690124E-07  0.2399034E+04  0.7818609E-02  0.8439865E-01
       -1   -1    0    0    0  501  0.00000000000E+00  0.00000000000E+00  0.90145291343E+03  0.90145291344E+03  0.50400001928E-02 0.  1.
        1   -1    0    0  501    0  0.00000000000E+00  0.00000000000E+00 -0.15961349075E+04  0.15961349075E+04  0.50400001928E-02 0. -1.
    10030    2    1    2    0    0  0.00000000000E+00  0.00000000000E+00 -0.69468199410E+03  0.24975878210E+04  0.23990335243E+04 0.  0.
        2    1    3    3  502    0 -0.58314538808E+03  0.10123871924E+04 -0.63026626205E+03  0.13274870742E+04  0.25500000920E-02 0. -1.
       -2    1    3    3    0  502  0.58314538808E+03 -0.10123871924E+04 -0.64415732058E+02  0.11701007468E+04  0.25500000920E-02 0.  1.
</event>
<event>
 5   0  0.5452384E-07  0.2397652E+04  0.7818609E-02  0.8440383E-01
       -1   -1    0    0    0  501  0.00000000000E+00  0.00000000000E+00  0.73890354865E+03  0.73890354866E+03  0.50400001928E-02 0.  1.
        1   -1    0    0  501    0  0.00000000000E+00  0.00000000000E+00 -0.19450220957E+04  0.19450220957E+04  0.50400001928E-02 0. -1.
    10030    2    1    2    0    0  0.00000000000E+00  0.00000000000E+00 -0.12061185471E+04  0.26839256444E+04  0.23976519587E+04 0.  0.
        5    1    3    3  502    0 -0.26693303903E+03  0.11253269389E+04 -0.24987619119E+03  0.11832472978E+04  0.46999998093E+01 0.  1.
       -5    1    3    3    0  502  0.26693303903E+03 -0.11253269389E+04 -0.95624235586E+03  0.15006783466E+04  0.46999998093E+01 0. -1.
</event>
<event>
 5   0  0.4483375E-07  0.2399416E+04  0.7818609E-02  0.8439722E-01
        3   -1    0    0  501    0  0.00000000000E+00  0.00000000000E+00  0.95561008879E+03  0.95561009413E+03  0.10100000352E+00 0. -1.
       -3   -1    0    0    0  501  0.00000000000E+00  0.00000000000E+00 -0.15061572662E+04  0.15061572696E+04  0.10100000352E+00 0.  1.
    10030    2    1    2    0    0  0.00000000000E+00  0.00000000000E+00 -0.55054717743E+03  0.24617673637E+04  0.23994158369E+04 0.  0.
        1    1    3    3  502    0 -0.45070686767E+03 -0.48368686088E+03  0.75184533590E+03  0.10011798385E+04  0.50400001928E-02 0. -1.
       -1    1    3    3    0  502  0.45070686767E+03  0.48368686088E+03 -0.13023925133E+04  0.14605875252E+04  0.50400001928E-02 0.  1.
</event>
<event>
 5   0  0.5510176E-07  0.2392516E+04  0.7818609E-02  0.8442311E-01
       -1   -1    0    0    0  501  0.00000000000E+00  0.00000000000E+00  0.15601461597E+04  0.15601461597E+04  0.50400001928E-02 0.  1.
        1   -1    0    0  501    0  0.00000000000E+00  0.00000000000E+00 -0.91724300541E+03  0.91724300543E+03  0.50400001928E-02 0. -1.
    10030    2    1    2    0    0  0.00000000000E+00  0.00000000000E+00  0.64290315426E+03  0.24773891651E+04  0.23925159581E+04 0.  0.
        3    1    3    3  502    0  0.52275696557E+03 -0.10646027511E+04  0.48312916629E+03  0.12806512656E+04  0.10100000352E+00 0. -1.
       -3    1    3    3    0  502 -0.52275696557E+03  0.10646027511E+04  0.15977398797E+03  0.11967378995E+04  0.10100000352E+00 0.  1.
</event>
<event>
 5   0  0.1291468E-06  0.2399030E+04  0.7818609E-02  0.8439867E-01
       -2   -1    0    0    0  501  0.00000000000E+00  0.00000000000E+00  0.97735639389E+03  0.97735639389E+03  0.25500000920E-02 0. -1.
        2   -1    0    0  501    0  0.00000000000E+00  0.00000000000E+00 -0.14721709206E+04  0.14721709206E+04  0.25500000920E-02 0.  1.
    10030    2    1    2    0    0  0.00000000000E+00  0.00000000000E+00 -0.49481452668E+03  0.24495273145E+04  0.23990295222E+04 0.  0.
        4    1    3    3  502    0 -0.51519837013E+03  0.58136899295E+02 -0.13518526002E+04  0.14478661282E+04  0.12699999809E+01 0.  1.
       -4    1    3    3    0  502  0.51519837013E+03 -0.58136899295E+02  0.85703807353E+03  0.10016611862E+04  0.12699999809E+01 0. -1.
</event>
<event>
 5   0  0.5527286E-07  0.2399461E+04  0.7818609E-02  0.8439705E-01
       -1   -1    0    0    0  501  0.00000000000E+00  0.00000000000E+00  0.12859967103E+04  0.12859967103E+04  0.50400001928E-02 0.  1.
        1   -1    0    0  501    0  0.00000000000E+00  0.00000000000E+00 -0.11192512559E+04  0.11192512559E+04  0.50400001928E-02 0. -1.
    10030    2    1    2    0    0  0.00000000000E+00  0.00000000000E+00  0.16674545442E+03  0.24052479662E+04  0.23994611337E+04 0.  0.
        1    1    3    3  502    0 -0.55023344878E+03 -0.10548374975E+04 -0.71643168024E+02  0.11918774005E+04  0.50400001928E-02 0.  1.
       -1    1    3    3    0  502  0.55023344878E+03  0.10548374975E+04  0.23838862244E+03  0.12133705657E+04  0.50400001928E-02 0. -1.
</event>
<event>
 5   0  0.1307477E-06  0.2398947E+04  0.7818609E-02  0.8439898E-01
       -2   -1    0    0    0  501  0.00000000000E+00  0.00000000000E+00  0.10111870680E+04  0.10111870680E+04  0.25500000920E-02 0. -1.
        2   -1    0    0  501    0  0.00000000000E+00  0.00000000000E+00 -0.14228199834E+04  0.14228199834E+04  0.25500000920E-02 0.  1.
    10030    2    1    2    0    0  0.00000000000E+00  0.00000000000E+00 -0.41163291545E+03  0.24340070514E+04  0.23989474086E+04 0.  0.
        5    1    3    3  502    0 -0.33827527228E+03  0.20024230978E+01 -0.13734086006E+04  0.14144636594E+04  0.46999998093E+01 0.  1.
       -5    1    3    3    0  502  0.33827527228E+03 -0.20024230978E+01  0.96177568518E+03  0.10195433920E+04  0.46999998093E+01 0. -1.
</event>
<event>
 5   0  0.1307477E-06  0.2400277E+04  0.7818609E-02  0.8439400E-01
       -2   -1    0    0    0  501  0.00000000000E+00  0.00000000000E+00  0.56453288247E+03  0.56453288247E+03  0.25500000920E-02 0. -1.
        2   -1    0    0  501    0  0.00000000000E+00  0.00000000000E+00 -0.25513709878E+04  0.25513709878E+04  0.25500000920E-02 0.  1.
    10030    2    1    2    0    0  0.00000000000E+00  0.00000000000E+00 -0.19868381053E+04  0.31159038702E+04  0.24002773323E+04 0.  0.
        5    1    3    3  502    0 -0.11423478547E+04  0.36566991176E+03 -0.94088637869E+03  0.15244547790E+04  0.46999998093E+01 0.  1.
       -5    1    3    3    0  502  0.11423478547E+04 -0.36566991176E+03 -0.10459517266E+04  0.15914490912E+04  0.46999998093E+01 0. -1.
</event>
<event>
 5   0  0.1307477E-06  0.2399218E+04  0.7818609E-02  0.8439796E-01
        2   -1    0    0  501    0  0.00000000000E+00  0.00000000000E+00  0.17168492653E+04  0.17168492653E+04  0.25500000920E-02 0.  1.
       -2   -1    0    0    0  501  0.00000000000E+00  0.00000000000E+00 -0.83819933373E+03  0.83819933373E+03  0.25500000920E-02 0. -1.
    10030    2    1    2    0    0  0.00000000000E+00  0.00000000000E+00  0.87864993153E+03  0.25550485990E+04  0.23992181312E+04 0.  0.
        5    1    3    3  502    0  0.71046456659E+03  0.60328061372E+03 -0.36492946177E+03  0.10009510484E+04  0.46999998093E+01 0.  1.
       -5    1    3    3    0  502 -0.71046456659E+03 -0.60328061372E+03  0.12435793933E+04  0.15540975506E+04  0.46999998093E+01 0. -1.
</event>
<event>
 5   0  0.1336057E-06  0.2400692E+04  0.7818609E-02  0.8439244E-01
        2   -1    0    0  501    0  0.00000000000E+00  0.00000000000E+00  0.92565906143E+03  0.92565906143E+03  0.25500000920E-02 0.  1.
       -2   -1    0    0    0  501  0.00000000000E+00  0.00000000000E+00 -0.15565458741E+04  0.15565458741E+04  0.25500000920E-02 0. -1.
    10030    2    1    2    0    0  0.00000000000E+00  0.00000000000E+00 -0.63088681263E+03  0.24822049355E+04  0.24006922275E+04 0.  0.
        2    1    3    3  502    0  0.71726219569E+03  0.44162105000E+03  0.56877550210E+03  0.10163659680E+04  0.25500000920E-02 0.  1.
       -2    1    3    3    0  502 -0.71726219569E+03 -0.44162105000E+03 -0.11996623147E+04  0.14658389675E+04  0.25500000920E-02 0. -1.
</event>
<event>
 5   0  0.5363690E-07  0.2400022E+04  0.7818609E-02  0.8439495E-01
       -1   -1    0    0    0  501  0.00000000000E+00  0.00000000000E+00  0.10583773444E+04  0.10583773445E+04  0.50400001928E-02 0.  1.
        1   -1    0    0  501    0  0.00000000000E+00  0.00000000000E+00 -0.13605980649E+04  0.13605980649E+04  0.50400001928E-02 0. -1.
    10030    2    1    2    0    0  0.00000000000E+00  0.00000000000E+00 -0.30222072041E+03  0.24189754093E+04  0.24000218055E+04 0.  0.
        4    1    3    3  502    0 -0.16080209973E+03 -0.14557153882E+03 -0.13406751713E+04  0.13581089485E+04  0.12699999809E+01 0. -1.
       -4    1    3    3    0  502  0.16080209973E+03  0.14557153882E+03  0.10384544509E+04  0.10608664608E+04  0.12699999809E+01 0.  1.
</event>
<event>
 5   0  0.1275948E-06  0.2392718E+04  0.7818609E-02  0.8442235E-01
       -2   -1    0    0    0  501  0.00000000000E+00  0.00000000000E+00  0.70370595945E+03  0.70370595946E+03  0.25500000920E-02 0.  1.
        2   -1    0    0  501    0  0.00000000000E+00  0.00000000000E+00 -0.20339098690E+04  0.20339098690E+04  0.25500000920E-02 0. -1.
    10030    2    1    2    0    0  0.00000000000E+00  0.00000000000E+00 -0.13302039095E+04  0.27376158284E+04  0.23927176982E+04 0.  0.
        1    1    3    3  502    0 -0.63237439401E+00 -0.26223393948E+03  0.67041831900E+03  0.71988037992E+03  0.50400001928E-02 0.  1.
       -1    1    3    3    0  502  0.63237439401E+00  0.26223393948E+03 -0.20006222285E+04  0.20177354485E+04  0.50400001928E-02 0. -1.
</event>
<event>
 5   0  0.1307477E-06  0.2399618E+04  0.7818609E-02  0.8439647E-01
        2   -1    0    0  501    0  0.00000000000E+00  0.00000000000E+00  0.26844256733E+04  0.26844256733E+04  0.25500000920E-02 0. -1.
       -2   -1    0    0    0  501  0.00000000000E+00  0.00000000000E+00 -0.53625669153E+03  0.53625669154E+03  0.25500000920E-02 0.  1.
    10030    2    1    2    0    0  0.00000000000E+00  0.00000000000E+00  0.21481689817E+04  0.32206823648E+04  0.23996176614E+04 0.  0.
        5    1    3    3  502    0  0.32757257948E+03  0.11517193772E+04  0.97224060873E+03  0.15424121401E+04  0.46999998093E+01 0.  1.
       -5    1    3    3    0  502 -0.32757257948E+03 -0.11517193772E+04  0.11759283730E+04  0.16782702247E+04  0.46999998093E+01 0. -1.
</event>
<event>
 5   0  0.1291468E-06  0.2400843E+04  0.7818609E-02  0.8439188E-01
        2   -1    0    0  501    0  0.00000000000E+00  0.00000000000E+00  0.12844579170E+04  0.12844579170E+04  0.25500000920E-02 0.  1.
       -2   -1    0    0    0  501  0.00000000000E+00  0.00000000000E+00 -0.11218833460E+04  0.11218833460E+04  0.25500000920E-02 0. -1.
    10030    2    1    2    0    0  0.00000000000E+00  0.00000000000E+00  0.16257457098E+03  0.24063412630E+04  0.24008431400E+04 0.  0.
        4    1    3    3  502    0  0.11142950113E+04 -0.26478596394E+03  0.44161768414E+03  0.12275148760E+04  0.12699999809E+01 0.  1.
       -4    1    3    3    0  502 -0.11142950113E+04  0.26478596394E+03 -0.27904311315E+03  0.11788263871E+04  0.12699999809E+01 0. -1.
</event>
<event>
 5   0  0.1308662E-06  0.2400206E+04  0.7818609E-02  0.8439426E-01
       -2   -1    0    0    0  501  0.00000000000E+00  0.00000000000E+00  0.97821530161E+03  0.97821530161E+03  0.25500000920E-02 0. -1.
        2   -1    0    0  501    0  0.00000000000E+00  0.00000000000E+00 -0.14723213582E+04  0.14723213582E+04  0.25500000920E-02 0.  1.
    10030    2    1    2    0    0  0.00000000000E+00  0.00000000000E+00 -0.49410605659E+03  0.24505366598E+04  0.24002060591E+04 0.  0.
        3    1    3    3  502    0 -0.11029983354E+04 -0.42018199010E+03 -0.25502603328E+02  0.11805967245E+04  0.10100000352E+00 0. -1.
       -3    1    3    3    0  502  0.11029983354E+04  0.42018199010E+03 -0.46860345327E+03  0.12699399354E+04  0.10100000352E+00 0.  1.
</event>
<event>
 5   0  0.1307477E-06  0.2389553E+04  0.7818609E-02  0.8443425E-01
       -2   -1    0    0    0  501  0.00000000000E+00  0.00000000000E+00  0.48664489751E+03  0.48664489752E+03  0.25500000920E-02 0. -1.
        2   -1    0    0  501    0  0.00000000000E+00  0.00000000000E+00 -0.29333310065E+04  0.29333310065E+04  0.25500000920E-02 0.  1.
    10030    2    1    2    0    0  0.00000000000E+00  0.00000000000E+00 -0.24466861090E+04  0.34199759041E+04  0.23895527339E+04 0.  0.
        5    1    3    3  502    0  0.47913963042E+03  0.54542563518E+03 -0.25814227989E+04  0.26815722377E+04  0.46999998093E+01 0.  1.
       -5    1    3    3    0  502 -0.47913963042E+03 -0.54542563518E+03  0.13473668991E+03  0.73840366640E+03  0.46999998093E+01 0. -1.
</event>
<event>
 5   0  0.5363690E-07  0.2399273E+04  0.7818609E-02  0.8439776E-01
       -1   -1    0    0    0  501  0.00000000000E+00  0.00000000000E+00  0.54104085319E+03  0.54104085322E+03  0.50400001928E-02 0.  1.
        1   -1    0    0  501    0  0.00000000000E+00  0.00000000000E+00 -0.26599244714E+04  0.26599244714E+04  0.50400001928E-02 0. -1.
    10030    2    1    2    0    0  0.00000000000E+00  0.00000000000E+00 -0.21188836182E+04  0.32009653246E+04  0.23992730611E+04 0.  0.
        4    1    3    3  502    0 -0.30922338324E+03  0.40110896986E+03  0.39141201967E+03  0.64008787560E+03  0.12699999809E+01 0.  1.
       -4    1    3    3    0  502  0.30922338324E+03 -0.40110896986E+03 -0.25102956379E+04  0.25608774490E+04  0.12699999809E+01 0. -1.
</event>
<event>
 5   0  0.5510176E-07  0.2399863E+04  0.7818609E-02  0.8439555E-01
       -1   -1    0    0    0  501  0.00000000000E+00  0.00000000000E+00  0.72997977645E+03  0.72997977647E+03  0.50400001928E-02 0. -1.
        1   -1    0    0  501    0  0.00000000000E+00  0.00000000000E+00 -0.19724323094E+04  0.19724323094E+04  0.50400001928E-02 0.  1.
    10030    2    1    2    0    0  0.00000000000E+00  0.00000000000E+00 -0.12424525329E+04  0.27024120858E+04  0.23998630763E+04 0.  0.
        3    1    3    3  502    0 -0.65318133222E+03  0.75204338408E+03 -0.13746167573E+04  0.16975824999E+04  0.10100000352E+00 0.  1.
       -3    1    3    3    0  502  0.65318133222E+03 -0.75204338408E+03  0.13216422443E+03  0.10048295859E+04  0.10100000352E+00 0. -1.
</event>
<event>
 5   0  0.5452384E-07  0.2398992E+04  0.7818609E-02  0.8439881E-01
        1   -1    0    0  501    0  0.00000000000E+00  0.00000000000E+00  0.99492764058E+03  0.99492764059E+03  0.50400001928E-02 0. -1.
       -1   -1    0    0    0  501  0.00000000000E+00  0.00000000000E+00 -0.14461260797E+04  0.14461260797E+04  0.50400001928E-02 0.  1.
    10030    2    1    2    0    0  0.00000000000E+00  0.00000000000E+00 -0.45119843915E+03  0.24410537203E+04  0.23989921288E+04 0.  0.
        5    1    3    3  502    0 -0.24948748896E+03 -0.79760500870E+03 -0.11011217698E+04  0.13823563213E+04  0.46999998093E+01 0.  1.
       -5    1    3    3    0  502  0.24948748896E+03  0.79760500870E+03  0.64992333064E+03  0.10586973991E+04  0.46999998093E+01 0. -1.
</event>
<event>
 5   0  0.1275948E-06  0.2399866E+04  0.7818609E-02  0.8439554E-01
       -2   -1    0    0    0  501  0.00000000000E+00  0.00000000000E+00  0.88235392569E+03  0.88235392569E+03  0.25500000920E-02 0.  1.
        2   -1    0    0  501    0  0.00000000000E+00  0.00000000000E+00 -0.16318159242E+04  0.16318159242E+04  0.25500000920E-02 0. -1.
    10030    2    1    2    0    0  0.00000000000E+00  0.00000000000E+00 -0.74946199854E+03  0.25141698499E+04  0.23998659852E+04 0.  0.
        1    1    3    3  502    0 -0.78133844877E+03 -0.65711021525E+03  0.28582029921E+03  0.10601777445E+04  0.50400001928E-02 0.  1.
       -1    1    3    3    0  502  0.78133844877E+03  0.65711021525E+03 -0.10352822978E+04  0.14539921054E+04  0.50400001928E-02 0. -1.
</event>
<event>
 5   0  0.1307477E-06  0.2400038E+04  0.7818609E-02  0.8439489E-01
       -2   -1    0    0    0  501  0.00000000000E+00  0.00000000000E+00  0.15802305628E+04  0.15802305628E+04  0.25500000920E-02 0. -1.
        2   -1    0    0  501    0  0.00000000000E+00  0.00000000000E+00 -0.91128862343E+03  0.91128862343E+03  0.25500000920E-02 0.  1.
    10030    2    1    2    0    0  0.00000000000E+00  0.00000000000E+00  0.66894193937E+03  0.24915191862E+04  0.24000384449E+04 0.  0.
        5    1    3    3  502    0 -0.40313358946E+03 -0.61230870282E+03 -0.65178623968E+03  0.98096178863E+03  0.46999998093E+01 0.  1.
       -5    1    3    3    0  502  0.40313358946E+03  0.61230870282E+03  0.13207281791E+04  0.15105573976E+04  0.46999998093E+01 0. -1.
</event>
<event>
 5   0  0.5452384E-07  0.2400471E+04  0.7818609E-02  0.8439327E-01
        1   -1    0    0  501    0  0.00000000000E+00  0.00000000000E+00  0.20103553611E+04  0.20103553611E+04  0.50400001928E-02 0. -1.
       -1   -1    0    0    0  501  0.00000000000E+00  0.00000000000E+00 -0.71657225056E+03  0.71657225058E+03  0.50400001928E-02 0.  1.
    10030    2    1    2    0    0  0.00000000000E+00  0.00000000000E+00  0.12937831105E+04  0.27269276117E+04  0.24004706751E+04 0.  0.
        5    1    3    3  502    0 -0.15672557741E+02  0.51807434543E+03 -0.58287240842E+03  0.78000576341E+03  0.46999998093E+01 0.  1.
       -5    1    3    3    0  502  0.15672557741E+02 -0.51807434543E+03  0.18766555189E+04  0.19469218483E+04  0.46999998093E+01 0. -1.
</event>
<event>
 5   0  0.5527286E-07  0.2393489E+04  0.7818609E-02  0.8441945E-01
       -1   -1    0    0    0  501  0.00000000000E+00  0.00000000000E+00  0.12361217621E+04  0.12361217621E+04  0.50400001928E-02 0. -1.
        1   -1    0    0  501    0  0.00000000000E+00  0.00000000000E+00 -0.11586219912E+04  0.11586219912E+04  0.50400001928E-02 0.  1.
    10030    2    1    2    0    0  0.00000000000E+00  0.00000000000E+00  0.77499770932E+02  0.23947437533E+04  0.23934893836E+04 0.  0.
        1    1    3    3  502    0 -0.75607971076E+03  0.12660453858E+03  0.95820517434E+03  0.12271277009E+04  0.50400001928E-02 0. -1.
       -1    1    3    3    0  502  0.75607971076E+03 -0.12660453858E+03 -0.88070540340E+03  0.11676160524E+04  0.50400001928E-02 0.  1.
</event>
<event>
 5   0  0.1291468E-06  0.2400628E+04  0.7818609E-02  0.8439269E-01
        2   -1    0    0  501    0  0.00000000000E+00  0.00000000000E+00  0.17260872910E+04  0.17260872910E+04  0.25500000920E-02 0. -1.
       -2   -1    0    0    0  501  0.00000000000E+00  0.00000000000E+00 -0.83469329573E+03  0.83469329573E+03  0.25500000920E-02 0.  1.
    10030    2    1    2    0    0  0.00000000000E+00  0.00000000000E+00  0.89139399528E+03  0.25607805867E+04  0.24006278259E+04 0.  0.
        4    1    3    3  502    0 -0.41142581499E+02  0.44790164952E+03 -0.74139832278E+03  0.86716877571E+03  0.12699999809E+01 0.  1.
       -4    1    3    3    0  502  0.41142581499E+02 -0.44790164952E+03  0.16327923181E+04  0.16936118110E+04  0.12699999809E+01 0. -1.
</event>
<event>
 5   0  0.5527286E-07  0.2418249E+04  0.7818609E-02  0.8432703E-01
        1   -1    0    0  501    0  0.00000000000E+00  0.00000000000E+00  0.17380097577E+04  0.17380097577E+04  0.50400001928E-02 0.  1.
       -1   -1    0    0    0  501  0.00000000000E+00  0.00000000000E+00 -0.84118185422E+03  0.84118185424E+03  0.50400001928E-02 0. -1.
    10030    2    1    2    0    0  0.00000000000E+00  0.00000000000E+00  0.89682790348E+03  0.25791916119E+04  0.24182491771E+04 0.  0.
        1    1    3    3  502    0  0.60334561082E+03  0.10297087399E+04  0.24144694197E+03  0.12176299278E+04  0.50400001928E-02 0.  1.
       -1    1    3    3    0  502 -0.60334561082E+03 -0.10297087399E+04  0.65538096151E+03  0.13615616842E+04  0.50400001928E-02 0. -1.
</event>
<event>
 5   0  0.1291468E-06  0.2399967E+04  0.7818609E-02  0.8439516E-01
        2   -1    0    0  501    0  0.00000000000E+00  0.00000000000E+00  0.15544714463E+04  0.15544714463E+04  0.25500000920E-02 0.  1.
       -2   -1    0    0    0  501  0.00000000000E+00  0.00000000000E+00 -0.92633426594E+03  0.92633426594E+03  0.25500000920E-02 0. -1.
    10030    2    1    2    0    0  0.00000000000E+00  0.00000000000E+00  0.62813718041E+03  0.24808057123E+04  0.23999668049E+04 0.  0.
        4    1    3    3  502    0  0.19756150384E+03  0.75050923212E+03  0.12601367308E+04  0.14799462317E+04  0.12699999809E+01 0.  1.
       -4    1    3    3    0  502 -0.19756150384E+03 -0.75050923212E+03 -0.63199955043E+03  0.10008594806E+04  0.12699999809E+01 0. -1.
</event>
<event>
 5   0  0.1275948E-06  0.2400424E+04  0.7818609E-02  0.8439345E-01
       -2   -1    0    0    0  501  0.00000000000E+00  0.00000000000E+00  0.97285431142E+03  0.97285431143E+03  0.25500000920E-02 0. -1.
        2   -1    0    0  501    0  0.00000000000E+00  0.00000000000E+00 -0.14807037611E+04  0.14807037611E+04  0.25500000920E-02 0.  1.
    10030    2    1    2    0    0  0.00000000000E+00  0.00000000000E+00 -0.50784944968E+03  0.24535580725E+04  0.24004241608E+04 0.  0.
        1    1    3    3  502    0  0.58360277473E+03 -0.82419044549E+03  0.40898882969E+03  0.10895659466E+04  0.50400001928E-02 0. -1.
       -1    1    3    3    0  502 -0.58360277473E+03  0.82419044549E+03 -0.91683827937E+03  0.13639921260E+04  0.50400001928E-02 0.  1.
</event>
<event>
 5   0  0.4483375E-07  0.2388769E+04  0.7818609E-02  0.8443720E-01
       -4   -1    0    0    0  501  0.00000000000E+00  0.00000000000E+00  0.11494588351E+04  0.11494595367E+04  0.12699999809E+01 0. -1.
        4   -1    0    0  501    0  0.00000000000E+00  0.00000000000E+00 -0.12410643421E+04  0.12410649919E+04  0.12699999809E+01 0.  1.
    10030    2    1    2    0    0  0.00000000000E+00  0.00000000000E+00 -0.91605506956E+02  0.23905245286E+04  0.23887687106E+04 0.  0.
        5    1    3    3  502    0  0.72367312839E+03 -0.56926400458E+03 -0.80712970750E+03  0.12244365065E+04  0.46999998093E+01 0.  1.
       -5    1    3    3    0  502 -0.72367312839E+03  0.56926400458E+03  0.71552420055E+03  0.11660880221E+04  0.46999998093E+01 0. -1.
</event>
<event>
 5   0  0.5527286E-07  0.2399316E+04  0.7818609E-02  0.8439760E-01
        1   -1    0    0  501    0  0.00000000000E+00  0.00000000000E+00  0.12831254070E+04  0.12831254070E+04  0.50400001928E-02 0. -1.
       -1   -1    0    0    0  501  0.00000000000E+00  0.00000000000E+00 -0.11216200880E+04  0.11216200880E+04  0.50400001928E-02 0.  1.
    10030    2    1    2    0    0  0.00000000000E+00  0.00000000000E+00  0.16150531903E+03  0.24047454950E+04  0.23993159291E+04 0.  0.
        1    1    3    3  502    0 -0.11315387944E+04 -0.13704820741E+03 -0.29428254044E+03  0.11771849762E+04  0.50400001928E-02 0.  1.
       -1    1    3    3    0  502  0.11315387944E+04  0.13704820741E+03  0.45578785947E+03  0.12275605188E+04  0.50400001928E-02 0. -1.
</event>
<event>
 5   0  0.4483375E-07  0.2399781E+04  0.7818609E-02  0.8439586E-01
       -3   -1    0    0    0  501  0.00000000000E+00  0.00000000000E+00  0.87544610597E+03  0.87544611179E+03  0.10100000352E+00 0. -1.
        3   -1    0    0  501    0  0.00000000000E+00  0.00000000000E+00 -0.16445748807E+04  0.16445748838E+04  0.10100000352E+00 0.  1.
    10030    2    1    2    0    0  0.00000000000E+00  0.00000000000E+00 -0.76912877474E+03  0.25200209956E+04  0.23997805621E+04 0.  0.
        4    1    3    3  502    0 -0.99285561919E+03  0.47830789139E+02 -0.10903137038E+04  0.14754103329E+04  0.12699999809E+01 0.  1.
       -4    1    3    3    0  502  0.99285561919E+03 -0.47830789139E+02  0.32118492908E+03  0.10446106626E+04  0.12699999809E+01 0. -1.
</event>
<event>
 5   0  0.1291468E-06  0.2402297E+04  0.7818609E-02  0.8438644E-01
        2   -1    0    0  501    0  0.00000000000E+00  0.00000000000E+00  0.17041715351E+04  0.17041715351E+04  0.25500000920E-02 0.  1.
       -2   -1    0    0    0  501  0.00000000000E+00  0.00000000000E+00 -0.84660358644E+03  0.84660358644E+03  0.25500000920E-02 0. -1.
    10030    2    1    2    0    0  0.00000000000E+00  0.00000000000E+00  0.85756794870E+03  0.25507751216E+04  0.24022970121E+04 0.  0.
        4    1    3    3  502    0  0.70097975679E+03  0.91341890227E+03  0.65513512330E+02  0.11532564085E+04  0.12699999809E+01 0.  1.
       -4    1    3    3    0  502 -0.70097975679E+03 -0.91341890227E+03  0.79205443637E+03  0.13975187131E+04  0.12699999809E+01 0. -1.
</event>
<event>
 5   0  0.5363690E-07  0.2399784E+04  0.7818609E-02  0.8439585E-01
       -1   -1    0    0    0  501  0.00000000000E+00  0.00000000000E+00  0.18383902017E+04  0.18383902017E+04  0.50400001928E-02 0. -1.
        1   -1    0    0  501    0  0.00000000000E+00  0.00000000000E+00 -0.78315277006E+03  0.78315277008E+03  0.50400001928E-02 0.  1.
    10030    2    1    2    0    0  0.00000000000E+00  0.00000000000E+00  0.10552374316E+04  0.26215429718E+04  0.23997836394E+04 0.  0.
        4    1    3    3  502    0 -0.47407775345E+03  0.53935291954E+03 -0.52250734255E+03  0.88806915499E+03  0.12699999809E+01 0.  1.
       -4    1    3    3    0  502  0.47407775345E+03 -0.53935291954E+03  0.15777447742E+04  0.17334738168E+04  0.12699999809E+01 0. -1.
</event>
<event>
 5   0  0.1291468E-06  0.2399975E+04  0.7818609E-02  0.8439513E-01
        2   -1    0    0  501    0  0.00000000000E+00  0.00000000000E+00  0.11365127249E+04  0.11365127249E+04  0.25500000920E-02 0.  1.
       -2   -1    0    0    0  501  0.00000000000E+00  0.00000000000E+00 -0.12670074126E+04  0.12670074126E+04  0.25500000920E-02 0. -1.
    10030    2    1    2    0    0  0.00000000000E+00  0.00000000000E+00 -0.13049468771E+03  0.24035201375E+04  0.23999750390E+04 0.  0.
        4    1    3    3  502    0  0.20802891881E+03  0.75479850458E+03  0.84547573709E+03  0.11523140407E+04  0.12699999809E+01 0.  1.
       -4    1    3    3    0  502 -0.20802891881E+03 -0.75479850458E+03 -0.97597042480E+03  0.12512060968E+04  0.12699999809E+01 0. -1.
</event>
<event>
 5   0  0.5690124E-07  0.2399970E+04  0.7818609E-02  0.8439515E-01
       -1   -1    0    0    0  501  0.00000000000E+00  0.00000000000E+00  0.13955109060E+04  0.13955109060E+04  0.50400001928E-02 0. -1.
        1   -1    0    0  501    0  0.00000000000E+00  0.00000000000E+00 -0.10318545546E+04  0.10318545546E+04  0.50400001928E-02 0.  1.
    10030    2    1    2    0    0  0.00000000000E+00  0.00000000000E+00  0.36365635140E+03  0.24273654606E+04  0.23999702367E+04 0.  0.
        2    1    3    3  502    0  0.45482394171E+03 -0.61993784720E+03  0.11136352295E+04  0.13532816324E+04  0.25500000920E-02 0. -1.
       -2    1    3    3    0  502 -0.45482394171E+03  0.61993784720E+03 -0.74997887806E+03  0.10740838281E+04  0.25500000920E-02 0.  1.
</event>
<event>
 5   0  0.1275948E-06  0.2397725E+04  0.7818609E-02  0.8440356E-01
        2   -1    0    0  501    0  0.00000000000E+00  0.00000000000E+00  0.13609048414E+04  0.13609048414E+04  0.25500000920E-02 0. -1.
       -2   -1    0    0    0  501  0.00000000000E+00  0.00000000000E+00 -0.10561146601E+04  0.10561146601E+04  0.25500000920E-02 0.  1.
    10030    2    1    2    0    0  0.00000000000E+00  0.00000000000E+00  0.30479018133E+03  0.24170195015E+04  0.23977252169E+04 0.  0.
        1    1    3    3  502    0 -0.90006908853E+03 -0.11738492698E+03 -0.63708519568E+03  0.11089549728E+04  0.50400001928E-02 0.  1.
       -1    1    3    3    0  502  0.90006908853E+03  0.11738492698E+03  0.94187537700E+03  0.13080645286E+04  0.50400001928E-02 0. -1.
</event>
<event>
 5   0  0.5510176E-07  0.2399835E+04  0.7818609E-02  0.8439565E-01
       -1   -1    0    0    0  501  0.00000000000E+00  0.00000000000E+00  0.69307706348E+03  0.69307706350E+03  0.50400001928E-02 0. -1.
        1   -1    0    0  501    0  0.00000000000E+00  0.00000000000E+00 -0.20774061379E+04  0.20774061379E+04  0.50400001928E-02 0.  1.
    10030    2    1    2    0    0  0.00000000000E+00  0.00000000000E+00 -0.13843290744E+04  0.27704832014E+04  0.23998354491E+04 0.  0.
        3    1    3    3  502    0  0.15658070712E+03 -0.11816965251E+04 -0.85078381261E+03  0.14644989933E+04  0.10100000352E+00 0.  1.
       -3    1    3    3    0  502 -0.15658070712E+03  0.11816965251E+04 -0.53354526178E+03  0.13059842081E+04  0.10100000352E+00 0. -1.
</event>
<event>
 5   0  0.5527286E-07  0.2414703E+04  0.7818609E-02  0.8434019E-01
       -1   -1    0    0    0  501  0.00000000000E+00  0.00000000000E+00  0.20123382091E+04  0.20123382091E+04  0.50400001928E-02 0. -1.
        1   -1    0    0  501    0  0.00000000000E+00  0.00000000000E+00 -0.72438011309E+03  0.72438011311E+03  0.50400001928E-02 0.  1.
    10030    2    1    2    0    0  0.00000000000E+00  0.00000000000E+00  0.12879580960E+04  0.27367183222E+04  0.24147031118E+04 0.  0.
        1    1    3    3  502    0 -0.31157841615E+03  0.11517934927E+04  0.43503411312E+03  0.12700252119E+04  0.50400001928E-02 0.  1.
       -1    1    3    3    0  502  0.31157841615E+03 -0.11517934927E+04  0.85292398286E+03  0.14666931103E+04  0.50400001928E-02 0. -1.
</event>
<event>
 5   0  0.5510176E-07  0.2390633E+04  0.7818609E-02  0.8443019E-01
       -1   -1    0    0    0  501  0.00000000000E+00  0.00000000000E+00  0.61790739333E+03  0.61790739335E+03  0.50400001928E-02 0.  1.
        1   -1    0    0  501    0  0.00000000000E+00  0.00000000000E+00 -0.23122910870E+04  0.23122910870E+04  0.50400001928E-02 0. -1.
    10030    2    1    2    0    0  0.00000000000E+00  0.00000000000E+00 -0.16943836937E+04  0.29301984804E+04  0.23906331866E+04 0.  0.
        3    1    3    3  502    0  0.21232809225E+03 -0.65379292952E+02 -0.22867625371E+04  0.22975292342E+04  0.10100000352E+00 0. -1.
       -3    1    3    3    0  502 -0.21232809225E+03  0.65379292952E+02  0.59237884342E+03  0.63266924617E+03  0.10100000352E+00 0.  1.
</event>
<event>
 5   0  0.1308662E-06  0.2398521E+04  0.7818609E-02  0.8440057E-01
        2   -1    0    0  501    0  0.00000000000E+00  0.00000000000E+00  0.14322436069E+04  0.14322436069E+04  0.25500000920E-02 0.  1.
       -2   -1    0    0    0  501  0.00000000000E+00  0.00000000000E+00 -0.10041768816E+04  0.10041768817E+04  0.25500000920E-02 0. -1.
    10030    2    1    2    0    0  0.00000000000E+00  0.00000000000E+00  0.42806672526E+03  0.24364204886E+04  0.23985211435E+04 0.  0.
        3    1    3    3  502    0  0.56696477384E+03  0.97769890655E+03  0.62147181910E+03  0.12897951150E+04  0.10100000352E+00 0.  1.
       -3    1    3    3    0  502 -0.56696477384E+03 -0.97769890655E+03 -0.19340509385E+03  0.11466253735E+04  0.10100000352E+00 0. -1.
</event>
<event>
 5   0  0.1336057E-06  0.2387478E+04  0.7818609E-02  0.8444206E-01
       -2   -1    0    0    0  501  0.00000000000E+00  0.00000000000E+00  0.76112340973E+03  0.76112340974E+03  0.25500000920E-02 0.  1.
        2   -1    0    0  501    0  0.00000000000E+00  0.00000000000E+00 -0.18722497131E+04  0.18722497131E+04  0.25500000920E-02 0. -1.
    10030    2    1    2    0    0  0.00000000000E+00  0.00000000000E+00 -0.11111263033E+04  0.26333731228E+04  0.23874782391E+04 0.  0.
        2    1    3    3  502    0  0.13232902044E+03 -0.23882614495E+03 -0.18373461679E+04  0.18575225000E+04  0.25500000920E-02 0. -1.
       -2    1    3    3    0  502 -0.13232902044E+03  0.23882614495E+03  0.72621986460E+03  0.77585062281E+03  0.25500000920E-02 0.  1.
</event>
<event>
 5   0  0.5363690E-07  0.2398992E+04  0.7818609E-02  0.8439881E-01
       -1   -1    0    0    0  501  0.00000000000E+00  0.00000000000E+00  0.10592462764E+04  0.10592462764E+04  0.50400001928E-02 0. -1.
        1   -1    0    0  501    0  0.00000000000E+00  0.00000000000E+00 -0.13583159333E+04  0.13583159333E+04  0.50400001928E-02 0.  1.
    10030    2    1    2    0    0  0.00000000000E+00  0.00000000000E+00 -0.29906965692E+03  0.24175622097E+04  0.23989923673E+04 0.  0.
        4    1    3    3  502    0  0.10002254016E+04 -0.22404774367E+03 -0.77736717107E+03  0.12864484354E+04  0.12699999809E+01 0. -1.
       -4    1    3    3    0  502 -0.10002254016E+04  0.22404774367E+03  0.47829751415E+03  0.11311137743E+04  0.12699999809E+01 0.  1.
</event>
<event>
 5   0  0.1275948E-06  0.2399807E+04  0.7818609E-02  0.8439576E-01
        2   -1    0    0  501    0  0.00000000000E+00  0.00000000000E+00  0.13230106489E+04  0.13230106489E+04  0.25500000920E-02 0.  1.
       -2   -1    0    0    0  501  0.00000000000E+00  0.00000000000E+00 -0.10882519179E+04  0.10882519179E+04  0.25500000920E-02 0. -1.
    10030    2    1    2    0    0  0.00000000000E+00  0.00000000000E+00  0.23475873101E+03  0.24112625668E+04  0.23998073890E+04 0.  0.
        1    1    3    3  502    0 -0.10151305815E+04  0.56858318833E+03  0.41202294522E+03  0.12343175633E+04  0.50400001928E-02 0. -1.
       -1    1    3    3    0  502  0.10151305815E+04 -0.56858318833E+03 -0.17726421421E+03  0.11769450035E+04  0.50400001928E-02 0.  1.
</event>
<event>
 5   0  0.1307477E-06  0.2401400E+04  0.7818609E-02  0.8438980E-01
        2   -1    0    0  501    0  0.00000000000E+00  0.00000000000E+00  0.27389183720E+04  0.27389183720E+04  0.25500000920E-02 0.  1.
       -2   -1    0    0    0  501  0.00000000000E+00  0.00000000000E+00 -0.52636845073E+03  0.52636845073E+03  0.25500000920E-02 0. -1.
    10030    2    1    2    0    0  0.00000000000E+00  0.00000000000E+00  0.22125499212E+04  0.32652868227E+04  0.24013997752E+04 0.  0.
        5    1    3    3  502    0 -0.82812058702E+03  0.85498728826E+03  0.89183540709E+03  0.14873397235E+04  0.46999998093E+01 0. -1.
       -5    1    3    3    0  502  0.82812058702E+03 -0.85498728826E+03  0.13207145141E+04  0.17779470992E+04  0.46999998093E+01 0.  1.
</event>
<event>
 5   0  0.5363690E-07  0.2384674E+04  0.7818609E-02  0.8445264E-01
       -1   -1    0    0    0  501  0.00000000000E+00  0.00000000000E+00  0.72422049973E+03  0.72422049974E+03  0.50400001928E-02 0.  1.
        1   -1    0    0  501    0  0.00000000000E+00  0.00000000000E+00 -0.19630314377E+04  0.19630314377E+04  0.50400001928E-02 0. -1.
    10030    2    1    2    0    0  0.00000000000E+00  0.00000000000E+00 -0.12388109380E+04  0.26872519374E+04  0.23846740732E+04 0.  0.
        4    1    3    3  502    0 -0.36691720110E+03 -0.11227173935E+04 -0.80299916989E+03  0.14282618310E+04  0.12699999809E+01 0. -1.
       -4    1    3    3    0  502  0.36691720110E+03  0.11227173935E+04 -0.43581176806E+03  0.12589901065E+04  0.12699999809E+01 0.  1.
</event>
<event>
 5   0  0.1275948E-06  0.2399669E+04  0.7818609E-02  0.8439627E-01
       -2   -1    0    0    0  501  0.00000000000E+00  0.00000000000E+00  0.82737884125E+03  0.82737884125E+03  0.25500000920E-02 0.  1.
        2   -1    0    0  501    0  0.00000000000E+00  0.00000000000E+00 -0.17399562086E+04  0.17399562087E+04  0.25500000920E-02 0. -1.
    10030    2    1    2    0    0  0.00000000000E+00  0.00000000000E+00 -0.91257736740E+03  0.25673350499E+04  0.23996691036E+04 0.  0.
        1    1    3    3  502    0 -0.91980225937E+03 -0.75416613546E+03 -0.28780465359E+03  0.12237786870E+04  0.50400001928E-02 0. -1.
       -1    1    3    3    0  502  0.91980225937E+03  0.75416613546E+03 -0.62477271381E+03  0.13435563629E+04  0.50400001928E-02 0.  1.
</event>
<event>
 5   0  0.5527286E-07  0.2400859E+04  0.7818609E-02  0.8439182E-01
        1   -1    0    0  501    0  0.00000000000E+00  0.00000000000E+00  0.98101753317E+03  0.98101753318E+03  0.50400001928E-02 0. -1.
       -1   -1    0    0    0  501  0.00000000000E+00  0.00000000000E+00 -0.14689148998E+04  0.14689148998E+04  0.50400001928E-02 0.  1.
    10030    2    1    2    0    0  0.00000000000E+00  0.00000000000E+00 -0.48789736661E+03  0.24499324330E+04  0.24008592391E+04 0.  0.
        1    1    3    3  502    0 -0.11007102786E+04 -0.19505210809E+03  0.20251308380E+03  0.11360545724E+04  0.50400001928E-02 0. -1.
       -1    1    3    3    0  502  0.11007102786E+04  0.19505210809E+03 -0.69041045041E+03  0.13138778605E+04  0.50400001928E-02 0.  1.
</event>
<event>
 5   0  0.1275948E-06  0.2398892E+04  0.7818609E-02  0.8439918E-01
        2   -1    0    0  501    0  0.00000000000E+00  0.00000000000E+00  0.17331313271E+04  0.17331313271E+04  0.25500000920E-02 0.  1.
       -2   -1    0    0    0  501  0.00000000000E+00  0.00000000000E+00 -0.83009915183E+03  0.83009915184E+03  0.25500000920E-02 0. -1.
    10030    2    1    2    0    0  0.00000000000E+00  0.00000000000E+00  0.90303217529E+03  0.25632304790E+04  0.23988921148E+04 0.  0.
        1    1    3    3  502    0  0.61704077333E+03  0.51551656400E+03  0.14025309166E+04  0.16166600186E+04  0.50400001928E-02 0.  1.
       -1    1    3    3    0  502 -0.61704077333E+03 -0.51551656400E+03 -0.49949874136E+03  0.94657046032E+03  0.50400001928E-02 0. -1.
</event>
<event>
 5   0  0.5363690E-07  0.2396499E+04  0.7818609E-02  0.8440816E-01
        1   -1    0    0  501    0  0.00000000000E+00  0.00000000000E+00  0.17397732000E+04  0.17397732000E+04  0.50400001928E-02 0. -1.
       -1   -1    0    0    0  501  0.00000000000E+00  0.00000000000E+00 -0.82528075596E+03  0.82528075597E+03  0.50400001928E-02 0.  1.
    10030    2    1    2    0    0  0.00000000000E+00  0.00000000000E+00  0.91449244406E+03  0.25650539560E+04  0.23964985639E+04 0.  0.
        4    1    3    3  502    0 -0.34450352783E+02 -0.50126196700E+03 -0.70708305725E+03  0.86742057222E+03  0.12699999809E+01 0.  1.
       -4    1    3    3    0  502  0.34450352783E+02  0.50126196700E+03  0.16215755013E+04  0.16976333838E+04  0.12699999809E+01 0. -1.
</event>
<event>
 5   0  0.1336057E-06  0.2400193E+04  0.7818609E-02  0.8439431E-01
        2   -1    0    0  501    0  0.00000000000E+00  0.00000000000E+00  0.12250502948E+04  0.12250502948E+04  0.25500000920E-02 0.  1.
       -2   -1    0    0    0  501  0.00000000000E+00  0.00000000000E+00 -0.11756509706E+04  0.11756509706E+04  0.25500000920E-02 0. -1.
    10030    2    1    2    0    0  0.00000000000E+00  0.00000000000E+00  0.49399324235E+02  0.24007012654E+04  0.24001929657E+04 0.  0.
        2    1    3    3  502    0  0.16761400085E+03  0.10089071699E+04 -0.60332138568E+03  0.11874278190E+04  0.25500000920E-02 0. -1.
       -2    1    3    3    0  502 -0.16761400085E+03 -0.10089071699E+04  0.65272070991E+03  0.12132734465E+04  0.25500000920E-02 0.  1.
</event>
<event>
 5   0  0.1336057E-06  0.2399731E+04  0.7818609E-02  0.8439604E-01
        2   -1    0    0  501    0  0.00000000000E+00  0.00000000000E+00  0.24502998889E+04  0.24502998889E+04  0.25500000920E-02 0. -1.
       -2   -1    0    0    0  501  0.00000000000E+00  0.00000000000E+00 -0.58755155302E+03  0.58755155303E+03  0.25500000920E-02 0.  1.
    10030    2    1    2    0    0  0.00000000000E+00  0.00000000000E+00  0.18627483358E+04  0.30378514419E+04  0.23997312392E+04 0.  0.
        2    1    3    3  502    0 -0.29849698568E+03 -0.72098341133E+03  0.20852038562E+04  0.22264304732E+04  0.25500000920E-02 0. -1.
       -2    1    3    3    0  502  0.29849698568E+03  0.72098341133E+03 -0.22245552040E+03  0.81142096870E+03  0.25500000920E-02 0.  1.
</event>
<event>
 5   0  0.5363690E-07  0.2395416E+04  0.7818609E-02  0.8441222E-01
        1   -1    0    0  501    0  0.00000000000E+00  0.00000000000E+00  0.21958942871E+04  0.21958942871E+04  0.50400001928E-02 0.  1.
       -1   -1    0    0    0  501  0.00000000000E+00  0.00000000000E+00 -0.65326651256E+03  0.65326651258E+03  0.50400001928E-02 0. -1.
    10030    2    1    2    0    0  0.00000000000E+00  0.00000000000E+00  0.15426277745E+04  0.28491607997E+04  0.23954157910E+04 0.  0.
        4    1    3    3  502    0 -0.10339872672E+04 -0.24231038699E+03  0.11265034568E+03  0.10679586629E+04  0.12699999809E+01 0.  1.
       -4    1    3    3    0  502  0.10339872672E+04  0.24231038699E+03  0.14299774288E+04  0.17812021368E+04  0.12699999809E+01 0. -1.
</event>
<event>
 5   0  0.5452384E-07  0.2400687E+04  0.7818609E-02  0.8439246E-01
       -1   -1    0    0    0  501  0.00000000000E+00  0.00000000000E+00  0.12648857736E+04  0.12648857736E+04  0.50400001928E-02 0.  1.
        1   -1    0    0  501    0  0.00000000000E+00  0.00000000000E+00 -0.11390944273E+04  0.11390944273E+04  0.50400001928E-02 0. -1.
    10030    2    1    2    0    0  0.00000000000E+00  0.00000000000E+00  0.12579134630E+03  0.24039802010E+04  0.24006868483E+04 0.  0.
        5    1    3    3  502    0  0.93244008174E+03  0.74988982903E+03 -0.32224026992E+02  0.11970128402E+04  0.46999998093E+01 0. -1.
       -5    1    3    3    0  502 -0.93244008174E+03 -0.74988982903E+03  0.15801537330E+03  0.12069673607E+04  0.46999998093E+01 0.  1.
</event>
<event>
 5   0  0.5690124E-07  0.2399060E+04  0.7818609E-02  0.8439856E-01
        1   -1    0    0  501    0  0.00000000000E+00  0.00000000000E+00  0.14447568126E+04  0.14447568126E+04  0.50400001928E-02 0.  1.
       -1   -1    0    0    0  501  0.00000000000E+00  0.00000000000E+00 -0.99592660529E+03  0.99592660531E+03  0.50400001928E-02 0. -1.
    10030    2    1    2    0    0  0.00000000000E+00  0.00000000000E+00  0.44883020727E+03  0.24406834179E+04  0.23990596056E+04 0.  0.
        2    1    3    3  502    0  0.94869200185E+03  0.58636372814E+03  0.67370251810E+03  0.13029635524E+04  0.25500000920E-02 0.  1.
       -2    1    3    3    0  502 -0.94869200185E+03 -0.58636372814E+03 -0.22487231083E+03  0.11377198655E+04  0.25500000920E-02 0. -1.
</event>
<event>
 5   0  0.1308662E-06  0.2400332E+04  0.7818609E-02  0.8439379E-01
        2   -1    0    0  501    0  0.00000000000E+00  0.00000000000E+00  0.13399867774E+04  0.13399867774E+04  0.25500000920E-02 0.  1.
       -2   -1    0    0    0  501  0.00000000000E+00  0.00000000000E+00 -0.10749346179E+04  0.10749346179E+04  0.25500000920E-02 0. -1.
    10030    2    1    2    0    0  0.00000000000E+00  0.00000000000E+00  0.26505215946E+03  0.24149213953E+04  0.24003317892E+04 0.  0.
        3    1    3    3  502    0  0.17777507375E+03  0.71560667378E+03  0.10852248755E+04  0.13120251252E+04  0.10100000352E+00 0.  1.
       -3    1    3    3    0  502 -0.17777507375E+03 -0.71560667378E+03 -0.82017271606E+03  0.11028962702E+04  0.10100000352E+00 0. -1.
</event>
<event>
 5   0  0.5690124E-07  0.2398858E+04  0.7818609E-02  0.8439931E-01
       -1   -1    0    0    0  501  0.00000000000E+00  0.00000000000E+00  0.67215070605E+03  0.67215070607E+03  0.50400001928E-02 0.  1.
        1   -1    0    0  501    0  0.00000000000E+00  0.00000000000E+00 -0.21403384803E+04  0.21403384803E+04  0.50400001928E-02 0. -1.
    10030    2    1    2    0    0  0.00000000000E+00  0.00000000000E+00 -0.14681877742E+04  0.28124891864E+04  0.23988580790E+04 0.  0.
        2    1    3    3  502    0 -0.89487353392E+03  0.57675994380E+03 -0.86408832979E+02  0.10681372388E+04  0.25500000920E-02 0.  1.
       -2    1    3    3    0  502  0.89487353392E+03 -0.57675994380E+03 -0.13817789413E+04  0.17443519476E+04  0.25500000920E-02 0. -1.
</event>
<event>
 5   0  0.5527286E-07  0.2399118E+04  0.7818609E-02  0.8439834E-01
       -1   -1    0    0    0  501  0.00000000000E+00  0.00000000000E+00  0.98181172563E+03  0.98181172564E+03  0.50400001928E-02 0. -1.
        1   -1    0    0  501    0  0.00000000000E+00  0.00000000000E+00 -0.14655981992E+04  0.14655981992E+04  0.50400001928E-02 0.  1.
    10030    2    1    2    0    0  0.00000000000E+00  0.00000000000E+00 -0.48378647357E+03  0.24474099249E+04  0.23991177521E+04 0.  0.
        1    1    3    3  502    0  0.40146288610E+03 -0.33163768415E+03  0.86050038244E+03  0.10057916835E+04  0.50400001928E-02 0. -1.
       -1    1    3    3    0  502 -0.40146288610E+03  0.33163768415E+03 -0.13442868560E+04  0.14416182413E+04  0.50400001928E-02 0.  1.
</event>
<event>
 5   0  0.1275948E-06  0.2402905E+04  0.7818609E-02  0.8438417E-01
       -2   -1    0    0    0  501  0.00000000000E+00  0.00000000000E+00  0.25463870326E+04  0.25463870326E+04  0.25500000920E-02 0. -1.
        2   -1    0    0  501    0  0.00000000000E+00  0.00000000000E+00 -0.56687692494E+03  0.56687692495E+03  0.25500000920E-02 0.  1.
    10030    2    1    2    0    0  0.00000000000E+00  0.00000000000E+00  0.19795101076E+04  0.31132639575E+04  0.24029049509E+04 0.  0.
        1    1    3    3  502    0  0.28958424252E+03  0.10365064040E+04  0.29773660559E+03  0.11166251141E+04  0.50400001928E-02 0.  1.
       -1    1    3    3    0  502 -0.28958424252E+03 -0.10365064040E+04  0.16817735021E+04  0.19966388435E+04  0.50400001928E-02 0. -1.
</event>
<event>
 5   0  0.5452384E-07  0.2388255E+04  0.7818609E-02  0.8443914E-01
        1   -1    0    0  501    0  0.00000000000E+00  0.00000000000E+00  0.13235091895E+04  0.13235091896E+04  0.50400001928E-02 0.  1.
       -1   -1    0    0    0  501  0.00000000000E+00  0.00000000000E+00 -0.10773937172E+04  0.10773937172E+04  0.50400001928E-02 0. -1.
    10030    2    1    2    0    0  0.00000000000E+00  0.00000000000E+00  0.24611547231E+03  0.24009029068E+04  0.23882549994E+04 0.  0.
        5    1    3    3  502    0 -0.57985183624E+03  0.67247369767E+03 -0.67958737119E+03  0.11181726661E+04  0.46999998093E+01 0. -1.
       -5    1    3    3    0  502  0.57985183624E+03 -0.67247369767E+03  0.92570284350E+03  0.12827302407E+04  0.46999998093E+01 0.  1.
</event>
<event>
 5   0  0.5452384E-07  0.2403210E+04  0.7818609E-02  0.8438303E-01
       -1   -1    0    0    0  501  0.00000000000E+00  0.00000000000E+00  0.68570411094E+03  0.68570411095E+03  0.50400001928E-02 0. -1.
        1   -1    0    0  501    0  0.00000000000E+00  0.00000000000E+00 -0.21056530245E+04  0.21056530246E+04  0.50400001928E-02 0.  1.
    10030    2    1    2    0    0  0.00000000000E+00  0.00000000000E+00 -0.14199489136E+04  0.27913571355E+04  0.24032102989E+04 0.  0.
        5    1    3    3  502    0  0.89511201975E+03  0.31970044994E+03 -0.15638230608E+04  0.18300269291E+04  0.46999998093E+01 0.  1.
       -5    1    3    3    0  502 -0.89511201975E+03 -0.31970044994E+03  0.14387414719E+03  0.96133020645E+03  0.46999998093E+01 0. -1.
</event>
<event>
 5   0  0.1336057E-06  0.2399700E+04  0.7818609E-02  0.8439616E-01
       -2   -1    0    0    0  501  0.00000000000E+00  0.00000000000E+00  0.11040634110E+04  0.11040634110E+04  0.25500000920E-02 0.  1.
        2   -1    0    0  501    0  0.00000000000E+00  0.00000000000E+00 -0.13039470723E+04  0.13039470723E+04  0.25500000920E-02 0. -1.
    10030    2    1    2    0    0  0.00000000000E+00  0.00000000000E+00 -0.19988366130E+03  0.24080104833E+04  0.23997001916E+04 0.  0.
        2    1    3    3  502    0 -0.62312157738E+03  0.23450494809E+03 -0.11015805268E+04  0.12871490698E+04  0.25500000920E-02 0. -1.
       -2    1    3    3    0  502  0.62312157738E+03 -0.23450494809E+03  0.90169686551E+03  0.11208614134E+04  0.25500000920E-02 0.  1.
</event>
<event>
 5   0  0.1336057E-06  0.2399672E+04  0.7818609E-02  0.8439626E-01
       -2   -1    0    0    0  501  0.00000000000E+00  0.00000000000E+00  0.13336967158E+04  0.13336967158E+04  0.25500000920E-02 0.  1.
        2   -1    0    0  501    0  0.00000000000E+00  0.00000000000E+00 -0.10794105441E+04  0.10794105441E+04  0.25500000920E-02 0. -1.
    10030    2    1    2    0    0  0.00000000000E+00  0.00000000000E+00  0.25428617173E+03  0.24131072599E+04  0.23996718923E+04 0.  0.
        2    1    3    3  502    0  0.53688822940E+03  0.61307992851E+03  0.10126928148E+04  0.12998702654E+04  0.25500000920E-02 0.  1.
       -2    1    3    3    0  502 -0.53688822940E+03 -0.61307992851E+03 -0.75840664312E+03  0.11132369945E+04  0.25500000920E-02 0. -1.
</event>
<event>
 5   0  0.5510176E-07  0.2400958E+04  0.7818609E-02  0.8439145E-01
        1   -1    0    0  501    0  0.00000000000E+00  0.00000000000E+00  0.11509368232E+04  0.11509368232E+04  0.50400001928E-02 0. -1.
       -1   -1    0    0    0  501  0.00000000000E+00  0.00000000000E+00 -0.12521537932E+04  0.12521537933E+04  0.50400001928E-02 0.  1.
    10030    2    1    2    0    0  0.00000000000E+00  0.00000000000E+00 -0.10121697004E+03  0.24030906165E+04  0.24009580663E+04 0.  0.
        3    1    3    3  502    0  0.99627414114E+03  0.76616807922E+02 -0.71656974451E+03  0.12295952621E+04  0.10100000352E+00 0.  1.
       -3    1    3    3    0  502 -0.99627414114E+03 -0.76616807922E+02  0.61535277447E+03  0.11734953544E+04  0.10100000352E+00 0. -1.
</event>
<event>
 5   0  0.1307477E-06  0.2398965E+04  0.7818609E-02  0.8439891E-01
       -2   -1    0    0    0  501  0.00000000000E+00  0.00000000000E+00  0.14430570491E+04  0.14430570491E+04  0.25500000920E-02 0. -1.
        2   -1    0    0  501    0  0.00000000000E+00  0.00000000000E+00 -0.99702066512E+03  0.99702066513E+03  0.25500000920E-02 0.  1.
    10030    2    1    2    0    0  0.00000000000E+00  0.00000000000E+00  0.44603638394E+03  0.24400777142E+04  0.23989645257E+04 0.  0.
        5    1    3    3  502    0  0.72058243657E+03  0.10381845408E+03  0.11926223450E+04  0.13972785933E+04  0.46999998093E+01 0. -1.
       -5    1    3    3    0  502 -0.72058243657E+03 -0.10381845408E+03 -0.74658596110E+03  0.10427991209E+04  0.46999998093E+01 0.  1.
</event>
<event>
 5   0  0.5363690E-07  0.2400432E+04  0.7818609E-02  0.8439342E-01
        1   -1    0    0  501    0  0.00000000000E+00  0.00000000000E+00  0.20007414319E+04  0.20007414319E+04  0.50400001928E-02 0. -1.
       -1   -1    0    0    0  501  0.00000000000E+00  0.00000000000E+00 -0.71999230402E+03  0.71999230404E+03  0.50400001928E-02 0.  1.
    10030    2    1    2    0    0  0.00000000000E+00  0.00000000000E+00  0.12807491278E+04  0.27207337359E+04  0.24004319889E+04 0.  0.
        4    1    3    3  502    0  0.10535777776E+04 -0.16617456669E+03  0.12641518675E+04  0.16540017161E+04  0.12699999809E+01 0. -1.
       -4    1    3    3    0  502 -0.10535777776E+04  0.16617456669E+03  0.16597260367E+02  0.10667320198E+04  0.12699999809E+01 0.  1.
</event>
<event>
 5   0  0.1336057E-06  0.2400004E+04  0.7818609E-02  0.8439502E-01
        2   -1    0    0  501    0  0.00000000000E+00  0.00000000000E+00  0.11552004731E+04  0.11552004731E+04  0.25500000920E-02 0. -1.
       -2   -1    0    0    0  501  0.00000000000E+00  0.00000000000E+00 -0.12465408505E+04  0.12465408505E+04  0.25500000920E-02 0.  1.
    10030    2    1    2    0    0  0.00000000000E+00  0.00000000000E+00 -0.91340377465E+02  0.24017413236E+04  0.24000038168E+04 0.  0.
        2    1    3    3  502    0  0.58685767578E+00  0.68098413847E+03 -0.10344466569E+04  0.12384747180E+04  0.25500000920E-02 0.  1.
       -2    1    3    3    0  502 -0.58685767578E+00 -0.68098413847E+03  0.94310627944E+03  0.11632666055E+04  0.25500000920E-02 0. -1.
</event>
<event>
 5   0  0.5452384E-07  0.2399283E+04  0.7818609E-02  0.8439772E-01
        1   -1    0    0  501    0  0.00000000000E+00  0.00000000000E+00  0.20039400687E+04  0.20039400687E+04  0.50400001928E-02 0. -1.
       -1   -1    0    0    0  501  0.00000000000E+00  0.00000000000E+00 -0.71815521082E+03  0.71815521083E+03  0.50400001928E-02 0.  1.
    10030    2    1    2    0    0  0.00000000000E+00  0.00000000000E+00  0.12857848579E+04  0.27220952795E+04  0.23992832284E+04 0.  0.
        5    1    3    3  502    0  0.11561130777E+03 -0.48655630600E+02  0.19964693182E+04  0.20004112511E+04  0.46999998093E+01 0. -1.
       -5    1    3    3    0  502 -0.11561130777E+03  0.48655630600E+02 -0.71068446030E+03  0.72168402849E+03  0.46999998093E+01 0.  1.
</event>
<event>
 5   0  0.5452384E-07  0.2400373E+04  0.7818609E-02  0.8439364E-01
       -1   -1    0    0    0  501  0.00000000000E+00  0.00000000000E+00  0.10589479471E+04  0.10589479472E+04  0.50400001928E-02 0. -1.
        1   -1    0    0  501    0  0.00000000000E+00  0.00000000000E+00 -0.13602634875E+04  0.13602634875E+04  0.50400001928E-02 0.  1.
    10030    2    1    2    0    0  0.00000000000E+00  0.00000000000E+00 -0.30131554032E+03  0.24192114346E+04  0.24003734940E+04 0.  0.
        5    1    3    3  502    0 -0.30153671448E+03 -0.76852306575E+03 -0.10286281286E+04  0.13189579257E+04  0.46999998093E+01 0.  1.
       -5    1    3    3    0  502  0.30153671448E+03  0.76852306575E+03  0.72731258832E+03  0.11002535089E+04  0.46999998093E+01 0. -1.
</event>
<event>
 5   0  0.5690124E-07  0.2398876E+04  0.7818609E-02  0.8439924E-01
        1   -1    0    0  501    0  0.00000000000E+00  0.00000000000E+00  0.25158919582E+04  0.25158919582E+04  0.50400001928E-02 0. -1.
       -1   -1    0    0    0  501  0.00000000000E+00  0.00000000000E+00 -0.57182577290E+03  0.57182577292E+03  0.50400001928E-02 0.  1.
    10030    2    1    2    0    0  0.00000000000E+00  0.00000000000E+00  0.19440661853E+04  0.30877177311E+04  0.23988762899E+04 0.  0.
        2    1    3    3  502    0  0.67107891674E+03  0.44521340198E+03 -0.17207752548E+03  0.82351233177E+03  0.25500000920E-02 0.  1.
       -2    1    3    3    0  502 -0.67107891674E+03 -0.44521340198E+03  0.21161437107E+04  0.22642053993E+04  0.25500000920E-02 0. -1.
</event>
<event>
 5   0  0.5452384E-07  0.2389600E+04  0.7818609E-02  0.8443408E-01
       -1   -1    0    0    0  501  0.00000000000E+00  0.00000000000E+00  0.10301166598E+04  0.10301166598E+04  0.50400001928E-02 0.  1.
        1   -1    0    0  501    0  0.00000000000E+00  0.00000000000E+00 -0.13858104901E+04  0.13858104902E+04  0.50400001928E-02 0. -1.
    10030    2    1    2    0    0  0.00000000000E+00  0.00000000000E+00 -0.35569383039E+03  0.24159271499E+04  0.23895995256E+04 0.  0.
        5    1    3    3  502    0  0.23595465802E+03 -0.62350165152E+03 -0.11802826943E+04  0.13555508985E+04  0.46999998093E+01 0. -1.
       -5    1    3    3    0  502 -0.23595465802E+03  0.62350165152E+03  0.82458886389E+03  0.10603762514E+04  0.46999998093E+01 0.  1.
</event>
<event>
 5   0  0.1336057E-06  0.2401305E+04  0.7818609E-02  0.8439015E-01
        2   -1    0    0  501    0  0.00000000000E+00  0.00000000000E+00  0.14751152963E+04  0.14751152963E+04  0.25500000920E-02 0.  1.
       -2   -1    0    0    0  501  0.00000000000E+00  0.00000000000E+00 -0.97725713355E+03  0.97725713356E+03  0.25500000920E-02 0. -1.
    10030    2    1    2    0    0  0.00000000000E+00  0.00000000000E+00  0.49785816279E+03  0.24523724299E+04  0.24013054334E+04 0.  0.
        2    1    3    3  502    0  0.68761046221E+02  0.93378517511E+03 -0.51864217163E+03  0.10703609377E+04  0.25500000920E-02 0. -1.
       -2    1    3    3    0  502 -0.68761046221E+02 -0.93378517511E+03  0.10165003344E+04  0.13820114922E+04  0.25500000920E-02 0.  1.
</event>
<event>
 5   0  0.1336057E-06  0.2397701E+04  0.7818609E-02  0.8440365E-01
        2   -1    0    0  501    0  0.00000000000E+00  0.00000000000E+00  0.17022989112E+04  0.17022989113E+04  0.25500000920E-02 0.  1.
       -2   -1    0    0    0  501  0.00000000000E+00  0.00000000000E+00 -0.84429487458E+03  0.84429487458E+03  0.25500000920E-02 0. -1.
    10030    2    1    2    0    0  0.00000000000E+00  0.00000000000E+00  0.85800403667E+03  0.25465937858E+04  0.23977007701E+04 0.  0.
        2    1    3    3  502    0  0.43794131106E+03  0.10851144648E+03 -0.75068027298E+03  0.87583571416E+03  0.25500000920E-02 0. -1.
       -2    1    3    3    0  502 -0.43794131106E+03 -0.10851144648E+03  0.16086843096E+04  0.16707580717E+04  0.25500000920E-02 0.  1.
</event>
<event>
 5   0  0.5363690E-07  0.2400345E+04  0.7818609E-02  0.8439375E-01
       -1   -1    0    0    0  501  0.00000000000E+00  0.00000000000E+00  0.80734647300E+03  0.80734647301E+03  0.50400001928E-02 0. -1.
        1   -1    0    0  501    0  0.00000000000E+00  0.00000000000E+00 -0.17841332364E+04  0.17841332364E+04  0.50400001928E-02 0.  1.
    10030    2    1    2    0    0  0.00000000000E+00  0.00000000000E+00 -0.97678676337E+03  0.25914797094E+04  0.24003447051E+04 0.  0.
        4    1    3    3  502    0 -0.60516806888E+03  0.94021139644E+03 -0.95922291987E+03  0.14732060564E+04  0.12699999809E+01 0. -1.
       -4    1    3    3    0  502  0.60516806888E+03 -0.94021139644E+03 -0.17563843505E+02  0.11182736530E+04  0.12699999809E+01 0.  1.
</event>
<event>
 5   0  0.1291468E-06  0.2401127E+04  0.7818609E-02  0.8439082E-01
       -2   -1    0    0    0  501  0.00000000000E+00  0.00000000000E+00  0.13119758949E+04  0.13119758949E+04  0.25500000920E-02 0.  1.
        2   -1    0    0  501    0  0.00000000000E+00  0.00000000000E+00 -0.10986120606E+04  0.10986120606E+04  0.25500000920E-02 0. -1.
    10030    2    1    2    0    0  0.00000000000E+00  0.00000000000E+00  0.21336383430E+03  0.24105879556E+04  0.24011268533E+04 0.  0.
        4    1    3    3  502    0 -0.11735647897E+03  0.92406902839E+03 -0.65371574002E+03  0.11379903313E+04  0.12699999809E+01 0. -1.
       -4    1    3    3    0  502  0.11735647897E+03 -0.92406902839E+03  0.86707957432E+03  0.12725976243E+04  0.12699999809E+01 0.  1.
</event>
<event>
 5   0  0.4483375E-07  0.2399735E+04  0.7818609E-02  0.8439603E-01
        3   -1    0    0  501    0  0.00000000000E+00  0.00000000000E+00  0.76692945747E+03  0.76692946412E+03  0.10100000352E+00 0.  1.
       -3   -1    0    0    0  501  0.00000000000E+00  0.00000000000E+00 -0.18772023496E+04  0.18772023523E+04  0.10100000352E+00 0. -1.
    10030    2    1    2    0    0  0.00000000000E+00  0.00000000000E+00 -0.11102728921E+04  0.26441318164E+04  0.23997348119E+04 0.  0.
        4    1    3    3  502    0 -0.33842003529E+02  0.48012708520E+03 -0.17661684843E+04  0.18305791507E+04  0.12699999809E+01 0. -1.
       -4    1    3    3    0  502  0.33842003529E+02 -0.48012708520E+03  0.65589559219E+03  0.81355266572E+03  0.12699999809E+01 0.  1.
</event>
<event>
 5   0  0.5452384E-07  0.2399760E+04  0.7818609E-02  0.8439593E-01
        1   -1    0    0  501    0  0.00000000000E+00  0.00000000000E+00  0.13091137343E+04  0.13091137343E+04  0.50400001928E-02 0. -1.
       -1   -1    0    0    0  501  0.00000000000E+00  0.00000000000E+00 -0.10997611432E+04  0.10997611432E+04  0.50400001928E-02 0.  1.
    10030    2    1    2    0    0  0.00000000000E+00  0.00000000000E+00  0.20935259108E+03  0.24088748775E+04  0.23997603355E+04 0.  0.
        5    1    3    3  502    0 -0.87887296068E+03 -0.77600104226E+03  0.36078260730E+03  0.12266953486E+04  0.46999998093E+01 0. -1.
       -5    1    3    3    0  502  0.87887296068E+03  0.77600104226E+03 -0.15143001621E+03  0.11821795288E+04  0.46999998093E+01 0.  1.
</event>
<event>
 5   0  0.5510176E-07  0.2399948E+04  0.7818609E-02  0.8439523E-01
        1   -1    0    0  501    0  0.00000000000E+00  0.00000000000E+00  0.10409050816E+04  0.10409050816E+04  0.50400001928E-02 0.  1.
       -1   -1    0    0    0  501  0.00000000000E+00  0.00000000000E+00 -0.13833514358E+04  0.13833514358E+04  0.50400001928E-02 0. -1.
    10030    2    1    2    0    0  0.00000000000E+00  0.00000000000E+00 -0.34244635422E+03  0.24242565175E+04  0.23999479488E+04 0.  0.
        3    1    3    3  502    0  0.12495547568E+03  0.24352998554E+03  0.10089500227E+04  0.10454189989E+04  0.10100000352E+00 0.  1.
       -3    1    3    3    0  502 -0.12495547568E+03 -0.24352998554E+03 -0.13513963769E+04  0.13788375185E+04  0.10100000352E+00 0. -1.
</event>
<event>
 5   0  0.1336057E-06  0.2399463E+04  0.7818609E-02  0.8439705E-01
        2   -1    0    0  501    0  0.00000000000E+00  0.00000000000E+00  0.12935964652E+04  0.12935964652E+04  0.25500000920E-02 0.  1.
       -2   -1    0    0    0  501  0.00000000000E+00  0.00000000000E+00 -0.11126773004E+04  0.11126773004E+04  0.25500000920E-02 0. -1.
    10030    2    1    2    0    0  0.00000000000E+00  0.00000000000E+00  0.18091916485E+03  0.24062737656E+04  0.23994627921E+04 0.  0.
        2    1    3    3  502    0 -0.65669087209E+03  0.21232858249E+03  0.10745856154E+04  0.12771298185E+04  0.25500000920E-02 0.  1.
       -2    1    3    3    0  502  0.65669087209E+03 -0.21232858249E+03 -0.89366645054E+03  0.11291439471E+04  0.25500000920E-02 0. -1.
</event>
<event>
 5   0  0.5527286E-07  0.2400728E+04  0.7818609E-02  0.8439231E-01
       -1   -1    0    0    0  501  0.00000000000E+00  0.00000000000E+00  0.10637843456E+04  0.10637843456E+04  0.50400001928E-02 0.  1.
        1   -1    0    0  501    0  0.00000000000E+00  0.00000000000E+00 -0.13544786193E+04  0.13544786193E+04  0.50400001928E-02 0. -1.
    10030    2    1    2    0    0  0.00000000000E+00  0.00000000000E+00 -0.29069427371E+03  0.24182629648E+04  0.24007275161E+04 0.  0.
        1    1    3    3  502    0 -0.10552838163E+04 -0.40129351179E+03  0.26532269826E+03  0.11597657306E+04  0.50400001928E-02 0.  1.
       -1    1    3    3    0  502  0.10552838163E+04  0.40129351179E+03 -0.55601697198E+03  0.12584972343E+04  0.50400001928E-02 0. -1.
</event>
<event>
 5   0  0.1336057E-06  0.2399867E+04  0.7818609E-02  0.8439553E-01
        2   -1    0    0  501    0  0.00000000000E+00  0.00000000000E+00  0.19197586265E+04  0.19197586265E+04  0.25500000920E-02 0.  1.
       -2   -1    0    0    0  501  0.00000000000E+00  0.00000000000E+00 -0.75001143051E+03  0.75001143052E+03  0.25500000920E-02 0. -1.
    10030    2    1    2    0    0  0.00000000000E+00  0.00000000000E+00  0.11697471960E+04  0.26697700570E+04  0.23998674244E+04 0.  0.
        2    1    3    3  502    0  0.31355911755E+03 -0.13827538208E+03  0.18641614497E+04  0.18953989850E+04  0.25500000920E-02 0.  1.
       -2    1    3    3    0  502 -0.31355911755E+03  0.13827538208E+03 -0.69441425373E+03  0.77437107208E+03  0.25500000920E-02 0. -1.
</event>
<event>
 5   0  0.1336057E-06  0.2399708E+04  0.7818609E-02  0.8439613E-01
       -2   -1    0    0    0  501  0.00000000000E+00  0.00000000000E+00  0.20592756746E+04  0.20592756746E+04  0.25500000920E-02 0.  1.
        2   -1    0    0  501    0  0.00000000000E+00  0.00000000000E+00 -0.69910480463E+03  0.69910480463E+03  0.25500000920E-02 0. -1.
    10030    2    1    2    0    0  0.00000000000E+00  0.00000000000E+00  0.13601708700E+04  0.27583804792E+04  0.23997079140E+04 0.  0.
        2    1    3    3  502    0  0.83929558917E+03 -0.39384084608E+03 -0.19541302678E+03  0.94747767735E+03  0.25500000920E-02 0.  1.
       -2    1    3    3    0  502 -0.83929558917E+03  0.39384084608E+03  0.15555838967E+04  0.18109028019E+04  0.25500000920E-02 0. -1.
</event>
<event>
 5   0  0.5510176E-07  0.2406969E+04  0.7818609E-02  0.8436899E-01
        1   -1    0    0  501    0  0.00000000000E+00  0.00000000000E+00  0.14255656853E+04  0.14255656853E+04  0.50400001928E-02 0. -1.
       -1   -1    0    0    0  501  0.00000000000E+00  0.00000000000E+00 -0.10160004502E+04  0.10160004502E+04  0.50400001928E-02 0.  1.
    10030    2    1    2    0    0  0.00000000000E+00  0.00000000000E+00  0.40956523504E+03  0.24415661355E+04  0.24069693625E+04 0.  0.
        3    1    3    3  502    0 -0.10101273694E+04 -0.61389727551E+03  0.43419302154E+03  0.12592659598E+04  0.10100000352E+00 0. -1.
       -3    1    3    3    0  502  0.10101273694E+04  0.61389727551E+03 -0.24627786501E+02  0.11823001757E+04  0.10100000352E+00 0.  1.
</event>
<event>
 5   0  0.5527286E-07  0.2400787E+04  0.7818609E-02  0.8439209E-01
       -1   -1    0    0    0  501  0.00000000000E+00  0.00000000000E+00  0.90741074395E+03  0.90741074396E+03  0.50400001928E-02 0. -1.
        1   -1    0    0  501    0  0.00000000000E+00  0.00000000000E+00 -0.15879739952E+04  0.15879739952E+04  0.50400001928E-02 0.  1.
    10030    2    1    2    0    0  0.00000000000E+00  0.00000000000E+00 -0.68056325122E+03  0.24953847391E+04  0.24007870912E+04 0.  0.
        1    1    3    3  502    0  0.83099679983E+03  0.81270050260E+03 -0.28622160189E+02  0.11626938618E+04  0.50400001928E-02 0. -1.
       -1    1    3    3    0  502 -0.83099679983E+03 -0.81270050260E+03 -0.65194109103E+03  0.13326908773E+04  0.50400001928E-02 0.  1.
</event>
<event>
 5   0  0.5510176E-07  0.2401194E+04  0.7818609E-02  0.8439057E-01
       -1   -1    0    0    0  501  0.00000000000E+00  0.00000000000E+00  0.10336397218E+04  0.10336397218E+04  0.50400001928E-02 0.  1.
        1   -1    0    0  501    0  0.00000000000E+00  0.00000000000E+00 -0.13945219554E+04  0.13945219554E+04  0.50400001928E-02 0. -1.
    10030    2    1    2    0    0  0.00000000000E+00  0.00000000000E+00 -0.36088223359E+03  0.24281616772E+04  0.24011941079E+04 0.  0.
        3    1    3    3  502    0  0.61492067831E+03  0.35076689454E+03 -0.11610058213E+04  0.13598159369E+04  0.10100000352E+00 0.  1.
       -3    1    3    3    0  502 -0.61492067831E+03 -0.35076689454E+03  0.80012358772E+03  0.10683457403E+04  0.10100000352E+00 0. -1.
</event>
<event>
 5   0  0.4483375E-07  0.2400190E+04  0.7818609E-02  0.8439432E-01
       -3   -1    0    0    0  501  0.00000000000E+00  0.00000000000E+00  0.97700321878E+03  0.97700322400E+03  0.10100000352E+00 0. -1.
        3   -1    0    0  501    0  0.00000000000E+00  0.00000000000E+00 -0.14741286926E+04  0.14741286961E+04  0.10100000352E+00 0.  1.
    10030    2    1    2    0    0  0.00000000000E+00  0.00000000000E+00 -0.49712547386E+03  0.24511319201E+04  0.24001903993E+04 0.  0.
        4    1    3    3  502    0  0.74810389094E+03  0.93613025589E+03 -0.18216285544E+03  0.12120990910E+04  0.12699999809E+01 0. -1.
       -4    1    3    3    0  502 -0.74810389094E+03 -0.93613025589E+03 -0.31496261842E+03  0.12390328291E+04  0.12699999809E+01 0.  1.
</event>
<event>
 5   0  0.5363690E-07  0.2400080E+04  0.7818609E-02  0.8439474E-01
       -1   -1    0    0    0  501  0.00000000000E+00  0.00000000000E+00  0.63403649474E+03  0.63403649476E+03  0.50400001928E-02 0. -1.
        1   -1    0    0  501    0  0.00000000000E+00  0.00000000000E+00 -0.22713144288E+04  0.22713144288E+04  0.50400001928E-02 0.  1.
    10030    2    1    2    0    0  0.00000000000E+00  0.00000000000E+00 -0.16372779340E+04  0.29053509235E+04  0.24000801977E+04 0.  0.
        4    1    3    3  502    0  0.17398496775E+03  0.67600420360E+03  0.36299598357E+03  0.78677833554E+03  0.12699999809E+01 0. -1.
       -4    1    3    3    0  502 -0.17398496775E+03 -0.67600420360E+03 -0.20002739176E+04  0.21185725880E+04  0.12699999809E+01 0.  1.
</event>
<event>
 5   0  0.5363690E-07  0.2400000E+04  0.7818609E-02  0.8439504E-01
       -1   -1    0    0    0  501  0.00000000000E+00  0.00000000000E+00  0.16130510717E+04  0.16130510717E+04  0.50400001928E-02 0.  1.
        1   -1    0    0  501    0  0.00000000000E+00  0.00000000000E+00 -0.89271788070E+03  0.89271788071E+03  0.50400001928E-02 0. -1.
    10030    2    1    2    0    0  0.00000000000E+00  0.00000000000E+00  0.72033319101E+03  0.25057689524E+04  0.23999996118E+04 0.  0.
        4    1    3    3  502    0  0.96660781328E+03 -0.35980477593E+03  0.10005554114E+04  0.14369769955E+04  0.12699999809E+01 0.  1.
       -4    1    3    3    0  502 -0.96660781328E+03  0.35980477593E+03 -0.28022222036E+03  0.10687919569E+04  0.12699999809E+01 0. -1.
</event>
<event>
 5   0  0.1275948E-06  0.2399414E+04  0.7818609E-02  0.8439723E-01
       -2   -1    0    0    0  501  0.00000000000E+00  0.00000000000E+00  0.10664375929E+04  0.10664375929E+04  0.25500000920E-02 0.  1.
        2   -1    0    0  501    0  0.00000000000E+00  0.00000000000E+00 -0.13496309630E+04  0.13496309630E+04  0.25500000920E-02 0. -1.
    10030    2    1    2    0    0  0.00000000000E+00  0.00000000000E+00 -0.28319337014E+03  0.24160685559E+04  0.23994142581E+04 0.  0.
        1    1    3    3  502    0 -0.48745714096E+03 -0.29239170362E+02 -0.12450256632E+04  0.13373699172E+04  0.50400001928E-02 0. -1.
       -1    1    3    3    0  502  0.48745714096E+03  0.29239170362E+02  0.96183229302E+03  0.10786986388E+04  0.50400001928E-02 0.  1.
</event>
<event>
 5   0  0.1308662E-06  0.2399761E+04  0.7818609E-02  0.8439593E-01
        2   -1    0    0  501    0  0.00000000000E+00  0.00000000000E+00  0.22021288915E+04  0.22021288915E+04  0.25500000920E-02 0. -1.
       -2   -1    0    0    0  501  0.00000000000E+00  0.00000000000E+00 -0.65378240494E+03  0.65378240494E+03  0.25500000920E-02 0.  1.
    10030    2    1    2    0    0  0.00000000000E+00  0.00000000000E+00  0.15483464866E+04  0.28559112965E+04  0.23997609237E+04 0.  0.
        3    1    3    3  502    0 -0.94322942829E+02 -0.41165153295E+03  0.21107568976E+04  0.21525911114E+04  0.10100000352E+00 0. -1.
       -3    1    3    3    0  502  0.94322942829E+02  0.41165153295E+03 -0.56241041098E+03  0.70332018505E+03  0.10100000352E+00 0.  1.
</event>
<event>
 5   0  0.5452384E-07  0.2403328E+04  0.7818609E-02  0.8438259E-01
       -1   -1    0    0    0  501  0.00000000000E+00  0.00000000000E+00  0.24012666972E+04  0.24012666972E+04  0.50400001928E-02 0.  1.
        1   -1    0    0  501    0  0.00000000000E+00  0.00000000000E+00 -0.60134795520E+03  0.60134795522E+03  0.50400001928E-02 0. -1.
    10030    2    1    2    0    0  0.00000000000E+00  0.00000000000E+00  0.17999187420E+04  0.30026146525E+04  0.24033283740E+04 0.  0.
        5    1    3    3  502    0  0.62253646836E+03  0.96863140786E+03  0.13294479545E+04  0.17587644562E+04  0.46999998093E+01 0.  1.
       -5    1    3    3    0  502 -0.62253646836E+03 -0.96863140786E+03  0.47047078750E+03  0.12438501962E+04  0.46999998093E+01 0. -1.
</event>
<event>
 5   0  0.1336057E-06  0.2399569E+04  0.7818609E-02  0.8439665E-01
       -2   -1    0    0    0  501  0.00000000000E+00  0.00000000000E+00  0.81500689838E+03  0.81500689838E+03  0.25500000920E-02 0.  1.
        2   -1    0    0  501    0  0.00000000000E+00  0.00000000000E+00 -0.17662212341E+04  0.17662212341E+04  0.25500000920E-02 0. -1.
    10030    2    1    2    0    0  0.00000000000E+00  0.00000000000E+00 -0.95121433573E+03  0.25812281325E+04  0.23995687028E+04 0.  0.
        2    1    3    3  502    0  0.11786158172E+04  0.13199705019E+03 -0.67079361379E+03  0.13625426739E+04  0.25500000920E-02 0.  1.
       -2    1    3    3    0  502 -0.11786158172E+04 -0.13199705019E+03 -0.28042072194E+03  0.12186854586E+04  0.25500000920E-02 0. -1.
</event>
<event>
 5   0  0.1291468E-06  0.2413809E+04  0.7818609E-02  0.8434352E-01
        2   -1    0    0  501    0  0.00000000000E+00  0.00000000000E+00  0.13367705605E+04  0.13367705605E+04  0.25500000920E-02 0. -1.
       -2   -1    0    0    0  501  0.00000000000E+00  0.00000000000E+00 -0.10896545214E+04  0.10896545214E+04  0.25500000920E-02 0.  1.
    10030    2    1    2    0    0  0.00000000000E+00  0.00000000000E+00  0.24711603903E+03  0.24264250819E+04  0.24138086795E+04 0.  0.
        4    1    3    3  502    0 -0.23981286410E+03 -0.63572179799E+03 -0.87913441558E+03  0.11110946619E+04  0.12699999809E+01 0.  1.
       -4    1    3    3    0  502  0.23981286410E+03  0.63572179799E+03  0.11262504546E+04  0.13153304199E+04  0.12699999809E+01 0. -1.
</event>
<event>
 5   0  0.5363690E-07  0.2399677E+04  0.7818609E-02  0.8439624E-01
        1   -1    0    0  501    0  0.00000000000E+00  0.00000000000E+00  0.92334720585E+03  0.92334720586E+03  0.50400001928E-02 0. -1.
       -1   -1    0    0    0  501  0.00000000000E+00  0.00000000000E+00 -0.15591241923E+04  0.15591241923E+04  0.50400001928E-02 0.  1.
    10030    2    1    2    0    0  0.00000000000E+00  0.00000000000E+00 -0.63577698643E+03  0.24824713981E+04  0.23996774504E+04 0.  0.
        4    1    3    3  502    0  0.81774789080E+03  0.80475509355E+03  0.45321914282E+02  0.11482151638E+04  0.12699999809E+01 0.  1.
       -4    1    3    3    0  502 -0.81774789080E+03 -0.80475509355E+03 -0.68109890071E+03  0.13342562344E+04  0.12699999809E+01 0. -1.
</event>
<event>
 5   0  0.1307477E-06  0.2400442E+04  0.7818609E-02  0.8439338E-01
        2   -1    0    0  501    0  0.00000000000E+00  0.00000000000E+00  0.22471133905E+04  0.22471133905E+04  0.25500000920E-02 0. -1.
       -2   -1    0    0    0  501  0.00000000000E+00  0.00000000000E+00 -0.64105820261E+03  0.64105820262E+03  0.25500000920E-02 0.  1.
    10030    2    1    2    0    0  0.00000000000E+00  0.00000000000E+00  0.16060551879E+04  0.28881715932E+04  0.24004420186E+04 0.  0.
        5    1    3    3  502    0 -0.55812099155E+03  0.60424504192E+03  0.18546243813E+04  0.20288580033E+04  0.46999998093E+01 0. -1.
       -5    1    3    3    0  502  0.55812099155E+03 -0.60424504192E+03 -0.24856919333E+03  0.85931358989E+03  0.46999998093E+01 0.  1.
</event>
<event>
 5   0  0.1308662E-06  0.2401275E+04  0.7818609E-02  0.8439026E-01
        2   -1    0    0  501    0  0.00000000000E+00  0.00000000000E+00  0.13830940415E+04  0.13830940415E+04  0.25500000920E-02 0. -1.
       -2   -1    0    0    0  501  0.00000000000E+00  0.00000000000E+00 -0.10422502843E+04  0.10422502844E+04  0.25500000920E-02 0.  1.
    10030    2    1    2    0    0  0.00000000000E+00  0.00000000000E+00  0.34084375715E+03  0.24253443258E+04  0.24012747931E+04 0.  0.
        3    1    3    3  502    0  0.30665864926E+02 -0.54314852224E+03  0.12514678097E+04  0.13645960580E+04  0.10100000352E+00 0. -1.
       -3    1    3    3    0  502 -0.30665864926E+02  0.54314852224E+03 -0.91062405257E+03  0.10607482679E+04  0.10100000352E+00 0.  1.
</event>
<event>
 5   0  0.5363690E-07  0.2400102E+04  0.7818609E-02  0.8439465E-01
        1   -1    0    0  501    0  0.00000000000E+00  0.00000000000E+00  0.22164177206E+04  0.22164177206E+04  0.50400001928E-02 0. -1.
       -1   -1    0    0    0  501  0.00000000000E+00  0.00000000000E+00 -0.64975214282E+03  0.64975214284E+03  0.50400001928E-02 0.  1.
    10030    2    1    2    0    0  0.00000000000E+00  0.00000000000E+00  0.15666655778E+04  0.28661698635E+04  0.24001018007E+04 0.  0.
        4    1    3    3  502    0 -0.20448667047E+03 -0.78734883785E+03 -0.27025373161E+03  0.85718824258E+03  0.12699999809E+01 0.  1.
       -4    1    3    3    0  502  0.20448667047E+03  0.78734883785E+03  0.18369193094E+04  0.20089816209E+04  0.12699999809E+01 0. -1.
</event>
<event>
 5   0  0.5510176E-07  0.2400895E+04  0.7818609E-02  0.8439168E-01
        1   -1    0    0  501    0  0.00000000000E+00  0.00000000000E+00  0.15253668460E+04  0.15253668460E+04  0.50400001928E-02 0. -1.
       -1   -1    0    0    0  501  0.00000000000E+00  0.00000000000E+00 -0.94473979444E+03  0.94473979445E+03  0.50400001928E-02 0.  1.
    10030    2    1    2    0    0  0.00000000000E+00  0.00000000000E+00  0.58062705154E+03  0.24701066404E+04  0.24008954667E+04 0.  0.
        3    1    3    3  502    0 -0.98487089815E+03  0.68477644027E+03  0.24221883835E+03  0.12237481093E+04  0.10100000352E+00 0.  1.
       -3    1    3    3    0  502  0.98487089815E+03 -0.68477644027E+03  0.33840821320E+03  0.12463585311E+04  0.10100000352E+00 0. -1.
</event>
<event>
 5   0  0.1291468E-06  0.2400249E+04  0.7818609E-02  0.8439410E-01
       -2   -1    0    0    0  501  0.00000000000E+00  0.00000000000E+00  0.45745004129E+03  0.45745004129E+03  0.25500000920E-02 0. -1.
        2   -1    0    0  501    0  0.00000000000E+00  0.00000000000E+00 -0.31485388014E+04  0.31485388014E+04  0.25500000920E-02 0.  1.
    10030    2    1    2    0    0  0.00000000000E+00  0.00000000000E+00 -0.26910887601E+04  0.36059888427E+04  0.24002493243E+04 0.  0.
        4    1    3    3  502    0  0.49617702566E+03 -0.10679372947E+04 -0.99767615252E+03  0.15433862201E+04  0.12699999809E+01 0. -1.
       -4    1    3    3    0  502 -0.49617702566E+03  0.10679372947E+04 -0.16934126076E+04  0.20626026225E+04  0.12699999809E+01 0.  1.
</event>
<event>
 5   0  0.1308662E-06  0.2400138E+04  0.7818609E-02  0.8439452E-01
        2   -1    0    0  501    0  0.00000000000E+00  0.00000000000E+00  0.13364788091E+04  0.13364788091E+04  0.25500000920E-02 0. -1.
       -2   -1    0    0    0  501  0.00000000000E+00  0.00000000000E+00 -0.10775819300E+04  0.10775819301E+04  0.25500000920E-02 0.  1.
    10030    2    1    2    0    0  0.00000000000E+00  0.00000000000E+00  0.25889687903E+03  0.24140607391E+04  0.24001378415E+04 0.  0.
        3    1    3    3  502    0 -0.12198189033E+03  0.10297419782E+04  0.73703648999E+03  0.12721913854E+04  0.10100000352E+00 0.  1.
       -3    1    3    3    0  502  0.12198189033E+03 -0.10297419782E+04 -0.47813961096E+03  0.11418693537E+04  0.10100000352E+00 0. -1.
</event>
<event>
 5   0  0.1336057E-06  0.2400232E+04  0.7818609E-02  0.8439417E-01
       -2   -1    0    0    0  501  0.00000000000E+00  0.00000000000E+00  0.74670406817E+03  0.74670406817E+03  0.25500000920E-02 0. -1.
        2   -1    0    0  501    0  0.00000000000E+00  0.00000000000E+00 -0.19288475176E+04  0.19288475176E+04  0.25500000920E-02 0.  1.
    10030    2    1    2    0    0  0.00000000000E+00  0.00000000000E+00 -0.11821434495E+04  0.26755515858E+04  0.24002318957E+04 0.  0.
        2    1    3    3  502    0  0.20228374852E+02  0.10275688917E+04 -0.12818035930E+04  0.16429630140E+04  0.25500000920E-02 0.  1.
       -2    1    3    3    0  502 -0.20228374852E+02 -0.10275688917E+04  0.99660143541E+02  0.10325885718E+04  0.25500000920E-02 0. -1.
</event>
<event>
 5   0  0.1336057E-06  0.2399361E+04  0.7818609E-02  0.8439743E-01
       -2   -1    0    0    0  501  0.00000000000E+00  0.00000000000E+00  0.60737772928E+03  0.60737772928E+03  0.25500000920E-02 0. -1.
        2   -1    0    0  501    0  0.00000000000E+00  0.00000000000E+00 -0.23695856677E+04  0.23695856677E+04  0.25500000920E-02 0.  1.
    10030    2    1    2    0    0  0.00000000000E+00  0.00000000000E+00 -0.17622079384E+04  0.29769633970E+04  0.23993612168E+04 0.  0.
        2    1    3    3  502    0 -0.55963162579E+03  0.10401480289E+04 -0.62043784371E+03  0.13341808710E+04  0.25500000920E-02 0. -1.
       -2    1    3    3    0  502  0.55963162579E+03 -0.10401480289E+04 -0.11417700947E+04  0.16427825260E+04  0.25500000920E-02 0.  1.
</event>
<event>
 5   0  0.1291468E-06  0.2399954E+04  0.7818609E-02  0.8439521E-01
       -2   -1    0    0    0  501  0.00000000000E+00  0.00000000000E+00  0.12747974339E+04  0.12747974339E+04  0.25500000920E-02 0. -1.
        2   -1    0    0  501    0  0.00000000000E+00  0.00000000000E+00 -0.11295480953E+04  0.11295480953E+04  0.25500000920E-02 0.  1.
    10030    2    1    2    0    0  0.00000000000E+00  0.00000000000E+00  0.14524933857E+03  0.24043455292E+04  0.23999541774E+04 0.  0.
        4    1    3    3  502    0  0.64705402395E+03 -0.85776936366E+03 -0.46267146094E+03  0.11698348964E+04  0.12699999809E+01 0.  1.
       -4    1    3    3    0  502 -0.64705402395E+03  0.85776936366E+03  0.60792079951E+03  0.12345106328E+04  0.12699999809E+01 0. -1.
</event>
<event>
 5   0  0.1307477E-06  0.2399333E+04  0.7818609E-02  0.8439753E-01
        2   -1    0    0  501    0  0.00000000000E+00  0.00000000000E+00  0.11211405392E+04  0.11211405392E+04  0.25500000920E-02 0. -1.
       -2   -1    0    0    0  501  0.00000000000E+00  0.00000000000E+00 -0.12836919904E+04  0.12836919904E+04  0.25500000920E-02 0.  1.
    10030    2    1    2    0    0  0.00000000000E+00  0.00000000000E+00 -0.16255145115E+03  0.24048325296E+04  0.23993325158E+04 0.  0.
        5    1    3    3  502    0 -0.99192275800E+03 -0.46277185805E+03 -0.57342930687E+03  0.12356827305E+04  0.46999998093E+01 0.  1.
       -5    1    3    3    0  502  0.99192275800E+03  0.46277185805E+03  0.41087785572E+03  0.11691497991E+04  0.46999998093E+01 0. -1.
</event>
<event>
 5   0  0.1307477E-06  0.2401706E+04  0.7818609E-02  0.8438865E-01
       -2   -1    0    0    0  501  0.00000000000E+00  0.00000000000E+00  0.80501988988E+03  0.80501988989E+03  0.25500000920E-02 0. -1.
        2   -1    0    0  501    0  0.00000000000E+00  0.00000000000E+00 -0.17913199541E+04  0.17913199541E+04  0.25500000920E-02 0.  1.
    10030    2    1    2    0    0  0.00000000000E+00  0.00000000000E+00 -0.98630006420E+03  0.25963398440E+04  0.24017062203E+04 0.  0.
        5    1    3    3  502    0  0.56241347997E+03  0.17190185978E+03 -0.16249769105E+04  0.17281293995E+04  0.46999998093E+01 0.  1.
       -5    1    3    3    0  502 -0.56241347997E+03 -0.17190185978E+03  0.63867684630E+03  0.86821044445E+03  0.46999998093E+01 0. -1.
</event>
<event>
 5   0  0.1308662E-06  0.2396885E+04  0.7818609E-02  0.8440671E-01
        2   -1    0    0  501    0  0.00000000000E+00  0.00000000000E+00  0.15399341684E+04  0.15399341684E+04  0.25500000920E-02 0.  1.
       -2   -1    0    0    0  501  0.00000000000E+00  0.00000000000E+00 -0.93267886902E+03  0.93267886902E+03  0.25500000920E-02 0. -1.
    10030    2    1    2    0    0  0.00000000000E+00  0.00000000000E+00  0.60725529941E+03  0.24726130374E+04  0.23968846936E+04 0.  0.
        3    1    3    3  502    0 -0.11938810240E+04 -0.62427405951E+02  0.21722603529E+03  0.12150869274E+04  0.10100000352E+00 0. -1.
       -3    1    3    3    0  502  0.11938810240E+04  0.62427405951E+02  0.39002926412E+03  0.12575261101E+04  0.10100000352E+00 0.  1.
</event>
<event>
 5   0  0.5527286E-07  0.2398473E+04  0.7818609E-02  0.8440076E-01
        1   -1    0    0  501    0  0.00000000000E+00  0.00000000000E+00  0.98908005037E+03  0.98908005039E+03  0.50400001928E-02 0.  1.
       -1   -1    0    0    0  501  0.00000000000E+00  0.00000000000E+00 -0.14540458976E+04  0.14540458976E+04  0.50400001928E-02 0. -1.
    10030    2    1    2    0    0  0.00000000000E+00  0.00000000000E+00 -0.46496584719E+03  0.24431259480E+04  0.23984726720E+04 0.  0.
        1    1    3    3  502    0  0.16569715730E+03  0.95086686485E+03 -0.95746694464E+03  0.13595390001E+04  0.50400001928E-02 0. -1.
       -1    1    3    3    0  502 -0.16569715730E+03 -0.95086686485E+03  0.49250109745E+03  0.10835869479E+04  0.50400001928E-02 0.  1.
</event>
<event>
 5   0  0.5527286E-07  0.2400793E+04  0.7818609E-02  0.8439207E-01
        1   -1    0    0  501    0  0.00000000000E+00  0.00000000000E+00  0.14799199947E+04  0.14799199947E+04  0.50400001928E-02 0.  1.
       -1   -1    0    0    0  501  0.00000000000E+00  0.00000000000E+00 -0.97366861377E+03  0.97366861378E+03  0.50400001928E-02 0. -1.
    10030    2    1    2    0    0  0.00000000000E+00  0.00000000000E+00  0.50625138094E+03  0.24535886085E+04  0.24007929105E+04 0.  0.
        1    1    3    3  502    0  0.82387371482E+03  0.85657478589E+02 -0.63479951280E+03  0.10435878128E+04  0.50400001928E-02 0. -1.
       -1    1    3    3    0  502 -0.82387371482E+03 -0.85657478589E+02  0.11410508937E+04  0.14100007957E+04  0.50400001928E-02 0.  1.
</event>
<event>
 5   0  0.1336057E-06  0.2399432E+04  0.7818609E-02  0.8439716E-01
       -2   -1    0    0    0  501  0.00000000000E+00  0.00000000000E+00  0.69981463774E+03  0.69981463775E+03  0.25500000920E-02 0. -1.
        2   -1    0    0  501    0  0.00000000000E+00  0.00000000000E+00 -0.20567130399E+04  0.20567130399E+04  0.25500000920E-02 0.  1.
    10030    2    1    2    0    0  0.00000000000E+00  0.00000000000E+00 -0.13568984021E+04  0.27565276776E+04  0.23994315085E+04 0.  0.
        2    1    3    3  502    0  0.51864599851E+03  0.10788699584E+04 -0.77009516691E+03  0.14233764875E+04  0.25500000920E-02 0.  1.
       -2    1    3    3    0  502 -0.51864599851E+03 -0.10788699584E+04 -0.58680323521E+03  0.13331511901E+04  0.25500000920E-02 0. -1.
</event>
<event>
 5   0  0.1291468E-06  0.2403446E+04  0.7818609E-02  0.8438215E-01
       -2   -1    0    0    0  501  0.00000000000E+00  0.00000000000E+00  0.85856766372E+03  0.85856766372E+03  0.25500000920E-02 0.  1.
        2   -1    0    0  501    0  0.00000000000E+00  0.00000000000E+00 -0.16820319903E+04  0.16820319903E+04  0.25500000920E-02 0. -1.
    10030    2    1    2    0    0  0.00000000000E+00  0.00000000000E+00 -0.82346432660E+03  0.25405996540E+04  0.24034460895E+04 0.  0.
        4    1    3    3  502    0 -0.48315924013E+03  0.10743270191E+04 -0.66302768296E+03  0.13517502419E+04  0.12699999809E+01 0. -1.
       -4    1    3    3    0  502  0.48315924013E+03 -0.10743270191E+04 -0.16043664364E+03  0.11888494121E+04  0.12699999809E+01 0.  1.
</event>
<event>
 5   0  0.5452384E-07  0.2400747E+04  0.7818609E-02  0.8439224E-01
        1   -1    0    0  501    0  0.00000000000E+00  0.00000000000E+00  0.20632410256E+04  0.20632410256E+04  0.50400001928E-02 0. -1.
       -1   -1    0    0    0  501  0.00000000000E+00  0.00000000000E+00 -0.69836564826E+03  0.69836564828E+03  0.50400001928E-02 0.  1.
    10030    2    1    2    0    0  0.00000000000E+00  0.00000000000E+00  0.13648753773E+04  0.27616066739E+04  0.24007470974E+04 0.  0.
        5    1    3    3  502    0  0.73921595269E+03 -0.93785207006E+03  0.54217592442E+03  0.13114814345E+04  0.46999998093E+01 0.  1.
       -5    1    3    3    0  502 -0.73921595269E+03  0.93785207006E+03  0.82269945289E+03  0.14501252394E+04  0.46999998093E+01 0. -1.
</event>
<event>
 5   0  0.1275948E-06  0.2390791E+04  0.7818609E-02  0.8442959E-01
       -2   -1    0    0    0  501  0.00000000000E+00  0.00000000000E+00  0.77281649535E+03  0.77281649536E+03  0.25500000920E-02 0.  1.
        2   -1    0    0  501    0  0.00000000000E+00  0.00000000000E+00 -0.18490419349E+04  0.18490419349E+04  0.25500000920E-02 0. -1.
    10030    2    1    2    0    0  0.00000000000E+00  0.00000000000E+00 -0.10762254395E+04  0.26218584303E+04  0.23907907545E+04 0.  0.
        1    1    3    3  502    0 -0.54060552503E+03 -0.10637005203E+04 -0.45860016181E+03  0.12782907490E+04  0.50400001928E-02 0.  1.
       -1    1    3    3    0  502  0.54060552503E+03  0.10637005203E+04 -0.61762527772E+03  0.13435676813E+04  0.50400001928E-02 0. -1.
</event>
<event>
 5   0  0.5452384E-07  0.2398756E+04  0.7818609E-02  0.8439970E-01
        1   -1    0    0  501    0  0.00000000000E+00  0.00000000000E+00  0.15086980334E+04  0.15086980334E+04  0.50400001928E-02 0. -1.
       -1   -1    0    0    0  501  0.00000000000E+00  0.00000000000E+00 -0.95347591710E+03  0.95347591711E+03  0.50400001928E-02 0.  1.
    10030    2    1    2    0    0  0.00000000000E+00  0.00000000000E+00  0.55522211632E+03  0.24621739505E+04  0.23987557117E+04 0.  0.
        5    1    3    3  502    0 -0.71265290937E+02  0.89412917695E+03  0.10948641851E+04  0.14153781829E+04  0.46999998093E+01 0. -1.
       -5    1    3    3    0  502  0.71265290937E+02 -0.89412917695E+03 -0.53964206879E+03  0.10467957677E+04  0.46999998093E+01 0.  1.
</event>
<event>
 5   0  0.5363690E-07  0.2400135E+04  0.7818609E-02  0.8439453E-01
        1   -1    0    0  501    0  0.00000000000E+00  0.00000000000E+00  0.15311648937E+04  0.15311648937E+04  0.50400001928E-02 0. -1.
       -1   -1    0    0    0  501  0.00000000000E+00  0.00000000000E+00 -0.94056589290E+03  0.94056589291E+03  0.50400001928E-02 0.  1.
    10030    2    1    2    0    0  0.00000000000E+00  0.00000000000E+00  0.59059900079E+03  0.24717307866E+04  0.24001345591E+04 0.  0.
        4    1    3    3  502    0 -0.46386184452E+03 -0.11067157572E+04  0.30881675867E+03  0.12390952269E+04  0.12699999809E+01 0. -1.
       -4    1    3    3    0  502  0.46386184452E+03  0.11067157572E+04  0.28178224213E+03  0.12326355597E+04  0.12699999809E+01 0.  1.
</event>
<event>
 5   0  0.5527286E-07  0.2400322E+04  0.7818609E-02  0.8439383E-01
       -1   -1    0    0    0  501  0.00000000000E+00  0.00000000000E+00  0.13728829660E+04  0.13728829660E+04  0.50400001928E-02 0.  1.
        1   -1    0    0  501    0  0.00000000000E+00  0.00000000000E+00 -0.10491695543E+04  0.10491695543E+04  0.50400001928E-02 0. -1.
    10030    2    1    2    0    0  0.00000000000E+00  0.00000000000E+00  0.32371341165E+03  0.24220525203E+04  0.24003224863E+04 0.  0.
        1    1    3    3  502    0 -0.80878843457E+03 -0.20662107339E+03  0.10319599876E+04  0.13273177524E+04  0.50400001928E-02 0.  1.
       -1    1    3    3    0  502  0.80878843457E+03  0.20662107339E+03 -0.70824657591E+03  0.10947347680E+04  0.50400001928E-02 0. -1.
</event>
<event>
 5   0  0.5527286E-07  0.2398349E+04  0.7818609E-02  0.8440122E-01
       -1   -1    0    0    0  501  0.00000000000E+00  0.00000000000E+00  0.23620375626E+04  0.23620375626E+04  0.50400001928E-02 0. -1.
        1   -1    0    0  501    0  0.00000000000E+00  0.00000000000E+00 -0.60880471899E+03  0.60880471901E+03  0.50400001928E-02 0.  1.
    10030    2    1    2    0    0  0.00000000000E+00  0.00000000000E+00  0.17532328436E+04  0.29708422816E+04  0.23983491110E+04 0.  0.
        1    1    3    3  502    0  0.50458201892E+03  0.75615503998E+03 -0.92146082237E+02  0.91370912155E+03  0.50400001928E-02 0.  1.
       -1    1    3    3    0  502 -0.50458201892E+03 -0.75615503998E+03  0.18453789259E+04  0.20571331601E+04  0.50400001928E-02 0. -1.
</event>
<event>
 5   0  0.5527286E-07  0.2399804E+04  0.7818609E-02  0.8439577E-01
       -1   -1    0    0    0  501  0.00000000000E+00  0.00000000000E+00  0.10588726256E+04  0.10588726256E+04  0.50400001928E-02 0.  1.
        1   -1    0    0  501    0  0.00000000000E+00  0.00000000000E+00 -0.13597146028E+04  0.13597146028E+04  0.50400001928E-02 0. -1.
    10030    2    1    2    0    0  0.00000000000E+00  0.00000000000E+00 -0.30084197723E+03  0.24185872284E+04  0.23998038016E+04 0.  0.
        1    1    3    3  502    0 -0.29957078752E+03  0.59000754977E+03  0.85836960811E+03  0.10838126912E+04  0.50400001928E-02 0.  1.
       -1    1    3    3    0  502  0.29957078752E+03 -0.59000754977E+03 -0.11592115853E+04  0.13347745372E+04  0.50400001928E-02 0. -1.
</event>
<event>
 5   0  0.5690124E-07  0.2400179E+04  0.7818609E-02  0.8439437E-01
        1   -1    0    0  501    0  0.00000000000E+00  0.00000000000E+00  0.98957163635E+03  0.98957163636E+03  0.50400001928E-02 0.  1.
       -1   -1    0    0    0  501  0.00000000000E+00  0.00000000000E+00 -0.14553916872E+04  0.14553916872E+04  0.50400001928E-02 0. -1.
    10030    2    1    2    0    0  0.00000000000E+00  0.00000000000E+00 -0.46582005087E+03  0.24449633236E+04  0.24001786046E+04 0.  0.
        2    1    3    3  502    0  0.15052858375E+03  0.27542764829E+03 -0.14128385597E+04  0.14472843672E+04  0.25500000920E-02 0. -1.
       -2    1    3    3    0  502 -0.15052858375E+03 -0.27542764829E+03  0.94701850879E+03  0.99767895636E+03  0.25500000920E-02 0.  1.
</event>
<event>
 5   0  0.5452384E-07  0.2400637E+04  0.7818609E-02  0.8439265E-01
       -1   -1    0    0    0  501  0.00000000000E+00  0.00000000000E+00  0.58981370322E+03  0.58981370324E+03  0.50400001928E-02 0.  1.
        1   -1    0    0  501    0  0.00000000000E+00  0.00000000000E+00 -0.24427458702E+04  0.24427458702E+04  0.50400001928E-02 0. -1.
    10030    2    1    2    0    0  0.00000000000E+00  0.00000000000E+00 -0.18529321670E+04  0.30325595735E+04  0.24006374052E+04 0.  0.
        5    1    3    3  502    0  0.11811786265E+04  0.69065161411E+02 -0.11815948198E+04  0.16721666640E+04  0.46999998093E+01 0.  1.
       -5    1    3    3    0  502 -0.11811786265E+04 -0.69065161411E+02 -0.67133734725E+03  0.13603929094E+04  0.46999998093E+01 0. -1.
</event>
<event>
 5   0  0.1308662E-06  0.2400163E+04  0.7818609E-02  0.8439443E-01
       -2   -1    0    0    0  501  0.00000000000E+00  0.00000000000E+00  0.65389637857E+03  0.65389637857E+03  0.25500000920E-02 0. -1.
        2   -1    0    0  501    0  0.00000000000E+00  0.00000000000E+00 -0.22024825046E+04  0.22024825046E+04  0.25500000920E-02 0.  1.
    10030    2    1    2    0    0  0.00000000000E+00  0.00000000000E+00 -0.15485861260E+04  0.28563788832E+04  0.24001627725E+04 0.  0.
        3    1    3    3  502    0 -0.70937481332E+03  0.38084746202E+03 -0.18333533535E+04  0.20023590947E+04  0.10100000352E+00 0.  1.
       -3    1    3    3    0  502  0.70937481332E+03 -0.38084746202E+03  0.28476722746E+03  0.85401978849E+03  0.10100000352E+00 0. -1.
</event>
<event>
 5   0  0.5510176E-07  0.2405449E+04  0.7818609E-02  0.8437466E-01
        1   -1    0    0  501    0  0.00000000000E+00  0.00000000000E+00  0.14725490486E+04  0.14725490486E+04  0.50400001928E-02 0.  1.
       -1   -1    0    0    0  501  0.00000000000E+00  0.00000000000E+00 -0.98234170890E+03  0.98234170891E+03  0.50400001928E-02 0. -1.
    10030    2    1    2    0    0  0.00000000000E+00  0.00000000000E+00  0.49020733973E+03  0.24548907575E+04  0.24054491048E+04 0.  0.
        3    1    3    3  502    0 -0.92436882499E+03 -0.12402592169E+02 -0.54008302389E+03  0.10706545810E+04  0.10100000352E+00 0. -1.
       -3    1    3    3    0  502  0.92436882499E+03  0.12402592169E+02  0.10302903636E+04  0.13842361766E+04  0.10100000352E+00 0.  1.
</event>
<event>
 5   0  0.5690124E-07  0.2398375E+04  0.7818609E-02  0.8440112E-01
       -1   -1    0    0    0  501  0.00000000000E+00  0.00000000000E+00  0.71389669322E+03  0.71389669324E+03  0.50400001928E-02 0. -1.
        1   -1    0    0  501    0  0.00000000000E+00  0.00000000000E+00 -0.20143676093E+04  0.20143676093E+04  0.50400001928E-02 0.  1.
    10030    2    1    2    0    0  0.00000000000E+00  0.00000000000E+00 -0.13004709161E+04  0.27282643025E+04  0.23983747624E+04 0.  0.
        2    1    3    3  502    0 -0.10212219341E+03 -0.44484124360E+03 -0.19117017175E+04  0.19654302661E+04  0.25500000920E-02 0.  1.
       -2    1    3    3    0  502  0.10212219341E+03  0.44484124360E+03  0.61123080145E+03  0.76283403637E+03  0.25500000920E-02 0. -1.
</event>
<event>
 5   0  0.1307477E-06  0.2399625E+04  0.7818609E-02  0.8439644E-01
       -2   -1    0    0    0  501  0.00000000000E+00  0.00000000000E+00  0.65297243077E+03  0.65297243077E+03  0.25500000920E-02 0. -1.
        2   -1    0    0  501    0  0.00000000000E+00  0.00000000000E+00 -0.22046110378E+04  0.22046110378E+04  0.25500000920E-02 0.  1.
    10030    2    1    2    0    0  0.00000000000E+00  0.00000000000E+00 -0.15516386070E+04  0.28575834686E+04  0.23996251610E+04 0.  0.
        5    1    3    3  502    0 -0.11491547701E+04 -0.34361261059E+03 -0.81158090908E+03  0.14482099205E+04  0.46999998093E+01 0.  1.
       -5    1    3    3    0  502  0.11491547701E+04  0.34361261059E+03 -0.74005769796E+03  0.14093735481E+04  0.46999998093E+01 0. -1.
</event>
<event>
 5   0  0.1308662E-06  0.2401022E+04  0.7818609E-02  0.8439121E-01
        2   -1    0    0  501    0  0.00000000000E+00  0.00000000000E+00  0.17464823820E+04  0.17464823820E+04  0.25500000920E-02 0.  1.
       -2   -1    0    0    0  501  0.00000000000E+00  0.00000000000E+00 -0.82521678192E+03  0.82521678193E+03  0.25500000920E-02 0. -1.
    10030    2    1    2    0    0  0.00000000000E+00  0.00000000000E+00  0.92126560009E+03  0.25716991639E+04  0.24010219249E+04 0.  0.
        3    1    3    3  502    0  0.65925395116E+03  0.25389429021E+03  0.15002745541E+04  0.16582827957E+04  0.10100000352E+00 0.  1.
       -3    1    3    3    0  502 -0.65925395116E+03 -0.25389429021E+03 -0.57900895400E+03  0.91341636822E+03  0.10100000352E+00 0. -1.
</event>
<event>
 5   0  0.5527286E-07  0.2407145E+04  0.7818609E-02  0.8436834E-01
        1   -1    0    0  501    0  0.00000000000E+00  0.00000000000E+00  0.16777949137E+04  0.16777949137E+04  0.50400001928E-02 0. -1.
       -1   -1    0    0    0  501  0.00000000000E+00  0.00000000000E+00 -0.86338700164E+03  0.86338700166E+03  0.50400001928E-02 0.  1.
    10030    2    1    2    0    0  0.00000000000E+00  0.00000000000E+00  0.81440791208E+03  0.25411819154E+04  0.24071446321E+04 0.  0.
        1    1    3    3  502    0  0.47844141144E+03 -0.57528861836E+03  0.14024187311E+04  0.15895412785E+04  0.50400001928E-02 0. -1.
       -1    1    3    3    0  502 -0.47844141144E+03  0.57528861836E+03 -0.58801081900E+03  0.95164063694E+03  0.50400001928E-02 0.  1.
</event>
<event>
 5   0  0.1291468E-06  0.2400690E+04  0.7818609E-02  0.8439245E-01
       -2   -1    0    0    0  501  0.00000000000E+00  0.00000000000E+00  0.10091745329E+04  0.10091745329E+04  0.25500000920E-02 0.  1.
        2   -1    0    0  501    0  0.00000000000E+00  0.00000000000E+00 -0.14277298696E+04  0.14277298696E+04  0.25500000920E-02 0. -1.
    10030    2    1    2    0    0  0.00000000000E+00  0.00000000000E+00 -0.41855533675E+03  0.24369044025E+04  0.24006904209E+04 0.  0.
        4    1    3    3  502    0 -0.93254910638E+03 -0.30695847050E+03 -0.91031531746E+03  0.13388603096E+04  0.12699999809E+01 0. -1.
       -4    1    3    3    0  502  0.93254910638E+03  0.30695847050E+03  0.49175998071E+03  0.10980440929E+04  0.12699999809E+01 0.  1.
</event>
<event>
 5   0  0.1275948E-06  0.2400813E+04  0.7818609E-02  0.8439199E-01
        2   -1    0    0  501    0  0.00000000000E+00  0.00000000000E+00  0.12389434087E+04  0.12389434087E+04  0.25500000920E-02 0.  1.
       -2   -1    0    0    0  501  0.00000000000E+00  0.00000000000E+00 -0.11630682093E+04  0.11630682093E+04  0.25500000920E-02 0. -1.
    10030    2    1    2    0    0  0.00000000000E+00  0.00000000000E+00  0.75875199398E+02  0.24020116181E+04  0.24008129389E+04 0.  0.
        1    1    3    3  502    0 -0.22321866570E+03  0.33333792033E+03  0.11698887745E+04  0.12367620978E+04  0.50400001928E-02 0.  1.
       -1    1    3    3    0  502  0.22321866570E+03 -0.33333792033E+03 -0.10940135751E+04  0.11652495202E+04  0.50400001928E-02 0. -1.
</event>
<event>
 5   0  0.1308662E-06  0.2400276E+04  0.7818609E-02  0.8439400E-01
       -2   -1    0    0    0  501  0.00000000000E+00  0.00000000000E+00  0.11464516100E+04  0.11464516100E+04  0.25500000920E-02 0.  1.
        2   -1    0    0  501    0  0.00000000000E+00  0.00000000000E+00 -0.12563385402E+04  0.12563385402E+04  0.25500000920E-02 0. -1.
    10030    2    1    2    0    0  0.00000000000E+00  0.00000000000E+00 -0.10988693021E+03  0.24027901502E+04  0.24002761026E+04 0.  0.
        3    1    3    3  502    0  0.40552061338E+03 -0.42811604631E+03  0.99142692475E+03  0.11535413622E+04  0.10100000352E+00 0.  1.
       -3    1    3    3    0  502 -0.40552061338E+03  0.42811604631E+03 -0.11013138550E+04  0.12492487880E+04  0.10100000352E+00 0. -1.
</event>
<event>
 5   0  0.5452384E-07  0.2394476E+04  0.7818609E-02  0.8441575E-01
       -1   -1    0    0    0  501  0.00000000000E+00  0.00000000000E+00  0.98867347384E+03  0.98867347386E+03  0.50400001928E-02 0.  1.
        1   -1    0    0  501    0  0.00000000000E+00  0.00000000000E+00 -0.14498000587E+04  0.14498000587E+04  0.50400001928E-02 0. -1.
    10030    2    1    2    0    0  0.00000000000E+00  0.00000000000E+00 -0.46112658482E+03  0.24384735325E+04  0.23944760265E+04 0.  0.
        5    1    3    3  502    0 -0.87791990871E+03 -0.74413575505E+03 -0.56658891884E+03  0.12827807611E+04  0.46999998093E+01 0.  1.
       -5    1    3    3    0  502  0.87791990871E+03  0.74413575505E+03  0.10546233403E+03  0.11556927714E+04  0.46999998093E+01 0. -1.
</event>
<event>
 5   0  0.5690124E-07  0.2401435E+04  0.7818609E-02  0.8438967E-01
       -1   -1    0    0    0  501  0.00000000000E+00  0.00000000000E+00  0.32397605456E+04  0.32397605456E+04  0.50400001928E-02 0.  1.
        1   -1    0    0  501    0  0.00000000000E+00  0.00000000000E+00 -0.44500885147E+03  0.44500885150E+03  0.50400001928E-02 0. -1.
    10030    2    1    2    0    0  0.00000000000E+00  0.00000000000E+00  0.27947516941E+04  0.36847693971E+04  0.24014346708E+04 0.  0.
        2    1    3    3  502    0 -0.60909283746E+03 -0.26797541384E+03  0.29309482529E+04  0.30055386486E+04  0.25500000920E-02 0.  1.
       -2    1    3    3    0  502  0.60909283746E+03  0.26797541384E+03 -0.13619655878E+03  0.67923074849E+03  0.25500000920E-02 0. -1.
</event>
<event>
 5   0  0.5527286E-07  0.2399028E+04  0.7818609E-02  0.8439867E-01
       -1   -1    0    0    0  501  0.00000000000E+00  0.00000000000E+00  0.13034024851E+04  0.13034024851E+04  0.50400001928E-02 0. -1.
        1   -1    0    0  501    0  0.00000000000E+00  0.00000000000E+00 -0.11039061440E+04  0.11039061440E+04  0.50400001928E-02 0.  1.
    10030    2    1    2    0    0  0.00000000000E+00  0.00000000000E+00  0.19949634112E+03  0.24073086291E+04  0.23990281461E+04 0.  0.
        1    1    3    3  502    0 -0.11630957866E+04  0.29016726873E+03  0.14285174560E+03  0.12072263557E+04  0.50400001928E-02 0. -1.
       -1    1    3    3    0  502  0.11630957866E+04 -0.29016726873E+03  0.56644595527E+02  0.12000822734E+04  0.50400001928E-02 0.  1.
</event>
<event>
 5   0  0.1336057E-06  0.2399862E+04  0.7818609E-02  0.8439555E-01
        2   -1    0    0  501    0  0.00000000000E+00  0.00000000000E+00  0.17095610624E+04  0.17095610624E+04  0.25500000920E-02 0.  1.
       -2   -1    0    0    0  501  0.00000000000E+00  0.00000000000E+00 -0.84222483963E+03  0.84222483963E+03  0.25500000920E-02 0. -1.
    10030    2    1    2    0    0  0.00000000000E+00  0.00000000000E+00  0.86733622281E+03  0.25517859021E+04  0.23998623224E+04 0.  0.
        2    1    3    3  502    0  0.22065279933E+03  0.89616882185E+03  0.12490426061E+04  0.15530336915E+04  0.25500000920E-02 0.  1.
       -2    1    3    3    0  502 -0.22065279933E+03 -0.89616882185E+03 -0.38170638326E+03  0.99875221058E+03  0.25500000920E-02 0. -1.
</event>
<event>
 5   0  0.1291468E-06  0.2400499E+04  0.7818609E-02  0.8439317E-01
        2   -1    0    0  501    0  0.00000000000E+00  0.00000000000E+00  0.17752402904E+04  0.17752402904E+04  0.25500000920E-02 0. -1.
       -2   -1    0    0    0  501  0.00000000000E+00  0.00000000000E+00 -0.81149487311E+03  0.81149487311E+03  0.25500000920E-02 0.  1.
    10030    2    1    2    0    0  0.00000000000E+00  0.00000000000E+00  0.96374541725E+03  0.25867351635E+04  0.24004986100E+04 0.  0.
        4    1    3    3  502    0  0.53245781066E+03  0.76036295349E+03  0.13017802876E+04  0.15988422909E+04  0.12699999809E+01 0. -1.
       -4    1    3    3    0  502 -0.53245781066E+03 -0.76036295349E+03 -0.33803487034E+03  0.98789287256E+03  0.12699999809E+01 0.  1.
</event>
<event>
 5   0  0.5690124E-07  0.2400546E+04  0.7818609E-02  0.8439299E-01
        1   -1    0    0  501    0  0.00000000000E+00  0.00000000000E+00  0.14902755899E+04  0.14902755899E+04  0.50400001928E-02 0.  1.
       -1   -1    0    0    0  501  0.00000000000E+00  0.00000000000E+00 -0.96670372456E+03  0.96670372457E+03  0.50400001928E-02 0. -1.
    10030    2    1    2    0    0  0.00000000000E+00  0.00000000000E+00  0.52357186530E+03  0.24569793144E+04  0.24005457408E+04 0.  0.
        2    1    3    3  502    0 -0.54201001022E+02  0.10230644903E+04 -0.37825999365E+03  0.10920985865E+04  0.25500000920E-02 0. -1.
       -2    1    3    3    0  502  0.54201001022E+02 -0.10230644903E+04  0.90183185895E+03  0.13648807280E+04  0.25500000920E-02 0.  1.
</event>
<event>
 5   0  0.5452384E-07  0.2399725E+04  0.7818609E-02  0.8439606E-01
       -1   -1    0    0    0  501  0.00000000000E+00  0.00000000000E+00  0.90929730915E+03  0.90929730916E+03  0.50400001928E-02 0.  1.
        1   -1    0    0  501    0  0.00000000000E+00  0.00000000000E+00 -0.15832781321E+04  0.15832781321E+04  0.50400001928E-02 0. -1.
    10030    2    1    2    0    0  0.00000000000E+00  0.00000000000E+00 -0.67398082296E+03  0.24925754413E+04  0.23997254386E+04 0.  0.
        5    1    3    3  502    0  0.68336107245E+03  0.42922617409E+03  0.58530192475E+03  0.99690415636E+03  0.46999998093E+01 0.  1.
       -5    1    3    3    0  502 -0.68336107245E+03 -0.42922617409E+03 -0.12592827477E+04  0.14956712849E+04  0.46999998093E+01 0. -1.
</event>
<event>
 5   0  0.5690124E-07  0.2401471E+04  0.7818609E-02  0.8438953E-01
        1   -1    0    0  501    0  0.00000000000E+00  0.00000000000E+00  0.10791342635E+04  0.10791342635E+04  0.50400001928E-02 0. -1.
       -1   -1    0    0    0  501  0.00000000000E+00  0.00000000000E+00 -0.13360387314E+04  0.13360387314E+04  0.50400001928E-02 0.  1.
    10030    2    1    2    0    0  0.00000000000E+00  0.00000000000E+00 -0.25690446785E+03  0.24151729949E+04  0.24014705265E+04 0.  0.
        2    1    3    3  502    0 -0.26504333080E+03 -0.10213566753E+04  0.44783367898E+03  0.11462863644E+04  0.25500000920E-02 0. -1.
       -2    1    3    3    0  502  0.26504333080E+03  0.10213566753E+04 -0.70473814684E+03  0.12688866304E+04  0.25500000920E-02 0.  1.
</event>
<event>
 5   0  0.4483375E-07  0.2400258E+04  0.7818609E-02  0.8439407E-01
       -3   -1    0    0    0  501  0.00000000000E+00  0.00000000000E+00  0.12898684367E+04  0.12898684407E+04  0.10100000352E+00 0.  1.
        3   -1    0    0  501    0  0.00000000000E+00  0.00000000000E+00 -0.11166332299E+04  0.11166332344E+04  0.10100000352E+00 0. -1.
    10030    2    1    2    0    0  0.00000000000E+00  0.00000000000E+00  0.17323520682E+03  0.24065016751E+04  0.24002582935E+04 0.  0.
        5    1    3    3  502    0  0.84396891914E+03  0.95336628518E+02  0.93671178439E+03  0.12644459918E+04  0.46999998093E+01 0.  1.
       -5    1    3    3    0  502 -0.84396891914E+03 -0.95336628518E+02 -0.76347657758E+03  0.11420556833E+04  0.46999998093E+01 0. -1.
</event>
<event>
 5   0  0.1336057E-06  0.2400681E+04  0.7818609E-02  0.8439249E-01
       -2   -1    0    0    0  501  0.00000000000E+00  0.00000000000E+00  0.10273358128E+04  0.10273358128E+04  0.25500000920E-02 0. -1.
        2   -1    0    0  501    0  0.00000000000E+00  0.00000000000E+00 -0.14024795336E+04  0.14024795336E+04  0.25500000920E-02 0.  1.
    10030    2    1    2    0    0  0.00000000000E+00  0.00000000000E+00 -0.37514372081E+03  0.24298153464E+04  0.24006811130E+04 0.  0.
        2    1    3    3  502    0 -0.60285056213E+03  0.80799155375E+03  0.47190146449E+03  0.11130903572E+04  0.25500000920E-02 0. -1.
       -2    1    3    3    0  502  0.60285056213E+03 -0.80799155375E+03 -0.84704518530E+03  0.13167249892E+04  0.25500000920E-02 0.  1.
</event>
<event>
 5   0  0.1308662E-06  0.2401385E+04  0.7818609E-02  0.8438985E-01
        2   -1    0    0  501    0  0.00000000000E+00  0.00000000000E+00  0.16349968993E+04  0.16349968993E+04  0.25500000920E-02 0. -1.
       -2   -1    0    0    0  501  0.00000000000E+00  0.00000000000E+00 -0.88175214956E+03  0.88175214956E+03  0.25500000920E-02 0.  1.
    10030    2    1    2    0    0  0.00000000000E+00  0.00000000000E+00  0.75324474976E+03  0.25167490489E+04  0.24013846260E+04 0.  0.
        3    1    3    3  502    0  0.75604212717E+03  0.83747600210E+03  0.80708051504E+03  0.13872075260E+04  0.10100000352E+00 0. -1.
       -3    1    3    3    0  502 -0.75604212717E+03 -0.83747600210E+03 -0.53835765285E+02  0.11295415229E+04  0.10100000352E+00 0.  1.
</event>
<event>
 5   0  0.1336057E-06  0.2400051E+04  0.7818609E-02  0.8439484E-01
       -2   -1    0    0    0  501  0.00000000000E+00  0.00000000000E+00  0.61712250408E+03  0.61712250408E+03  0.25500000920E-02 0.  1.
        2   -1    0    0  501    0  0.00000000000E+00  0.00000000000E+00 -0.23335103250E+04  0.23335103250E+04  0.25500000920E-02 0. -1.
    10030    2    1    2    0    0  0.00000000000E+00  0.00000000000E+00 -0.17163878209E+04  0.29506328291E+04  0.24000514453E+04 0.  0.
        2    1    3    3  502    0 -0.10042885753E+04 -0.64809274565E+03 -0.98969983465E+03  0.15518136203E+04  0.25500000920E-02 0. -1.
       -2    1    3    3    0  502  0.10042885753E+04  0.64809274565E+03 -0.72668798624E+03  0.13988192088E+04  0.25500000920E-02 0.  1.
</event>
<event>
 5   0  0.5510176E-07  0.2401795E+04  0.7818609E-02  0.8438832E-01
       -1   -1    0    0    0  501  0.00000000000E+00  0.00000000000E+00  0.12887488811E+04  0.12887488811E+04  0.50400001928E-02 0. -1.
        1   -1    0    0  501    0  0.00000000000E+00  0.00000000000E+00 -0.11190348955E+04  0.11190348955E+04  0.50400001928E-02 0.  1.
    10030    2    1    2    0    0  0.00000000000E+00  0.00000000000E+00  0.16971398563E+03  0.24077837766E+04  0.24017951366E+04 0.  0.
        3    1    3    3  502    0 -0.50538779522E+03  0.31533962939E+03 -0.96047929770E+03  0.11302107754E+04  0.10100000352E+00 0.  1.
       -3    1    3    3    0  502  0.50538779522E+03 -0.31533962939E+03  0.11301932833E+04  0.12775730012E+04  0.10100000352E+00 0. -1.
</event>
<event>
 5   0  0.5452384E-07  0.2399966E+04  0.7818609E-02  0.8439516E-01
       -1   -1    0    0    0  501  0.00000000000E+00  0.00000000000E+00  0.11694892473E+04  0.11694892474E+04  0.50400001928E-02 0.  1.
        1   -1    0    0  501    0  0.00000000000E+00  0.00000000000E+00 -0.12312722751E+04  0.12312722751E+04  0.50400001928E-02 0. -1.
    10030    2    1    2    0    0  0.00000000000E+00  0.00000000000E+00 -0.61783027789E+02  0.24007615225E+04  0.23999664051E+04 0.  0.
        5    1    3    3  502    0 -0.84027500720E+03 -0.75062723329E+03  0.38208211111E+03  0.11897529831E+04  0.46999998093E+01 0. -1.
       -5    1    3    3    0  502  0.84027500720E+03  0.75062723329E+03 -0.44386513890E+03  0.12110085394E+04  0.46999998093E+01 0.  1.
</event>
<event>
 5   0  0.1307477E-06  0.2399487E+04  0.7818609E-02  0.8439696E-01
       -2   -1    0    0    0  501  0.00000000000E+00  0.00000000000E+00  0.67207629045E+03  0.67207629045E+03  0.25500000920E-02 0.  1.
        2   -1    0    0  501    0  0.00000000000E+00  0.00000000000E+00 -0.21416986924E+04  0.21416986924E+04  0.25500000920E-02 0. -1.
    10030    2    1    2    0    0  0.00000000000E+00  0.00000000000E+00 -0.14696224020E+04  0.28137749829E+04  0.23994873723E+04 0.  0.
        5    1    3    3  502    0 -0.58077715835E+03 -0.29654485882E+03 -0.19157189373E+04  0.20236704519E+04  0.46999998093E+01 0. -1.
       -5    1    3    3    0  502  0.58077715835E+03  0.29654485882E+03  0.44609653539E+03  0.79010453096E+03  0.46999998093E+01 0.  1.
</event>
<event>
 5   0  0.5452384E-07  0.2399975E+04  0.7818609E-02  0.8439513E-01
        1   -1    0    0  501    0  0.00000000000E+00  0.00000000000E+00  0.70139116056E+03  0.70139116058E+03  0.50400001928E-02 0.  1.
       -1   -1    0    0    0  501  0.00000000000E+00  0.00000000000E+00 -0.20530199559E+04  0.20530199559E+04  0.50400001928E-02 0. -1.
    10030    2    1    2    0    0  0.00000000000E+00  0.00000000000E+00 -0.13516287953E+04  0.27544111165E+04  0.23999750412E+04 0.  0.
        5    1    3    3  502    0 -0.77632986892E+03 -0.39588157390E+03  0.27096352712E+03  0.91260813549E+03  0.46999998093E+01 0.  1.
       -5    1    3    3    0  502  0.77632986892E+03  0.39588157390E+03 -0.16225923225E+04  0.18418029810E+04  0.46999998093E+01 0. -1.
</event>
<event>
 5   0  0.5690124E-07  0.2400449E+04  0.7818609E-02  0.8439335E-01
       -1   -1    0    0    0  501  0.00000000000E+00  0.00000000000E+00  0.76782008448E+03  0.76782008450E+03  0.50400001928E-02 0. -1.
        1   -1    0    0  501    0  0.00000000000E+00  0.00000000000E+00 -0.18761414019E+04  0.18761414019E+04  0.50400001928E-02 0.  1.
    10030    2    1    2    0    0  0.00000000000E+00  0.00000000000E+00 -0.11083213174E+04  0.26439614864E+04  0.24004491661E+04 0.  0.
        2    1    3    3  502    0 -0.36861497363E+03  0.67083695160E+03  0.46408877466E+03  0.89514110909E+03  0.25500000920E-02 0. -1.
       -2    1    3    3    0  502  0.36861497363E+03 -0.67083695160E+03 -0.15724100921E+04  0.17488203773E+04  0.25500000920E-02 0.  1.
</event>
<event>
 5   0  0.1307477E-06  0.2402599E+04  0.7818609E-02  0.8438531E-01
        2   -1    0    0  501    0  0.00000000000E+00  0.00000000000E+00  0.14551755555E+04  0.14551755555E+04  0.25500000920E-02 0. -1.
       -2   -1    0    0    0  501  0.00000000000E+00  0.00000000000E+00 -0.99171586369E+03  0.99171586370E+03  0.25500000920E-02 0.  1.
    10030    2    1    2    0    0  0.00000000000E+00  0.00000000000E+00  0.46345969183E+03  0.24468914192E+04  0.24025991616E+04 0.  0.
        5    1    3    3  502    0 -0.26345729602E+03 -0.11011777125E+04 -0.17703770956E+03  0.11460220512E+04  0.46999998093E+01 0. -1.
       -5    1    3    3    0  502  0.26345729602E+03  0.11011777125E+04  0.64049740139E+03  0.13008693680E+04  0.46999998093E+01 0.  1.
</event>
<event>
 5   0  0.5527286E-07  0.2401314E+04  0.7818609E-02  0.8439012E-01
        1   -1    0    0  501    0  0.00000000000E+00  0.00000000000E+00  0.23543366216E+04  0.23543366216E+04  0.50400001928E-02 0.  1.
       -1   -1    0    0    0  501  0.00000000000E+00  0.00000000000E+00 -0.61230711143E+03  0.61230711145E+03  0.50400001928E-02 0. -1.
    10030    2    1    2    0    0  0.00000000000E+00  0.00000000000E+00  0.17420295102E+04  0.29666437331E+04  0.24013138538E+04 0.  0.
        1    1    3    3  502    0  0.56914927110E+03 -0.32106457151E+03 -0.37337414608E+03  0.75260986232E+03  0.50400001928E-02 0. -1.
       -1    1    3    3    0  502 -0.56914927110E+03  0.32106457151E+03  0.21154036562E+04  0.22140338707E+04  0.50400001928E-02 0.  1.
</event>
<event>
 5   0  0.1308662E-06  0.2400196E+04  0.7818609E-02  0.8439430E-01
       -2   -1    0    0    0  501  0.00000000000E+00  0.00000000000E+00  0.14932193106E+04  0.14932193106E+04  0.25500000920E-02 0. -1.
        2   -1    0    0  501    0  0.00000000000E+00  0.00000000000E+00 -0.96451687634E+03  0.96451687634E+03  0.25500000920E-02 0.  1.
    10030    2    1    2    0    0  0.00000000000E+00  0.00000000000E+00  0.52870243423E+03  0.24577361869E+04  0.24001960129E+04 0.  0.
        3    1    3    3  502    0  0.10160959832E+04  0.51679190255E+02  0.91609496532E+03  0.13690696773E+04  0.10100000352E+00 0. -1.
       -3    1    3    3    0  502 -0.10160959832E+04 -0.51679190255E+02 -0.38739253110E+03  0.10886665096E+04  0.10100000352E+00 0.  1.
</event>
<event>
 5   0  0.1275948E-06  0.2399955E+04  0.7818609E-02  0.8439520E-01
       -2   -1    0    0    0  501  0.00000000000E+00  0.00000000000E+00  0.11276403541E+04  0.11276403542E+04  0.25500000920E-02 0. -1.
        2   -1    0    0  501    0  0.00000000000E+00  0.00000000000E+00 -0.12769551861E+04  0.12769551861E+04  0.25500000920E-02 0.  1.
    10030    2    1    2    0    0  0.00000000000E+00  0.00000000000E+00 -0.14931483197E+03  0.24045955403E+04  0.23999551648E+04 0.  0.
        1    1    3    3  502    0  0.19467842289E+02  0.15461387745E+03  0.11174589710E+04  0.11282725734E+04  0.50400001928E-02 0. -1.
       -1    1    3    3    0  502 -0.19467842289E+02 -0.15461387745E+03 -0.12667738029E+04  0.12763229669E+04  0.50400001928E-02 0.  1.
</event>
<event>
 5   0  0.1308662E-06  0.2399357E+04  0.7818609E-02  0.8439744E-01
       -2   -1    0    0    0  501  0.00000000000E+00  0.00000000000E+00  0.16018830570E+04  0.16018830570E+04  0.25500000920E-02 0.  1.
        2   -1    0    0  501    0  0.00000000000E+00  0.00000000000E+00 -0.89846039215E+03  0.89846039215E+03  0.25500000920E-02 0. -1.
    10030    2    1    2    0    0  0.00000000000E+00  0.00000000000E+00  0.70342266482E+03  0.25003434491E+04  0.23993569802E+04 0.  0.
        3    1    3    3  502    0  0.47282334580E+03 -0.96316880193E+03  0.91092817358E+03  0.14074964316E+04  0.10100000352E+00 0.  1.
       -3    1    3    3    0  502 -0.47282334580E+03  0.96316880193E+03 -0.20750550876E+03  0.10928470175E+04  0.10100000352E+00 0. -1.
</event>
<event>
 5   0  0.5690124E-07  0.2402904E+04  0.7818609E-02  0.8438417E-01
        1   -1    0    0  501    0  0.00000000000E+00  0.00000000000E+00  0.85953773488E+03  0.85953773490E+03  0.50400001928E-02 0. -1.
       -1   -1    0    0    0  501  0.00000000000E+00  0.00000000000E+00 -0.16793754153E+04  0.16793754153E+04  0.50400001928E-02 0.  1.
    10030    2    1    2    0    0  0.00000000000E+00  0.00000000000E+00 -0.81983768041E+03  0.25389131502E+04  0.24029036939E+04 0.  0.
        2    1    3    3  502    0  0.90342100178E+03  0.52543669209E+03  0.21627578022E+03  0.10672527522E+04  0.25500000920E-02 0. -1.
       -2    1    3    3    0  502 -0.90342100178E+03 -0.52543669209E+03 -0.10361134606E+04  0.14716603980E+04  0.25500000920E-02 0.  1.
</event>
<event>
 5   0  0.1291468E-06  0.2401828E+04  0.7818609E-02  0.8438819E-01
       -2   -1    0    0    0  501  0.00000000000E+00  0.00000000000E+00  0.71941526631E+03  0.71941526632E+03  0.25500000920E-02 0.  1.
        2   -1    0    0  501    0  0.00000000000E+00  0.00000000000E+00 -0.20046763000E+04  0.20046763001E+04  0.25500000920E-02 0. -1.
    10030    2    1    2    0    0  0.00000000000E+00  0.00000000000E+00 -0.12852610337E+04  0.27240915664E+04  0.24018282489E+04 0.  0.
        4    1    3    3  502    0  0.21800286638E+03  0.56997198943E+03 -0.18157196453E+04  0.19155241480E+04  0.12699999809E+01 0. -1.
       -4    1    3    3    0  502 -0.21800286638E+03 -0.56997198943E+03  0.53045861157E+03  0.80856741833E+03  0.12699999809E+01 0.  1.
</event>
<event>
 5   0  0.5452384E-07  0.2400861E+04  0.7818609E-02  0.8439181E-01
        1   -1    0    0  501    0  0.00000000000E+00  0.00000000000E+00  0.14373227510E+04  0.14373227511E+04  0.50400001928E-02 0. -1.
       -1   -1    0    0    0  501  0.00000000000E+00  0.00000000000E+00 -0.10025820420E+04  0.10025820420E+04  0.50400001928E-02 0.  1.
    10030    2    1    2    0    0  0.00000000000E+00  0.00000000000E+00  0.43474070906E+03  0.24399047930E+04  0.24008614943E+04 0.  0.
        5    1    3    3  502    0  0.94584849026E+03  0.79529123283E+02  0.96420736403E+03  0.13530233475E+04  0.46999998093E+01 0. -1.
       -5    1    3    3    0  502 -0.94584849026E+03 -0.79529123283E+02 -0.52946665498E+03  0.10868814456E+04  0.46999998093E+01 0.  1.
</event>
<event>
 5   0  0.5690124E-07  0.2401925E+04  0.7818609E-02  0.8438783E-01
       -1   -1    0    0    0  501  0.00000000000E+00  0.00000000000E+00  0.91400235367E+03  0.91400235369E+03  0.50400001928E-02 0. -1.
        1   -1    0    0  501    0  0.00000000000E+00  0.00000000000E+00 -0.15780166696E+04  0.15780166696E+04  0.50400001928E-02 0.  1.
    10030    2    1    2    0    0  0.00000000000E+00  0.00000000000E+00 -0.66401431594E+03  0.24920190233E+04  0.24019250198E+04 0.  0.
        2    1    3    3  502    0  0.74433813006E+03 -0.86402335470E+02 -0.13057227445E+04  0.15054622217E+04  0.25500000920E-02 0.  1.
       -2    1    3    3    0  502 -0.74433813006E+03  0.86402335470E+02  0.64170842859E+03  0.98655680159E+03  0.25500000920E-02 0. -1.
</event>
<event>
 5   0  0.4483375E-07  0.2399182E+04  0.7818609E-02  0.8439810E-01
       -3   -1    0    0    0  501  0.00000000000E+00  0.00000000000E+00  0.15473433340E+04  0.15473433373E+04  0.10100000352E+00 0. -1.
        3   -1    0    0  501    0  0.00000000000E+00  0.00000000000E+00 -0.92999343422E+03  0.92999343971E+03  0.10100000352E+00 0.  1.
    10030    2    1    2    0    0  0.00000000000E+00  0.00000000000E+00  0.61734989980E+03  0.24773367770E+04  0.23991824874E+04 0.  0.
        3    1    3    3  502    0 -0.29461543533E+03  0.11333474179E+03 -0.88633918875E+03  0.94087203495E+03  0.10100000352E+00 0.  1.
       -3    1    3    3    0  502  0.29461543533E+03 -0.11333474179E+03  0.15036890885E+04  0.15364647421E+04  0.10100000352E+00 0. -1.
</event>
<event>
 5   0  0.5690124E-07  0.2399790E+04  0.7818609E-02  0.8439582E-01
        1   -1    0    0  501    0  0.00000000000E+00  0.00000000000E+00  0.11369998010E+04  0.11369998010E+04  0.50400001928E-02 0.  1.
       -1   -1    0    0    0  501  0.00000000000E+00  0.00000000000E+00 -0.12662694859E+04  0.12662694860E+04  0.50400001928E-02 0. -1.
    10030    2    1    2    0    0  0.00000000000E+00  0.00000000000E+00 -0.12926968495E+03  0.24032692870E+04  0.23997901188E+04 0.  0.
        2    1    3    3  502    0  0.90476319127E+03  0.16281316063E+03  0.70761450253E+03  0.11600960485E+04  0.25500000920E-02 0.  1.
       -2    1    3    3    0  502 -0.90476319127E+03 -0.16281316063E+03 -0.83688418748E+03  0.12431732385E+04  0.25500000920E-02 0. -1.
</event>
<event>
 5   0  0.5510176E-07  0.2399914E+04  0.7818609E-02  0.8439536E-01
        1   -1    0    0  501    0  0.00000000000E+00  0.00000000000E+00  0.29132736134E+04  0.29132736134E+04  0.50400001928E-02 0.  1.
       -1   -1    0    0    0  501  0.00000000000E+00  0.00000000000E+00 -0.49425392472E+03  0.49425392475E+03  0.50400001928E-02 0. -1.
    10030    2    1    2    0    0  0.00000000000E+00  0.00000000000E+00  0.24190196887E+04  0.34075275382E+04  0.23999140962E+04 0.  0.
        3    1    3    3  502    0 -0.72139350126E+03  0.85874085443E+03  0.18153275522E+04  0.21338365848E+04  0.10100000352E+00 0.  1.
       -3    1    3    3    0  502  0.72139350126E+03 -0.85874085443E+03  0.60369213646E+03  0.12736909533E+04  0.10100000352E+00 0. -1.
</event>
<event>
 5   0  0.5452384E-07  0.2401005E+04  0.7818609E-02  0.8439128E-01
        1   -1    0    0  501    0  0.00000000000E+00  0.00000000000E+00  0.18545451758E+04  0.18545451758E+04  0.50400001928E-02 0. -1.
       -1   -1    0    0    0  501  0.00000000000E+00  0.00000000000E+00 -0.77712085415E+03  0.77712085417E+03  0.50400001928E-02 0.  1.
    10030    2    1    2    0    0  0.00000000000E+00  0.00000000000E+00  0.10774243216E+04  0.26316660300E+04  0.24010045657E+04 0.  0.
        5    1    3    3  502    0 -0.73470443131E+03  0.41722231234E+03  0.14734721831E+04  0.16985309605E+04  0.46999998093E+01 0. -1.
       -5    1    3    3    0  502  0.73470443131E+03 -0.41722231234E+03 -0.39604786149E+03  0.93313506948E+03  0.46999998093E+01 0.  1.
</event>
<event>
 5   0  0.1307477E-06  0.2400041E+04  0.7818609E-02  0.8439488E-01
        2   -1    0    0  501    0  0.00000000000E+00  0.00000000000E+00  0.20659435881E+04  0.20659435881E+04  0.25500000920E-02 0. -1.
       -2   -1    0    0    0  501  0.00000000000E+00  0.00000000000E+00 -0.69704166813E+03  0.69704166813E+03  0.25500000920E-02 0.  1.
    10030    2    1    2    0    0  0.00000000000E+00  0.00000000000E+00  0.13689019200E+04  0.27629852562E+04  0.24000406371E+04 0.  0.
        5    1    3    3  502    0 -0.14739080118E+03 -0.43677380678E+03  0.19599385987E+04  0.20134241499E+04  0.46999998093E+01 0. -1.
       -5    1    3    3    0  502  0.14739080118E+03  0.43677380678E+03 -0.59103667874E+03  0.74956110637E+03  0.46999998093E+01 0.  1.
</event>
<event>
 5   0  0.5527286E-07  0.2398573E+04  0.7818609E-02  0.8440038E-01
       -1   -1    0    0    0  501  0.00000000000E+00  0.00000000000E+00  0.78531412589E+03  0.78531412591E+03  0.50400001928E-02 0.  1.
        1   -1    0    0  501    0  0.00000000000E+00  0.00000000000E+00 -0.18314808405E+04  0.18314808405E+04  0.50400001928E-02 0. -1.
    10030    2    1    2    0    0  0.00000000000E+00  0.00000000000E+00 -0.10461667146E+04  0.26167949664E+04  0.23985727218E+04 0.  0.
        1    1    3    3  502    0  0.90146482291E+03 -0.65762889129E+03 -0.43581569215E+02  0.11166977831E+04  0.50400001928E-02 0.  1.
       -1    1    3    3    0  502 -0.90146482291E+03  0.65762889129E+03 -0.10025851454E+04  0.15000971833E+04  0.50400001928E-02 0. -1.
</event>
<event>
 5   0  0.5452384E-07  0.2401497E+04  0.7818609E-02  0.8438943E-01
       -1   -1    0    0    0  501  0.00000000000E+00  0.00000000000E+00  0.89846876561E+03  0.89846876562E+03  0.50400001928E-02 0. -1.
        1   -1    0    0  501    0  0.00000000000E+00  0.00000000000E+00 -0.16047266869E+04  0.16047266869E+04  0.50400001928E-02 0.  1.
    10030    2    1    2    0    0  0.00000000000E+00  0.00000000000E+00 -0.70625792126E+03  0.25031954525E+04  0.24014968711E+04 0.  0.
        5    1    3    3  502    0  0.84405507174E+03  0.29220745695E+03 -0.11895835503E+04  0.14875971482E+04  0.46999998093E+01 0.  1.
       -5    1    3    3    0  502 -0.84405507174E+03 -0.29220745695E+03  0.48332562907E+03  0.10155983043E+04  0.46999998093E+01 0. -1.
</event>
<event>
 5   0  0.5363690E-07  0.2400189E+04  0.7818609E-02  0.8439433E-01
        1   -1    0    0  501    0  0.00000000000E+00  0.00000000000E+00  0.81770031163E+03  0.81770031164E+03  0.50400001928E-02 0.  1.
       -1   -1    0    0    0  501  0.00000000000E+00  0.00000000000E+00 -0.17613133605E+04  0.17613133605E+04  0.50400001928E-02 0. -1.
    10030    2    1    2    0    0  0.00000000000E+00  0.00000000000E+00 -0.94361304883E+03  0.25790136721E+04  0.24001887290E+04 0.  0.
        4    1    3    3  502    0 -0.17845720175E+03 -0.91546668785E+03  0.33963909665E+03  0.99261400267E+03  0.12699999809E+01 0.  1.
       -4    1    3    3    0  502  0.17845720175E+03  0.91546668785E+03 -0.12832521455E+04  0.15863996694E+04  0.12699999809E+01 0. -1.
</event>
<event>
 5   0  0.5690124E-07  0.2399017E+04  0.7818609E-02  0.8439872E-01
        1   -1    0    0  501    0  0.00000000000E+00  0.00000000000E+00  0.99520419757E+03  0.99520419758E+03  0.50400001928E-02 0. -1.
       -1   -1    0    0    0  501  0.00000000000E+00  0.00000000000E+00 -0.14457538901E+04  0.14457538901E+04  0.50400001928E-02 0.  1.
    10030    2    1    2    0    0  0.00000000000E+00  0.00000000000E+00 -0.45054969256E+03  0.24409580877E+04  0.23990167487E+04 0.  0.
        2    1    3    3  502    0  0.61906261220E+03 -0.55083319769E+03 -0.11077114012E+04  0.13833583332E+04  0.25500000920E-02 0.  1.
       -2    1    3    3    0  502 -0.61906261220E+03  0.55083319769E+03  0.65716170866E+03  0.10575997546E+04  0.25500000920E-02 0. -1.
</event>
<event>
 5   0  0.1336057E-06  0.2401103E+04  0.7818609E-02  0.8439091E-01
        2   -1    0    0  501    0  0.00000000000E+00  0.00000000000E+00  0.19659009125E+04  0.19659009125E+04  0.25500000920E-02 0.  1.
       -2   -1    0    0    0  501  0.00000000000E+00  0.00000000000E+00 -0.73316194365E+03  0.73316194365E+03  0.25500000920E-02 0. -1.
    10030    2    1    2    0    0  0.00000000000E+00  0.00000000000E+00  0.12327389688E+04  0.26990628561E+04  0.24011028583E+04 0.  0.
        2    1    3    3  502    0  0.90140704860E+03  0.16845932843E+02 -0.27479259777E+03  0.94251229409E+03  0.25500000920E-02 0. -1.
       -2    1    3    3    0  502 -0.90140704860E+03 -0.16845932843E+02  0.15075315666E+04  0.17565505621E+04  0.25500000920E-02 0.  1.
</event>
<event>
 5   0  0.1308662E-06  0.2399295E+04  0.7818609E-02  0.8439767E-01
       -2   -1    0    0    0  501  0.00000000000E+00  0.00000000000E+00  0.98919091389E+03  0.98919091389E+03  0.25500000920E-02 0.  1.
        2   -1    0    0  501    0  0.00000000000E+00  0.00000000000E+00 -0.14548806470E+04  0.14548806470E+04  0.25500000920E-02 0. -1.
    10030    2    1    2    0    0  0.00000000000E+00  0.00000000000E+00 -0.46568973314E+03  0.24440715609E+04  0.23992954940E+04 0.  0.
        3    1    3    3  502    0 -0.74303579540E+03 -0.70346131963E+03 -0.87078662517E+03  0.13435882473E+04  0.10100000352E+00 0. -1.
       -3    1    3    3    0  502  0.74303579540E+03  0.70346131963E+03  0.40509689203E+03  0.11004833136E+04  0.10100000352E+00 0.  1.
</event>
<event>
 5   0  0.1291468E-06  0.2399272E+04  0.7818609E-02  0.8439776E-01
        2   -1    0    0  501    0  0.00000000000E+00  0.00000000000E+00  0.98686810953E+03  0.98686810953E+03  0.25500000920E-02 0. -1.
       -2   -1    0    0    0  501  0.00000000000E+00  0.00000000000E+00 -0.14582759382E+04  0.14582759382E+04  0.25500000920E-02 0.  1.
    10030    2    1    2    0    0  0.00000000000E+00  0.00000000000E+00 -0.47140782870E+03  0.24451440478E+04  0.23992715714E+04 0.  0.
        4    1    3    3  502    0  0.86027375324E+03  0.82187047415E+03 -0.39220560354E+03  0.12527445291E+04  0.12699999809E+01 0.  1.
       -4    1    3    3    0  502 -0.86027375324E+03 -0.82187047415E+03 -0.79202225154E+02  0.11923995187E+04  0.12699999809E+01 0. -1.
</event>
<event>
 5   0  0.5452384E-07  0.2401232E+04  0.7818609E-02  0.8439043E-01
       -1   -1    0    0    0  501  0.00000000000E+00  0.00000000000E+00  0.10704866670E+04  0.10704866670E+04  0.50400001928E-02 0.  1.
        1   -1    0    0  501    0  0.00000000000E+00  0.00000000000E+00 -0.13465634939E+04  0.13465634939E+04  0.50400001928E-02 0. -1.
    10030    2    1    2    0    0  0.00000000000E+00  0.00000000000E+00 -0.27607682684E+03  0.24170501609E+04  0.24012315728E+04 0.  0.
        5    1    3    3  502    0 -0.85580911651E+03  0.40218800592E+03 -0.88270362479E+03  0.12935811591E+04  0.46999998093E+01 0. -1.
       -5    1    3    3    0  502  0.85580911651E+03 -0.40218800592E+03  0.60662679795E+03  0.11234690018E+04  0.46999998093E+01 0.  1.
</event>
<event>
 5   0  0.1275948E-06  0.2398630E+04  0.7818609E-02  0.8440017E-01
       -2   -1    0    0    0  501  0.00000000000E+00  0.00000000000E+00  0.84513367553E+03  0.84513367553E+03  0.25500000920E-02 0. -1.
        2   -1    0    0  501    0  0.00000000000E+00  0.00000000000E+00 -0.17019278191E+04  0.17019278191E+04  0.25500000920E-02 0.  1.
    10030    2    1    2    0    0  0.00000000000E+00  0.00000000000E+00 -0.85679414362E+03  0.25470614947E+04  0.23986300367E+04 0.  0.
        1    1    3    3  502    0  0.47659690997E+03 -0.41771720090E+03  0.65280728951E+03  0.90982945203E+03  0.50400001928E-02 0. -1.
       -1    1    3    3    0  502 -0.47659690997E+03  0.41771720090E+03 -0.15096014331E+04  0.16372320426E+04  0.50400001928E-02 0.  1.
</event>
<event>
 5   0  0.1307477E-06  0.2395908E+04  0.7818609E-02  0.8441037E-01
        2   -1    0    0  501    0  0.00000000000E+00  0.00000000000E+00  0.16609110326E+04  0.16609110326E+04  0.25500000920E-02 0. -1.
       -2   -1    0    0    0  501  0.00000000000E+00  0.00000000000E+00 -0.86404030913E+03  0.86404030913E+03  0.25500000920E-02 0.  1.
    10030    2    1    2    0    0  0.00000000000E+00  0.00000000000E+00  0.79687072350E+03  0.25249513418E+04  0.23959082471E+04 0.  0.
        5    1    3    3  502    0 -0.70696615238E+03 -0.30042404578E+03 -0.57032276707E+03  0.95673710941E+03  0.46999998093E+01 0.  1.
       -5    1    3    3    0  502  0.70696615238E+03  0.30042404578E+03  0.13671934906E+04  0.15682142324E+04  0.46999998093E+01 0. -1.
</event>
<event>
 5   0  0.5363690E-07  0.2397828E+04  0.7818609E-02  0.8440317E-01
        1   -1    0    0  501    0  0.00000000000E+00  0.00000000000E+00  0.16768714817E+04  0.16768714817E+04  0.50400001928E-02 0.  1.
       -1   -1    0    0    0  501  0.00000000000E+00  0.00000000000E+00 -0.85718834515E+03  0.85718834516E+03  0.50400001928E-02 0. -1.
    10030    2    1    2    0    0  0.00000000000E+00  0.00000000000E+00  0.81968313651E+03  0.25340598268E+04  0.23978279258E+04 0.  0.
        4    1    3    3  502    0 -0.60219739986E+03  0.74322160980E+03  0.11736583819E+04  0.15140989664E+04  0.12699999809E+01 0.  1.
       -4    1    3    3    0  502  0.60219739986E+03 -0.74322160980E+03 -0.35397524536E+03  0.10199608605E+04  0.12699999809E+01 0. -1.
</event>
<event>
 5   0  0.5690124E-07  0.2399671E+04  0.7818609E-02  0.8439627E-01
        1   -1    0    0  501    0  0.00000000000E+00  0.00000000000E+00  0.16989418850E+04  0.16989418850E+04  0.50400001928E-02 0.  1.
       -1   -1    0    0    0  501  0.00000000000E+00  0.00000000000E+00 -0.84735424893E+03  0.84735424895E+03  0.50400001928E-02 0. -1.
    10030    2    1    2    0    0  0.00000000000E+00  0.00000000000E+00  0.85158763606E+03  0.25462961339E+04  0.23996713316E+04 0.  0.
        2    1    3    3  502    0  0.11182379245E+03 -0.10110265470E+04 -0.24942600856E+03  0.10473263928E+04  0.25500000920E-02 0.  1.
       -2    1    3    3    0  502 -0.11182379245E+03  0.10110265470E+04  0.11010136446E+04  0.14989697412E+04  0.25500000920E-02 0. -1.
</event>
<event>
 5   0  0.5690124E-07  0.2399255E+04  0.7818609E-02  0.8439782E-01
        1   -1    0    0  501    0  0.00000000000E+00  0.00000000000E+00  0.17854812081E+04  0.17854812081E+04  0.50400001928E-02 0.  1.
       -1   -1    0    0    0  501  0.00000000000E+00  0.00000000000E+00 -0.80600488488E+03  0.80600488489E+03  0.50400001928E-02 0. -1.
    10030    2    1    2    0    0  0.00000000000E+00  0.00000000000E+00  0.97947632318E+03  0.25914860930E+04  0.23992553641E+04 0.  0.
        2    1    3    3  502    0  0.10811651942E+04  0.19459697580E+03  0.10103524651E+04  0.14925140749E+04  0.25500000920E-02 0.  1.
       -2    1    3    3    0  502 -0.10811651942E+04 -0.19459697580E+03 -0.30876141887E+02  0.10989720180E+04  0.25500000920E-02 0. -1.
</event>
<event>
 5   0  0.5510176E-07  0.2400980E+04  0.7818609E-02  0.8439137E-01
       -1   -1    0    0    0  501  0.00000000000E+00  0.00000000000E+00  0.88940813686E+03  0.88940813688E+03  0.50400001928E-02 0.  1.
        1   -1    0    0  501    0  0.00000000000E+00  0.00000000000E+00 -0.16203762511E+04  0.16203762511E+04  0.50400001928E-02 0. -1.
    10030    2    1    2    0    0  0.00000000000E+00  0.00000000000E+00 -0.73096811419E+03  0.25097843879E+04  0.24009796521E+04 0.  0.
        3    1    3    3  502    0  0.15333243435E+03 -0.70295087548E+03 -0.13700357095E+04  0.15474652255E+04  0.10100000352E+00 0. -1.
       -3    1    3    3    0  502 -0.15333243435E+03  0.70295087548E+03  0.63906759530E+03  0.96231916240E+03  0.10100000352E+00 0.  1.
</event>
<event>
 5   0  0.5690124E-07  0.2399225E+04  0.7818609E-02  0.8439794E-01
        1   -1    0    0  501    0  0.00000000000E+00  0.00000000000E+00  0.12756490052E+04  0.12756490052E+04  0.50400001928E-02 0.  1.
       -1   -1    0    0    0  501  0.00000000000E+00  0.00000000000E+00 -0.11281081797E+04  0.11281081797E+04  0.50400001928E-02 0. -1.
    10030    2    1    2    0    0  0.00000000000E+00  0.00000000000E+00  0.14754082549E+03  0.24037571850E+04  0.23992249393E+04 0.  0.
        2    1    3    3  502    0 -0.16308157932E+03  0.11413422531E+04 -0.25823502400E+03  0.11815003461E+04  0.25500000920E-02 0. -1.
       -2    1    3    3    0  502  0.16308157932E+03 -0.11413422531E+04  0.40577584949E+03  0.12222568389E+04  0.25500000920E-02 0.  1.
</event>
<event>
 5   0  0.1336057E-06  0.2396863E+04  0.7818609E-02  0.8440679E-01
        2   -1    0    0  501    0  0.00000000000E+00  0.00000000000E+00  0.83123476897E+03  0.83123476897E+03  0.25500000920E-02 0. -1.
       -2   -1    0    0    0  501  0.00000000000E+00  0.00000000000E+00 -0.17278371041E+04  0.17278371041E+04  0.25500000920E-02 0.  1.
    10030    2    1    2    0    0  0.00000000000E+00  0.00000000000E+00 -0.89660233509E+03  0.25590718730E+04  0.23968631801E+04 0.  0.
        2    1    3    3  502    0 -0.52870232843E+03 -0.87863151662E+03  0.21393200869E+03  0.10475143906E+04  0.25500000920E-02 0. -1.
       -2    1    3    3    0  502  0.52870232843E+03  0.87863151662E+03 -0.11105343438E+04  0.15115574825E+04  0.25500000920E-02 0.  1.
</event>
<event>
 5   0  0.1336057E-06  0.2396466E+04  0.7818609E-02  0.8440828E-01
        2   -1    0    0  501    0  0.00000000000E+00  0.00000000000E+00  0.96355729025E+03  0.96355729026E+03  0.25500000920E-02 0.  1.
       -2   -1    0    0    0  501  0.00000000000E+00  0.00000000000E+00 -0.14900644905E+04  0.14900644905E+04  0.25500000920E-02 0. -1.
    10030    2    1    2    0    0  0.00000000000E+00  0.00000000000E+00 -0.52650720027E+03  0.24536217808E+04  0.23964661506E+04 0.  0.
        2    1    3    3  502    0  0.90656650039E+02 -0.29909625781E+02 -0.14861648248E+04  0.14892276859E+04  0.25500000920E-02 0. -1.
       -2    1    3    3    0  502 -0.90656650039E+02  0.29909625781E+02  0.95965762454E+03  0.96439409489E+03  0.25500000920E-02 0.  1.
</event>
<event>
 5   0  0.1308662E-06  0.2397552E+04  0.7818609E-02  0.8440421E-01
        2   -1    0    0  501    0  0.00000000000E+00  0.00000000000E+00  0.23856900800E+04  0.23856900800E+04  0.25500000920E-02 0.  1.
       -2   -1    0    0    0  501  0.00000000000E+00  0.00000000000E+00 -0.60236820856E+03  0.60236820856E+03  0.25500000920E-02 0. -1.
    10030    2    1    2    0    0  0.00000000000E+00  0.00000000000E+00  0.17833218714E+04  0.29880582885E+04  0.23975519679E+04 0.  0.
        3    1    3    3  502    0  0.66914413284E+03 -0.98567178067E+03  0.72556607045E+03  0.13949010225E+04  0.10100000352E+00 0.  1.
       -3    1    3    3    0  502 -0.66914413284E+03  0.98567178067E+03  0.10577558010E+04  0.15931572661E+04  0.10100000352E+00 0. -1.
</event>
<event>
 5   0  0.5527286E-07  0.2403981E+04  0.7818609E-02  0.8438015E-01
       -1   -1    0    0    0  501  0.00000000000E+00  0.00000000000E+00  0.76874070549E+03  0.76874070550E+03  0.50400001928E-02 0.  1.
        1   -1    0    0  501    0  0.00000000000E+00  0.00000000000E+00 -0.18794125400E+04  0.18794125400E+04  0.50400001928E-02 0. -1.
    10030    2    1    2    0    0  0.00000000000E+00  0.00000000000E+00 -0.11106718345E+04  0.26481532455E+04  0.24039808002E+04 0.  0.
        1    1    3    3  502    0 -0.28878307497E+03  0.35111978659E+03  0.67038051235E+03  0.80999432115E+03  0.50400001928E-02 0.  1.
       -1    1    3    3    0  502  0.28878307497E+03 -0.35111978659E+03 -0.17810523469E+04  0.18381589244E+04  0.50400001928E-02 0. -1.
</event>
<event>
 5   0  0.5690124E-07  0.2402933E+04  0.7818609E-02  0.8438406E-01
       -1   -1    0    0    0  501  0.00000000000E+00  0.00000000000E+00  0.12007204972E+04  0.12007204972E+04  0.50400001928E-02 0. -1.
        1   -1    0    0  501    0  0.00000000000E+00  0.00000000000E+00 -0.12022131302E+04  0.12022131302E+04  0.50400001928E-02 0.  1.
    10030    2    1    2    0    0  0.00000000000E+00  0.00000000000E+00 -0.14926329650E+01  0.24029336274E+04  0.24029331638E+04 0.  0.
        2    1    3    3  502    0  0.93811755216E+03  0.37673828966E+03  0.64850388915E+03  0.12010635182E+04  0.25500000920E-02 0. -1.
       -2    1    3    3    0  502 -0.93811755216E+03 -0.37673828966E+03 -0.64999652212E+03  0.12018701092E+04  0.25500000920E-02 0.  1.
</event>
<event>
 5   0  0.5690124E-07  0.2398929E+04  0.7818609E-02  0.8439905E-01
        1   -1    0    0  501    0  0.00000000000E+00  0.00000000000E+00  0.13253451632E+04  0.13253451632E+04  0.50400001928E-02 0.  1.
       -1   -1    0    0    0  501  0.00000000000E+00  0.00000000000E+00 -0.10855397356E+04  0.10855397356E+04  0.50400001928E-02 0. -1.
    10030    2    1    2    0    0  0.00000000000E+00  0.00000000000E+00  0.23980542764E+03  0.24108848988E+04  0.23989287926E+04 0.  0.
        2    1    3    3  502    0  0.72385916864E+03 -0.72478857444E+03 -0.50724612675E+03  0.11430613312E+04  0.25500000920E-02 0. -1.
       -2    1    3    3    0  502 -0.72385916864E+03  0.72478857444E+03  0.74705155439E+03  0.12678235676E+04  0.25500000920E-02 0.  1.
</event>
<event>
 5   0  0.1308662E-06  0.2400188E+04  0.7818609E-02  0.8439433E-01
        2   -1    0    0  501    0  0.00000000000E+00  0.00000000000E+00  0.23517886986E+04  0.23517886986E+04  0.25500000920E-02 0.  1.
       -2   -1    0    0    0  501  0.00000000000E+00  0.00000000000E+00 -0.61239588686E+03  0.61239588687E+03  0.25500000920E-02 0. -1.
    10030    2    1    2    0    0  0.00000000000E+00  0.00000000000E+00  0.17393928118E+04  0.29641845855E+04  0.24001880975E+04 0.  0.
        3    1    3    3  502    0  0.16186671622E+03  0.11595302627E+04  0.11953062433E+04  0.16731611666E+04  0.10100000352E+00 0.  1.
       -3    1    3    3    0  502 -0.16186671622E+03 -0.11595302627E+04  0.54408656841E+03  0.12910234189E+04  0.10100000352E+00 0. -1.
</event>
<event>
 5   0  0.1336057E-06  0.2401189E+04  0.7818609E-02  0.8439058E-01
       -2   -1    0    0    0  501  0.00000000000E+00  0.00000000000E+00  0.17999995024E+04  0.17999995024E+04  0.25500000920E-02 0. -1.
        2   -1    0    0  501    0  0.00000000000E+00  0.00000000000E+00 -0.80079320589E+03  0.80079320590E+03  0.25500000920E-02 0.  1.
    10030    2    1    2    0    0  0.00000000000E+00  0.00000000000E+00  0.99920629652E+03  0.26007927083E+04  0.24011891822E+04 0.  0.
        2    1    3    3  502    0 -0.12632604938E+03  0.96907018146E+03  0.12549800161E+04  0.15906068428E+04  0.25500000920E-02 0. -1.
       -2    1    3    3    0  502  0.12632604938E+03 -0.96907018146E+03 -0.25577371960E+03  0.10101858656E+04  0.25500000920E-02 0.  1.
</event>
<event>
 5   0  0.1336057E-06  0.2399299E+04  0.7818609E-02  0.8439766E-01
        2   -1    0    0  501    0  0.00000000000E+00  0.00000000000E+00  0.22142841077E+04  0.22142841077E+04  0.25500000920E-02 0. -1.
       -2   -1    0    0    0  501  0.00000000000E+00  0.00000000000E+00 -0.64994305758E+03  0.64994305759E+03  0.25500000920E-02 0.  1.
    10030    2    1    2    0    0  0.00000000000E+00  0.00000000000E+00  0.15643410501E+04  0.28642271653E+04  0.23992987170E+04 0.  0.
        2    1    3    3  502    0  0.73111117311E+03 -0.26408704012E+03 -0.30861299048E+03  0.83636564379E+03  0.25500000920E-02 0.  1.
       -2    1    3    3    0  502 -0.73111117311E+03  0.26408704012E+03  0.18729540406E+04  0.20278615215E+04  0.25500000920E-02 0. -1.
</event>
<event>
 5   0  0.5363690E-07  0.2400138E+04  0.7818609E-02  0.8439452E-01
        1   -1    0    0  501    0  0.00000000000E+00  0.00000000000E+00  0.15641063412E+04  0.15641063412E+04  0.50400001928E-02 0. -1.
       -1   -1    0    0    0  501  0.00000000000E+00  0.00000000000E+00 -0.92075969732E+03  0.92075969733E+03  0.50400001928E-02 0.  1.
    10030    2    1    2    0    0  0.00000000000E+00  0.00000000000E+00  0.64334664384E+03  0.24848660385E+04  0.24001383971E+04 0.  0.
        4    1    3    3  502    0 -0.76270660694E+03  0.50843683403E+03  0.11235707608E+04  0.14500490509E+04  0.12699999809E+01 0. -1.
       -4    1    3    3    0  502  0.76270660694E+03 -0.50843683403E+03 -0.48022411697E+03  0.10348169876E+04  0.12699999809E+01 0.  1.
</event>
<event>
 5   0  0.4483375E-07  0.2400542E+04  0.7818609E-02  0.8439301E-01
        3   -1    0    0  501    0  0.00000000000E+00  0.00000000000E+00  0.61338602564E+03  0.61338603395E+03  0.10100000352E+00 0.  1.
       -3   -1    0    0    0  501  0.00000000000E+00  0.00000000000E+00 -0.23486850230E+04  0.23486850252E+04  0.10100000352E+00 0. -1.
    10030    2    1    2    0    0  0.00000000000E+00  0.00000000000E+00 -0.17352989974E+04  0.29620710591E+04  0.24005420948E+04 0.  0.
        4    1    3    3  502    0 -0.65781137264E+03  0.19352696147E+03  0.34791931915E+03  0.76890698548E+03  0.12699999809E+01 0.  1.
       -4    1    3    3    0  502  0.65781137264E+03 -0.19352696147E+03 -0.20832183165E+04  0.21931640736E+04  0.12699999809E+01 0. -1.
</event>
<event>
 5   0  0.1275948E-06  0.2399311E+04  0.7818609E-02  0.8439762E-01
       -2   -1    0    0    0  501  0.00000000000E+00  0.00000000000E+00  0.19735092492E+04  0.19735092492E+04  0.25500000920E-02 0. -1.
        2   -1    0    0  501    0  0.00000000000E+00  0.00000000000E+00 -0.72924574704E+03  0.72924574705E+03  0.25500000920E-02 0.  1.
    10030    2    1    2    0    0  0.00000000000E+00  0.00000000000E+00  0.12442635022E+04  0.27027549963E+04  0.23993109234E+04 0.  0.
        1    1    3    3  502    0  0.11406399987E+04 -0.29463273621E+03  0.87728477323E+03  0.14688419347E+04  0.50400001928E-02 0.  1.
       -1    1    3    3    0  502 -0.11406399987E+04  0.29463273621E+03  0.36697872895E+03  0.12339130615E+04  0.50400001928E-02 0. -1.
</event>
<event>
 5   0  0.1308662E-06  0.2399766E+04  0.7818609E-02  0.8439591E-01
        2   -1    0    0  501    0  0.00000000000E+00  0.00000000000E+00  0.11721525326E+04  0.11721525326E+04  0.25500000920E-02 0.  1.
       -2   -1    0    0    0  501  0.00000000000E+00  0.00000000000E+00 -0.12282691209E+04  0.12282691209E+04  0.25500000920E-02 0. -1.
    10030    2    1    2    0    0  0.00000000000E+00  0.00000000000E+00 -0.56116588246E+02  0.24004216535E+04  0.23997656225E+04 0.  0.
        3    1    3    3  502    0  0.84755428475E+03 -0.67333578356E+03 -0.54587674651E+03  0.12123162853E+04  0.10100000352E+00 0. -1.
       -3    1    3    3    0  502 -0.84755428475E+03  0.67333578356E+03  0.48976015827E+03  0.11881053682E+04  0.10100000352E+00 0.  1.
</event>
<event>
 5   0  0.5690124E-07  0.2400327E+04  0.7818609E-02  0.8439381E-01
       -1   -1    0    0    0  501  0.00000000000E+00  0.00000000000E+00  0.79709702393E+03  0.79709702395E+03  0.50400001928E-02 0. -1.
        1   -1    0    0  501    0  0.00000000000E+00  0.00000000000E+00 -0.18070485174E+04  0.18070485174E+04  0.50400001928E-02 0.  1.
    10030    2    1    2    0    0  0.00000000000E+00  0.00000000000E+00 -0.10099514934E+04  0.26041455413E+04  0.24003274738E+04 0.  0.
        2    1    3    3  502    0 -0.99394402356E+03  0.44709405626E+03 -0.10502187366E+04  0.15135313712E+04  0.25500000920E-02 0.  1.
       -2    1    3    3    0  502  0.99394402356E+03 -0.44709405626E+03  0.40267243112E+02  0.10906141701E+04  0.25500000920E-02 0. -1.
</event>
<event>
 5   0  0.1308662E-06  0.2400091E+04  0.7818609E-02  0.8439469E-01
        2   -1    0    0  501    0  0.00000000000E+00  0.00000000000E+00  0.10006509800E+04  0.10006509800E+04  0.25500000920E-02 0.  1.
       -2   -1    0    0    0  501  0.00000000000E+00  0.00000000000E+00 -0.14391723602E+04  0.14391723602E+04  0.25500000920E-02 0. -1.
    10030    2    1    2    0    0  0.00000000000E+00  0.00000000000E+00 -0.43852138024E+03  0.24398233402E+04  0.24000910254E+04 0.  0.
        3    1    3    3  502    0 -0.71797647135E+03 -0.21400498518E+03  0.73371286862E+03  0.10486290721E+04  0.10100000352E+00 0.  1.
       -3    1    3    3    0  502  0.71797647135E+03  0.21400498518E+03 -0.11722342489E+04  0.13911942681E+04  0.10100000352E+00 0. -1.
</event>
<event>
 5   0  0.1336057E-06  0.2399046E+04  0.7818609E-02  0.8439861E-01
        2   -1    0    0  501    0  0.00000000000E+00  0.00000000000E+00  0.17245590488E+04  0.17245590488E+04  0.25500000920E-02 0. -1.
       -2   -1    0    0    0  501  0.00000000000E+00  0.00000000000E+00 -0.83433225181E+03  0.83433225182E+03  0.25500000920E-02 0.  1.
    10030    2    1    2    0    0  0.00000000000E+00  0.00000000000E+00  0.89022679697E+03  0.25588913006E+04  0.23990458391E+04 0.  0.
        2    1    3    3  502    0  0.31419543747E+03  0.19979593360E+03 -0.77113249357E+03  0.85631916401E+03  0.25500000920E-02 0.  1.
       -2    1    3    3    0  502 -0.31419543747E+03 -0.19979593360E+03  0.16613592905E+04  0.17025721366E+04  0.25500000920E-02 0. -1.
</event>
<event>
 5   0  0.1307477E-06  0.2399914E+04  0.7818609E-02  0.8439536E-01
       -2   -1    0    0    0  501  0.00000000000E+00  0.00000000000E+00  0.60414748781E+03  0.60414748782E+03  0.25500000920E-02 0. -1.
        2   -1    0    0  501    0  0.00000000000E+00  0.00000000000E+00 -0.23833538686E+04  0.23833538686E+04  0.25500000920E-02 0.  1.
    10030    2    1    2    0    0  0.00000000000E+00  0.00000000000E+00 -0.17792063808E+04  0.29875013564E+04  0.23999143754E+04 0.  0.
        5    1    3    3  502    0  0.55195062360E+03  0.97093202472E+03 -0.34340967482E+03  0.11684651395E+04  0.46999998093E+01 0. -1.
       -5    1    3    3    0  502 -0.55195062360E+03 -0.97093202472E+03 -0.14357967060E+04  0.18190362169E+04  0.46999998093E+01 0.  1.
</event>
<event>
 5   0  0.5452384E-07  0.2398510E+04  0.7818609E-02  0.8440061E-01
       -1   -1    0    0    0  501  0.00000000000E+00  0.00000000000E+00  0.12495600912E+04  0.12495600912E+04  0.50400001928E-02 0.  1.
        1   -1    0    0  501    0  0.00000000000E+00  0.00000000000E+00 -0.11509754683E+04  0.11509754683E+04  0.50400001928E-02 0. -1.
    10030    2    1    2    0    0  0.00000000000E+00  0.00000000000E+00  0.98584622919E+02  0.24005355596E+04  0.23985103804E+04 0.  0.
        5    1    3    3  502    0 -0.46003250431E+03  0.10991128397E+04  0.18546593669E+03  0.12058601258E+04  0.46999998093E+01 0. -1.
       -5    1    3    3    0  502  0.46003250431E+03 -0.10991128397E+04 -0.86881313767E+02  0.11946754338E+04  0.46999998093E+01 0.  1.
</event>
<event>
 5   0  0.5452384E-07  0.2398650E+04  0.7818609E-02  0.8440009E-01
        1   -1    0    0  501    0  0.00000000000E+00  0.00000000000E+00  0.17001065923E+04  0.17001065924E+04  0.50400001928E-02 0. -1.
       -1   -1    0    0    0  501  0.00000000000E+00  0.00000000000E+00 -0.84605277336E+03  0.84605277337E+03  0.50400001928E-02 0.  1.
    10030    2    1    2    0    0  0.00000000000E+00  0.00000000000E+00  0.85405381899E+03  0.25461593657E+04  0.23986495346E+04 0.  0.
        5    1    3    3  502    0 -0.55545460491E+03 -0.10551768559E+04  0.29096554541E+03  0.12274408555E+04  0.46999998093E+01 0.  1.
       -5    1    3    3    0  502  0.55545460491E+03  0.10551768559E+04  0.56308827358E+03  0.13187185102E+04  0.46999998093E+01 0. -1.
</event>
<event>
 5   0  0.1275948E-06  0.2400232E+04  0.7818609E-02  0.8439417E-01
        2   -1    0    0  501    0  0.00000000000E+00  0.00000000000E+00  0.94512105136E+03  0.94512105136E+03  0.25500000920E-02 0.  1.
       -2   -1    0    0    0  501  0.00000000000E+00  0.00000000000E+00 -0.15239087592E+04  0.15239087592E+04  0.25500000920E-02 0. -1.
    10030    2    1    2    0    0  0.00000000000E+00  0.00000000000E+00 -0.57878770785E+03  0.24690298106E+04  0.24002318627E+04 0.  0.
        1    1    3    3  502    0  0.50052301482E+03  0.10302244418E+04 -0.65798344434E+03  0.13209193396E+04  0.50400001928E-02 0. -1.
       -1    1    3    3    0  502 -0.50052301482E+03 -0.10302244418E+04  0.79195736498E+02  0.11481104709E+04  0.50400001928E-02 0.  1.
</event>
<event>
 5   0  0.5363690E-07  0.2400301E+04  0.7818609E-02  0.8439391E-01
        1   -1    0    0  501    0  0.00000000000E+00  0.00000000000E+00  0.10981726932E+04  0.10981726932E+04  0.50400001928E-02 0. -1.
       -1   -1    0    0    0  501  0.00000000000E+00  0.00000000000E+00 -0.13115978301E+04  0.13115978301E+04  0.50400001928E-02 0.  1.
    10030    2    1    2    0    0  0.00000000000E+00  0.00000000000E+00 -0.21342513694E+03  0.24097705233E+04  0.24003007491E+04 0.  0.
        4    1    3    3  502    0  0.16487572659E+03  0.66050724666E+03 -0.10989972800E+04  0.12927685262E+04  0.12699999809E+01 0.  1.
       -4    1    3    3    0  502 -0.16487572659E+03 -0.66050724666E+03  0.88557214303E+03  0.11170019971E+04  0.12699999809E+01 0. -1.
</event>
<event>
 5   0  0.1336057E-06  0.2401198E+04  0.7818609E-02  0.8439055E-01
       -2   -1    0    0    0  501  0.00000000000E+00  0.00000000000E+00  0.10250383420E+04  0.10250383420E+04  0.25500000920E-02 0. -1.
        2   -1    0    0  501    0  0.00000000000E+00  0.00000000000E+00 -0.14062282389E+04  0.14062282389E+04  0.25500000920E-02 0.  1.
    10030    2    1    2    0    0  0.00000000000E+00  0.00000000000E+00 -0.38118989688E+03  0.24312665809E+04  0.24011979198E+04 0.  0.
        2    1    3    3  502    0 -0.11535715399E+04  0.33087516683E+03 -0.15505283329E+03  0.12100607649E+04  0.25500000920E-02 0.  1.
       -2    1    3    3    0  502  0.11535715399E+04 -0.33087516683E+03 -0.22613706360E+03  0.12212058160E+04  0.25500000920E-02 0. -1.
</event>
<event>
 5   0  0.5527286E-07  0.2396654E+04  0.7818609E-02  0.8440757E-01
        1   -1    0    0  501    0  0.00000000000E+00  0.00000000000E+00  0.11692024631E+04  0.11692024631E+04  0.50400001928E-02 0. -1.
       -1   -1    0    0    0  501  0.00000000000E+00  0.00000000000E+00 -0.12281769605E+04  0.12281769605E+04  0.50400001928E-02 0.  1.
    10030    2    1    2    0    0  0.00000000000E+00  0.00000000000E+00 -0.58974497426E+02  0.23973794237E+04  0.23966539403E+04 0.  0.
        1    1    3    3  502    0  0.17260371250E+02 -0.32934099122E+03 -0.11818881163E+04  0.12270382750E+04  0.50400001928E-02 0.  1.
       -1    1    3    3    0  502 -0.17260371250E+02  0.32934099122E+03  0.11229136188E+04  0.11703411487E+04  0.50400001928E-02 0. -1.
</event>
<event>
 5   0  0.1291468E-06  0.2400179E+04  0.7818609E-02  0.8439437E-01
       -2   -1    0    0    0  501  0.00000000000E+00  0.00000000000E+00  0.20827117087E+04  0.20827117087E+04  0.25500000920E-02 0. -1.
        2   -1    0    0  501    0  0.00000000000E+00  0.00000000000E+00 -0.69150922642E+03  0.69150922643E+03  0.25500000920E-02 0.  1.
    10030    2    1    2    0    0  0.00000000000E+00  0.00000000000E+00  0.13912024823E+04  0.27742209351E+04  0.24001786288E+04 0.  0.
        4    1    3    3  502    0 -0.98656100336E+03 -0.47494302916E+03  0.12634222598E+04  0.16718585208E+04  0.12699999809E+01 0. -1.
       -4    1    3    3    0  502  0.98656100336E+03  0.47494302916E+03  0.12778022251E+03  0.11023624143E+04  0.12699999809E+01 0.  1.
</event>
<event>
 5   0  0.5363690E-07  0.2400153E+04  0.7818609E-02  0.8439446E-01
       -1   -1    0    0    0  501  0.00000000000E+00  0.00000000000E+00  0.14057684427E+04  0.14057684427E+04  0.50400001928E-02 0.  1.
        1   -1    0    0  501    0  0.00000000000E+00  0.00000000000E+00 -0.10244817406E+04  0.10244817406E+04  0.50400001928E-02 0. -1.
    10030    2    1    2    0    0  0.00000000000E+00  0.00000000000E+00  0.38128670213E+03  0.24302501833E+04  0.24001534127E+04 0.  0.
        4    1    3    3  502    0 -0.96758112410E+03  0.81516203102E+02 -0.52341195586E+03  0.11030955587E+04  0.12699999809E+01 0. -1.
       -4    1    3    3    0  502  0.96758112410E+03 -0.81516203102E+02  0.90469865799E+03  0.13271546247E+04  0.12699999809E+01 0.  1.
</event>
<event>
 5   0  0.1307477E-06  0.2401225E+04  0.7818609E-02  0.8439045E-01
       -2   -1    0    0    0  501  0.00000000000E+00  0.00000000000E+00  0.98006694211E+03  0.98006694211E+03  0.25500000920E-02 0.  1.
        2   -1    0    0  501    0  0.00000000000E+00  0.00000000000E+00 -0.14707874165E+04  0.14707874165E+04  0.25500000920E-02 0. -1.
    10030    2    1    2    0    0  0.00000000000E+00  0.00000000000E+00 -0.49072047440E+03  0.24508543586E+04  0.24012247923E+04 0.  0.
        5    1    3    3  502    0 -0.96472485823E+03 -0.34456958853E+02 -0.97395359183E+03  0.13713092369E+04  0.46999998093E+01 0. -1.
       -5    1    3    3    0  502  0.96472485823E+03  0.34456958853E+02  0.48323311743E+03  0.10795451217E+04  0.46999998093E+01 0.  1.
</event>
<event>
 5   0  0.5363690E-07  0.2401263E+04  0.7818609E-02  0.8439031E-01
       -1   -1    0    0    0  501  0.00000000000E+00  0.00000000000E+00  0.53938282592E+03  0.53938282594E+03  0.50400001928E-02 0.  1.
        1   -1    0    0  501    0  0.00000000000E+00  0.00000000000E+00 -0.26725293752E+04  0.26725293752E+04  0.50400001928E-02 0. -1.
    10030    2    1    2    0    0  0.00000000000E+00  0.00000000000E+00 -0.21331465493E+04  0.32119122012E+04  0.24012633732E+04 0.  0.
        4    1    3    3  502    0 -0.19017516788E+03 -0.74365188543E+03 -0.23014618842E+04  0.24260900928E+04  0.12699999809E+01 0. -1.
       -4    1    3    3    0  502  0.19017516788E+03  0.74365188543E+03  0.16831533486E+03  0.78582210838E+03  0.12699999809E+01 0.  1.
</event>
<event>
 5   0  0.5452384E-07  0.2400933E+04  0.7818609E-02  0.8439154E-01
       -1   -1    0    0    0  501  0.00000000000E+00  0.00000000000E+00  0.91799826068E+03  0.91799826069E+03  0.50400001928E-02 0. -1.
        1   -1    0    0  501    0  0.00000000000E+00  0.00000000000E+00 -0.15698498914E+04  0.15698498915E+04  0.50400001928E-02 0.  1.
    10030    2    1    2    0    0  0.00000000000E+00  0.00000000000E+00 -0.65185163077E+03  0.24878481521E+04  0.24009327103E+04 0.  0.
        5    1    3    3  502    0 -0.18098843155E+03 -0.62528386453E+03 -0.13710823736E+04  0.15177699723E+04  0.46999998093E+01 0.  1.
       -5    1    3    3    0  502  0.18098843155E+03  0.62528386453E+03  0.71923074283E+03  0.97007817985E+03  0.46999998093E+01 0. -1.
</event>
<event>
 5   0  0.1275948E-06  0.2397768E+04  0.7818609E-02  0.8440340E-01
       -2   -1    0    0    0  501  0.00000000000E+00  0.00000000000E+00  0.22582871691E+04  0.22582871691E+04  0.25500000920E-02 0. -1.
        2   -1    0    0  501    0  0.00000000000E+00  0.00000000000E+00 -0.63646569679E+03  0.63646569680E+03  0.25500000920E-02 0.  1.
    10030    2    1    2    0    0  0.00000000000E+00  0.00000000000E+00  0.16218214723E+04  0.28947528659E+04  0.23977675589E+04 0.  0.
        1    1    3    3  502    0 -0.44070008696E+03  0.25448123748E+03  0.21214216841E+04  0.21816065706E+04  0.50400001928E-02 0. -1.
       -1    1    3    3    0  502  0.44070008696E+03 -0.25448123748E+03 -0.49960021181E+03  0.71314629533E+03  0.50400001928E-02 0.  1.
</event>
<event>
 5   0  0.5510176E-07  0.2400192E+04  0.7818609E-02  0.8439432E-01
        1   -1    0    0  501    0  0.00000000000E+00  0.00000000000E+00  0.11383474141E+04  0.11383474141E+04  0.50400001928E-02 0.  1.
       -1   -1    0    0    0  501  0.00000000000E+00  0.00000000000E+00 -0.12651944056E+04  0.12651944056E+04  0.50400001928E-02 0. -1.
    10030    2    1    2    0    0  0.00000000000E+00  0.00000000000E+00 -0.12684699145E+03  0.24035418197E+04  0.24001923089E+04 0.  0.
        3    1    3    3  502    0  0.43947344598E+03 -0.17014277078E+03  0.10418129299E+04  0.11434420244E+04  0.10100000352E+00 0.  1.
       -3    1    3    3    0  502 -0.43947344598E+03  0.17014277078E+03 -0.11686599213E+04  0.12600997953E+04  0.10100000352E+00 0. -1.
</event>
<event>
 5   0  0.1275948E-06  0.2395733E+04  0.7818609E-02  0.8441103E-01
       -2   -1    0    0    0  501  0.00000000000E+00  0.00000000000E+00  0.23139720704E+04  0.23139720704E+04  0.25500000920E-02 0. -1.
        2   -1    0    0  501    0  0.00000000000E+00  0.00000000000E+00 -0.62009572097E+03  0.62009572098E+03  0.25500000920E-02 0.  1.
    10030    2    1    2    0    0  0.00000000000E+00  0.00000000000E+00  0.16938763494E+04  0.29340677913E+04  0.23957330229E+04 0.  0.
        1    1    3    3  502    0  0.39932433960E+02 -0.10797782223E+04  0.21367110972E+03  0.11014403987E+04  0.50400001928E-02 0.  1.
       -1    1    3    3    0  502 -0.39932433960E+02  0.10797782223E+04  0.14802052397E+04  0.18326273926E+04  0.50400001928E-02 0. -1.
</event>
<event>
 5   0  0.5510176E-07  0.2401189E+04  0.7818609E-02  0.8439059E-01
       -1   -1    0    0    0  501  0.00000000000E+00  0.00000000000E+00  0.23512477650E+04  0.23512477650E+04  0.50400001928E-02 0. -1.
        1   -1    0    0  501    0  0.00000000000E+00  0.00000000000E+00 -0.61304754008E+03  0.61304754010E+03  0.50400001928E-02 0.  1.
    10030    2    1    2    0    0  0.00000000000E+00  0.00000000000E+00  0.17382002249E+04  0.29642953051E+04  0.24011885878E+04 0.  0.
        3    1    3    3  502    0  0.34676066169E+03  0.11319572421E+04  0.11155591463E+04  0.16266660301E+04  0.10100000352E+00 0. -1.
       -3    1    3    3    0  502 -0.34676066169E+03 -0.11319572421E+04  0.62264107860E+03  0.13376292750E+04  0.10100000352E+00 0.  1.
</event>
<event>
 5   0  0.5452384E-07  0.2397910E+04  0.7818609E-02  0.8440286E-01
       -1   -1    0    0    0  501  0.00000000000E+00  0.00000000000E+00  0.82779580840E+03  0.82779580841E+03  0.50400001928E-02 0. -1.
        1   -1    0    0  501    0  0.00000000000E+00  0.00000000000E+00 -0.17365309239E+04  0.17365309239E+04  0.50400001928E-02 0.  1.
    10030    2    1    2    0    0  0.00000000000E+00  0.00000000000E+00 -0.90873511546E+03  0.25643267323E+04  0.23979099399E+04 0.  0.
        5    1    3    3  502    0  0.92210271632E+02 -0.59067780029E+03  0.65702127252E+03  0.88831415642E+03  0.46999998093E+01 0. -1.
       -5    1    3    3    0  502 -0.92210271632E+02  0.59067780029E+03 -0.15657563880E+04  0.16760125759E+04  0.46999998093E+01 0.  1.
</event>
<event>
 5   0  0.1291468E-06  0.2400333E+04  0.7818609E-02  0.8439379E-01
        2   -1    0    0  501    0  0.00000000000E+00  0.00000000000E+00  0.19694185865E+04  0.19694185865E+04  0.25500000920E-02 0.  1.
       -2   -1    0    0    0  501  0.00000000000E+00  0.00000000000E+00 -0.73138341791E+03  0.73138341791E+03  0.25500000920E-02 0. -1.
    10030    2    1    2    0    0  0.00000000000E+00  0.00000000000E+00  0.12380351686E+04  0.27008020044E+04  0.24003333911E+04 0.  0.
        4    1    3    3  502    0  0.74910868193E+03 -0.65289169815E+03 -0.13825896651E+03  0.10032689278E+04  0.12699999809E+01 0. -1.
       -4    1    3    3    0  502 -0.74910868193E+03  0.65289169815E+03  0.13762941351E+04  0.16975330766E+04  0.12699999809E+01 0.  1.
</event>
<event>
 5   0  0.1336057E-06  0.2400539E+04  0.7818609E-02  0.8439302E-01
        2   -1    0    0  501    0  0.00000000000E+00  0.00000000000E+00  0.22693479593E+04  0.22693479593E+04  0.25500000920E-02 0.  1.
       -2   -1    0    0    0  501  0.00000000000E+00  0.00000000000E+00 -0.63482839727E+03  0.63482839728E+03  0.25500000920E-02 0. -1.
    10030    2    1    2    0    0  0.00000000000E+00  0.00000000000E+00  0.16345195620E+04  0.29041763566E+04  0.24005387127E+04 0.  0.
        2    1    3    3  502    0  0.10953871127E+04  0.35314102392E+03  0.12294189292E+04  0.16840583163E+04  0.25500000920E-02 0.  1.
       -2    1    3    3    0  502 -0.10953871127E+04 -0.35314102392E+03  0.40510063282E+03  0.12201180402E+04  0.25500000920E-02 0. -1.
</event>
<event>
 5   0  0.5363690E-07  0.2400125E+04  0.7818609E-02  0.8439457E-01
        1   -1    0    0  501    0  0.00000000000E+00  0.00000000000E+00  0.13487903789E+04  0.13487903789E+04  0.50400001928E-02 0. -1.
       -1   -1    0    0    0  501  0.00000000000E+00  0.00000000000E+00 -0.10677348578E+04  0.10677348578E+04  0.50400001928E-02 0.  1.
    10030    2    1    2    0    0  0.00000000000E+00  0.00000000000E+00  0.28105552110E+03  0.24165252366E+04  0.24001254162E+04 0.  0.
        4    1    3    3  502    0  0.98515600284E+03 -0.13422878810E+03 -0.53607531567E+03  0.11295698626E+04  0.12699999809E+01 0.  1.
       -4    1    3    3    0  502 -0.98515600284E+03  0.13422878810E+03  0.81713083677E+03  0.12869553740E+04  0.12699999809E+01 0. -1.
</event>
<event>
 5   0  0.1307477E-06  0.2399045E+04  0.7818609E-02  0.8439861E-01
        2   -1    0    0  501    0  0.00000000000E+00  0.00000000000E+00  0.17336570572E+04  0.17336570572E+04  0.25500000920E-02 0.  1.
       -2   -1    0    0    0  501  0.00000000000E+00  0.00000000000E+00 -0.82995343474E+03  0.82995343474E+03  0.25500000920E-02 0. -1.
    10030    2    1    2    0    0  0.00000000000E+00  0.00000000000E+00  0.90370362249E+03  0.25636104920E+04  0.23990453346E+04 0.  0.
        5    1    3    3  502    0  0.31493897121E+03  0.19837758040E+03  0.16703758018E+04  0.17113496513E+04  0.46999998093E+01 0.  1.
       -5    1    3    3    0  502 -0.31493897121E+03 -0.19837758040E+03 -0.76667217928E+03  0.85226084063E+03  0.46999998093E+01 0. -1.
</event>
<event>
 5   0  0.5527286E-07  0.2402841E+04  0.7818609E-02  0.8438441E-01
       -1   -1    0    0    0  501  0.00000000000E+00  0.00000000000E+00  0.11709565781E+04  0.11709565781E+04  0.50400001928E-02 0.  1.
        1   -1    0    0  501    0  0.00000000000E+00  0.00000000000E+00 -0.12326773074E+04  0.12326773074E+04  0.50400001928E-02 0. -1.
    10030    2    1    2    0    0  0.00000000000E+00  0.00000000000E+00 -0.61720729248E+02  0.24036338855E+04  0.24028413196E+04 0.  0.
        1    1    3    3  502    0 -0.10539765903E+03 -0.45890520575E+03  0.10748136516E+04  0.11734253449E+04  0.50400001928E-02 0.  1.
       -1    1    3    3    0  502  0.10539765903E+03  0.45890520575E+03 -0.11365343809E+04  0.12302085406E+04  0.50400001928E-02 0. -1.
</event>
<event>
 5   0  0.1291468E-06  0.2401590E+04  0.7818609E-02  0.8438909E-01
       -2   -1    0    0    0  501  0.00000000000E+00  0.00000000000E+00  0.12846587932E+04  0.12846587932E+04  0.25500000920E-02 0.  1.
        2   -1    0    0  501    0  0.00000000000E+00  0.00000000000E+00 -0.11224054687E+04  0.11224054687E+04  0.25500000920E-02 0. -1.
    10030    2    1    2    0    0  0.00000000000E+00  0.00000000000E+00  0.16225332448E+03  0.24070642619E+04  0.24015895194E+04 0.  0.
        4    1    3    3  502    0  0.45929757616E+03  0.55419091855E+03 -0.88222237478E+03  0.11385955248E+04  0.12699999809E+01 0. -1.
       -4    1    3    3    0  502 -0.45929757616E+03 -0.55419091855E+03  0.10444756993E+04  0.12684687371E+04  0.12699999809E+01 0.  1.
</event>
<event>
 5   0  0.5690124E-07  0.2401446E+04  0.7818609E-02  0.8438962E-01
       -1   -1    0    0    0  501  0.00000000000E+00  0.00000000000E+00  0.10638605032E+04  0.10638605032E+04  0.50400001928E-02 0. -1.
        1   -1    0    0  501    0  0.00000000000E+00  0.00000000000E+00 -0.13551922798E+04  0.13551922798E+04  0.50400001928E-02 0.  1.
    10030    2    1    2    0    0  0.00000000000E+00  0.00000000000E+00 -0.29133177659E+03  0.24190527830E+04  0.24014458484E+04 0.  0.
        2    1    3    3  502    0 -0.22657842438E+03  0.71829506445E+03  0.79631052312E+03  0.10960821280E+04  0.25500000920E-02 0. -1.
       -2    1    3    3    0  502  0.22657842438E+03 -0.71829506445E+03 -0.10876422997E+04  0.13229706551E+04  0.25500000920E-02 0.  1.
</event>
<event>
 5   0  0.5690124E-07  0.2405607E+04  0.7818609E-02  0.8437407E-01
        1   -1    0    0  501    0  0.00000000000E+00  0.00000000000E+00  0.13289838132E+04  0.13289838132E+04  0.50400001928E-02 0.  1.
       -1   -1    0    0    0  501  0.00000000000E+00  0.00000000000E+00 -0.10886037746E+04  0.10886037746E+04  0.50400001928E-02 0. -1.
    10030    2    1    2    0    0  0.00000000000E+00  0.00000000000E+00  0.24038003858E+03  0.24175875878E+04  0.24056074455E+04 0.  0.
        2    1    3    3  502    0  0.53519159988E+03  0.96184458861E+03 -0.36715977281E+03  0.11603367442E+04  0.25500000920E-02 0.  1.
       -2    1    3    3    0  502 -0.53519159988E+03 -0.96184458861E+03  0.60753981139E+03  0.12572508436E+04  0.25500000920E-02 0. -1.
</event>
<event>
 5   0  0.1336057E-06  0.2400541E+04  0.7818609E-02  0.8439301E-01
       -2   -1    0    0    0  501  0.00000000000E+00  0.00000000000E+00  0.14765047028E+04  0.14765047028E+04  0.25500000920E-02 0.  1.
        2   -1    0    0  501    0  0.00000000000E+00  0.00000000000E+00 -0.97571580908E+03  0.97571580908E+03  0.25500000920E-02 0. -1.
    10030    2    1    2    0    0  0.00000000000E+00  0.00000000000E+00  0.50078889375E+03  0.24522205119E+04  0.24005407564E+04 0.  0.
        2    1    3    3  502    0 -0.15857723307E+03 -0.90129520250E+03  0.10437539264E+04  0.13881289709E+04  0.25500000920E-02 0.  1.
       -2    1    3    3    0  502  0.15857723307E+03  0.90129520250E+03 -0.54296503269E+03  0.10640915410E+04  0.25500000920E-02 0. -1.
</event>
<event>
 5   0  0.5452384E-07  0.2399536E+04  0.7818609E-02  0.8439677E-01
       -1   -1    0    0    0  501  0.00000000000E+00  0.00000000000E+00  0.12170837819E+04  0.12170837819E+04  0.50400001928E-02 0.  1.
        1   -1    0    0  501    0  0.00000000000E+00  0.00000000000E+00 -0.11826989141E+04  0.11826989141E+04  0.50400001928E-02 0. -1.
    10030    2    1    2    0    0  0.00000000000E+00  0.00000000000E+00  0.34384867731E+02  0.23997826960E+04  0.23995363446E+04 0.  0.
        5    1    3    3  502    0 -0.12140519274E+03 -0.78518719405E+03  0.91626383118E+03  0.12127735357E+04  0.46999998093E+01 0.  1.
       -5    1    3    3    0  502  0.12140519274E+03  0.78518719405E+03 -0.88187896344E+03  0.11870091603E+04  0.46999998093E+01 0. -1.
</event>
<event>
 5   0  0.5363690E-07  0.2400481E+04  0.7818609E-02  0.8439324E-01
        1   -1    0    0  501    0  0.00000000000E+00  0.00000000000E+00  0.90154207657E+03  0.90154207658E+03  0.50400001928E-02 0.  1.
       -1   -1    0    0    0  501  0.00000000000E+00  0.00000000000E+00 -0.15979028863E+04  0.15979028863E+04  0.50400001928E-02 0. -1.
    10030    2    1    2    0    0  0.00000000000E+00  0.00000000000E+00 -0.69636080978E+03  0.24994449629E+04  0.24004805238E+04 0.  0.
        4    1    3    3  502    0  0.62522618892E+03 -0.92130436574E+03  0.11847695804E+03  0.11197088569E+04  0.12699999809E+01 0.  1.
       -4    1    3    3    0  502 -0.62522618892E+03  0.92130436574E+03 -0.81483776782E+03  0.13797361061E+04  0.12699999809E+01 0. -1.
</event>
<event>
 5   0  0.5452384E-07  0.2397465E+04  0.7818609E-02  0.8440453E-01
       -1   -1    0    0    0  501  0.00000000000E+00  0.00000000000E+00  0.20037320428E+04  0.20037320428E+04  0.50400001928E-02 0.  1.
        1   -1    0    0  501    0  0.00000000000E+00  0.00000000000E+00 -0.71714161428E+03  0.71714161430E+03  0.50400001928E-02 0. -1.
    10030    2    1    2    0    0  0.00000000000E+00  0.00000000000E+00  0.12865904286E+04  0.27208736571E+04  0.23974650211E+04 0.  0.
        5    1    3    3  502    0 -0.28373052495E+03  0.21739067270E+03 -0.65524404741E+03  0.74641045479E+03  0.46999998093E+01 0. -1.
       -5    1    3    3    0  502  0.28373052495E+03 -0.21739067270E+03  0.19418344760E+04  0.19744632023E+04  0.46999998093E+01 0.  1.
</event>
<event>
 5   0  0.1336057E-06  0.2400541E+04  0.7818609E-02  0.8439301E-01
        2   -1    0    0  501    0  0.00000000000E+00  0.00000000000E+00  0.20567652733E+04  0.20567652733E+04  0.25500000920E-02 0.  1.
       -2   -1    0    0    0  501  0.00000000000E+00  0.00000000000E+00 -0.70044396382E+03  0.70044396383E+03  0.25500000920E-02 0. -1.
    10030    2    1    2    0    0  0.00000000000E+00  0.00000000000E+00  0.13563213094E+04  0.27572092371E+04  0.24005406230E+04 0.  0.
        2    1    3    3  502    0 -0.37634654958E+03  0.35721405213E+02  0.19866007804E+04  0.20222500847E+04  0.25500000920E-02 0.  1.
       -2    1    3    3    0  502  0.37634654958E+03 -0.35721405213E+02 -0.63027947099E+03  0.73495915242E+03  0.25500000920E-02 0. -1.
</event>
<event>
 5   0  0.1336057E-06  0.2393445E+04  0.7818609E-02  0.8441962E-01
        2   -1    0    0  501    0  0.00000000000E+00  0.00000000000E+00  0.11515016387E+04  0.11515016387E+04  0.25500000920E-02 0.  1.
       -2   -1    0    0    0  501  0.00000000000E+00  0.00000000000E+00 -0.12437194685E+04  0.12437194685E+04  0.25500000920E-02 0. -1.
    10030    2    1    2    0    0  0.00000000000E+00  0.00000000000E+00 -0.92217829804E+02  0.23952211072E+04  0.23934452206E+04 0.  0.
        2    1    3    3  502    0  0.15829907066E+03  0.71058581978E+03 -0.99663164420E+03  0.12342063998E+04  0.25500000920E-02 0. -1.
       -2    1    3    3    0  502 -0.15829907066E+03 -0.71058581978E+03  0.90441381440E+03  0.11610147074E+04  0.25500000920E-02 0.  1.
</event>
<event>
 5   0  0.5527286E-07  0.2400331E+04  0.7818609E-02  0.8439380E-01
       -1   -1    0    0    0  501  0.00000000000E+00  0.00000000000E+00  0.91187281394E+03  0.91187281395E+03  0.50400001928E-02 0. -1.
        1   -1    0    0  501    0  0.00000000000E+00  0.00000000000E+00 -0.15796030807E+04  0.15796030807E+04  0.50400001928E-02 0.  1.
    10030    2    1    2    0    0  0.00000000000E+00  0.00000000000E+00 -0.66773026677E+03  0.24914758947E+04  0.24003308990E+04 0.  0.
        1    1    3    3  502    0  0.60650404555E+03  0.81366262443E+03 -0.99889903530E+03  0.14239709640E+04  0.50400001928E-02 0.  1.
       -1    1    3    3    0  502 -0.60650404555E+03 -0.81366262443E+03  0.33116876853E+03  0.10675049306E+04  0.50400001928E-02 0. -1.
</event>
<event>
 5   0  0.1308662E-06  0.2399762E+04  0.7818609E-02  0.8439593E-01
        2   -1    0    0  501    0  0.00000000000E+00  0.00000000000E+00  0.16772910202E+04  0.16772910202E+04  0.25500000920E-02 0.  1.
       -2   -1    0    0    0  501  0.00000000000E+00  0.00000000000E+00 -0.85835685050E+03  0.85835685050E+03  0.25500000920E-02 0. -1.
    10030    2    1    2    0    0  0.00000000000E+00  0.00000000000E+00  0.81893416969E+03  0.25356478707E+04  0.23997618527E+04 0.  0.
        3    1    3    3  502    0  0.13712295568E+03  0.88462908542E+03 -0.43473770943E+03  0.99517245237E+03  0.10100000352E+00 0. -1.
       -3    1    3    3    0  502 -0.13712295568E+03 -0.88462908542E+03  0.12536718791E+04  0.15404754183E+04  0.10100000352E+00 0.  1.
</event>
<event>
 5   0  0.1308662E-06  0.2399444E+04  0.7818609E-02  0.8439712E-01
        2   -1    0    0  501    0  0.00000000000E+00  0.00000000000E+00  0.21021409696E+04  0.21021409696E+04  0.25500000920E-02 0. -1.
       -2   -1    0    0    0  501  0.00000000000E+00  0.00000000000E+00 -0.68469869872E+03  0.68469869872E+03  0.25500000920E-02 0.  1.
    10030    2    1    2    0    0  0.00000000000E+00  0.00000000000E+00  0.14174422709E+04  0.27868396683E+04  0.23994442577E+04 0.  0.
        3    1    3    3  502    0 -0.88329441632E+03  0.17571540589E+03  0.16293126364E+04  0.18616510433E+04  0.10100000352E+00 0. -1.
       -3    1    3    3    0  502  0.88329441632E+03 -0.17571540589E+03 -0.21187036555E+03  0.92518862497E+03  0.10100000352E+00 0.  1.
</event>
<event>
 5   0  0.1291468E-06  0.2402974E+04  0.7818609E-02  0.8438391E-01
       -2   -1    0    0    0  501  0.00000000000E+00  0.00000000000E+00  0.10538297204E+04  0.10538297204E+04  0.25500000920E-02 0. -1.
        2   -1    0    0  501    0  0.00000000000E+00  0.00000000000E+00 -0.13698336214E+04  0.13698336214E+04  0.25500000920E-02 0.  1.
    10030    2    1    2    0    0  0.00000000000E+00  0.00000000000E+00 -0.31600390101E+03  0.24236633418E+04  0.24029743088E+04 0.  0.
        4    1    3    3  502    0  0.26604180315E+03 -0.85547326759E+03 -0.96549281869E+03  0.13171145540E+04  0.12699999809E+01 0.  1.
       -4    1    3    3    0  502 -0.26604180315E+03  0.85547326759E+03  0.64948891769E+03  0.11065487878E+04  0.12699999809E+01 0. -1.
</event>
<event>
 5   0  0.5363690E-07  0.2400687E+04  0.7818609E-02  0.8439246E-01
       -1   -1    0    0    0  501  0.00000000000E+00  0.00000000000E+00  0.99710927198E+03  0.99710927200E+03  0.50400001928E-02 0. -1.
        1   -1    0    0  501    0  0.00000000000E+00  0.00000000000E+00 -0.14450021222E+04  0.14450021222E+04  0.50400001928E-02 0.  1.
    10030    2    1    2    0    0  0.00000000000E+00  0.00000000000E+00 -0.44789285024E+03  0.24421113942E+04  0.24006874133E+04 0.  0.
        4    1    3    3  502    0  0.20641469341E+03  0.50178438035E+03  0.86524296046E+03  0.10212940730E+04  0.12699999809E+01 0. -1.
       -4    1    3    3    0  502 -0.20641469341E+03 -0.50178438035E+03 -0.13131358107E+04  0.14208173212E+04  0.12699999809E+01 0.  1.
</event>
<event>
 5   0  0.5363690E-07  0.2400594E+04  0.7818609E-02  0.8439281E-01
       -1   -1    0    0    0  501  0.00000000000E+00  0.00000000000E+00  0.97504239090E+03  0.97504239091E+03  0.50400001928E-02 0. -1.
        1   -1    0    0  501    0  0.00000000000E+00  0.00000000000E+00 -0.14775895036E+04  0.14775895037E+04  0.50400001928E-02 0.  1.
    10030    2    1    2    0    0  0.00000000000E+00  0.00000000000E+00 -0.50254711275E+03  0.24526318946E+04  0.24005935953E+04 0.  0.
        4    1    3    3  502    0  0.96519183680E+03  0.15741687319E+03  0.45975468515E+03  0.10806254380E+04  0.12699999809E+01 0. -1.
       -4    1    3    3    0  502 -0.96519183680E+03 -0.15741687319E+03 -0.96230179790E+03  0.13720064566E+04  0.12699999809E+01 0.  1.
</event>
<event>
 5   0  0.1307477E-06  0.2397865E+04  0.7818609E-02  0.8440303E-01
       -2   -1    0    0    0  501  0.00000000000E+00  0.00000000000E+00  0.91870863290E+03  0.91870863290E+03  0.25500000920E-02 0. -1.
        2   -1    0    0  501    0  0.00000000000E+00  0.00000000000E+00 -0.15646295680E+04  0.15646295680E+04  0.25500000920E-02 0.  1.
    10030    2    1    2    0    0  0.00000000000E+00  0.00000000000E+00 -0.64592093512E+03  0.24833382009E+04  0.23978646262E+04 0.  0.
        5    1    3    3  502    0 -0.20363473215E+03  0.21784930613E+03  0.87967847613E+03  0.92886045006E+03  0.46999998093E+01 0. -1.
       -5    1    3    3    0  502  0.20363473215E+03 -0.21784930613E+03 -0.15255994113E+04  0.15544777509E+04  0.46999998093E+01 0.  1.
</event>
<event>
 5   0  0.5363690E-07  0.2400485E+04  0.7818609E-02  0.8439322E-01
        1   -1    0    0  501    0  0.00000000000E+00  0.00000000000E+00  0.13682667981E+04  0.13682667981E+04  0.50400001928E-02 0.  1.
       -1   -1    0    0    0  501  0.00000000000E+00  0.00000000000E+00 -0.10528516408E+04  0.10528516408E+04  0.50400001928E-02 0. -1.
    10030    2    1    2    0    0  0.00000000000E+00  0.00000000000E+00  0.31541515729E+03  0.24211184389E+04  0.24004849039E+04 0.  0.
        4    1    3    3  502    0 -0.71035200299E+02  0.11290621964E+03  0.13607665790E+04  0.13672896948E+04  0.12699999809E+01 0.  1.
       -4    1    3    3    0  502  0.71035200299E+02 -0.11290621964E+03 -0.10453514217E+04  0.10538287441E+04  0.12699999809E+01 0. -1.
</event>
<event>
 5   0  0.1308662E-06  0.2401422E+04  0.7818609E-02  0.8438971E-01
       -2   -1    0    0    0  501  0.00000000000E+00  0.00000000000E+00  0.75500547337E+03  0.75500547337E+03  0.25500000920E-02 0.  1.
        2   -1    0    0  501    0  0.00000000000E+00  0.00000000000E+00 -0.19095321041E+04  0.19095321041E+04  0.25500000920E-02 0. -1.
    10030    2    1    2    0    0  0.00000000000E+00  0.00000000000E+00 -0.11545266307E+04  0.26645375774E+04  0.24014222371E+04 0.  0.
        3    1    3    3  502    0  0.86952864628E+03 -0.67547960653E+03 -0.45881273512E+02  0.11020244403E+04  0.10100000352E+00 0.  1.
       -3    1    3    3    0  502 -0.86952864628E+03  0.67547960653E+03 -0.11086453572E+04  0.15625131371E+04  0.10100000352E+00 0. -1.
</event>
<event>
 5   0  0.1308662E-06  0.2399457E+04  0.7818609E-02  0.8439707E-01
       -2   -1    0    0    0  501  0.00000000000E+00  0.00000000000E+00  0.10152968677E+04  0.10152968677E+04  0.25500000920E-02 0. -1.
        2   -1    0    0  501    0  0.00000000000E+00  0.00000000000E+00 -0.14176626202E+04  0.14176626202E+04  0.25500000920E-02 0.  1.
    10030    2    1    2    0    0  0.00000000000E+00  0.00000000000E+00 -0.40236575252E+03  0.24329594878E+04  0.23994569533E+04 0.  0.
        3    1    3    3  502    0 -0.36374392965E+03  0.11224797183E+04 -0.42118714897E+03  0.12528643139E+04  0.10100000352E+00 0.  1.
       -3    1    3    3    0  502  0.36374392965E+03 -0.11224797183E+04  0.18821396446E+02  0.11800951739E+04  0.10100000352E+00 0. -1.
</event>
<event>
 5   0  0.5363690E-07  0.2400529E+04  0.7818609E-02  0.8439306E-01
       -1   -1    0    0    0  501  0.00000000000E+00  0.00000000000E+00  0.31411316924E+04  0.31411316924E+04  0.50400001928E-02 0.  1.
        1   -1    0    0  501    0  0.00000000000E+00  0.00000000000E+00 -0.45863557613E+03  0.45863557616E+03  0.50400001928E-02 0. -1.
    10030    2    1    2    0    0  0.00000000000E+00  0.00000000000E+00  0.26824961163E+04  0.35997672686E+04  0.24005288946E+04 0.  0.
        4    1    3    3  502    0 -0.98127778112E+03 -0.52373608853E+03  0.66489668336E+03  0.12958760692E+04  0.12699999809E+01 0.  1.
       -4    1    3    3    0  502  0.98127778112E+03  0.52373608853E+03  0.20175994329E+04  0.23038911994E+04  0.12699999809E+01 0. -1.
</event>
<event>
 5   0  0.5510176E-07  0.2400309E+04  0.7818609E-02  0.8439388E-01
        1   -1    0    0  501    0  0.00000000000E+00  0.00000000000E+00  0.16010635178E+04  0.16010635178E+04  0.50400001928E-02 0.  1.
       -1   -1    0    0    0  501  0.00000000000E+00  0.00000000000E+00 -0.89963345234E+03  0.89963345235E+03  0.50400001928E-02 0. -1.
    10030    2    1    2    0    0  0.00000000000E+00  0.00000000000E+00  0.70143006549E+03  0.25006969702E+04  0.24003085635E+04 0.  0.
        3    1    3    3  502    0  0.96979202977E+03 -0.69419615412E+03  0.21107416453E+03  0.12111800834E+04  0.10100000352E+00 0. -1.
       -3    1    3    3    0  502 -0.96979202977E+03  0.69419615412E+03  0.49035590097E+03  0.12895168867E+04  0.10100000352E+00 0.  1.
</event>
<event>
 5   0  0.5363690E-07  0.2402608E+04  0.7818609E-02  0.8438528E-01
       -1   -1    0    0    0  501  0.00000000000E+00  0.00000000000E+00  0.22847976079E+04  0.22847976079E+04  0.50400001928E-02 0. -1.
        1   -1    0    0  501    0  0.00000000000E+00  0.00000000000E+00 -0.63162324318E+03  0.63162324320E+03  0.50400001928E-02 0.  1.
    10030    2    1    2    0    0  0.00000000000E+00  0.00000000000E+00  0.16531743647E+04  0.29164208511E+04  0.24026079789E+04 0.  0.
        4    1    3    3  502    0  0.89067675163E+03 -0.19741294567E+03 -0.12212730797E+03  0.92043122462E+03  0.12699999809E+01 0.  1.
       -4    1    3    3    0  502 -0.89067675163E+03  0.19741294567E+03  0.17753016727E+04  0.19959896264E+04  0.12699999809E+01 0. -1.
</event>
<event>
 5   0  0.1307477E-06  0.2400722E+04  0.7818609E-02  0.8439233E-01
       -2   -1    0    0    0  501  0.00000000000E+00  0.00000000000E+00  0.12775700277E+04  0.12775700277E+04  0.25500000920E-02 0. -1.
        2   -1    0    0  501    0  0.00000000000E+00  0.00000000000E+00 -0.11278184464E+04  0.11278184464E+04  0.25500000920E-02 0.  1.
    10030    2    1    2    0    0  0.00000000000E+00  0.00000000000E+00  0.14975158129E+03  0.24053884741E+04  0.24007224277E+04 0.  0.
        5    1    3    3  502    0  0.97772604669E+02 -0.47186814751E+03 -0.10266361982E+04  0.11341177206E+04  0.46999998093E+01 0.  1.
       -5    1    3    3    0  502 -0.97772604669E+02  0.47186814751E+03  0.11763877795E+04  0.12712707534E+04  0.46999998093E+01 0. -1.
</event>
<event>
 5   0  0.5363690E-07  0.2400199E+04  0.7818609E-02  0.8439429E-01
        1   -1    0    0  501    0  0.00000000000E+00  0.00000000000E+00  0.10421953703E+04  0.10421953703E+04  0.50400001928E-02 0.  1.
       -1   -1    0    0    0  501  0.00000000000E+00  0.00000000000E+00 -0.13819278422E+04  0.13819278422E+04  0.50400001928E-02 0. -1.
    10030    2    1    2    0    0  0.00000000000E+00  0.00000000000E+00 -0.33973247189E+03  0.24241232126E+04  0.24001989912E+04 0.  0.
        4    1    3    3  502    0  0.10257531170E+04  0.40822313434E+03  0.30537863189E+03  0.11454576841E+04  0.12699999809E+01 0.  1.
       -4    1    3    3    0  502 -0.10257531170E+04 -0.40822313434E+03 -0.64511110378E+03  0.12786655284E+04  0.12699999809E+01 0. -1.
</event>
<event>
 5   0  0.5690124E-07  0.2402477E+04  0.7818609E-02  0.8438577E-01
       -1   -1    0    0    0  501  0.00000000000E+00  0.00000000000E+00  0.71420723874E+03  0.71420723876E+03  0.50400001928E-02 0.  1.
        1   -1    0    0  501    0  0.00000000000E+00  0.00000000000E+00 -0.20203862594E+04  0.20203862594E+04  0.50400001928E-02 0. -1.
    10030    2    1    2    0    0  0.00000000000E+00  0.00000000000E+00 -0.13061790206E+04  0.27345934981E+04  0.24024774642E+04 0.  0.
        2    1    3    3  502    0 -0.12674004689E+03  0.91831824526E+02  0.70255185707E+03  0.71977443367E+03  0.25500000920E-02 0.  1.
       -2    1    3    3    0  502  0.12674004689E+03 -0.91831824526E+02 -0.20087308777E+04  0.20148190645E+04  0.25500000920E-02 0. -1.
</event>
<event>
 5   0  0.5452384E-07  0.2402198E+04  0.7818609E-02  0.8438681E-01
        1   -1    0    0  501    0  0.00000000000E+00  0.00000000000E+00  0.92172056989E+03  0.92172056990E+03  0.50400001928E-02 0.  1.
       -1   -1    0    0    0  501  0.00000000000E+00  0.00000000000E+00 -0.15651588649E+04  0.15651588649E+04  0.50400001928E-02 0. -1.
    10030    2    1    2    0    0  0.00000000000E+00  0.00000000000E+00 -0.64343829497E+03  0.24868794348E+04  0.24021982607E+04 0.  0.
        5    1    3    3  502    0 -0.83878566404E+03 -0.75064058628E+03 -0.75553073956E+03  0.13556811824E+04  0.46999998093E+01 0. -1.
       -5    1    3    3    0  502  0.83878566404E+03  0.75064058628E+03  0.11209244459E+03  0.11311982523E+04  0.46999998093E+01 0.  1.
</event>
<event>
 5   0  0.1336057E-06  0.2400027E+04  0.7818609E-02  0.8439494E-01
       -2   -1    0    0    0  501  0.00000000000E+00  0.00000000000E+00  0.12809360209E+04  0.12809360209E+04  0.25500000920E-02 0.  1.
        2   -1    0    0  501    0  0.00000000000E+00  0.00000000000E+00 -0.11242028578E+04  0.11242028578E+04  0.25500000920E-02 0. -1.
    10030    2    1    2    0    0  0.00000000000E+00  0.00000000000E+00  0.15673316311E+03  0.24051388786E+04  0.24000266126E+04 0.  0.
        2    1    3    3  502    0 -0.79722777698E+03  0.56125984225E+03  0.77946183014E+03  0.12482569782E+04  0.25500000920E-02 0.  1.
       -2    1    3    3    0  502  0.79722777698E+03 -0.56125984225E+03 -0.62272866703E+03  0.11568819005E+04  0.25500000920E-02 0. -1.
</event>
<event>
 5   0  0.1291468E-06  0.2401814E+04  0.7818609E-02  0.8438825E-01
       -2   -1    0    0    0  501  0.00000000000E+00  0.00000000000E+00  0.15885082633E+04  0.15885082633E+04  0.25500000920E-02 0. -1.
        2   -1    0    0  501    0  0.00000000000E+00  0.00000000000E+00 -0.90788161355E+03  0.90788161355E+03  0.25500000920E-02 0.  1.
    10030    2    1    2    0    0  0.00000000000E+00  0.00000000000E+00  0.68062664974E+03  0.24963898768E+04  0.24018138523E+04 0.  0.
        4    1    3    3  502    0 -0.74165341626E+02  0.53915867368E+02  0.15848639629E+04  0.15875146653E+04  0.12699999809E+01 0. -1.
       -4    1    3    3    0  502  0.74165341626E+02 -0.53915867368E+02 -0.90423731320E+03  0.90887521153E+03  0.12699999809E+01 0.  1.
</event>
<event>
 5   0  0.1308662E-06  0.2398679E+04  0.7818609E-02  0.8439998E-01
       -2   -1    0    0    0  501  0.00000000000E+00  0.00000000000E+00  0.12670214557E+04  0.12670214557E+04  0.25500000920E-02 0. -1.
        2   -1    0    0  501    0  0.00000000000E+00  0.00000000000E+00 -0.11352729683E+04  0.11352729683E+04  0.25500000920E-02 0.  1.
    10030    2    1    2    0    0  0.00000000000E+00  0.00000000000E+00  0.13174848740E+03  0.24022944239E+04  0.23986789771E+04 0.  0.
        3    1    3    3  502    0  0.69149855757E+03  0.41523399891E+03 -0.82305904112E+03  0.11523956457E+04  0.10100000352E+00 0.  1.
       -3    1    3    3    0  502 -0.69149855757E+03 -0.41523399891E+03  0.95480752851E+03  0.12498987782E+04  0.10100000352E+00 0. -1.
</event>
<event>
 5   0  0.5527286E-07  0.2396791E+04  0.7818609E-02  0.8440706E-01
       -1   -1    0    0    0  501  0.00000000000E+00  0.00000000000E+00  0.20462232378E+04  0.20462232378E+04  0.50400001928E-02 0.  1.
        1   -1    0    0  501    0  0.00000000000E+00  0.00000000000E+00 -0.70185471163E+03  0.70185471165E+03  0.50400001928E-02 0. -1.
    10030    2    1    2    0    0  0.00000000000E+00  0.00000000000E+00  0.13443685261E+04  0.27480779494E+04  0.23967907047E+04 0.  0.
        1    1    3    3  502    0 -0.92434666725E+03 -0.55908499224E+03  0.12670282704E+04  0.16650385665E+04  0.50400001928E-02 0.  1.
       -1    1    3    3    0  502  0.92434666725E+03  0.55908499224E+03  0.77340255701E+02  0.10830393829E+04  0.50400001928E-02 0. -1.
</event>
<event>
 5   0  0.5510176E-07  0.2401237E+04  0.7818609E-02  0.8439040E-01
        1   -1    0    0  501    0  0.00000000000E+00  0.00000000000E+00  0.13562289617E+04  0.13562289617E+04  0.50400001928E-02 0. -1.
       -1   -1    0    0    0  501  0.00000000000E+00  0.00000000000E+00 -0.10628626409E+04  0.10628626409E+04  0.50400001928E-02 0.  1.
    10030    2    1    2    0    0  0.00000000000E+00  0.00000000000E+00  0.29336632073E+03  0.24190916026E+04  0.24012372610E+04 0.  0.
        3    1    3    3  502    0 -0.40683218553E+03  0.10991073277E+04  0.40926603459E+03  0.12413895610E+04  0.10100000352E+00 0.  1.
       -3    1    3    3    0  502  0.40683218553E+03 -0.10991073277E+04 -0.11589971386E+03  0.11777020416E+04  0.10100000352E+00 0. -1.
</event>
<event>
 5   0  0.5452384E-07  0.2399973E+04  0.7818609E-02  0.8439513E-01
        1   -1    0    0  501    0  0.00000000000E+00  0.00000000000E+00  0.18415401875E+04  0.18415401875E+04  0.50400001928E-02 0.  1.
       -1   -1    0    0    0  501  0.00000000000E+00  0.00000000000E+00 -0.78193685286E+03  0.78193685287E+03  0.50400001928E-02 0. -1.
    10030    2    1    2    0    0  0.00000000000E+00  0.00000000000E+00  0.10596033346E+04  0.26234770404E+04  0.23999734487E+04 0.  0.
        5    1    3    3  502    0  0.94240652202E+03  0.15305266463E+02  0.13416516258E+04  0.16396388258E+04  0.46999998093E+01 0.  1.
       -5    1    3    3    0  502 -0.94240652202E+03 -0.15305266463E+02 -0.28204829120E+03  0.98383821459E+03  0.46999998093E+01 0. -1.
</event>
<event>
 5   0  0.5452384E-07  0.2401258E+04  0.7818609E-02  0.8439033E-01
        1   -1    0    0  501    0  0.00000000000E+00  0.00000000000E+00  0.89155615103E+03  0.89155615104E+03  0.50400001928E-02 0.  1.
       -1   -1    0    0    0  501  0.00000000000E+00  0.00000000000E+00 -0.16168475346E+04  0.16168475346E+04  0.50400001928E-02 0. -1.
    10030    2    1    2    0    0  0.00000000000E+00  0.00000000000E+00 -0.72529138358E+03  0.25084036857E+04  0.24012583075E+04 0.  0.
        5    1    3    3  502    0 -0.61802747489E+03  0.87820783510E+03  0.19823022948E+03  0.10920275982E+04  0.46999998093E+01 0.  1.
       -5    1    3    3    0  502  0.61802747489E+03 -0.87820783510E+03 -0.92352161306E+03  0.14163760875E+04  0.46999998093E+01 0. -1.
</event>
<event>
 5   0  0.1336057E-06  0.2399423E+04  0.7818609E-02  0.8439720E-01
        2   -1    0    0  501    0  0.00000000000E+00  0.00000000000E+00  0.17826532004E+04  0.17826532004E+04  0.25500000920E-02 0. -1.
       -2   -1    0    0    0  501  0.00000000000E+00  0.00000000000E+00 -0.80739606015E+03  0.80739606015E+03  0.25500000920E-02 0.  1.
    10030    2    1    2    0    0  0.00000000000E+00  0.00000000000E+00  0.97525714021E+03  0.25900492605E+04  0.23994225727E+04 0.  0.
        2    1    3    3  502    0  0.21205932756E+03 -0.58258883639E+03 -0.62106811023E+03  0.87755598581E+03  0.25500000920E-02 0.  1.
       -2    1    3    3    0  502 -0.21205932756E+03  0.58258883639E+03  0.15963252504E+04  0.17124932747E+04  0.25500000920E-02 0. -1.
</event>
<event>
 5   0  0.1336057E-06  0.2400368E+04  0.7818609E-02  0.8439366E-01
       -2   -1    0    0    0  501  0.00000000000E+00  0.00000000000E+00  0.59920974351E+03  0.59920974352E+03  0.25500000920E-02 0.  1.
        2   -1    0    0  501    0  0.00000000000E+00  0.00000000000E+00 -0.24039015744E+04  0.24039015744E+04  0.25500000920E-02 0. -1.
    10030    2    1    2    0    0  0.00000000000E+00  0.00000000000E+00 -0.18046918309E+04  0.30031113179E+04  0.24003676767E+04 0.  0.
        2    1    3    3  502    0  0.27045135667E+03 -0.64449335348E+03  0.31831536837E+03  0.76801060719E+03  0.25500000920E-02 0.  1.
       -2    1    3    3    0  502 -0.27045135667E+03  0.64449335348E+03 -0.21230071993E+04  0.22351007107E+04  0.25500000920E-02 0. -1.
</event>
<event>
 5   0  0.5510176E-07  0.2400355E+04  0.7818609E-02  0.8439371E-01
        1   -1    0    0  501    0  0.00000000000E+00  0.00000000000E+00  0.16270686902E+04  0.16270686902E+04  0.50400001928E-02 0. -1.
       -1   -1    0    0    0  501  0.00000000000E+00  0.00000000000E+00 -0.88528886023E+03  0.88528886024E+03  0.50400001928E-02 0.  1.
    10030    2    1    2    0    0  0.00000000000E+00  0.00000000000E+00  0.74177982993E+03  0.25123575504E+04  0.24003547957E+04 0.  0.
        3    1    3    3  502    0  0.22697108412E+03 -0.90876170462E+03 -0.41449787038E+03  0.10242910737E+04  0.10100000352E+00 0.  1.
       -3    1    3    3    0  502 -0.22697108412E+03  0.90876170462E+03  0.11562777003E+04  0.14880664768E+04  0.10100000352E+00 0. -1.
</event>
<event>
 5   0  0.5527286E-07  0.2414070E+04  0.7818609E-02  0.8434255E-01
        1   -1    0    0  501    0  0.00000000000E+00  0.00000000000E+00  0.75990257137E+03  0.75990257138E+03  0.50400001928E-02 0. -1.
       -1   -1    0    0    0  501  0.00000000000E+00  0.00000000000E+00 -0.19172632239E+04  0.19172632239E+04  0.50400001928E-02 0.  1.
    10030    2    1    2    0    0  0.00000000000E+00  0.00000000000E+00 -0.11573606525E+04  0.26771657953E+04  0.24140698034E+04 0.  0.
        1    1    3    3  502    0 -0.25930916028E+03  0.87757445451E+03 -0.14515821656E+04  0.17159454966E+04  0.50400001928E-02 0.  1.
       -1    1    3    3    0  502  0.25930916028E+03 -0.87757445451E+03  0.29422151308E+03  0.96122029868E+03  0.50400001928E-02 0. -1.
</event>
<event>
 5   0  0.1275948E-06  0.2402183E+04  0.7818609E-02  0.8438687E-01
       -2   -1    0    0    0  501  0.00000000000E+00  0.00000000000E+00  0.76783142418E+03  0.76783142418E+03  0.25500000920E-02 0.  1.
        2   -1    0    0  501    0  0.00000000000E+00  0.00000000000E+00 -0.18788241670E+04  0.18788241670E+04  0.25500000920E-02 0. -1.
    10030    2    1    2    0    0  0.00000000000E+00  0.00000000000E+00 -0.11109927428E+04  0.26466555911E+04  0.24021825375E+04 0.  0.
        1    1    3    3  502    0  0.97983096584E+02 -0.11193987624E+04 -0.10228941109E+04  0.15195284264E+04  0.50400001928E-02 0.  1.
       -1    1    3    3    0  502 -0.97983096584E+02  0.11193987624E+04 -0.88098631888E+02  0.11271271647E+04  0.50400001928E-02 0. -1.
</event>
<event>
 5   0  0.1307477E-06  0.2399616E+04  0.7818609E-02  0.8439647E-01
        2   -1    0    0  501    0  0.00000000000E+00  0.00000000000E+00  0.27412276052E+04  0.27412276052E+04  0.25500000920E-02 0.  1.
       -2   -1    0    0    0  501  0.00000000000E+00  0.00000000000E+00 -0.52514400629E+03  0.52514400629E+03  0.25500000920E-02 0. -1.
    10030    2    1    2    0    0  0.00000000000E+00  0.00000000000E+00  0.22160835989E+04  0.32663716115E+04  0.23996160082E+04 0.  0.
        5    1    3    3  502    0 -0.85158398859E+03 -0.25861249938E+03  0.12764493267E+02  0.89009029697E+03  0.46999998093E+01 0. -1.
       -5    1    3    3    0  502  0.85158398859E+03  0.25861249938E+03  0.22033191056E+04  0.23762813145E+04  0.46999998093E+01 0.  1.
</event>
<event>
 5   0  0.5690124E-07  0.2399385E+04  0.7818609E-02  0.8439734E-01
       -1   -1    0    0    0  501  0.00000000000E+00  0.00000000000E+00  0.10357386129E+04  0.10357386129E+04  0.50400001928E-02 0.  1.
        1   -1    0    0  501    0  0.00000000000E+00  0.00000000000E+00 -0.13895997272E+04  0.13895997272E+04  0.50400001928E-02 0. -1.
    10030    2    1    2    0    0  0.00000000000E+00  0.00000000000E+00 -0.35386111437E+03  0.24253383401E+04  0.23993849995E+04 0.  0.
        2    1    3    3  502    0 -0.27475829197E+03  0.37135411795E+02 -0.13567709639E+04  0.13848099531E+04  0.25500000920E-02 0. -1.
       -2    1    3    3    0  502  0.27475829197E+03 -0.37135411795E+02  0.10029098495E+04  0.10405283870E+04  0.25500000920E-02 0.  1.
</event>
<event>
 5   0  0.5690124E-07  0.2399927E+04  0.7818609E-02  0.8439531E-01
        1   -1    0    0  501    0  0.00000000000E+00  0.00000000000E+00  0.10770955082E+04  0.10770955082E+04  0.50400001928E-02 0. -1.
       -1   -1    0    0    0  501  0.00000000000E+00  0.00000000000E+00 -0.13368474870E+04  0.13368474870E+04  0.50400001928E-02 0.  1.
    10030    2    1    2    0    0  0.00000000000E+00  0.00000000000E+00 -0.25975197880E+03  0.24139429953E+04  0.23999270184E+04 0.  0.
        2    1    3    3  502    0 -0.60256600506E+03 -0.15611149625E+03  0.90200809714E+03  0.10959357632E+04  0.25500000920E-02 0. -1.
       -2    1    3    3    0  502  0.60256600506E+03  0.15611149625E+03 -0.11617600759E+04  0.13180072321E+04  0.25500000920E-02 0.  1.
</event>
<event>
 5   0  0.5510176E-07  0.2401333E+04  0.7818609E-02  0.8439005E-01
       -1   -1    0    0    0  501  0.00000000000E+00  0.00000000000E+00  0.98040552425E+03  0.98040552427E+03  0.50400001928E-02 0. -1.
        1   -1    0    0  501    0  0.00000000000E+00  0.00000000000E+00 -0.14704123317E+04  0.14704123317E+04  0.50400001928E-02 0.  1.
    10030    2    1    2    0    0  0.00000000000E+00  0.00000000000E+00 -0.49000680744E+03  0.24508178560E+04  0.24013332738E+04 0.  0.
        3    1    3    3  502    0 -0.35060166187E+01  0.39558106193E+03 -0.14019882830E+04  0.14567318986E+04  0.10100000352E+00 0.  1.
       -3    1    3    3    0  502  0.35060166187E+01 -0.39558106193E+03  0.91198147552E+03  0.99408595735E+03  0.10100000352E+00 0. -1.
</event>
<event>
 5   0  0.1308662E-06  0.2400851E+04  0.7818609E-02  0.8439185E-01
       -2   -1    0    0    0  501  0.00000000000E+00  0.00000000000E+00  0.21182591415E+04  0.21182591415E+04  0.25500000920E-02 0.  1.
        2   -1    0    0  501    0  0.00000000000E+00  0.00000000000E+00 -0.68028580725E+03  0.68028580726E+03  0.25500000920E-02 0. -1.
    10030    2    1    2    0    0  0.00000000000E+00  0.00000000000E+00  0.14379733343E+04  0.27985449488E+04  0.24008512075E+04 0.  0.
        3    1    3    3  502    0  0.30822535494E+03  0.79022090578E+03  0.17091484875E+04  0.19080462552E+04  0.10100000352E+00 0.  1.
       -3    1    3    3    0  502 -0.30822535494E+03 -0.79022090578E+03 -0.27117515324E+03  0.89049869360E+03  0.10100000352E+00 0. -1.
</event>
<event>
 5   0  0.5452384E-07  0.2399073E+04  0.7818609E-02  0.8439851E-01
        1   -1    0    0  501    0  0.00000000000E+00  0.00000000000E+00  0.17233040197E+04  0.17233040197E+04  0.50400001928E-02 0.  1.
       -1   -1    0    0    0  501  0.00000000000E+00  0.00000000000E+00 -0.83495855861E+03  0.83495855862E+03  0.50400001928E-02 0. -1.
    10030    2    1    2    0    0  0.00000000000E+00  0.00000000000E+00  0.88834546106E+03  0.25582625783E+04  0.23990726878E+04 0.  0.
        5    1    3    3  502    0 -0.72675807663E+03  0.11438398353E+03  0.14544583856E+04  0.16299485523E+04  0.46999998093E+01 0.  1.
       -5    1    3    3    0  502  0.72675807663E+03 -0.11438398353E+03 -0.56611292452E+03  0.92831402604E+03  0.46999998093E+01 0. -1.
</event>
<event>
 5   0  0.5363690E-07  0.2400067E+04  0.7818609E-02  0.8439479E-01
       -1   -1    0    0    0  501  0.00000000000E+00  0.00000000000E+00  0.15762870895E+04  0.15762870895E+04  0.50400001928E-02 0. -1.
        1   -1    0    0  501    0  0.00000000000E+00  0.00000000000E+00 -0.91358984759E+03  0.91358984760E+03  0.50400001928E-02 0.  1.
    10030    2    1    2    0    0  0.00000000000E+00  0.00000000000E+00  0.66269724193E+03  0.24898769371E+04  0.24000665673E+04 0.  0.
        4    1    3    3  502    0 -0.60230060202E+03  0.10016475356E+04  0.49112297145E+02  0.11698194012E+04  0.12699999809E+01 0.  1.
       -4    1    3    3    0  502  0.60230060202E+03 -0.10016475356E+04  0.61358494479E+03  0.13200575359E+04  0.12699999809E+01 0. -1.
</event>
<event>
 5   0  0.1308662E-06  0.2398831E+04  0.7818609E-02  0.8439941E-01
        2   -1    0    0  501    0  0.00000000000E+00  0.00000000000E+00  0.18868169025E+04  0.18868169025E+04  0.25500000920E-02 0. -1.
       -2   -1    0    0    0  501  0.00000000000E+00  0.00000000000E+00 -0.76244684766E+03  0.76244684766E+03  0.25500000920E-02 0.  1.
    10030    2    1    2    0    0  0.00000000000E+00  0.00000000000E+00  0.11243700548E+04  0.26492637502E+04  0.23988310482E+04 0.  0.
        3    1    3    3  502    0  0.69519622957E+03  0.64301428870E+03  0.13751241563E+04  0.16696501515E+04  0.10100000352E+00 0. -1.
       -3    1    3    3    0  502 -0.69519622957E+03 -0.64301428870E+03 -0.25075410144E+03  0.97961359865E+03  0.10100000352E+00 0.  1.
</event>
<event>
 5   0  0.1307477E-06  0.2400551E+04  0.7818609E-02  0.8439297E-01
       -2   -1    0    0    0  501  0.00000000000E+00  0.00000000000E+00  0.11279718713E+04  0.11279718713E+04  0.25500000920E-02 0. -1.
        2   -1    0    0  501    0  0.00000000000E+00  0.00000000000E+00 -0.12772141965E+04  0.12772141965E+04  0.25500000920E-02 0.  1.
    10030    2    1    2    0    0  0.00000000000E+00  0.00000000000E+00 -0.14924232511E+03  0.24051860678E+04  0.24005513427E+04 0.  0.
        5    1    3    3  502    0 -0.25159282890E+03 -0.33522976434E+03 -0.12014977612E+04  0.12725159750E+04  0.46999998093E+01 0.  1.
       -5    1    3    3    0  502  0.25159282890E+03  0.33522976434E+03  0.10522554361E+04  0.11326700928E+04  0.46999998093E+01 0. -1.
</event>
<event>
 5   0  0.1307477E-06  0.2399829E+04  0.7818609E-02  0.8439567E-01
       -2   -1    0    0    0  501  0.00000000000E+00  0.00000000000E+00  0.66019903265E+03  0.66019903265E+03  0.25500000920E-02 0. -1.
        2   -1    0    0  501    0  0.00000000000E+00  0.00000000000E+00 -0.21808503043E+04  0.21808503043E+04  0.25500000920E-02 0.  1.
    10030    2    1    2    0    0  0.00000000000E+00  0.00000000000E+00 -0.15206512716E+04  0.28410493369E+04  0.23998293783E+04 0.  0.
        5    1    3    3  502    0  0.23521870408E+03  0.10733591321E+04 -0.18968125067E+03  0.11150913560E+04  0.46999998093E+01 0. -1.
       -5    1    3    3    0  502 -0.23521870408E+03 -0.10733591321E+04 -0.13309700210E+04  0.17259579810E+04  0.46999998093E+01 0.  1.
</event>
<event>
 5   0  0.1307477E-06  0.2399861E+04  0.7818609E-02  0.8439556E-01
       -2   -1    0    0    0  501  0.00000000000E+00  0.00000000000E+00  0.12231533123E+04  0.12231533123E+04  0.25500000920E-02 0.  1.
        2   -1    0    0  501    0  0.00000000000E+00  0.00000000000E+00 -0.11771487682E+04  0.11771487682E+04  0.25500000920E-02 0. -1.
    10030    2    1    2    0    0  0.00000000000E+00  0.00000000000E+00  0.46004544049E+02  0.24003020805E+04  0.23998611750E+04 0.  0.
        5    1    3    3  502    0 -0.81824292039E+03 -0.43692955212E+03  0.78431385333E+03  0.12147424504E+04  0.46999998093E+01 0.  1.
       -5    1    3    3    0  502  0.81824292039E+03  0.43692955212E+03 -0.73830930928E+03  0.11855596301E+04  0.46999998093E+01 0. -1.
</event>
<event>
 5   0  0.1336057E-06  0.2400037E+04  0.7818609E-02  0.8439490E-01
       -2   -1    0    0    0  501  0.00000000000E+00  0.00000000000E+00  0.13201695259E+04  0.13201695259E+04  0.25500000920E-02 0. -1.
        2   -1    0    0  501    0  0.00000000000E+00  0.00000000000E+00 -0.10908029734E+04  0.10908029734E+04  0.25500000920E-02 0.  1.
    10030    2    1    2    0    0  0.00000000000E+00  0.00000000000E+00  0.22936655249E+03  0.24109724992E+04  0.24000373698E+04 0.  0.
        2    1    3    3  502    0  0.70676527540E+03 -0.34174377842E+03  0.10264191329E+04  0.12922237426E+04  0.25500000920E-02 0. -1.
       -2    1    3    3    0  502 -0.70676527540E+03  0.34174377842E+03 -0.79705258037E+03  0.11187487566E+04  0.25500000920E-02 0.  1.
</event>
<event>
 5   0  0.1291468E-06  0.2393698E+04  0.7818609E-02  0.8441867E-01
        2   -1    0    0  501    0  0.00000000000E+00  0.00000000000E+00  0.21647847803E+04  0.21647847803E+04  0.25500000920E-02 0. -1.
       -2   -1    0    0    0  501  0.00000000000E+00  0.00000000000E+00 -0.66170416744E+03  0.66170416745E+03  0.25500000920E-02 0.  1.
    10030    2    1    2    0    0  0.00000000000E+00  0.00000000000E+00  0.15030806129E+04  0.28264889477E+04  0.23936976507E+04 0.  0.
        4    1    3    3  502    0 -0.74289433217E+03  0.93053476535E+03  0.60857730877E+03  0.13372190890E+04  0.12699999809E+01 0.  1.
       -4    1    3    3    0  502  0.74289433217E+03 -0.93053476535E+03  0.89450330408E+03  0.14892698588E+04  0.12699999809E+01 0. -1.
</event>
<event>
 5   0  0.1308662E-06  0.2399559E+04  0.7818609E-02  0.8439669E-01
        2   -1    0    0  501    0  0.00000000000E+00  0.00000000000E+00  0.17461445337E+04  0.17461445337E+04  0.25500000920E-02 0. -1.
       -2   -1    0    0    0  501  0.00000000000E+00  0.00000000000E+00 -0.82437103887E+03  0.82437103888E+03  0.25500000920E-02 0.  1.
    10030    2    1    2    0    0  0.00000000000E+00  0.00000000000E+00  0.92177349480E+03  0.25705155726E+04  0.23995591122E+04 0.  0.
        3    1    3    3  502    0  0.97049832109E+03  0.19876104385E+02 -0.29448066152E+03  0.10143869681E+04  0.10100000352E+00 0.  1.
       -3    1    3    3    0  502 -0.97049832109E+03 -0.19876104385E+02  0.12162541563E+04  0.15561286045E+04  0.10100000352E+00 0. -1.
</event>
<event>
 5   0  0.1307477E-06  0.2400085E+04  0.7818609E-02  0.8439472E-01
        2   -1    0    0  501    0  0.00000000000E+00  0.00000000000E+00  0.69786078789E+03  0.69786078789E+03  0.25500000920E-02 0. -1.
       -2   -1    0    0    0  501  0.00000000000E+00  0.00000000000E+00 -0.20635948100E+04  0.20635948100E+04  0.25500000920E-02 0.  1.
    10030    2    1    2    0    0  0.00000000000E+00  0.00000000000E+00 -0.13657340221E+04  0.27614555978E+04  0.24000849151E+04 0.  0.
        5    1    3    3  502    0 -0.62246169438E+02 -0.16992756124E+03  0.68205993171E+03  0.70567542264E+03  0.46999998093E+01 0. -1.
       -5    1    3    3    0  502  0.62246169438E+02  0.16992756124E+03 -0.20477939538E+04  0.20557801752E+04  0.46999998093E+01 0.  1.
</event>
<event>
 5   0  0.1275948E-06  0.2399577E+04  0.7818609E-02  0.8439662E-01
       -2   -1    0    0    0  501  0.00000000000E+00  0.00000000000E+00  0.70308192264E+03  0.70308192264E+03  0.25500000920E-02 0. -1.
        2   -1    0    0  501    0  0.00000000000E+00  0.00000000000E+00 -0.20474041900E+04  0.20474041900E+04  0.25500000920E-02 0.  1.
    10030    2    1    2    0    0  0.00000000000E+00  0.00000000000E+00 -0.13443222673E+04  0.27504861126E+04  0.23995773580E+04 0.  0.
        1    1    3    3  502    0  0.91746349590E+03  0.54604621237E+03 -0.44773020516E+02  0.10686020568E+04  0.50400001928E-02 0. -1.
       -1    1    3    3    0  502 -0.91746349590E+03 -0.54604621237E+03 -0.12995492468E+04  0.16818840558E+04  0.50400001928E-02 0.  1.
</event>
<event>
 5   0  0.4483375E-07  0.2400176E+04  0.7818609E-02  0.8439438E-01
       -3   -1    0    0    0  501  0.00000000000E+00  0.00000000000E+00  0.90845018434E+03  0.90845018995E+03  0.10100000352E+00 0.  1.
        3   -1    0    0  501    0  0.00000000000E+00  0.00000000000E+00 -0.15853498211E+04  0.15853498243E+04  0.10100000352E+00 0. -1.
    10030    2    1    2    0    0  0.00000000000E+00  0.00000000000E+00 -0.67689963679E+03  0.24938000143E+04  0.24001761171E+04 0.  0.
        3    1    3    3  502    0 -0.37570974107E+03  0.10690975315E+04  0.72035569073E+02  0.11354807241E+04  0.10100000352E+00 0. -1.
       -3    1    3    3    0  502  0.37570974107E+03 -0.10690975315E+04 -0.74893520586E+03  0.13583192902E+04  0.10100000352E+00 0.  1.
</event>
<event>
 5   0  0.1275948E-06  0.2400629E+04  0.7818609E-02  0.8439268E-01
       -2   -1    0    0    0  501  0.00000000000E+00  0.00000000000E+00  0.83015130806E+03  0.83015130807E+03  0.25500000920E-02 0.  1.
        2   -1    0    0  501    0  0.00000000000E+00  0.00000000000E+00 -0.17355331557E+04  0.17355331557E+04  0.25500000920E-02 0. -1.
    10030    2    1    2    0    0  0.00000000000E+00  0.00000000000E+00 -0.90538184761E+03  0.25656844637E+04  0.24006291837E+04 0.  0.
        1    1    3    3  502    0  0.82799476527E+03 -0.85273171893E+03 -0.27376332078E+03  0.12197020421E+04  0.50400001928E-02 0.  1.
       -1    1    3    3    0  502 -0.82799476527E+03  0.85273171893E+03 -0.63161852683E+03  0.13459824216E+04  0.50400001928E-02 0. -1.
</event>
<event>
 5   0  0.5690124E-07  0.2400203E+04  0.7818609E-02  0.8439427E-01
       -1   -1    0    0    0  501  0.00000000000E+00  0.00000000000E+00  0.85803167279E+03  0.85803167280E+03  0.50400001928E-02 0. -1.
        1   -1    0    0  501    0  0.00000000000E+00  0.00000000000E+00 -0.16785439936E+04  0.16785439936E+04  0.50400001928E-02 0.  1.
    10030    2    1    2    0    0  0.00000000000E+00  0.00000000000E+00 -0.82051232081E+03  0.25365756664E+04  0.24002032503E+04 0.  0.
        2    1    3    3  502    0 -0.49095076678E+03  0.95071843803E+03  0.16407864197E+03  0.10825063531E+04  0.25500000920E-02 0. -1.
       -2    1    3    3    0  502  0.49095076678E+03 -0.95071843803E+03 -0.98459096278E+03  0.14540693133E+04  0.25500000920E-02 0.  1.
</event>
<event>
 5   0  0.1308662E-06  0.2405342E+04  0.7818609E-02  0.8437506E-01
        2   -1    0    0  501    0  0.00000000000E+00  0.00000000000E+00  0.11468962146E+04  0.11468962146E+04  0.25500000920E-02 0.  1.
       -2   -1    0    0    0  501  0.00000000000E+00  0.00000000000E+00 -0.12611581662E+04  0.12611581662E+04  0.25500000920E-02 0. -1.
    10030    2    1    2    0    0  0.00000000000E+00  0.00000000000E+00 -0.11426195155E+03  0.24080543808E+04  0.24053419939E+04 0.  0.
        3    1    3    3  502    0  0.72494330757E+03  0.95259180892E+03 -0.17320810293E+03  0.12095350391E+04  0.10100000352E+00 0. -1.
       -3    1    3    3    0  502 -0.72494330757E+03 -0.95259180892E+03  0.58946151382E+02  0.11985193418E+04  0.10100000352E+00 0.  1.
</event>
<event>
 5   0  0.5363690E-07  0.2400696E+04  0.7818609E-02  0.8439243E-01
        1   -1    0    0  501    0  0.00000000000E+00  0.00000000000E+00  0.15421955490E+04  0.15421955490E+04  0.50400001928E-02 0.  1.
       -1   -1    0    0    0  501  0.00000000000E+00  0.00000000000E+00 -0.93427523631E+03  0.93427523632E+03  0.50400001928E-02 0. -1.
    10030    2    1    2    0    0  0.00000000000E+00  0.00000000000E+00  0.60792031269E+03  0.24764707853E+04  0.24006958250E+04 0.  0.
        4    1    3    3  502    0 -0.14378169853E+03 -0.85869359474E+03 -0.54844215575E+03  0.10289889589E+04  0.12699999809E+01 0. -1.
       -4    1    3    3    0  502  0.14378169853E+03  0.85869359474E+03  0.11563624684E+04  0.14474818264E+04  0.12699999809E+01 0.  1.
</event>
<event>
 5   0  0.5527286E-07  0.2399266E+04  0.7818609E-02  0.8439778E-01
        1   -1    0    0  501    0  0.00000000000E+00  0.00000000000E+00  0.85298802295E+03  0.85298802297E+03  0.50400001928E-02 0.  1.
       -1   -1    0    0    0  501  0.00000000000E+00  0.00000000000E+00 -0.16871508142E+04  0.16871508143E+04  0.50400001928E-02 0. -1.
    10030    2    1    2    0    0  0.00000000000E+00  0.00000000000E+00 -0.83416279129E+03  0.25401388372E+04  0.23992660857E+04 0.  0.
        1    1    3    3  502    0  0.99920443909E+02  0.27805892622E+03 -0.16480252501E+04  0.16743022686E+04  0.50400001928E-02 0. -1.
       -1    1    3    3    0  502 -0.99920443909E+02 -0.27805892622E+03  0.81386245886E+03  0.86583656860E+03  0.50400001928E-02 0.  1.
</event>
<event>
 5   0  0.5452384E-07  0.2396330E+04  0.7818609E-02  0.8440879E-01
        1   -1    0    0  501    0  0.00000000000E+00  0.00000000000E+00  0.16143465438E+04  0.16143465438E+04  0.50400001928E-02 0. -1.
       -1   -1    0    0    0  501  0.00000000000E+00  0.00000000000E+00 -0.88927548483E+03  0.88927548484E+03  0.50400001928E-02 0.  1.
    10030    2    1    2    0    0  0.00000000000E+00  0.00000000000E+00  0.72507105897E+03  0.25036220286E+04  0.23963295311E+04 0.  0.
        5    1    3    3  502    0  0.65985559844E+03 -0.12795667028E+03 -0.67373798000E+03  0.95169705051E+03  0.46999998093E+01 0.  1.
       -5    1    3    3    0  502 -0.65985559844E+03  0.12795667028E+03  0.13988090390E+04  0.15519249781E+04  0.46999998093E+01 0. -1.
</event>
<event>
 5   0  0.1291468E-06  0.2399418E+04  0.7818609E-02  0.8439722E-01
        2   -1    0    0  501    0  0.00000000000E+00  0.00000000000E+00  0.22248843582E+04  0.22248843582E+04  0.25500000920E-02 0.  1.
       -2   -1    0    0    0  501  0.00000000000E+00  0.00000000000E+00 -0.64691066930E+03  0.64691066931E+03  0.25500000920E-02 0. -1.
    10030    2    1    2    0    0  0.00000000000E+00  0.00000000000E+00  0.15779736889E+04  0.28717950275E+04  0.23994177871E+04 0.  0.
        4    1    3    3  502    0 -0.11279071676E+04 -0.21898425262E+02  0.30039679632E+03  0.11674304981E+04  0.12699999809E+01 0. -1.
       -4    1    3    3    0  502  0.11279071676E+04  0.21898425262E+02  0.12775768925E+04  0.17043645294E+04  0.12699999809E+01 0.  1.
</event>
<event>
 5   0  0.5690124E-07  0.2396256E+04  0.7818609E-02  0.8440906E-01
        1   -1    0    0  501    0  0.00000000000E+00  0.00000000000E+00  0.15979933689E+04  0.15979933689E+04  0.50400001928E-02 0. -1.
       -1   -1    0    0    0  501  0.00000000000E+00  0.00000000000E+00 -0.89832110247E+03  0.89832110248E+03  0.50400001928E-02 0.  1.
    10030    2    1    2    0    0  0.00000000000E+00  0.00000000000E+00  0.69967226643E+03  0.24963144714E+04  0.23962563844E+04 0.  0.
        2    1    3    3  502    0 -0.66749662914E+03  0.70699941386E+03  0.10791481079E+04  0.14525703287E+04  0.25500000920E-02 0. -1.
       -2    1    3    3    0  502  0.66749662914E+03 -0.70699941386E+03 -0.37947584145E+03  0.10437441427E+04  0.25500000920E-02 0.  1.
</event>
<event>
 5   0  0.1336057E-06  0.2401796E+04  0.7818609E-02  0.8438832E-01
       -2   -1    0    0    0  501  0.00000000000E+00  0.00000000000E+00  0.83433030147E+03  0.83433030147E+03  0.25500000920E-02 0. -1.
        2   -1    0    0  501    0  0.00000000000E+00  0.00000000000E+00 -0.17285186864E+04  0.17285186864E+04  0.25500000920E-02 0.  1.
    10030    2    1    2    0    0  0.00000000000E+00  0.00000000000E+00 -0.89418838492E+03  0.25628489879E+04  0.24017955922E+04 0.  0.
        2    1    3    3  502    0  0.44087037754E+02 -0.11153043640E+04  0.25682437699E+02  0.11164708141E+04  0.25500000920E-02 0. -1.
       -2    1    3    3    0  502 -0.44087037754E+02  0.11153043640E+04 -0.91987082262E+03  0.14463781737E+04  0.25500000920E-02 0.  1.
</event>
<event>
 5   0  0.1275948E-06  0.2401683E+04  0.7818609E-02  0.8438874E-01
        2   -1    0    0  501    0  0.00000000000E+00  0.00000000000E+00  0.19367827532E+04  0.19367827532E+04  0.25500000920E-02 0.  1.
       -2   -1    0    0    0  501  0.00000000000E+00  0.00000000000E+00 -0.74454413448E+03  0.74454413448E+03  0.25500000920E-02 0. -1.
    10030    2    1    2    0    0  0.00000000000E+00  0.00000000000E+00  0.11922386187E+04  0.26813268876E+04  0.24016829421E+04 0.  0.
        1    1    3    3  502    0 -0.48819398297E+03  0.38604837930E+03 -0.55042011676E+03  0.83086041013E+03  0.50400001928E-02 0. -1.
       -1    1    3    3    0  502  0.48819398297E+03 -0.38604837930E+03  0.17426587354E+04  0.18504664775E+04  0.50400001928E-02 0.  1.
</event>
<event>
 5   0  0.1307477E-06  0.2399639E+04  0.7818609E-02  0.8439639E-01
       -2   -1    0    0    0  501  0.00000000000E+00  0.00000000000E+00  0.65629344942E+03  0.65629344942E+03  0.25500000920E-02 0.  1.
        2   -1    0    0  501    0  0.00000000000E+00  0.00000000000E+00 -0.21934811331E+04  0.21934811331E+04  0.25500000920E-02 0. -1.
    10030    2    1    2    0    0  0.00000000000E+00  0.00000000000E+00 -0.15371876837E+04  0.28497745825E+04  0.23996393888E+04 0.  0.
        5    1    3    3  502    0 -0.37902885472E+03 -0.57595920858E+03  0.39751094617E+03  0.79588248190E+03  0.46999998093E+01 0.  1.
       -5    1    3    3    0  502  0.37902885472E+03  0.57595920858E+03 -0.19346986299E+04  0.20538921006E+04  0.46999998093E+01 0. -1.
</event>
<event>
 5   0  0.5690124E-07  0.2403145E+04  0.7818609E-02  0.8438327E-01
        1   -1    0    0  501    0  0.00000000000E+00  0.00000000000E+00  0.13565597821E+04  0.13565597821E+04  0.50400001928E-02 0. -1.
       -1   -1    0    0    0  501  0.00000000000E+00  0.00000000000E+00 -0.10642923985E+04  0.10642923986E+04  0.50400001928E-02 0.  1.
    10030    2    1    2    0    0  0.00000000000E+00  0.00000000000E+00  0.29226738354E+03  0.24208521806E+04  0.24031448265E+04 0.  0.
        2    1    3    3  502    0 -0.75747806118E+03 -0.26285354984E+03 -0.75539702335E+03  0.11015850692E+04  0.25500000920E-02 0.  1.
       -2    1    3    3    0  502  0.75747806118E+03  0.26285354984E+03  0.10476644069E+04  0.13192671114E+04  0.25500000920E-02 0. -1.
</event>
<event>
 5   0  0.5363690E-07  0.2400347E+04  0.7818609E-02  0.8439374E-01
       -1   -1    0    0    0  501  0.00000000000E+00  0.00000000000E+00  0.53943596377E+03  0.53943596379E+03  0.50400001928E-02 0.  1.
        1   -1    0    0  501    0  0.00000000000E+00  0.00000000000E+00 -0.26702275102E+04  0.26702275102E+04  0.50400001928E-02 0. -1.
    10030    2    1    2    0    0  0.00000000000E+00  0.00000000000E+00 -0.21307915464E+04  0.32096634740E+04  0.24003472669E+04 0.  0.
        4    1    3    3  502    0  0.51131407200E+03 -0.67462125497E+03  0.72264198830E+02  0.84957615622E+03  0.12699999809E+01 0.  1.
       -4    1    3    3    0  502 -0.51131407200E+03  0.67462125497E+03 -0.22030557452E+04  0.23600873178E+04  0.12699999809E+01 0. -1.
</event>
<event>
 5   0  0.1291468E-06  0.2399134E+04  0.7818609E-02  0.8439828E-01
       -2   -1    0    0    0  501  0.00000000000E+00  0.00000000000E+00  0.88759890269E+03  0.88759890269E+03  0.25500000920E-02 0.  1.
        2   -1    0    0  501    0  0.00000000000E+00  0.00000000000E+00 -0.16211831702E+04  0.16211831702E+04  0.25500000920E-02 0. -1.
    10030    2    1    2    0    0  0.00000000000E+00  0.00000000000E+00 -0.73358426749E+03  0.25087820729E+04  0.23991335127E+04 0.  0.
        4    1    3    3  502    0  0.38636013622E+02 -0.74245672218E+03 -0.13512118190E+04  0.15422417834E+04  0.12699999809E+01 0. -1.
       -4    1    3    3    0  502 -0.38636013622E+02  0.74245672218E+03  0.61762755150E+03  0.96654028945E+03  0.12699999809E+01 0.  1.
</event>
<event>
 5   0  0.1308662E-06  0.2398029E+04  0.7818609E-02  0.8440242E-01
       -2   -1    0    0    0  501  0.00000000000E+00  0.00000000000E+00  0.76035643479E+03  0.76035643480E+03  0.25500000920E-02 0. -1.
        2   -1    0    0  501    0  0.00000000000E+00  0.00000000000E+00 -0.18907396071E+04  0.18907396071E+04  0.25500000920E-02 0.  1.
    10030    2    1    2    0    0  0.00000000000E+00  0.00000000000E+00 -0.11303831723E+04  0.26510960419E+04  0.23980292131E+04 0.  0.
        3    1    3    3  502    0 -0.10108761469E+04 -0.22672039440E+03  0.10213480778E+03  0.10410111674E+04  0.10100000352E+00 0.  1.
       -3    1    3    3    0  502  0.10108761469E+04  0.22672039440E+03 -0.12325179800E+04  0.16100848744E+04  0.10100000352E+00 0. -1.
</event>
<event>
 5   0  0.5527286E-07  0.2400363E+04  0.7818609E-02  0.8439368E-01
        1   -1    0    0  501    0  0.00000000000E+00  0.00000000000E+00  0.29073839057E+04  0.29073839057E+04  0.50400001928E-02 0. -1.
       -1   -1    0    0    0  501  0.00000000000E+00  0.00000000000E+00 -0.49544045954E+03  0.49544045957E+03  0.50400001928E-02 0.  1.
    10030    2    1    2    0    0  0.00000000000E+00  0.00000000000E+00  0.24119434462E+04  0.34028243653E+04  0.24003629879E+04 0.  0.
        1    1    3    3  502    0 -0.89339300616E+03  0.23410291287E+03  0.22925456915E+04  0.24715826882E+04  0.50400001928E-02 0. -1.
       -1    1    3    3    0  502  0.89339300616E+03 -0.23410291287E+03  0.11939775472E+03  0.93124167708E+03  0.50400001928E-02 0.  1.
</event>
<event>
 5   0  0.5510176E-07  0.2399676E+04  0.7818609E-02  0.8439625E-01
        1   -1    0    0  501    0  0.00000000000E+00  0.00000000000E+00  0.16605915625E+04  0.16605915625E+04  0.50400001928E-02 0.  1.
       -1   -1    0    0    0  501  0.00000000000E+00  0.00000000000E+00 -0.86692641154E+03  0.86692641155E+03  0.50400001928E-02 0. -1.
    10030    2    1    2    0    0  0.00000000000E+00  0.00000000000E+00  0.79366515092E+03  0.25275179740E+04  0.23996755483E+04 0.  0.
        3    1    3    3  502    0 -0.11668931908E+04  0.20353871298E+02  0.10350606324E+03  0.11716516180E+04  0.10100000352E+00 0. -1.
       -3    1    3    3    0  502  0.11668931908E+04 -0.20353871298E+02  0.69015908768E+03  0.13558663560E+04  0.10100000352E+00 0.  1.
</event>
<event>
 5   0  0.5690124E-07  0.2401176E+04  0.7818609E-02  0.8439064E-01
        1   -1    0    0  501    0  0.00000000000E+00  0.00000000000E+00  0.17410491378E+04  0.17410491378E+04  0.50400001928E-02 0. -1.
       -1   -1    0    0    0  501  0.00000000000E+00  0.00000000000E+00 -0.82789798200E+03  0.82789798202E+03  0.50400001928E-02 0.  1.
    10030    2    1    2    0    0  0.00000000000E+00  0.00000000000E+00  0.91315115579E+03  0.25689471198E+04  0.24011756019E+04 0.  0.
        2    1    3    3  502    0 -0.92622077317E+03 -0.55601076317E+03 -0.10383461662E+03  0.10852716328E+04  0.25500000920E-02 0.  1.
       -2    1    3    3    0  502  0.92622077317E+03  0.55601076317E+03  0.10169857724E+04  0.14836754870E+04  0.25500000920E-02 0. -1.
</event>
<event>
 5   0  0.5690124E-07  0.2399982E+04  0.7818609E-02  0.8439510E-01
        1   -1    0    0  501    0  0.00000000000E+00  0.00000000000E+00  0.14408172549E+04  0.14408172549E+04  0.50400001928E-02 0. -1.
       -1   -1    0    0    0  501  0.00000000000E+00  0.00000000000E+00 -0.99941808951E+03  0.99941808952E+03  0.50400001928E-02 0.  1.
    10030    2    1    2    0    0  0.00000000000E+00  0.00000000000E+00  0.44139916542E+03  0.24402353445E+04  0.23999823568E+04 0.  0.
        2    1    3    3  502    0  0.74525885093E+03  0.86507909180E+03 -0.15455168110E+03  0.11522407787E+04  0.25500000920E-02 0.  1.
       -2    1    3    3    0  502 -0.74525885093E+03 -0.86507909180E+03  0.59595084652E+03  0.12879945658E+04  0.25500000920E-02 0. -1.
</event>
<event>
 5   0  0.1307477E-06  0.2399406E+04  0.7818609E-02  0.8439726E-01
       -2   -1    0    0    0  501  0.00000000000E+00  0.00000000000E+00  0.13968591882E+04  0.13968591882E+04  0.25500000920E-02 0. -1.
        2   -1    0    0  501    0  0.00000000000E+00  0.00000000000E+00 -0.10303739546E+04  0.10303739547E+04  0.25500000920E-02 0.  1.
    10030    2    1    2    0    0  0.00000000000E+00  0.00000000000E+00  0.36648523356E+03  0.24272331429E+04  0.23994060314E+04 0.  0.
        5    1    3    3  502    0  0.43770656865E+03  0.78113575042E+03  0.99094170208E+03  0.13355701583E+04  0.46999998093E+01 0. -1.
       -5    1    3    3    0  502 -0.43770656865E+03 -0.78113575042E+03 -0.62445646851E+03  0.10916629846E+04  0.46999998093E+01 0.  1.
</event>
<event>
 5   0  0.5452384E-07  0.2399538E+04  0.7818609E-02  0.8439677E-01
       -1   -1    0    0    0  501  0.00000000000E+00  0.00000000000E+00  0.91479847601E+03  0.91479847602E+03  0.50400001928E-02 0. -1.
        1   -1    0    0  501    0  0.00000000000E+00  0.00000000000E+00 -0.15735112250E+04  0.15735112250E+04  0.50400001928E-02 0.  1.
    10030    2    1    2    0    0  0.00000000000E+00  0.00000000000E+00 -0.65871274899E+03  0.24883097010E+04  0.23995380144E+04 0.  0.
        5    1    3    3  502    0  0.13735557924E+03 -0.96537674033E+03 -0.10542189060E+04  0.14360426170E+04  0.46999998093E+01 0.  1.
       -5    1    3    3    0  502 -0.13735557924E+03  0.96537674033E+03  0.39550615704E+03  0.10522670841E+04  0.46999998093E+01 0. -1.
</event>
<event>
 5   0  0.5510176E-07  0.2401370E+04  0.7818609E-02  0.8438991E-01
        1   -1    0    0  501    0  0.00000000000E+00  0.00000000000E+00  0.14275607245E+04  0.14275607245E+04  0.50400001928E-02 0. -1.
       -1   -1    0    0    0  501  0.00000000000E+00  0.00000000000E+00 -0.10098658263E+04  0.10098658263E+04  0.50400001928E-02 0.  1.
    10030    2    1    2    0    0  0.00000000000E+00  0.00000000000E+00  0.41769489816E+03  0.24374265508E+04  0.24013702677E+04 0.  0.
        3    1    3    3  502    0  0.72074884013E+02 -0.50018501565E+02  0.14243031391E+04  0.14270024813E+04  0.10100000352E+00 0. -1.
       -3    1    3    3    0  502 -0.72074884013E+02  0.50018501565E+02 -0.10066082409E+04  0.10104240695E+04  0.10100000352E+00 0.  1.
</event>
<event>
 5   0  0.5452384E-07  0.2400540E+04  0.7818609E-02  0.8439302E-01
       -1   -1    0    0    0  501  0.00000000000E+00  0.00000000000E+00  0.56832482931E+03  0.56832482933E+03  0.50400001928E-02 0.  1.
        1   -1    0    0  501    0  0.00000000000E+00  0.00000000000E+00 -0.25349019186E+04  0.25349019186E+04  0.50400001928E-02 0. -1.
    10030    2    1    2    0    0  0.00000000000E+00  0.00000000000E+00 -0.19665770893E+04  0.31032267479E+04  0.24005396895E+04 0.  0.
        5    1    3    3  502    0 -0.80435858298E+03 -0.54818343392E+03 -0.18910763904E+04  0.21268967562E+04  0.46999998093E+01 0. -1.
       -5    1    3    3    0  502  0.80435858298E+03  0.54818343392E+03 -0.75500698910E+02  0.97632999174E+03  0.46999998093E+01 0.  1.
</event>
<event>
 5   0  0.5527286E-07  0.2398942E+04  0.7818609E-02  0.8439900E-01
       -1   -1    0    0    0  501  0.00000000000E+00  0.00000000000E+00  0.12902522600E+04  0.12902522600E+04  0.50400001928E-02 0.  1.
        1   -1    0    0  501    0  0.00000000000E+00  0.00000000000E+00 -0.11150774607E+04  0.11150774607E+04  0.50400001928E-02 0. -1.
    10030    2    1    2    0    0  0.00000000000E+00  0.00000000000E+00  0.17517479935E+03  0.24053297207E+04  0.23989424451E+04 0.  0.
        1    1    3    3  502    0 -0.11520673393E+04  0.22934284221E+03  0.33087292260E+03  0.12203828024E+04  0.50400001928E-02 0. -1.
       -1    1    3    3    0  502  0.11520673393E+04 -0.22934284221E+03 -0.15569812325E+03  0.11849469183E+04  0.50400001928E-02 0.  1.
</event>
<event>
 5   0  0.1336057E-06  0.2399718E+04  0.7818609E-02  0.8439609E-01
       -2   -1    0    0    0  501  0.00000000000E+00  0.00000000000E+00  0.12945645642E+04  0.12945645642E+04  0.25500000920E-02 0. -1.
        2   -1    0    0  501    0  0.00000000000E+00  0.00000000000E+00 -0.11120812928E+04  0.11120812928E+04  0.25500000920E-02 0.  1.
    10030    2    1    2    0    0  0.00000000000E+00  0.00000000000E+00  0.18248327139E+03  0.24066458571E+04  0.23997175119E+04 0.  0.
        2    1    3    3  502    0  0.10341295186E+04  0.39520987765E+03 -0.37274551682E+03  0.11681412282E+04  0.25500000920E-02 0.  1.
       -2    1    3    3    0  502 -0.10341295186E+04 -0.39520987765E+03  0.55522878821E+03  0.12385046289E+04  0.25500000920E-02 0. -1.
</event>
<event>
 5   0  0.1275948E-06  0.2401859E+04  0.7818609E-02  0.8438808E-01
        2   -1    0    0  501    0  0.00000000000E+00  0.00000000000E+00  0.24172834678E+04  0.24172834678E+04  0.25500000920E-02 0. -1.
       -2   -1    0    0    0  501  0.00000000000E+00  0.00000000000E+00 -0.59663302692E+03  0.59663302693E+03  0.25500000920E-02 0.  1.
    10030    2    1    2    0    0  0.00000000000E+00  0.00000000000E+00  0.18206504409E+04  0.30139164947E+04  0.24018585740E+04 0.  0.
        1    1    3    3  502    0  0.11884301204E+04 -0.17246073662E+03  0.89644843147E+03  0.14985755393E+04  0.50400001928E-02 0.  1.
       -1    1    3    3    0  502 -0.11884301204E+04  0.17246073662E+03  0.92420200940E+03  0.15153409554E+04  0.50400001928E-02 0. -1.
</event>
<event>
 5   0  0.5452384E-07  0.2399687E+04  0.7818609E-02  0.8439621E-01
        1   -1    0    0  501    0  0.00000000000E+00  0.00000000000E+00  0.10124007106E+04  0.10124007107E+04  0.50400001928E-02 0. -1.
       -1   -1    0    0    0  501  0.00000000000E+00  0.00000000000E+00 -0.14219907554E+04  0.14219907554E+04  0.50400001928E-02 0.  1.
    10030    2    1    2    0    0  0.00000000000E+00  0.00000000000E+00 -0.40959004477E+03  0.24343914661E+04  0.23996870224E+04 0.  0.
        5    1    3    3  502    0  0.10350490609E+03 -0.10127888010E+04 -0.84891687994E+03  0.13255702094E+04  0.46999998093E+01 0.  1.
       -5    1    3    3    0  502 -0.10350490609E+03  0.10127888010E+04  0.43932683517E+03  0.11088212566E+04  0.46999998093E+01 0. -1.
</event>
<event>
 5   0  0.5690124E-07  0.2399880E+04  0.7818609E-02  0.8439549E-01
       -1   -1    0    0    0  501  0.00000000000E+00  0.00000000000E+00  0.10070885389E+04  0.10070885389E+04  0.50400001928E-02 0. -1.
        1   -1    0    0  501    0  0.00000000000E+00  0.00000000000E+00 -0.14297209766E+04  0.14297209766E+04  0.50400001928E-02 0.  1.
    10030    2    1    2    0    0  0.00000000000E+00  0.00000000000E+00 -0.42263243771E+03  0.24368095155E+04  0.23998796714E+04 0.  0.
        2    1    3    3  502    0 -0.11278283832E+03 -0.36316943640E+03  0.94428460451E+03  0.10179810521E+04  0.25500000920E-02 0. -1.
       -2    1    3    3    0  502  0.11278283832E+03  0.36316943640E+03 -0.13669170422E+04  0.14188284634E+04  0.25500000920E-02 0.  1.
</event>
<event>
 5   0  0.5510176E-07  0.2399848E+04  0.7818609E-02  0.8439560E-01
        1   -1    0    0  501    0  0.00000000000E+00  0.00000000000E+00  0.16192908709E+04  0.16192908709E+04  0.50400001928E-02 0.  1.
       -1   -1    0    0    0  501  0.00000000000E+00  0.00000000000E+00 -0.88916547705E+03  0.88916547707E+03  0.50400001928E-02 0. -1.
    10030    2    1    2    0    0  0.00000000000E+00  0.00000000000E+00  0.73012539388E+03  0.25084563480E+04  0.23998479450E+04 0.  0.
        3    1    3    3  502    0  0.62665676161E+03  0.69514326882E+03 -0.41985083523E+03  0.10257668327E+04  0.10100000352E+00 0. -1.
       -3    1    3    3    0  502 -0.62665676161E+03 -0.69514326882E+03  0.11499762291E+04  0.14826895153E+04  0.10100000352E+00 0.  1.
</event>
<event>
 5   0  0.1336057E-06  0.2402355E+04  0.7818609E-02  0.8438622E-01
       -2   -1    0    0    0  501  0.00000000000E+00  0.00000000000E+00  0.76336605344E+03  0.76336605344E+03  0.25500000920E-02 0.  1.
        2   -1    0    0  501    0  0.00000000000E+00  0.00000000000E+00 -0.18900860718E+04  0.18900860718E+04  0.25500000920E-02 0. -1.
    10030    2    1    2    0    0  0.00000000000E+00  0.00000000000E+00 -0.11267200184E+04  0.26534521252E+04  0.24023551322E+04 0.  0.
        2    1    3    3  502    0 -0.48770524667E+03  0.10622704948E+04 -0.86896034872E+03  0.14564913661E+04  0.25500000920E-02 0.  1.
       -2    1    3    3    0  502  0.48770524667E+03 -0.10622704948E+04 -0.25775966964E+03  0.11969607592E+04  0.25500000920E-02 0. -1.
</event>
<event>
 5   0  0.1275948E-06  0.2400871E+04  0.7818609E-02  0.8439178E-01
        2   -1    0    0  501    0  0.00000000000E+00  0.00000000000E+00  0.71703628880E+03  0.71703628881E+03  0.25500000920E-02 0.  1.
       -2   -1    0    0    0  501  0.00000000000E+00  0.00000000000E+00 -0.20097242403E+04  0.20097242403E+04  0.25500000920E-02 0. -1.
    10030    2    1    2    0    0  0.00000000000E+00  0.00000000000E+00 -0.12926879515E+04  0.27267605292E+04  0.24008708510E+04 0.  0.
        1    1    3    3  502    0 -0.27089284517E+03  0.11654666701E+04 -0.75616296856E+03  0.14154426614E+04  0.50400001928E-02 0. -1.
       -1    1    3    3    0  502  0.27089284517E+03 -0.11654666701E+04 -0.53652498298E+03  0.13113178677E+04  0.50400001928E-02 0.  1.
</event>
<event>
 5   0  0.5527286E-07  0.2397255E+04  0.7818609E-02  0.8440532E-01
        1   -1    0    0  501    0  0.00000000000E+00  0.00000000000E+00  0.15034156651E+04  0.15034156651E+04  0.50400001928E-02 0. -1.
       -1   -1    0    0    0  501  0.00000000000E+00  0.00000000000E+00 -0.95562889559E+03  0.95562889560E+03  0.50400001928E-02 0.  1.
    10030    2    1    2    0    0  0.00000000000E+00  0.00000000000E+00  0.54778676953E+03  0.24590445607E+04  0.23972546395E+04 0.  0.
        1    1    3    3  502    0 -0.60195019990E+02  0.41798032893E+03  0.14245812229E+04  0.14858541841E+04  0.50400001928E-02 0. -1.
       -1    1    3    3    0  502  0.60195019990E+02 -0.41798032893E+03 -0.87679445332E+03  0.97319037665E+03  0.50400001928E-02 0.  1.
</event>
<event>
 5   0  0.1336057E-06  0.2400152E+04  0.7818609E-02  0.8439447E-01
        2   -1    0    0  501    0  0.00000000000E+00  0.00000000000E+00  0.68893501999E+03  0.68893502000E+03  0.25500000920E-02 0.  1.
       -2   -1    0    0    0  501  0.00000000000E+00  0.00000000000E+00 -0.20904475545E+04  0.20904475545E+04  0.25500000920E-02 0. -1.
    10030    2    1    2    0    0  0.00000000000E+00  0.00000000000E+00 -0.14015125345E+04  0.27793825745E+04  0.24001521017E+04 0.  0.
        2    1    3    3  502    0  0.12600172591E+03  0.35130688150E+03  0.62002159576E+03  0.72368483412E+03  0.25500000920E-02 0.  1.
       -2    1    3    3    0  502 -0.12600172591E+03 -0.35130688150E+03 -0.20215341303E+04  0.20556977404E+04  0.25500000920E-02 0. -1.
</event>
<event>
 5   0  0.5363690E-07  0.2399984E+04  0.7818609E-02  0.8439509E-01
       -1   -1    0    0    0  501  0.00000000000E+00  0.00000000000E+00  0.10402831903E+04  0.10402831903E+04  0.50400001928E-02 0. -1.
        1   -1    0    0  501    0  0.00000000000E+00  0.00000000000E+00 -0.13842202178E+04  0.13842202178E+04  0.50400001928E-02 0.  1.
    10030    2    1    2    0    0  0.00000000000E+00  0.00000000000E+00 -0.34393702758E+03  0.24245034081E+04  0.23999841868E+04 0.  0.
        4    1    3    3  502    0  0.15709568863E+03 -0.13623063907E+03 -0.13658808731E+04  0.13816186213E+04  0.12699999809E+01 0.  1.
       -4    1    3    3    0  502 -0.15709568863E+03  0.13623063907E+03  0.10219438455E+04  0.10428847868E+04  0.12699999809E+01 0. -1.
</event>
<event>
 5   0  0.5510176E-07  0.2400056E+04  0.7818609E-02  0.8439483E-01
        1   -1    0    0  501    0  0.00000000000E+00  0.00000000000E+00  0.19246786029E+04  0.19246786029E+04  0.50400001928E-02 0. -1.
       -1   -1    0    0    0  501  0.00000000000E+00  0.00000000000E+00 -0.74821191480E+03  0.74821191481E+03  0.50400001928E-02 0.  1.
    10030    2    1    2    0    0  0.00000000000E+00  0.00000000000E+00  0.11764666881E+04  0.26728905178E+04  0.24000562184E+04 0.  0.
        3    1    3    3  502    0 -0.14097046206E+03 -0.10609402324E+04 -0.16239190717E+02  0.10703880462E+04  0.10100000352E+00 0.  1.
       -3    1    3    3    0  502  0.14097046206E+03  0.10609402324E+04  0.11927058789E+04  0.16025024716E+04  0.10100000352E+00 0. -1.
</event>
<event>
 5   0  0.1307477E-06  0.2401201E+04  0.7818609E-02  0.8439054E-01
        2   -1    0    0  501    0  0.00000000000E+00  0.00000000000E+00  0.23656115888E+04  0.23656115888E+04  0.25500000920E-02 0.  1.
       -2   -1    0    0    0  501  0.00000000000E+00  0.00000000000E+00 -0.60933154398E+03  0.60933154398E+03  0.25500000920E-02 0. -1.
    10030    2    1    2    0    0  0.00000000000E+00  0.00000000000E+00  0.17562800448E+04  0.29749431328E+04  0.24012011676E+04 0.  0.
        5    1    3    3  502    0 -0.39183823325E+03 -0.12974810248E+03 -0.51864986267E+03  0.66286615631E+03  0.46999998093E+01 0. -1.
       -5    1    3    3    0  502  0.39183823325E+03  0.12974810248E+03  0.22749299075E+04  0.23120769765E+04  0.46999998093E+01 0.  1.
</event>
<event>
 5   0  0.1336057E-06  0.2399669E+04  0.7818609E-02  0.8439628E-01
        2   -1    0    0  501    0  0.00000000000E+00  0.00000000000E+00  0.14076906959E+04  0.14076906959E+04  0.25500000920E-02 0. -1.
       -2   -1    0    0    0  501  0.00000000000E+00  0.00000000000E+00 -0.10226697364E+04  0.10226697364E+04  0.25500000920E-02 0.  1.
    10030    2    1    2    0    0  0.00000000000E+00  0.00000000000E+00  0.38502095955E+03  0.24303604323E+04  0.23996688713E+04 0.  0.
        2    1    3    3  502    0  0.10635011671E+04 -0.55446720502E+03  0.22661698351E+03  0.12205834142E+04  0.25500000920E-02 0. -1.
       -2    1    3    3    0  502 -0.10635011671E+04  0.55446720502E+03  0.15840397603E+03  0.12097770181E+04  0.25500000920E-02 0.  1.
</event>
<event>
 5   0  0.4483375E-07  0.2396940E+04  0.7818609E-02  0.8440650E-01
        3   -1    0    0  501    0  0.00000000000E+00  0.00000000000E+00  0.23929514949E+04  0.23929514971E+04  0.10100000352E+00 0.  1.
       -3   -1    0    0    0  501  0.00000000000E+00  0.00000000000E+00 -0.60023353483E+03  0.60023354333E+03  0.10100000352E+00 0. -1.
    10030    2    1    2    0    0  0.00000000000E+00  0.00000000000E+00  0.17927179601E+04  0.29931850404E+04  0.23969395073E+04 0.  0.
        4    1    3    3  502    0 -0.44755438614E+01 -0.40358317227E+03  0.23055303603E+04  0.23405920753E+04  0.12699999809E+01 0.  1.
       -4    1    3    3    0  502  0.44755438614E+01  0.40358317227E+03 -0.51281240022E+03  0.65259296515E+03  0.12699999809E+01 0. -1.
</event>
<event>
 5   0  0.5452384E-07  0.2400544E+04  0.7818609E-02  0.8439300E-01
       -1   -1    0    0    0  501  0.00000000000E+00  0.00000000000E+00  0.13401184248E+04  0.13401184248E+04  0.50400001928E-02 0.  1.
        1   -1    0    0  501    0  0.00000000000E+00  0.00000000000E+00 -0.10750194759E+04  0.10750194759E+04  0.50400001928E-02 0. -1.
    10030    2    1    2    0    0  0.00000000000E+00  0.00000000000E+00  0.26509894886E+03  0.24151379007E+04  0.24005444438E+04 0.  0.
        5    1    3    3  502    0  0.29270227157E+03 -0.10851588311E+04  0.55628325400E+03  0.12540803233E+04  0.46999998093E+01 0.  1.
       -5    1    3    3    0  502 -0.29270227157E+03  0.10851588311E+04 -0.29118430514E+03  0.11610575774E+04  0.46999998093E+01 0. -1.
</event>
<event>
 5   0  0.5690124E-07  0.2400460E+04  0.7818609E-02  0.8439332E-01
        1   -1    0    0  501    0  0.00000000000E+00  0.00000000000E+00  0.11253738848E+04  0.11253738848E+04  0.50400001928E-02 0. -1.
       -1   -1    0    0    0  501  0.00000000000E+00  0.00000000000E+00 -0.12800648937E+04  0.12800648937E+04  0.50400001928E-02 0.  1.
    10030    2    1    2    0    0  0.00000000000E+00  0.00000000000E+00 -0.15469100891E+03  0.24054387785E+04  0.24004596245E+04 0.  0.
        2    1    3    3  502    0 -0.40941719318E+03  0.10790957882E+04  0.25270289529E+03  0.11814943552E+04  0.25500000920E-02 0. -1.
       -2    1    3    3    0  502  0.40941719318E+03 -0.10790957882E+04 -0.40739390420E+03  0.12239444233E+04  0.25500000920E-02 0.  1.
</event>
<event>
 5   0  0.5527286E-07  0.2399823E+04  0.7818609E-02  0.8439570E-01
       -1   -1    0    0    0  501  0.00000000000E+00  0.00000000000E+00  0.10025019318E+04  0.10025019318E+04  0.50400001928E-02 0.  1.
        1   -1    0    0  501    0  0.00000000000E+00  0.00000000000E+00 -0.14361940375E+04  0.14361940375E+04  0.50400001928E-02 0. -1.
    10030    2    1    2    0    0  0.00000000000E+00  0.00000000000E+00 -0.43369210569E+03  0.24386959694E+04  0.23998227410E+04 0.  0.
        1    1    3    3  502    0 -0.93873994556E+03  0.52538120414E+03  0.32329870733E+03  0.11232898777E+04  0.50400001928E-02 0.  1.
       -1    1    3    3    0  502  0.93873994556E+03 -0.52538120414E+03 -0.75699081302E+03  0.13154060917E+04  0.50400001928E-02 0. -1.
</event>
<event>
 5   0  0.1336057E-06  0.2400217E+04  0.7818609E-02  0.8439422E-01
       -2   -1    0    0    0  501  0.00000000000E+00  0.00000000000E+00  0.11196697761E+04  0.11196697761E+04  0.25500000920E-02 0.  1.
        2   -1    0    0  501    0  0.00000000000E+00  0.00000000000E+00 -0.12863264268E+04  0.12863264268E+04  0.25500000920E-02 0. -1.
    10030    2    1    2    0    0  0.00000000000E+00  0.00000000000E+00 -0.16665665070E+03  0.24059962030E+04  0.24002173422E+04 0.  0.
        2    1    3    3  502    0  0.46360509601E+03  0.34260127694E+03 -0.11384572475E+04  0.12760839409E+04  0.25500000920E-02 0. -1.
       -2    1    3    3    0  502 -0.46360509601E+03 -0.34260127694E+03  0.97180059677E+03  0.11299122620E+04  0.25500000920E-02 0.  1.
</event>
<event>
 5   0  0.5527286E-07  0.2397804E+04  0.7818609E-02  0.8440326E-01
       -1   -1    0    0    0  501  0.00000000000E+00  0.00000000000E+00  0.12144484446E+04  0.12144484446E+04  0.50400001928E-02 0.  1.
        1   -1    0    0  501    0  0.00000000000E+00  0.00000000000E+00 -0.11835548496E+04  0.11835548496E+04  0.50400001928E-02 0. -1.
    10030    2    1    2    0    0  0.00000000000E+00  0.00000000000E+00  0.30893594982E+02  0.23980032943E+04  0.23978042842E+04 0.  0.
        1    1    3    3  502    0 -0.67481314573E+03 -0.10965784084E+03  0.10003984399E+04  0.12116908278E+04  0.50400001928E-02 0. -1.
       -1    1    3    3    0  502  0.67481314573E+03  0.10965784084E+03 -0.96950484490E+03  0.11863124664E+04  0.50400001928E-02 0.  1.
</event>
<event>
 5   0  0.1307477E-06  0.2400374E+04  0.7818609E-02  0.8439363E-01
       -2   -1    0    0    0  501  0.00000000000E+00  0.00000000000E+00  0.11327453311E+04  0.11327453311E+04  0.25500000920E-02 0.  1.
        2   -1    0    0  501    0  0.00000000000E+00  0.00000000000E+00 -0.12716444987E+04  0.12716444987E+04  0.25500000920E-02 0. -1.
    10030    2    1    2    0    0  0.00000000000E+00  0.00000000000E+00 -0.13889916760E+03  0.24043898299E+04  0.24003744448E+04 0.  0.
        5    1    3    3  502    0  0.56119494956E+03 -0.32673347753E+03 -0.10804609081E+04  0.12606000162E+04  0.46999998093E+01 0. -1.
       -5    1    3    3    0  502 -0.56119494956E+03  0.32673347753E+03  0.94156174052E+03  0.11437898137E+04  0.46999998093E+01 0.  1.
</event>
<event>
 5   0  0.5510176E-07  0.2399850E+04  0.7818609E-02  0.8439560E-01
        1   -1    0    0  501    0  0.00000000000E+00  0.00000000000E+00  0.17112869707E+04  0.17112869707E+04  0.50400001928E-02 0. -1.
       -1   -1    0    0    0  501  0.00000000000E+00  0.00000000000E+00 -0.84136692901E+03  0.84136692902E+03  0.50400001928E-02 0.  1.
    10030    2    1    2    0    0  0.00000000000E+00  0.00000000000E+00  0.86992004169E+03  0.25526538997E+04  0.23998502147E+04 0.  0.
        3    1    3    3  502    0 -0.49591790998E+03  0.89302905752E+03  0.11046384115E+04  0.15045469422E+04  0.10100000352E+00 0. -1.
       -3    1    3    3    0  502  0.49591790998E+03 -0.89302905752E+03 -0.23471836982E+03  0.10481069575E+04  0.10100000352E+00 0.  1.
</event>
<event>
 5   0  0.4483375E-07  0.2399550E+04  0.7818609E-02  0.8439672E-01
        3   -1    0    0  501    0  0.00000000000E+00  0.00000000000E+00  0.18927717778E+04  0.18927717805E+04  0.10100000352E+00 0.  1.
       -3   -1    0    0    0  501  0.00000000000E+00  0.00000000000E+00 -0.76050392516E+03  0.76050393187E+03  0.10100000352E+00 0. -1.
    10030    2    1    2    0    0  0.00000000000E+00  0.00000000000E+00  0.11322678526E+04  0.26532757124E+04  0.23995502736E+04 0.  0.
        2    1    3    3  502    0 -0.95323648017E+03  0.11993887557E+03  0.13607403303E+04  0.16657308809E+04  0.25500000920E-02 0.  1.
       -2    1    3    3    0  502  0.95323648017E+03 -0.11993887557E+03 -0.22847247772E+03  0.98754483143E+03  0.25500000920E-02 0. -1.
</event>
<event>
 5   0  0.5452384E-07  0.2399948E+04  0.7818609E-02  0.8439523E-01
        1   -1    0    0  501    0  0.00000000000E+00  0.00000000000E+00  0.16977112516E+04  0.16977112516E+04  0.50400001928E-02 0. -1.
       -1   -1    0    0    0  501  0.00000000000E+00  0.00000000000E+00 -0.84816372530E+03  0.84816372532E+03  0.50400001928E-02 0.  1.
    10030    2    1    2    0    0  0.00000000000E+00  0.00000000000E+00  0.84954752626E+03  0.25458749769E+04  0.23999475825E+04 0.  0.
        5    1    3    3  502    0 -0.45792794799E+03  0.59331698163E+03  0.14188736980E+04  0.16046643596E+04  0.46999998093E+01 0.  1.
       -5    1    3    3    0  502  0.45792794799E+03 -0.59331698163E+03 -0.56932617172E+03  0.94121061726E+03  0.46999998093E+01 0. -1.
</event>
<event>
 5   0  0.1336057E-06  0.2400066E+04  0.7818609E-02  0.8439479E-01
       -2   -1    0    0    0  501  0.00000000000E+00  0.00000000000E+00  0.13969266342E+04  0.13969266342E+04  0.25500000920E-02 0. -1.
        2   -1    0    0  501    0  0.00000000000E+00  0.00000000000E+00 -0.10308909352E+04  0.10308909352E+04  0.25500000920E-02 0.  1.
    10030    2    1    2    0    0  0.00000000000E+00  0.00000000000E+00  0.36603569899E+03  0.24278175695E+04  0.24000658361E+04 0.  0.
        2    1    3    3  502    0 -0.28646484327E+03  0.43916521046E+03  0.12749206171E+04  0.13785321064E+04  0.25500000920E-02 0. -1.
       -2    1    3    3    0  502  0.28646484327E+03 -0.43916521046E+03 -0.90888491814E+03  0.10492854630E+04  0.25500000920E-02 0.  1.
</event>
<event>
 5   0  0.4483375E-07  0.2393057E+04  0.7818609E-02  0.8442108E-01
        3   -1    0    0  501    0  0.00000000000E+00  0.00000000000E+00  0.15242708304E+04  0.15242708338E+04  0.10100000352E+00 0. -1.
       -3   -1    0    0    0  501  0.00000000000E+00  0.00000000000E+00 -0.93925556630E+03  0.93925557173E+03  0.10100000352E+00 0.  1.
    10030    2    1    2    0    0  0.00000000000E+00  0.00000000000E+00  0.58501526412E+03  0.24635264055E+04  0.23930565165E+04 0.  0.
        4    1    3    3  502    0 -0.54437986635E+03 -0.56636333913E+03  0.12216155825E+04  0.14523990895E+04  0.12699999809E+01 0. -1.
       -4    1    3    3    0  502  0.54437986635E+03  0.56636333913E+03 -0.63660031842E+03  0.10111273160E+04  0.12699999809E+01 0.  1.
</event>
<event>
 5   0  0.5527286E-07  0.2398897E+04  0.7818609E-02  0.8439917E-01
       -1   -1    0    0    0  501  0.00000000000E+00  0.00000000000E+00  0.11121926537E+04  0.11121926537E+04  0.50400001928E-02 0. -1.
        1   -1    0    0  501    0  0.00000000000E+00  0.00000000000E+00 -0.12935496420E+04  0.12935496420E+04  0.50400001928E-02 0.  1.
    10030    2    1    2    0    0  0.00000000000E+00  0.00000000000E+00 -0.18135698831E+03  0.24057422958E+04  0.23988967540E+04 0.  0.
        1    1    3    3  502    0 -0.40594107250E+03 -0.11029341641E+04 -0.33099638247E+03  0.12209875224E+04  0.50400001928E-02 0.  1.
       -1    1    3    3    0  502  0.40594107250E+03  0.11029341641E+04  0.14963939416E+03  0.11847547734E+04  0.50400001928E-02 0. -1.
</event>
<event>
 5   0  0.1336057E-06  0.2400233E+04  0.7818609E-02  0.8439416E-01
        2   -1    0    0  501    0  0.00000000000E+00  0.00000000000E+00  0.19307133945E+04  0.19307133945E+04  0.25500000920E-02 0. -1.
       -2   -1    0    0    0  501  0.00000000000E+00  0.00000000000E+00 -0.74598307549E+03  0.74598307550E+03  0.25500000920E-02 0.  1.
    10030    2    1    2    0    0  0.00000000000E+00  0.00000000000E+00  0.11847303190E+04  0.26766964700E+04  0.24002329186E+04 0.  0.
        2    1    3    3  502    0 -0.41628678672E+03 -0.61072191735E+03  0.16467893581E+04  0.18050460213E+04  0.25500000920E-02 0. -1.
       -2    1    3    3    0  502  0.41628678672E+03  0.61072191735E+03 -0.46205903907E+03  0.87165044870E+03  0.25500000920E-02 0.  1.
</event>
<event>
 5   0  0.5690124E-07  0.2400005E+04  0.7818609E-02  0.8439502E-01
        1   -1    0    0  501    0  0.00000000000E+00  0.00000000000E+00  0.78566187548E+03  0.78566187550E+03  0.50400001928E-02 0.  1.
       -1   -1    0    0    0  501  0.00000000000E+00  0.00000000000E+00 -0.18328567739E+04  0.18328567739E+04  0.50400001928E-02 0. -1.
    10030    2    1    2    0    0  0.00000000000E+00  0.00000000000E+00 -0.10471948984E+04  0.26185186494E+04  0.24000047421E+04 0.  0.
        2    1    3    3  502    0 -0.42897911284E+03  0.64317863545E+03 -0.15249291498E+04  0.17097107207E+04  0.25500000920E-02 0. -1.
       -2    1    3    3    0  502  0.42897911284E+03 -0.64317863545E+03  0.47773425142E+03  0.90880792874E+03  0.25500000920E-02 0.  1.
</event>
<event>
 5   0  0.5690124E-07  0.2400000E+04  0.7818609E-02  0.8439503E-01
       -1   -1    0    0    0  501  0.00000000000E+00  0.00000000000E+00  0.81923417535E+03  0.81923417536E+03  0.50400001928E-02 0. -1.
        1   -1    0    0  501    0  0.00000000000E+00  0.00000000000E+00 -0.17577396704E+04  0.17577396704E+04  0.50400001928E-02 0.  1.
    10030    2    1    2    0    0  0.00000000000E+00  0.00000000000E+00 -0.93850549506E+03  0.25769738458E+04  0.24000003412E+04 0.  0.
        2    1    3    3  502    0 -0.64472059166E+03 -0.49750181151E+03  0.47711746748E+03  0.94382931272E+03  0.25500000920E-02 0. -1.
       -2    1    3    3    0  502  0.64472059166E+03  0.49750181151E+03 -0.14156229625E+04  0.16331445331E+04  0.25500000920E-02 0.  1.
</event>
<event>
 5   0  0.5363690E-07  0.2400247E+04  0.7818609E-02  0.8439411E-01
       -1   -1    0    0    0  501  0.00000000000E+00  0.00000000000E+00  0.56023597255E+03  0.56023597257E+03  0.50400001928E-02 0. -1.
        1   -1    0    0  501    0  0.00000000000E+00  0.00000000000E+00 -0.25708743560E+04  0.25708743560E+04  0.50400001928E-02 0.  1.
    10030    2    1    2    0    0  0.00000000000E+00  0.00000000000E+00 -0.20106383835E+04  0.31311103286E+04  0.24002469000E+04 0.  0.
        4    1    3    3  502    0 -0.82085569286E+03 -0.77055210183E+03 -0.46314479903E+03  0.12173985904E+04  0.12699999809E+01 0. -1.
       -4    1    3    3    0  502  0.82085569286E+03  0.77055210183E+03 -0.15474935845E+04  0.19137117382E+04  0.12699999809E+01 0.  1.
</event>
<event>
 5   0  0.5363690E-07  0.2399843E+04  0.7818609E-02  0.8439562E-01
       -1   -1    0    0    0  501  0.00000000000E+00  0.00000000000E+00  0.83641039460E+03  0.83641039461E+03  0.50400001928E-02 0.  1.
        1   -1    0    0  501    0  0.00000000000E+00  0.00000000000E+00 -0.17214180278E+04  0.17214180278E+04  0.50400001928E-02 0. -1.
    10030    2    1    2    0    0  0.00000000000E+00  0.00000000000E+00 -0.88500763324E+03  0.25578284225E+04  0.23998432715E+04 0.  0.
        4    1    3    3  502    0 -0.22200943136E+03  0.10134718070E+04  0.20000518201E+03  0.10566063491E+04  0.12699999809E+01 0.  1.
       -4    1    3    3    0  502  0.22200943136E+03 -0.10134718070E+04 -0.10850128153E+04  0.15012220733E+04  0.12699999809E+01 0. -1.
</event>
<event>
 5   0  0.5452384E-07  0.2399777E+04  0.7818609E-02  0.8439587E-01
       -1   -1    0    0    0  501  0.00000000000E+00  0.00000000000E+00  0.12511258226E+04  0.12511258226E+04  0.50400001928E-02 0. -1.
        1   -1    0    0  501    0  0.00000000000E+00  0.00000000000E+00 -0.11507499250E+04  0.11507499250E+04  0.50400001928E-02 0.  1.
    10030    2    1    2    0    0  0.00000000000E+00  0.00000000000E+00  0.10037589761E+03  0.24018757476E+04  0.23997774452E+04 0.  0.
        5    1    3    3  502    0  0.10396264075E+04  0.20380569202E+03  0.61401969563E+03  0.12245007570E+04  0.46999998093E+01 0.  1.
       -5    1    3    3    0  502 -0.10396264075E+04 -0.20380569202E+03 -0.51364379802E+03  0.11773749906E+04  0.46999998093E+01 0. -1.
</event>
<event>
 5   0  0.5510176E-07  0.2400672E+04  0.7818609E-02  0.8439252E-01
        1   -1    0    0  501    0  0.00000000000E+00  0.00000000000E+00  0.94175361540E+03  0.94175361541E+03  0.50400001928E-02 0.  1.
       -1   -1    0    0    0  501  0.00000000000E+00  0.00000000000E+00 -0.15299193533E+04  0.15299193533E+04  0.50400001928E-02 0. -1.
    10030    2    1    2    0    0  0.00000000000E+00  0.00000000000E+00 -0.58816573787E+03  0.24716729687E+04  0.24006724743E+04 0.  0.
        3    1    3    3  502    0  0.71334027818E+03 -0.85264516495E+03  0.17201909799E+03  0.11249216462E+04  0.10100000352E+00 0.  1.
       -3    1    3    3    0  502 -0.71334027818E+03  0.85264516495E+03 -0.76018483585E+03  0.13467513225E+04  0.10100000352E+00 0. -1.
</event>
<event>
 5   0  0.1307477E-06  0.2402464E+04  0.7818609E-02  0.8438582E-01
        2   -1    0    0  501    0  0.00000000000E+00  0.00000000000E+00  0.18618965421E+04  0.18618965421E+04  0.25500000920E-02 0. -1.
       -2   -1    0    0    0  501  0.00000000000E+00  0.00000000000E+00 -0.77499402166E+03  0.77499402166E+03  0.25500000920E-02 0.  1.
    10030    2    1    2    0    0  0.00000000000E+00  0.00000000000E+00  0.10869025205E+04  0.26368905638E+04  0.24024643091E+04 0.  0.
        5    1    3    3  502    0 -0.10141302495E+04  0.45050580268E+03  0.10482425632E+04  0.15265157066E+04  0.46999998093E+01 0. -1.
       -5    1    3    3    0  502  0.10141302495E+04 -0.45050580268E+03  0.38659957281E+02  0.11103748572E+04  0.46999998093E+01 0.  1.
</event>
<event>
 5   0  0.5452384E-07  0.2400910E+04  0.7818609E-02  0.8439163E-01
       -1   -1    0    0    0  501  0.00000000000E+00  0.00000000000E+00  0.12866635524E+04  0.12866635525E+04  0.50400001928E-02 0. -1.
        1   -1    0    0  501    0  0.00000000000E+00  0.00000000000E+00 -0.11200226438E+04  0.11200226438E+04  0.50400001928E-02 0.  1.
    10030    2    1    2    0    0  0.00000000000E+00  0.00000000000E+00  0.16664090867E+03  0.24066861962E+04  0.24009100888E+04 0.  0.
        5    1    3    3  502    0  0.88406009336E+03  0.25805741312E+03 -0.68854134928E+03  0.11498987594E+04  0.46999998093E+01 0.  1.
       -5    1    3    3    0  502 -0.88406009336E+03 -0.25805741312E+03  0.85518225796E+03  0.12567874369E+04  0.46999998093E+01 0. -1.
</event>
<event>
 5   0  0.1275948E-06  0.2399107E+04  0.7818609E-02  0.8439838E-01
       -2   -1    0    0    0  501  0.00000000000E+00  0.00000000000E+00  0.77677365009E+03  0.77677365010E+03  0.25500000920E-02 0.  1.
        2   -1    0    0  501    0  0.00000000000E+00  0.00000000000E+00 -0.18524427536E+04  0.18524427536E+04  0.25500000920E-02 0. -1.
    10030    2    1    2    0    0  0.00000000000E+00  0.00000000000E+00 -0.10756691035E+04  0.26292164037E+04  0.23991071000E+04 0.  0.
        1    1    3    3  502    0  0.10297743912E+04  0.52446229500E+03 -0.18537792711E+03  0.11704105995E+04  0.50400001928E-02 0. -1.
       -1    1    3    3    0  502 -0.10297743912E+04 -0.52446229500E+03 -0.89029117640E+03  0.14588058042E+04  0.50400001928E-02 0.  1.
</event>
<event>
 5   0  0.5510176E-07  0.2400008E+04  0.7818609E-02  0.8439501E-01
       -1   -1    0    0    0  501  0.00000000000E+00  0.00000000000E+00  0.10020453797E+04  0.10020453797E+04  0.50400001928E-02 0. -1.
        1   -1    0    0  501    0  0.00000000000E+00  0.00000000000E+00 -0.14370700633E+04  0.14370700633E+04  0.50400001928E-02 0.  1.
    10030    2    1    2    0    0  0.00000000000E+00  0.00000000000E+00 -0.43502468356E+03  0.24391154431E+04  0.24000078477E+04 0.  0.
        3    1    3    3  502    0 -0.18088100941E+03 -0.36377627385E+03 -0.13650519453E+04  0.14242253826E+04  0.10100000352E+00 0.  1.
       -3    1    3    3    0  502  0.18088100941E+03  0.36377627385E+03  0.93002726173E+03  0.10148900604E+04  0.10100000352E+00 0. -1.
</event>
<event>
 5   0  0.5363690E-07  0.2400823E+04  0.7818609E-02  0.8439195E-01
        1   -1    0    0  501    0  0.00000000000E+00  0.00000000000E+00  0.11174635422E+04  0.11174635422E+04  0.50400001928E-02 0. -1.
       -1   -1    0    0    0  501  0.00000000000E+00  0.00000000000E+00 -0.12895169692E+04  0.12895169692E+04  0.50400001928E-02 0.  1.
    10030    2    1    2    0    0  0.00000000000E+00  0.00000000000E+00 -0.17205342702E+03  0.24069805115E+04  0.24008233589E+04 0.  0.
        4    1    3    3  502    0 -0.60962202216E+03 -0.10340350665E+04 -0.75087333077E+02  0.12027082976E+04  0.12699999809E+01 0. -1.
       -4    1    3    3    0  502  0.60962202216E+03  0.10340350665E+04 -0.96966093945E+02  0.12042722138E+04  0.12699999809E+01 0.  1.
</event>
<event>
 5   0  0.1275948E-06  0.2399338E+04  0.7818609E-02  0.8439751E-01
       -2   -1    0    0    0  501  0.00000000000E+00  0.00000000000E+00  0.52036495525E+03  0.52036495525E+03  0.25500000920E-02 0.  1.
        2   -1    0    0  501    0  0.00000000000E+00  0.00000000000E+00 -0.27657625108E+04  0.27657625108E+04  0.25500000920E-02 0. -1.
    10030    2    1    2    0    0  0.00000000000E+00  0.00000000000E+00 -0.22453975555E+04  0.32861274660E+04  0.23993381464E+04 0.  0.
        1    1    3    3  502    0  0.91005886276E+03  0.32158997784E+03 -0.14693517486E+03  0.97632842485E+03  0.50400001928E-02 0.  1.
       -1    1    3    3    0  502 -0.91005886276E+03 -0.32158997784E+03 -0.20984623807E+04  0.23097990412E+04  0.50400001928E-02 0. -1.
</event>
<event>
 5   0  0.1308662E-06  0.2400251E+04  0.7818609E-02  0.8439410E-01
       -2   -1    0    0    0  501  0.00000000000E+00  0.00000000000E+00  0.74946724643E+03  0.74946724643E+03  0.25500000920E-02 0. -1.
        2   -1    0    0  501    0  0.00000000000E+00  0.00000000000E+00 -0.19217663113E+04  0.19217663113E+04  0.25500000920E-02 0.  1.
    10030    2    1    2    0    0  0.00000000000E+00  0.00000000000E+00 -0.11722990648E+04  0.26712335577E+04  0.24002507416E+04 0.  0.
        3    1    3    3  502    0 -0.16654702989E+03 -0.11829088427E+04 -0.71444521890E+03  0.13919206961E+04  0.10100000352E+00 0.  1.
       -3    1    3    3    0  502  0.16654702989E+03  0.11829088427E+04 -0.45785384593E+03  0.12793128616E+04  0.10100000352E+00 0. -1.
</event>
<event>
 5   0  0.1275948E-06  0.2399999E+04  0.7818609E-02  0.8439504E-01
       -2   -1    0    0    0  501  0.00000000000E+00  0.00000000000E+00  0.85316211316E+03  0.85316211316E+03  0.25500000920E-02 0. -1.
        2   -1    0    0  501    0  0.00000000000E+00  0.00000000000E+00 -0.16878368217E+04  0.16878368217E+04  0.25500000920E-02 0.  1.
    10030    2    1    2    0    0  0.00000000000E+00  0.00000000000E+00 -0.83467470853E+03  0.25409989349E+04  0.23999986912E+04 0.  0.
        1    1    3    3  502    0 -0.34421212353E+03 -0.11433736238E+04 -0.29111408917E+03  0.12290372828E+04  0.50400001928E-02 0. -1.
       -1    1    3    3    0  502  0.34421212353E+03  0.11433736238E+04 -0.54356061936E+03  0.13119616521E+04  0.50400001928E-02 0.  1.
</event>
<event>
 5   0  0.1308662E-06  0.2397322E+04  0.7818609E-02  0.8440507E-01
        2   -1    0    0  501    0  0.00000000000E+00  0.00000000000E+00  0.78882929407E+03  0.78882929407E+03  0.25500000920E-02 0.  1.
       -2   -1    0    0    0  501  0.00000000000E+00  0.00000000000E+00 -0.18214177517E+04  0.18214177517E+04  0.25500000920E-02 0. -1.
    10030    2    1    2    0    0  0.00000000000E+00  0.00000000000E+00 -0.10325884576E+04  0.26102470457E+04  0.23973215715E+04 0.  0.
        3    1    3    3  502    0  0.32873187349E+03 -0.96332203121E+03  0.17296604246E+03  0.10324588333E+04  0.10100000352E+00 0.  1.
       -3    1    3    3    0  502 -0.32873187349E+03  0.96332203121E+03 -0.12055545001E+04  0.15777882124E+04  0.10100000352E+00 0. -1.
</event>
<event>
 5   0  0.1336057E-06  0.2400214E+04  0.7818609E-02  0.8439424E-01
       -2   -1    0    0    0  501  0.00000000000E+00  0.00000000000E+00  0.13679005281E+04  0.13679005281E+04  0.25500000920E-02 0.  1.
        2   -1    0    0  501    0  0.00000000000E+00  0.00000000000E+00 -0.10528956132E+04  0.10528956132E+04  0.25500000920E-02 0. -1.
    10030    2    1    2    0    0  0.00000000000E+00  0.00000000000E+00  0.31500491484E+03  0.24207961413E+04  0.24002137116E+04 0.  0.
        2    1    3    3  502    0  0.50074453380E+03 -0.90951146927E+03  0.76457785304E+03  0.12893934598E+04  0.25500000920E-02 0.  1.
       -2    1    3    3    0  502 -0.50074453380E+03  0.90951146927E+03 -0.44957293820E+03  0.11314026815E+04  0.25500000920E-02 0. -1.
</event>
<event>
 5   0  0.1275948E-06  0.2398939E+04  0.7818609E-02  0.8439901E-01
       -2   -1    0    0    0  501  0.00000000000E+00  0.00000000000E+00  0.77627158487E+03  0.77627158487E+03  0.25500000920E-02 0.  1.
        2   -1    0    0  501    0  0.00000000000E+00  0.00000000000E+00 -0.18533814768E+04  0.18533814768E+04  0.25500000920E-02 0. -1.
    10030    2    1    2    0    0  0.00000000000E+00  0.00000000000E+00 -0.10771098919E+04  0.26296530616E+04  0.23989392459E+04 0.  0.
        1    1    3    3  502    0 -0.61332982034E+03  0.99570230978E+03 -0.83090831763E+03  0.14345749163E+04  0.50400001928E-02 0.  1.
       -1    1    3    3    0  502  0.61332982034E+03 -0.99570230978E+03 -0.24620157426E+03  0.11950781453E+04  0.50400001928E-02 0. -1.
</event>
<event>
 5   0  0.5452384E-07  0.2399026E+04  0.7818609E-02  0.8439868E-01
       -1   -1    0    0    0  501  0.00000000000E+00  0.00000000000E+00  0.85682026981E+03  0.85682026982E+03  0.50400001928E-02 0. -1.
        1   -1    0    0  501    0  0.00000000000E+00  0.00000000000E+00 -0.16792681221E+04  0.16792681221E+04  0.50400001928E-02 0.  1.
    10030    2    1    2    0    0  0.00000000000E+00  0.00000000000E+00 -0.82244785232E+03  0.25360883920E+04  0.23990256068E+04 0.  0.
        5    1    3    3  502    0  0.36070218673E+03  0.92704501923E+03  0.29736285035E+03  0.10382510727E+04  0.46999998093E+01 0. -1.
       -5    1    3    3    0  502 -0.36070218673E+03 -0.92704501923E+03 -0.11198107027E+04  0.14978373193E+04  0.46999998093E+01 0.  1.
</event>
<event>
 5   0  0.5452384E-07  0.2399979E+04  0.7818609E-02  0.8439511E-01
        1   -1    0    0  501    0  0.00000000000E+00  0.00000000000E+00  0.21244630176E+04  0.21244630176E+04  0.50400001928E-02 0. -1.
       -1   -1    0    0    0  501  0.00000000000E+00  0.00000000000E+00 -0.67780661738E+03  0.67780661740E+03  0.50400001928E-02 0.  1.
    10030    2    1    2    0    0  0.00000000000E+00  0.00000000000E+00  0.14466564002E+04  0.28022696350E+04  0.23999792430E+04 0.  0.
        5    1    3    3  502    0  0.69661860552E+03 -0.85587169547E+02  0.18597976004E+04  0.19878309409E+04  0.46999998093E+01 0. -1.
       -5    1    3    3    0  502 -0.69661860552E+03  0.85587169547E+02 -0.41314120019E+03  0.81443869410E+03  0.46999998093E+01 0.  1.
</event>
<event>
 5   0  0.1336057E-06  0.2399033E+04  0.7818609E-02  0.8439866E-01
       -2   -1    0    0    0  501  0.00000000000E+00  0.00000000000E+00  0.69278231714E+03  0.69278231714E+03  0.25500000920E-02 0. -1.
        2   -1    0    0  501    0  0.00000000000E+00  0.00000000000E+00 -0.20769011098E+04  0.20769011098E+04  0.25500000920E-02 0.  1.
    10030    2    1    2    0    0  0.00000000000E+00  0.00000000000E+00 -0.13841187927E+04  0.27696834270E+04  0.23990334415E+04 0.  0.
        2    1    3    3  502    0  0.38453768307E+03 -0.11237421081E+04 -0.49827254170E+03  0.12879988669E+04  0.25500000920E-02 0.  1.
       -2    1    3    3    0  502 -0.38453768307E+03  0.11237421081E+04 -0.88584625099E+03  0.14816845601E+04  0.25500000920E-02 0. -1.
</event>
<event>
 5   0  0.5510176E-07  0.2400702E+04  0.7818609E-02  0.8439241E-01
       -1   -1    0    0    0  501  0.00000000000E+00  0.00000000000E+00  0.13189033216E+04  0.13189033216E+04  0.50400001928E-02 0.  1.
        1   -1    0    0  501    0  0.00000000000E+00  0.00000000000E+00 -0.10924550234E+04  0.10924550234E+04  0.50400001928E-02 0. -1.
    10030    2    1    2    0    0  0.00000000000E+00  0.00000000000E+00  0.22644829824E+03  0.24113583450E+04  0.24007020299E+04 0.  0.
        3    1    3    3  502    0  0.61968748332E+03  0.10207684816E+04 -0.92254683520E+01  0.11941800490E+04  0.10100000352E+00 0. -1.
       -3    1    3    3    0  502 -0.61968748332E+03 -0.10207684816E+04  0.23567376659E+03  0.12171782961E+04  0.10100000352E+00 0.  1.
</event>
<event>
 5   0  0.5452384E-07  0.2398668E+04  0.7818609E-02  0.8440002E-01
        1   -1    0    0  501    0  0.00000000000E+00  0.00000000000E+00  0.12226131514E+04  0.12226131515E+04  0.50400001928E-02 0.  1.
       -1   -1    0    0    0  501  0.00000000000E+00  0.00000000000E+00 -0.11764980175E+04  0.11764980175E+04  0.50400001928E-02 0. -1.
    10030    2    1    2    0    0  0.00000000000E+00  0.00000000000E+00  0.46115133913E+02  0.23991111690E+04  0.23986679211E+04 0.  0.
        5    1    3    3  502    0  0.91371341020E+03 -0.77684964671E+03  0.19551303242E+02  0.11994881879E+04  0.46999998093E+01 0.  1.
       -5    1    3    3    0  502 -0.91371341020E+03  0.77684964671E+03  0.26563830671E+02  0.11996229811E+04  0.46999998093E+01 0. -1.
</event>
<event>
 5   0  0.4483375E-07  0.2399168E+04  0.7818609E-02  0.8439815E-01
       -4   -1    0    0    0  501  0.00000000000E+00  0.00000000000E+00  0.67724217944E+03  0.67724337022E+03  0.12699999809E+01 0.  1.
        4   -1    0    0  501    0  0.00000000000E+00  0.00000000000E+00 -0.21247936769E+04  0.21247940564E+04  0.12699999809E+01 0. -1.
    10030    2    1    2    0    0  0.00000000000E+00  0.00000000000E+00 -0.14475514974E+04  0.28020374266E+04  0.23991682731E+04 0.  0.
        2    1    3    3  502    0 -0.48708835392E+02  0.10288581008E+04 -0.14419095937E+04  0.17720115176E+04  0.25500000920E-02 0. -1.
       -2    1    3    3    0  502  0.48708835392E+02 -0.10288581008E+04 -0.56419037213E+01  0.10300259090E+04  0.25500000920E-02 0.  1.
</event>
<event>
 5   0  0.1308662E-06  0.2399657E+04  0.7818609E-02  0.8439632E-01
       -2   -1    0    0    0  501  0.00000000000E+00  0.00000000000E+00  0.65655463512E+03  0.65655463513E+03  0.25500000920E-02 0.  1.
        2   -1    0    0  501    0  0.00000000000E+00  0.00000000000E+00 -0.21926402848E+04  0.21926402848E+04  0.25500000920E-02 0. -1.
    10030    2    1    2    0    0  0.00000000000E+00  0.00000000000E+00 -0.15360856497E+04  0.28491949199E+04  0.23996567606E+04 0.  0.
        3    1    3    3  502    0 -0.11393553060E+04  0.36819019904E+03 -0.67689145192E+03  0.13754550461E+04  0.10100000352E+00 0.  1.
       -3    1    3    3    0  502  0.11393553060E+04 -0.36819019904E+03 -0.85919419774E+03  0.14737398738E+04  0.10100000352E+00 0. -1.
</event>
<event>
 5   0  0.5452384E-07  0.2400317E+04  0.7818609E-02  0.8439385E-01
        1   -1    0    0  501    0  0.00000000000E+00  0.00000000000E+00  0.14634914869E+04  0.14634914869E+04  0.50400001928E-02 0. -1.
       -1   -1    0    0    0  501  0.00000000000E+00  0.00000000000E+00 -0.98420863593E+03  0.98420863594E+03  0.50400001928E-02 0.  1.
    10030    2    1    2    0    0  0.00000000000E+00  0.00000000000E+00  0.47928285099E+03  0.24477001229E+04  0.24003174457E+04 0.  0.
        5    1    3    3  502    0  0.30044217855E+03 -0.94627480063E+03 -0.44795188887E+03  0.10892127826E+04  0.46999998093E+01 0.  1.
       -5    1    3    3    0  502 -0.30044217855E+03  0.94627480063E+03  0.92723473987E+03  0.13584873403E+04  0.46999998093E+01 0. -1.
</event>
<event>
 5   0  0.1336057E-06  0.2395220E+04  0.7818609E-02  0.8441295E-01
       -2   -1    0    0    0  501  0.00000000000E+00  0.00000000000E+00  0.69486392169E+03  0.69486392170E+03  0.25500000920E-02 0. -1.
        2   -1    0    0  501    0  0.00000000000E+00  0.00000000000E+00 -0.20641009850E+04  0.20641009850E+04  0.25500000920E-02 0.  1.
    10030    2    1    2    0    0  0.00000000000E+00  0.00000000000E+00 -0.13692370633E+04  0.27589649067E+04  0.23952196603E+04 0.  0.
        2    1    3    3  502    0  0.90172205793E+03 -0.57830359202E+03 -0.13014103452E+04  0.16855879096E+04  0.25500000920E-02 0. -1.
       -2    1    3    3    0  502 -0.90172205793E+03  0.57830359202E+03 -0.67826718122E+02  0.10733769971E+04  0.25500000920E-02 0.  1.
</event>
<event>
 5   0  0.5527286E-07  0.2414439E+04  0.7818609E-02  0.8434118E-01
        1   -1    0    0  501    0  0.00000000000E+00  0.00000000000E+00  0.12591761167E+04  0.12591761167E+04  0.50400001928E-02 0. -1.
       -1   -1    0    0    0  501  0.00000000000E+00  0.00000000000E+00 -0.11574064141E+04  0.11574064141E+04  0.50400001928E-02 0.  1.
    10030    2    1    2    0    0  0.00000000000E+00  0.00000000000E+00  0.10176970257E+03  0.24165825308E+04  0.24144386626E+04 0.  0.
        1    1    3    3  502    0 -0.94567633165E+03 -0.45951524414E+03 -0.54287080018E+03  0.11832863937E+04  0.50400001928E-02 0.  1.
       -1    1    3    3    0  502  0.94567633165E+03  0.45951524414E+03  0.64464050275E+03  0.12332961371E+04  0.50400001928E-02 0. -1.
</event>
<event>
 5   0  0.4483375E-07  0.2404765E+04  0.7818609E-02  0.8437722E-01
       -3   -1    0    0    0  501  0.00000000000E+00  0.00000000000E+00  0.69175938420E+03  0.69175939157E+03  0.10100000352E+00 0. -1.
        3   -1    0    0  501    0  0.00000000000E+00  0.00000000000E+00 -0.20899229144E+04  0.20899229169E+04  0.10100000352E+00 0.  1.
    10030    2    1    2    0    0  0.00000000000E+00  0.00000000000E+00 -0.13981635302E+04  0.27816823084E+04  0.24047651045E+04 0.  0.
        5    1    3    3  502    0 -0.75984984017E+03  0.36053906799E+03 -0.16930294138E+04  0.18904314019E+04  0.46999998093E+01 0.  1.
       -5    1    3    3    0  502  0.75984984017E+03 -0.36053906799E+03  0.29486588358E+03  0.89125090656E+03  0.46999998093E+01 0. -1.
</event>
<event>
 5   0  0.1308662E-06  0.2390221E+04  0.7818609E-02  0.8443174E-01
       -2   -1    0    0    0  501  0.00000000000E+00  0.00000000000E+00  0.79661323130E+03  0.79661323130E+03  0.25500000920E-02 0. -1.
        2   -1    0    0  501    0  0.00000000000E+00  0.00000000000E+00 -0.17929511345E+04  0.17929511345E+04  0.25500000920E-02 0.  1.
    10030    2    1    2    0    0  0.00000000000E+00  0.00000000000E+00 -0.99633790323E+03  0.25895643658E+04  0.23902205730E+04 0.  0.
        3    1    3    3  502    0  0.78418316228E+02 -0.28465280247E+03  0.75647715741E+03  0.81205563243E+03  0.10100000352E+00 0. -1.
       -3    1    3    3    0  502 -0.78418316228E+02  0.28465280247E+03 -0.17528150606E+04  0.17775087334E+04  0.10100000352E+00 0.  1.
</event>
<event>
 5   0  0.5690124E-07  0.2400980E+04  0.7818609E-02  0.8439137E-01
       -1   -1    0    0    0  501  0.00000000000E+00  0.00000000000E+00  0.89123478999E+03  0.89123479001E+03  0.50400001928E-02 0.  1.
        1   -1    0    0  501    0  0.00000000000E+00  0.00000000000E+00 -0.16170554544E+04  0.16170554544E+04  0.50400001928E-02 0. -1.
    10030    2    1    2    0    0  0.00000000000E+00  0.00000000000E+00 -0.72582066439E+03  0.25082902444E+04  0.24009798652E+04 0.  0.
        2    1    3    3  502    0 -0.21603282350E+03 -0.10913406092E+04 -0.83416082049E+03  0.13905102591E+04  0.25500000920E-02 0. -1.
       -2    1    3    3    0  502  0.21603282350E+03  0.10913406092E+04  0.10834015611E+03  0.11177799853E+04  0.25500000920E-02 0.  1.
</event>
<event>
 5   0  0.5510176E-07  0.2401439E+04  0.7818609E-02  0.8438965E-01
       -1   -1    0    0    0  501  0.00000000000E+00  0.00000000000E+00  0.14021974415E+04  0.14021974415E+04  0.50400001928E-02 0. -1.
        1   -1    0    0  501    0  0.00000000000E+00  0.00000000000E+00 -0.10281912646E+04  0.10281912646E+04  0.50400001928E-02 0.  1.
    10030    2    1    2    0    0  0.00000000000E+00  0.00000000000E+00  0.37400617689E+03  0.24303887061E+04  0.24014388692E+04 0.  0.
        3    1    3    3  502    0  0.25989025638E+03 -0.56525921691E+03 -0.85234667436E+03  0.10552515298E+04  0.10100000352E+00 0.  1.
       -3    1    3    3    0  502 -0.25989025638E+03  0.56525921691E+03  0.12263528512E+04  0.13751371763E+04  0.10100000352E+00 0. -1.
</event>
<event>
 5   0  0.5452384E-07  0.2399011E+04  0.7818609E-02  0.8439874E-01
        1   -1    0    0  501    0  0.00000000000E+00  0.00000000000E+00  0.17258997833E+04  0.17258997833E+04  0.50400001928E-02 0. -1.
       -1   -1    0    0    0  501  0.00000000000E+00  0.00000000000E+00 -0.83366004652E+03  0.83366004654E+03  0.50400001928E-02 0.  1.
    10030    2    1    2    0    0  0.00000000000E+00  0.00000000000E+00  0.89223973678E+03  0.25595598298E+04  0.23990112077E+04 0.  0.
        5    1    3    3  502    0 -0.17552049976E+02 -0.11963889314E+04  0.35598506854E+03  0.12483597273E+04  0.46999998093E+01 0. -1.
       -5    1    3    3    0  502  0.17552049976E+02  0.11963889314E+04  0.53625466824E+03  0.13112001025E+04  0.46999998093E+01 0.  1.
</event>
<event>
 5   0  0.5690124E-07  0.2400576E+04  0.7818609E-02  0.8439288E-01
       -1   -1    0    0    0  501  0.00000000000E+00  0.00000000000E+00  0.87880892107E+03  0.87880892109E+03  0.50400001928E-02 0.  1.
        1   -1    0    0  501    0  0.00000000000E+00  0.00000000000E+00 -0.16393683094E+04  0.16393683094E+04  0.50400001928E-02 0. -1.
    10030    2    1    2    0    0  0.00000000000E+00  0.00000000000E+00 -0.76055938833E+03  0.25181772305E+04  0.24005761769E+04 0.  0.
        2    1    3    3  502    0  0.64414878737E+03  0.45713261806E+03 -0.13283203566E+04  0.15454231979E+04  0.25500000920E-02 0. -1.
       -2    1    3    3    0  502 -0.64414878737E+03 -0.45713261806E+03  0.56776096832E+03  0.97275403259E+03  0.25500000920E-02 0.  1.
</event>
<event>
 5   0  0.1291468E-06  0.2399685E+04  0.7818609E-02  0.8439621E-01
        2   -1    0    0  501    0  0.00000000000E+00  0.00000000000E+00  0.25586556401E+04  0.25586556401E+04  0.25500000920E-02 0.  1.
       -2   -1    0    0    0  501  0.00000000000E+00  0.00000000000E+00 -0.56264799973E+03  0.56264799974E+03  0.25500000920E-02 0. -1.
    10030    2    1    2    0    0  0.00000000000E+00  0.00000000000E+00  0.19960076404E+04  0.31213036399E+04  0.23996853777E+04 0.  0.
        4    1    3    3  502    0  0.33182405381E+03  0.29646719257E+02 -0.50128227980E+03  0.60189007932E+03  0.12699999809E+01 0. -1.
       -4    1    3    3    0  502 -0.33182405381E+03 -0.29646719257E+02  0.24972899202E+04  0.25194135605E+04  0.12699999809E+01 0.  1.
</event>
<event>
 5   0  0.5363690E-07  0.2402759E+04  0.7818609E-02  0.8438472E-01
        1   -1    0    0  501    0  0.00000000000E+00  0.00000000000E+00  0.13279910370E+04  0.13279910370E+04  0.50400001928E-02 0.  1.
       -1   -1    0    0    0  501  0.00000000000E+00  0.00000000000E+00 -0.10868387866E+04  0.10868387866E+04  0.50400001928E-02 0. -1.
    10030    2    1    2    0    0  0.00000000000E+00  0.00000000000E+00  0.24115225046E+03  0.24148298236E+04  0.24027585541E+04 0.  0.
        4    1    3    3  502    0 -0.62822306524E+03 -0.64834353433E+03 -0.67605797110E+03  0.11278606081E+04  0.12699999809E+01 0. -1.
       -4    1    3    3    0  502  0.62822306524E+03  0.64834353433E+03  0.91721022156E+03  0.12869692155E+04  0.12699999809E+01 0.  1.
</event>
<event>
 5   0  0.5452384E-07  0.2400143E+04  0.7818609E-02  0.8439450E-01
       -1   -1    0    0    0  501  0.00000000000E+00  0.00000000000E+00  0.20554207796E+04  0.20554207796E+04  0.50400001928E-02 0. -1.
        1   -1    0    0  501    0  0.00000000000E+00  0.00000000000E+00 -0.70066991139E+03  0.70066991140E+03  0.50400001928E-02 0.  1.
    10030    2    1    2    0    0  0.00000000000E+00  0.00000000000E+00  0.13547508682E+04  0.27560906910E+04  0.24001429087E+04 0.  0.
        5    1    3    3  502    0  0.13400241678E+03 -0.11925360228E+04  0.68554309160E+03  0.13820601412E+04  0.46999998093E+01 0.  1.
       -5    1    3    3    0  502 -0.13400241678E+03  0.11925360228E+04  0.66920777660E+03  0.13740305498E+04  0.46999998093E+01 0. -1.
</event>
<event>
 5   0  0.5690124E-07  0.2401013E+04  0.7818609E-02  0.8439124E-01
       -1   -1    0    0    0  501  0.00000000000E+00  0.00000000000E+00  0.55334629864E+03  0.55334629866E+03  0.50400001928E-02 0.  1.
        1   -1    0    0  501    0  0.00000000000E+00  0.00000000000E+00 -0.26045456636E+04  0.26045456636E+04  0.50400001928E-02 0. -1.
    10030    2    1    2    0    0  0.00000000000E+00  0.00000000000E+00 -0.20511993649E+04  0.31578919623E+04  0.24010128718E+04 0.  0.
        2    1    3    3  502    0 -0.32483610698E+03  0.65692346244E+03  0.22501270938E+03  0.76661440848E+03  0.25500000920E-02 0.  1.
       -2    1    3    3    0  502  0.32483610698E+03 -0.65692346244E+03 -0.22762120743E+04  0.23912775538E+04  0.25500000920E-02 0. -1.
</event>
<event>
 5   0  0.1275948E-06  0.2399302E+04  0.7818609E-02  0.8439765E-01
        2   -1    0    0  501    0  0.00000000000E+00  0.00000000000E+00  0.13765381093E+04  0.13765381093E+04  0.25500000920E-02 0. -1.
       -2   -1    0    0    0  501  0.00000000000E+00  0.00000000000E+00 -0.10454940037E+04  0.10454940037E+04  0.25500000920E-02 0.  1.
    10030    2    1    2    0    0  0.00000000000E+00  0.00000000000E+00  0.33104410560E+03  0.24220321130E+04  0.23993018478E+04 0.  0.
        1    1    3    3  502    0 -0.10160605133E+03 -0.87227741565E+03  0.99055957774E+03  0.13237824431E+04  0.50400001928E-02 0. -1.
       -1    1    3    3    0  502  0.10160605133E+03  0.87227741565E+03 -0.65951547214E+03  0.10982496700E+04  0.50400001928E-02 0.  1.
</event>
<event>
 5   0  0.1308662E-06  0.2400958E+04  0.7818609E-02  0.8439145E-01
        2   -1    0    0  501    0  0.00000000000E+00  0.00000000000E+00  0.89477161709E+03  0.89477161709E+03  0.25500000920E-02 0. -1.
       -2   -1    0    0    0  501  0.00000000000E+00  0.00000000000E+00 -0.16106348225E+04  0.16106348225E+04  0.25500000920E-02 0.  1.
    10030    2    1    2    0    0  0.00000000000E+00  0.00000000000E+00 -0.71586320536E+03  0.25054064395E+04  0.24009584125E+04 0.  0.
        3    1    3    3  502    0  0.35408614154E+03 -0.39689172170E+03  0.76510719125E+03  0.93182029312E+03  0.10100000352E+00 0. -1.
       -3    1    3    3    0  502 -0.35408614154E+03  0.39689172170E+03 -0.14809703966E+04  0.15735861464E+04  0.10100000352E+00 0.  1.
</event>
<event>
 5   0  0.1308662E-06  0.2399907E+04  0.7818609E-02  0.8439538E-01
        2   -1    0    0  501    0  0.00000000000E+00  0.00000000000E+00  0.14187844976E+04  0.14187844976E+04  0.25500000920E-02 0. -1.
       -2   -1    0    0    0  501  0.00000000000E+00  0.00000000000E+00 -0.10148749283E+04  0.10148749283E+04  0.25500000920E-02 0.  1.
    10030    2    1    2    0    0  0.00000000000E+00  0.00000000000E+00  0.40390956935E+03  0.24336594259E+04  0.23999073442E+04 0.  0.
        3    1    3    3  502    0  0.14163977486E+03 -0.10204136119E+04 -0.42198963347E+03  0.11132749104E+04  0.10100000352E+00 0. -1.
       -3    1    3    3    0  502 -0.14163977486E+03  0.10204136119E+04  0.82589920282E+03  0.13203845155E+04  0.10100000352E+00 0.  1.
</event>
<event>
 5   0  0.5363690E-07  0.2399680E+04  0.7818609E-02  0.8439623E-01
        1   -1    0    0  501    0  0.00000000000E+00  0.00000000000E+00  0.10731918087E+04  0.10731918087E+04  0.50400001928E-02 0. -1.
       -1   -1    0    0    0  501  0.00000000000E+00  0.00000000000E+00 -0.13414345156E+04  0.13414345157E+04  0.50400001928E-02 0.  1.
    10030    2    1    2    0    0  0.00000000000E+00  0.00000000000E+00 -0.26824270698E+03  0.24146263243E+04  0.23996804238E+04 0.  0.
        4    1    3    3  502    0 -0.39751474611E+03  0.11944905289E+03  0.99864720689E+03  0.10814730262E+04  0.12699999809E+01 0. -1.
       -4    1    3    3    0  502  0.39751474611E+03 -0.11944905289E+03 -0.12668899139E+04  0.13331532982E+04  0.12699999809E+01 0.  1.
</event>
<event>
 5   0  0.1275948E-06  0.2401395E+04  0.7818609E-02  0.8438982E-01
        2   -1    0    0  501    0  0.00000000000E+00  0.00000000000E+00  0.18994440097E+04  0.18994440097E+04  0.25500000920E-02 0.  1.
       -2   -1    0    0    0  501  0.00000000000E+00  0.00000000000E+00 -0.75899783934E+03  0.75899783934E+03  0.25500000920E-02 0. -1.
    10030    2    1    2    0    0  0.00000000000E+00  0.00000000000E+00  0.11404461704E+04  0.26584418491E+04  0.24013945110E+04 0.  0.
        1    1    3    3  502    0  0.10959479160E+04 -0.45803718948E+03  0.37602022985E+03  0.12459097538E+04  0.50400001928E-02 0. -1.
       -1    1    3    3    0  502 -0.10959479160E+04  0.45803718948E+03  0.76442594055E+03  0.14125320952E+04  0.50400001928E-02 0.  1.
</event>
<event>
 5   0  0.5690124E-07  0.2400816E+04  0.7818609E-02  0.8439198E-01
        1   -1    0    0  501    0  0.00000000000E+00  0.00000000000E+00  0.15434347172E+04  0.15434347172E+04  0.50400001928E-02 0. -1.
       -1   -1    0    0    0  501  0.00000000000E+00  0.00000000000E+00 -0.93361892955E+03  0.93361892956E+03  0.50400001928E-02 0.  1.
    10030    2    1    2    0    0  0.00000000000E+00  0.00000000000E+00  0.60981578762E+03  0.24770536467E+04  0.24008164182E+04 0.  0.
        2    1    3    3  502    0  0.68864426779E+02 -0.32345130449E+03  0.14955084880E+04  0.15316359533E+04  0.25500000920E-02 0. -1.
       -2    1    3    3    0  502 -0.68864426779E+02  0.32345130449E+03 -0.88569270037E+03  0.94541769348E+03  0.25500000920E-02 0.  1.
</event>
<event>
 5   0  0.5527286E-07  0.2401026E+04  0.7818609E-02  0.8439119E-01
       -1   -1    0    0    0  501  0.00000000000E+00  0.00000000000E+00  0.12831998334E+04  0.12831998334E+04  0.50400001928E-02 0. -1.
        1   -1    0    0  501    0  0.00000000000E+00  0.00000000000E+00 -0.11231545616E+04  0.11231545616E+04  0.50400001928E-02 0.  1.
    10030    2    1    2    0    0  0.00000000000E+00  0.00000000000E+00  0.16004527179E+03  0.24063543949E+04  0.24010262358E+04 0.  0.
        1    1    3    3  502    0  0.20892727671E+03 -0.68985432044E+03  0.10421958721E+04  0.12671707960E+04  0.50400001928E-02 0. -1.
       -1    1    3    3    0  502 -0.20892727671E+03  0.68985432044E+03 -0.88215060033E+03  0.11391835989E+04  0.50400001928E-02 0.  1.
</event>
<event>
 5   0  0.5452384E-07  0.2399733E+04  0.7818609E-02  0.8439604E-01
       -1   -1    0    0    0  501  0.00000000000E+00  0.00000000000E+00  0.14323387831E+04  0.14323387831E+04  0.50400001928E-02 0.  1.
        1   -1    0    0  501    0  0.00000000000E+00  0.00000000000E+00 -0.10051247115E+04  0.10051247115E+04  0.50400001928E-02 0. -1.
    10030    2    1    2    0    0  0.00000000000E+00  0.00000000000E+00  0.42721407161E+03  0.24374634945E+04  0.23997325735E+04 0.  0.
        5    1    3    3  502    0  0.36673781285E+03 -0.65139133850E+03  0.11668995507E+04  0.13858152657E+04  0.46999998093E+01 0.  1.
       -5    1    3    3    0  502 -0.36673781285E+03  0.65139133850E+03 -0.73968547908E+03  0.10516482288E+04  0.46999998093E+01 0. -1.
</event>
<event>
 5   0  0.1336057E-06  0.2402667E+04  0.7818609E-02  0.8438506E-01
       -2   -1    0    0    0  501  0.00000000000E+00  0.00000000000E+00  0.62625313994E+03  0.62625313994E+03  0.25500000920E-02 0. -1.
        2   -1    0    0  501    0  0.00000000000E+00  0.00000000000E+00 -0.23045021156E+04  0.23045021156E+04  0.25500000920E-02 0.  1.
    10030    2    1    2    0    0  0.00000000000E+00  0.00000000000E+00 -0.16782489757E+04  0.29307552556E+04  0.24026665902E+04 0.  0.
        2    1    3    3  502    0  0.24867011729E+03  0.15348697507E+03  0.58223849863E+03  0.65145740309E+03  0.25500000920E-02 0. -1.
       -2    1    3    3    0  502 -0.24867011729E+03 -0.15348697507E+03 -0.22604874743E+04  0.22792978525E+04  0.25500000920E-02 0.  1.
</event>
<event>
 5   0  0.1275948E-06  0.2399670E+04  0.7818609E-02  0.8439627E-01
        2   -1    0    0  501    0  0.00000000000E+00  0.00000000000E+00  0.25617747416E+04  0.25617747416E+04  0.25500000920E-02 0.  1.
       -2   -1    0    0    0  501  0.00000000000E+00  0.00000000000E+00 -0.56195561563E+03  0.56195561563E+03  0.25500000920E-02 0. -1.
    10030    2    1    2    0    0  0.00000000000E+00  0.00000000000E+00  0.19998191260E+04  0.31237303572E+04  0.23996697290E+04 0.  0.
        1    1    3    3  502    0 -0.80810600735E+03 -0.57689705435E+03  0.18767777110E+04  0.21232381183E+04  0.50400001928E-02 0.  1.
       -1    1    3    3    0  502  0.80810600735E+03  0.57689705435E+03  0.12304141502E+03  0.10004922390E+04  0.50400001928E-02 0. -1.
</event>
<event>
 5   0  0.1307477E-06  0.2399998E+04  0.7818609E-02  0.8439504E-01
        2   -1    0    0  501    0  0.00000000000E+00  0.00000000000E+00  0.17625796949E+04  0.17625796949E+04  0.25500000920E-02 0. -1.
       -2   -1    0    0    0  501  0.00000000000E+00  0.00000000000E+00 -0.81698312214E+03  0.81698312214E+03  0.25500000920E-02 0.  1.
    10030    2    1    2    0    0  0.00000000000E+00  0.00000000000E+00  0.94559657278E+03  0.25795628171E+04  0.23999982185E+04 0.  0.
        5    1    3    3  502    0  0.52811293853E+03 -0.34593499605E+03 -0.62404424668E+03  0.88770919177E+03  0.46999998093E+01 0.  1.
       -5    1    3    3    0  502 -0.52811293853E+03  0.34593499605E+03  0.15696408195E+04  0.16918536253E+04  0.46999998093E+01 0. -1.
</event>
<event>
 5   0  0.4483375E-07  0.2399598E+04  0.7818609E-02  0.8439654E-01
       -3   -1    0    0    0  501  0.00000000000E+00  0.00000000000E+00  0.12249430610E+04  0.12249430652E+04  0.10100000352E+00 0.  1.
        3   -1    0    0  501    0  0.00000000000E+00  0.00000000000E+00 -0.11751707792E+04  0.11751707836E+04  0.10100000352E+00 0. -1.
    10030    2    1    2    0    0  0.00000000000E+00  0.00000000000E+00  0.49772281817E+02  0.24001138488E+04  0.23995977177E+04 0.  0.
        3    1    3    3  502    0 -0.54981709630E+03 -0.10602110459E+04 -0.89903479307E+02  0.11976764784E+04  0.10100000352E+00 0. -1.
       -3    1    3    3    0  502  0.54981709630E+03  0.10602110459E+04  0.13967576112E+03  0.12024373703E+04  0.10100000352E+00 0.  1.
</event>
<event>
 5   0  0.5690124E-07  0.2398485E+04  0.7818609E-02  0.8440071E-01
       -1   -1    0    0    0  501  0.00000000000E+00  0.00000000000E+00  0.10117299238E+04  0.10117299238E+04  0.50400001928E-02 0.  1.
        1   -1    0    0  501    0  0.00000000000E+00  0.00000000000E+00 -0.14215087594E+04  0.14215087594E+04  0.50400001928E-02 0. -1.
    10030    2    1    2    0    0  0.00000000000E+00  0.00000000000E+00 -0.40977883561E+03  0.24332386832E+04  0.23984853127E+04 0.  0.
        2    1    3    3  502    0 -0.94803242097E+03 -0.46686375411E+03  0.37029647104E+03  0.11197529694E+04  0.25500000920E-02 0.  1.
       -2    1    3    3    0  502  0.94803242097E+03  0.46686375411E+03 -0.78007530665E+03  0.13134857137E+04  0.25500000920E-02 0. -1.
</event>
<event>
 5   0  0.1291468E-06  0.2399959E+04  0.7818609E-02  0.8439519E-01
       -2   -1    0    0    0  501  0.00000000000E+00  0.00000000000E+00  0.13663101866E+04  0.13663101866E+04  0.25500000920E-02 0.  1.
        2   -1    0    0  501    0  0.00000000000E+00  0.00000000000E+00 -0.10538977269E+04  0.10538977269E+04  0.25500000920E-02 0. -1.
    10030    2    1    2    0    0  0.00000000000E+00  0.00000000000E+00  0.31241245978E+03  0.24202079135E+04  0.23999593329E+04 0.  0.
        4    1    3    3  502    0  0.70225873971E+03  0.59257772681E+03 -0.62207847015E+03  0.11096391016E+04  0.12699999809E+01 0. -1.
       -4    1    3    3    0  502 -0.70225873971E+03 -0.59257772681E+03  0.93449092993E+03  0.13105688119E+04  0.12699999809E+01 0.  1.
</event>
<event>
 5   0  0.1275948E-06  0.2399288E+04  0.7818609E-02  0.8439770E-01
        2   -1    0    0  501    0  0.00000000000E+00  0.00000000000E+00  0.17151400970E+04  0.17151400970E+04  0.25500000920E-02 0. -1.
       -2   -1    0    0    0  501  0.00000000000E+00  0.00000000000E+00 -0.83908350327E+03  0.83908350328E+03  0.25500000920E-02 0.  1.
    10030    2    1    2    0    0  0.00000000000E+00  0.00000000000E+00  0.87605659374E+03  0.25542236003E+04  0.23992880287E+04 0.  0.
        1    1    3    3  502    0 -0.68455238239E+03 -0.71349561145E+03  0.11612018349E+04  0.15251484036E+04  0.50400001928E-02 0. -1.
       -1    1    3    3    0  502  0.68455238239E+03  0.71349561145E+03 -0.28514524114E+03  0.10290751966E+04  0.50400001928E-02 0.  1.
</event>
<event>
 5   0  0.5527286E-07  0.2400043E+04  0.7818609E-02  0.8439488E-01
       -1   -1    0    0    0  501  0.00000000000E+00  0.00000000000E+00  0.88669694847E+03  0.88669694849E+03  0.50400001928E-02 0.  1.
        1   -1    0    0  501    0  0.00000000000E+00  0.00000000000E+00 -0.16240626379E+04  0.16240626379E+04  0.50400001928E-02 0. -1.
    10030    2    1    2    0    0  0.00000000000E+00  0.00000000000E+00 -0.73736568942E+03  0.25107595864E+04  0.24000428206E+04 0.  0.
        1    1    3    3  502    0  0.12143051294E+03  0.10104890065E+03  0.87577147133E+03  0.88990556792E+03  0.50400001928E-02 0.  1.
       -1    1    3    3    0  502 -0.12143051294E+03 -0.10104890065E+03 -0.16131371607E+04  0.16208540185E+04  0.50400001928E-02 0. -1.
</event>
<event>
 5   0  0.5452384E-07  0.2401673E+04  0.7818609E-02  0.8438877E-01
       -1   -1    0    0    0  501  0.00000000000E+00  0.00000000000E+00  0.74184407660E+03  0.74184407662E+03  0.50400001928E-02 0. -1.
        1   -1    0    0  501    0  0.00000000000E+00  0.00000000000E+00 -0.19438159413E+04  0.19438159413E+04  0.50400001928E-02 0.  1.
    10030    2    1    2    0    0  0.00000000000E+00  0.00000000000E+00 -0.12019718647E+04  0.26856600179E+04  0.24016730352E+04 0.  0.
        5    1    3    3  502    0  0.75576906299E+03 -0.42226631162E+03 -0.15315452743E+04  0.17593034792E+04  0.46999998093E+01 0.  1.
       -5    1    3    3    0  502 -0.75576906299E+03  0.42226631162E+03  0.32957340966E+03  0.92635653873E+03  0.46999998093E+01 0. -1.
</event>
<event>
 5   0  0.1307477E-06  0.2400244E+04  0.7818609E-02  0.8439412E-01
        2   -1    0    0  501    0  0.00000000000E+00  0.00000000000E+00  0.11295129898E+04  0.11295129898E+04  0.25500000920E-02 0.  1.
       -2   -1    0    0    0  501  0.00000000000E+00  0.00000000000E+00 -0.12751454320E+04  0.12751454320E+04  0.25500000920E-02 0. -1.
    10030    2    1    2    0    0  0.00000000000E+00  0.00000000000E+00 -0.14563244227E+03  0.24046584218E+04  0.24002444287E+04 0.  0.
        5    1    3    3  502    0 -0.86572362676E+03  0.10769808447E+03  0.75283219563E+03  0.11523257700E+04  0.46999998093E+01 0.  1.
       -5    1    3    3    0  502  0.86572362676E+03 -0.10769808447E+03 -0.89846463791E+03  0.12523326519E+04  0.46999998093E+01 0. -1.
</event>
<event>
 5   0  0.1307477E-06  0.2399854E+04  0.7818609E-02  0.8439558E-01
       -2   -1    0    0    0  501  0.00000000000E+00  0.00000000000E+00  0.92113329143E+03  0.92113329144E+03  0.25500000920E-02 0.  1.
        2   -1    0    0  501    0  0.00000000000E+00  0.00000000000E+00 -0.15631010048E+04  0.15631010048E+04  0.25500000920E-02 0. -1.
    10030    2    1    2    0    0  0.00000000000E+00  0.00000000000E+00 -0.64196771336E+03  0.24842342962E+04  0.23998536400E+04 0.  0.
        5    1    3    3  502    0  0.23512657985E+03 -0.32142551720E+03 -0.14926849636E+04  0.15449043214E+04  0.46999998093E+01 0. -1.
       -5    1    3    3    0  502 -0.23512657985E+03  0.32142551720E+03  0.85071725028E+03  0.93932997481E+03  0.46999998093E+01 0.  1.
</event>
<event>
 5   0  0.1307477E-06  0.2399085E+04  0.7818609E-02  0.8439846E-01
        2   -1    0    0  501    0  0.00000000000E+00  0.00000000000E+00  0.13139961948E+04  0.13139961948E+04  0.25500000920E-02 0. -1.
       -2   -1    0    0    0  501  0.00000000000E+00  0.00000000000E+00 -0.10950578166E+04  0.10950578166E+04  0.25500000920E-02 0.  1.
    10030    2    1    2    0    0  0.00000000000E+00  0.00000000000E+00  0.21893837825E+03  0.24090540114E+04  0.23990846622E+04 0.  0.
        5    1    3    3  502    0 -0.11149987301E+04  0.25955462481E+03 -0.25019365619E+03  0.11718403163E+04  0.46999998093E+01 0.  1.
       -5    1    3    3    0  502  0.11149987301E+04 -0.25955462481E+03  0.46913203444E+03  0.12372136950E+04  0.46999998093E+01 0. -1.
</event>
<event>
 5   0  0.1291468E-06  0.2402561E+04  0.7818609E-02  0.8438545E-01
        2   -1    0    0  501    0  0.00000000000E+00  0.00000000000E+00  0.17479032715E+04  0.17479032715E+04  0.25500000920E-02 0.  1.
       -2   -1    0    0    0  501  0.00000000000E+00  0.00000000000E+00 -0.82560326249E+03  0.82560326249E+03  0.25500000920E-02 0. -1.
    10030    2    1    2    0    0  0.00000000000E+00  0.00000000000E+00  0.92230000904E+03  0.25735065340E+04  0.24025608367E+04 0.  0.
        4    1    3    3  502    0 -0.70648159891E+02  0.37860096347E+03 -0.75767876686E+03  0.84994622106E+03  0.12699999809E+01 0. -1.
       -4    1    3    3    0  502  0.70648159891E+02 -0.37860096347E+03  0.16799787759E+04  0.17235603130E+04  0.12699999809E+01 0.  1.
</event>
<event>
 5   0  0.1291468E-06  0.2384501E+04  0.7818609E-02  0.8445329E-01
       -2   -1    0    0    0  501  0.00000000000E+00  0.00000000000E+00  0.66855874605E+03  0.66855874606E+03  0.25500000920E-02 0.  1.
        2   -1    0    0  501    0  0.00000000000E+00  0.00000000000E+00 -0.21261570867E+04  0.21261570867E+04  0.25500000920E-02 0. -1.
    10030    2    1    2    0    0  0.00000000000E+00  0.00000000000E+00 -0.14575983406E+04  0.27947158327E+04  0.23845007157E+04 0.  0.
        4    1    3    3  502    0  0.76137917562E+03  0.55119700692E+03  0.13082435742E+03  0.94901686755E+03  0.12699999809E+01 0.  1.
       -4    1    3    3    0  502 -0.76137917562E+03 -0.55119700692E+03 -0.15884226980E+04  0.18456989652E+04  0.12699999809E+01 0. -1.
</event>
<event>
 5   0  0.5452384E-07  0.2400114E+04  0.7818609E-02  0.8439461E-01
        1   -1    0    0  501    0  0.00000000000E+00  0.00000000000E+00  0.15357657132E+04  0.15357657132E+04  0.50400001928E-02 0. -1.
       -1   -1    0    0    0  501  0.00000000000E+00  0.00000000000E+00 -0.93773194696E+03  0.93773194698E+03  0.50400001928E-02 0.  1.
    10030    2    1    2    0    0  0.00000000000E+00  0.00000000000E+00  0.59803376623E+03  0.24734976602E+04  0.24001138076E+04 0.  0.
        5    1    3    3  502    0 -0.47234220233E+03 -0.88094436336E+03  0.98335631038E+03  0.14022060657E+04  0.46999998093E+01 0. -1.
       -5    1    3    3    0  502  0.47234220233E+03  0.88094436336E+03 -0.38532254415E+03  0.10712915945E+04  0.46999998093E+01 0.  1.
</event>
<event>
 5   0  0.1308662E-06  0.2400151E+04  0.7818609E-02  0.8439447E-01
       -2   -1    0    0    0  501  0.00000000000E+00  0.00000000000E+00  0.12049419991E+04  0.12049419991E+04  0.25500000920E-02 0.  1.
        2   -1    0    0  501    0  0.00000000000E+00  0.00000000000E+00 -0.11952283117E+04  0.11952283117E+04  0.25500000920E-02 0. -1.
    10030    2    1    2    0    0  0.00000000000E+00  0.00000000000E+00  0.97136874463E+01  0.24001703108E+04  0.24001506547E+04 0.  0.
        3    1    3    3  502    0  0.23827486113E+03 -0.54782255409E+03 -0.10359668995E+04  0.11958728558E+04  0.10100000352E+00 0. -1.
       -3    1    3    3    0  502 -0.23827486113E+03  0.54782255409E+03  0.10456805869E+04  0.12042974551E+04  0.10100000352E+00 0.  1.
</event>
<event>
 5   0  0.1336057E-06  0.2400114E+04  0.7818609E-02  0.8439461E-01
       -2   -1    0    0    0  501  0.00000000000E+00  0.00000000000E+00  0.83799472105E+03  0.83799472105E+03  0.25500000920E-02 0. -1.
        2   -1    0    0  501    0  0.00000000000E+00  0.00000000000E+00 -0.17185511757E+04  0.17185511757E+04  0.25500000920E-02 0.  1.
    10030    2    1    2    0    0  0.00000000000E+00  0.00000000000E+00 -0.88055645463E+03  0.25565458967E+04  0.24001140082E+04 0.  0.
        2    1    3    3  502    0  0.20501859846E+03  0.96155459989E+03  0.29269731221E+03  0.10258126490E+04  0.25500000920E-02 0. -1.
       -2    1    3    3    0  502 -0.20501859846E+03 -0.96155459989E+03 -0.11732537668E+04  0.15307332477E+04  0.25500000920E-02 0.  1.
</event>
<event>
 5   0  0.5510176E-07  0.2400515E+04  0.7818609E-02  0.8439311E-01
        1   -1    0    0  501    0  0.00000000000E+00  0.00000000000E+00  0.20109531851E+04  0.20109531851E+04  0.50400001928E-02 0.  1.
       -1   -1    0    0    0  501  0.00000000000E+00  0.00000000000E+00 -0.71638566467E+03  0.71638566469E+03  0.50400001928E-02 0. -1.
    10030    2    1    2    0    0  0.00000000000E+00  0.00000000000E+00  0.12945675204E+04  0.27273388498E+04  0.24005149732E+04 0.  0.
        3    1    3    3  502    0  0.96698235523E+03 -0.89458368486E+02 -0.15413141451E+03  0.98326709400E+03  0.10100000352E+00 0. -1.
       -3    1    3    3    0  502 -0.96698235523E+03  0.89458368486E+02  0.14486989349E+04  0.17440717558E+04  0.10100000352E+00 0.  1.
</event>
<event>
 5   0  0.1307477E-06  0.2398654E+04  0.7818609E-02  0.8440008E-01
       -2   -1    0    0    0  501  0.00000000000E+00  0.00000000000E+00  0.14458180633E+04  0.14458180633E+04  0.25500000920E-02 0. -1.
        2   -1    0    0  501    0  0.00000000000E+00  0.00000000000E+00 -0.99485876762E+03  0.99485876762E+03  0.25500000920E-02 0.  1.
    10030    2    1    2    0    0  0.00000000000E+00  0.00000000000E+00  0.45095929569E+03  0.24406768309E+04  0.23986536029E+04 0.  0.
        5    1    3    3  502    0 -0.25100361466E+03 -0.24903701093E+03 -0.94060855653E+03  0.10048824777E+04  0.46999998093E+01 0.  1.
       -5    1    3    3    0  502  0.25100361466E+03  0.24903701093E+03  0.13915678522E+04  0.14357943532E+04  0.46999998093E+01 0. -1.
</event>
<event>
 5   0  0.1336057E-06  0.2399100E+04  0.7818609E-02  0.8439841E-01
        2   -1    0    0  501    0  0.00000000000E+00  0.00000000000E+00  0.11667925760E+04  0.11667925760E+04  0.25500000920E-02 0.  1.
       -2   -1    0    0    0  501  0.00000000000E+00  0.00000000000E+00 -0.12332267952E+04  0.12332267952E+04  0.25500000920E-02 0. -1.
    10030    2    1    2    0    0  0.00000000000E+00  0.00000000000E+00 -0.66434219203E+02  0.24000193712E+04  0.23990997221E+04 0.  0.
        2    1    3    3  502    0 -0.48989130401E+03 -0.15547250610E+03  0.10510593733E+04  0.11699961522E+04  0.25500000920E-02 0.  1.
       -2    1    3    3    0  502  0.48989130401E+03  0.15547250610E+03 -0.11174935925E+04  0.12300232190E+04  0.25500000920E-02 0. -1.
</event>
<event>
 5   0  0.5527286E-07  0.2401442E+04  0.7818609E-02  0.8438964E-01
       -1   -1    0    0    0  501  0.00000000000E+00  0.00000000000E+00  0.19490644134E+04  0.19490644134E+04  0.50400001928E-02 0. -1.
        1   -1    0    0  501    0  0.00000000000E+00  0.00000000000E+00 -0.73970429173E+03  0.73970429175E+03  0.50400001928E-02 0.  1.
    10030    2    1    2    0    0  0.00000000000E+00  0.00000000000E+00  0.12093601216E+04  0.26887687051E+04  0.24014423261E+04 0.  0.
        1    1    3    3  502    0 -0.28896286065E+03  0.42797146599E+03 -0.60902610943E+03  0.79848100323E+03  0.50400001928E-02 0.  1.
       -1    1    3    3    0  502  0.28896286065E+03 -0.42797146599E+03  0.18183862311E+04  0.18902877019E+04  0.50400001928E-02 0. -1.
</event>
<event>
 5   0  0.1307477E-06  0.2399482E+04  0.7818609E-02  0.8439698E-01
       -2   -1    0    0    0  501  0.00000000000E+00  0.00000000000E+00  0.50183111226E+03  0.50183111227E+03  0.25500000920E-02 0.  1.
        2   -1    0    0  501    0  0.00000000000E+00  0.00000000000E+00 -0.28682520650E+04  0.28682520650E+04  0.25500000920E-02 0. -1.
    10030    2    1    2    0    0  0.00000000000E+00  0.00000000000E+00 -0.23664209527E+04  0.33700831773E+04  0.23994817141E+04 0.  0.
        5    1    3    3  502    0 -0.45573970550E+02  0.68131698254E+03 -0.25686859297E+04  0.26579012986E+04  0.46999998093E+01 0. -1.
       -5    1    3    3    0  502  0.45573970550E+02 -0.68131698254E+03  0.20226497695E+03  0.71218187872E+03  0.46999998093E+01 0.  1.
</event>
<event>
 5   0  0.1307477E-06  0.2400088E+04  0.7818609E-02  0.8439471E-01
        2   -1    0    0  501    0  0.00000000000E+00  0.00000000000E+00  0.17326983153E+04  0.17326983153E+04  0.25500000920E-02 0.  1.
       -2   -1    0    0    0  501  0.00000000000E+00  0.00000000000E+00 -0.83113454439E+03  0.83113454439E+03  0.25500000920E-02 0. -1.
    10030    2    1    2    0    0  0.00000000000E+00  0.00000000000E+00  0.90156377088E+03  0.25638328597E+04  0.24000878524E+04 0.  0.
        5    1    3    3  502    0  0.88415926274E+03 -0.32030840211E+03 -0.34556379113E+03  0.10018839744E+04  0.46999998093E+01 0. -1.
       -5    1    3    3    0  502 -0.88415926274E+03  0.32030840211E+03  0.12471275620E+04  0.15619488853E+04  0.46999998093E+01 0.  1.
</event>
<event>
 5   0  0.1308662E-06  0.2400317E+04  0.7818609E-02  0.8439385E-01
        2   -1    0    0  501    0  0.00000000000E+00  0.00000000000E+00  0.12673655625E+04  0.12673655625E+04  0.25500000920E-02 0. -1.
       -2   -1    0    0    0  501  0.00000000000E+00  0.00000000000E+00 -0.11365153667E+04  0.11365153667E+04  0.25500000920E-02 0.  1.
    10030    2    1    2    0    0  0.00000000000E+00  0.00000000000E+00  0.13085019577E+03  0.24038809292E+04  0.24003170099E+04 0.  0.
        3    1    3    3  502    0 -0.86521166678E+03  0.32482932742E+03 -0.70139780651E+03  0.11602000748E+04  0.10100000352E+00 0.  1.
       -3    1    3    3    0  502  0.86521166678E+03 -0.32482932742E+03  0.83224800228E+03  0.12436808545E+04  0.10100000352E+00 0. -1.
</event>
<event>
 5   0  0.5690124E-07  0.2400019E+04  0.7818609E-02  0.8439496E-01
        1   -1    0    0  501    0  0.00000000000E+00  0.00000000000E+00  0.86595413372E+03  0.86595413373E+03  0.50400001928E-02 0. -1.
       -1   -1    0    0    0  501  0.00000000000E+00  0.00000000000E+00 -0.16629318099E+04  0.16629318100E+04  0.50400001928E-02 0.  1.
    10030    2    1    2    0    0  0.00000000000E+00  0.00000000000E+00 -0.79697767622E+03  0.25288859437E+04  0.24000188957E+04 0.  0.
        2    1    3    3  502    0  0.72883551793E+03  0.94915356734E+03 -0.30466289825E+03  0.12348737539E+04  0.25500000920E-02 0. -1.
       -2    1    3    3    0  502 -0.72883551793E+03 -0.94915356734E+03 -0.49231477797E+03  0.12940121897E+04  0.25500000920E-02 0.  1.
</event>
<event>
 5   0  0.5452384E-07  0.2400863E+04  0.7818609E-02  0.8439181E-01
       -1   -1    0    0    0  501  0.00000000000E+00  0.00000000000E+00  0.13781507201E+04  0.13781507201E+04  0.50400001928E-02 0.  1.
        1   -1    0    0  501    0  0.00000000000E+00  0.00000000000E+00 -0.10456296733E+04  0.10456296734E+04  0.50400001928E-02 0. -1.
    10030    2    1    2    0    0  0.00000000000E+00  0.00000000000E+00  0.33252104674E+03  0.24237803935E+04  0.24008625844E+04 0.  0.
        5    1    3    3  502    0  0.36877782886E+03 -0.10234346944E+04 -0.34612496017E+03  0.11415954795E+04  0.46999998093E+01 0.  1.
       -5    1    3    3    0  502 -0.36877782886E+03  0.10234346944E+04  0.67864600691E+03  0.12821849139E+04  0.46999998093E+01 0. -1.
</event>
<event>
 5   0  0.1336057E-06  0.2400127E+04  0.7818609E-02  0.8439456E-01
       -2   -1    0    0    0  501  0.00000000000E+00  0.00000000000E+00  0.52123151229E+03  0.52123151229E+03  0.25500000920E-02 0.  1.
        2   -1    0    0  501    0  0.00000000000E+00  0.00000000000E+00 -0.27629806928E+04  0.27629806928E+04  0.25500000920E-02 0. -1.
    10030    2    1    2    0    0  0.00000000000E+00  0.00000000000E+00 -0.22417491806E+04  0.32842122051E+04  0.24001271674E+04 0.  0.
        2    1    3    3  502    0 -0.11086785302E+04 -0.38448087502E+03 -0.14647605988E+04  0.18768370303E+04  0.25500000920E-02 0. -1.
       -2    1    3    3    0  502  0.11086785302E+04  0.38448087502E+03 -0.77698858180E+03  0.14073751749E+04  0.25500000920E-02 0.  1.
</event>
<event>
 5   0  0.1275948E-06  0.2399870E+04  0.7818609E-02  0.8439552E-01
        2   -1    0    0  501    0  0.00000000000E+00  0.00000000000E+00  0.17435059441E+04  0.17435059441E+04  0.25500000920E-02 0.  1.
       -2   -1    0    0    0  501  0.00000000000E+00  0.00000000000E+00 -0.82583279294E+03  0.82583279295E+03  0.25500000920E-02 0. -1.
    10030    2    1    2    0    0  0.00000000000E+00  0.00000000000E+00  0.91767315120E+03  0.25693387371E+04  0.23998703160E+04 0.  0.
        1    1    3    3  502    0 -0.94853726229E+03  0.72888684988E+03  0.35814515608E+03  0.12487061026E+04  0.50400001928E-02 0. -1.
       -1    1    3    3    0  502  0.94853726229E+03 -0.72888684988E+03  0.55952799512E+03  0.13206326345E+04  0.50400001928E-02 0.  1.
</event>
<event>
 5   0  0.5363690E-07  0.2399333E+04  0.7818609E-02  0.8439753E-01
       -1   -1    0    0    0  501  0.00000000000E+00  0.00000000000E+00  0.12845751935E+04  0.12845751935E+04  0.50400001928E-02 0. -1.
        1   -1    0    0  501    0  0.00000000000E+00  0.00000000000E+00 -0.11203699543E+04  0.11203699543E+04  0.50400001928E-02 0.  1.
    10030    2    1    2    0    0  0.00000000000E+00  0.00000000000E+00  0.16420523913E+03  0.24049451478E+04  0.23993327830E+04 0.  0.
        4    1    3    3  502    0  0.29990808548E+03  0.10285910050E+04  0.62304409454E+03  0.12394070646E+04  0.12699999809E+01 0.  1.
       -4    1    3    3    0  502 -0.29990808548E+03 -0.10285910050E+04 -0.45883885541E+03  0.11655380832E+04  0.12699999809E+01 0. -1.
</event>
<event>
 5   0  0.5510176E-07  0.2400170E+04  0.7818609E-02  0.8439440E-01
        1   -1    0    0  501    0  0.00000000000E+00  0.00000000000E+00  0.14452188315E+04  0.14452188315E+04  0.50400001928E-02 0. -1.
       -1   -1    0    0    0  501  0.00000000000E+00  0.00000000000E+00 -0.99653012457E+03  0.99653012458E+03  0.50400001928E-02 0.  1.
    10030    2    1    2    0    0  0.00000000000E+00  0.00000000000E+00  0.44868870693E+03  0.24417489561E+04  0.24001700791E+04 0.  0.
        3    1    3    3  502    0  0.47650776603E+03 -0.22676163181E+03 -0.87216009985E+03  0.10193839996E+04  0.10100000352E+00 0.  1.
       -3    1    3    3    0  502 -0.47650776603E+03  0.22676163181E+03  0.13208488068E+04  0.14223649564E+04  0.10100000352E+00 0. -1.
</event>
<event>
 5   0  0.1336057E-06  0.2409372E+04  0.7818609E-02  0.8436003E-01
       -2   -1    0    0    0  501  0.00000000000E+00  0.00000000000E+00  0.15243760854E+04  0.15243760854E+04  0.25500000920E-02 0. -1.
        2   -1    0    0  501    0  0.00000000000E+00  0.00000000000E+00 -0.95204124088E+03  0.95204124089E+03  0.25500000920E-02 0.  1.
    10030    2    1    2    0    0  0.00000000000E+00  0.00000000000E+00  0.57233484453E+03  0.24764173263E+04  0.24093724494E+04 0.  0.
        2    1    3    3  502    0  0.53966585798E+03  0.91636346172E+03  0.86787344659E+03  0.13726490999E+04  0.25500000920E-02 0. -1.
       -2    1    3    3    0  502 -0.53966585798E+03 -0.91636346172E+03 -0.29553860206E+03  0.11037682264E+04  0.25500000920E-02 0.  1.
</event>
<event>
 5   0  0.5527286E-07  0.2399246E+04  0.7818609E-02  0.8439786E-01
       -1   -1    0    0    0  501  0.00000000000E+00  0.00000000000E+00  0.14236934151E+04  0.14236934151E+04  0.50400001928E-02 0. -1.
        1   -1    0    0  501    0  0.00000000000E+00  0.00000000000E+00 -0.10108183946E+04  0.10108183946E+04  0.50400001928E-02 0.  1.
    10030    2    1    2    0    0  0.00000000000E+00  0.00000000000E+00  0.41287502047E+03  0.24345118097E+04  0.23992461252E+04 0.  0.
        1    1    3    3  502    0 -0.20245319554E+03 -0.12878937599E+03  0.13990954574E+04  0.14195217852E+04  0.50400001928E-02 0. -1.
       -1    1    3    3    0  502  0.20245319554E+03  0.12878937599E+03 -0.98622043690E+03  0.10149900245E+04  0.50400001928E-02 0.  1.
</event>
<event>
 5   0  0.5527286E-07  0.2400276E+04  0.7818609E-02  0.8439400E-01
        1   -1    0    0  501    0  0.00000000000E+00  0.00000000000E+00  0.17484433873E+04  0.17484433873E+04  0.50400001928E-02 0.  1.
       -1   -1    0    0    0  501  0.00000000000E+00  0.00000000000E+00 -0.82377896539E+03  0.82377896540E+03  0.50400001928E-02 0. -1.
    10030    2    1    2    0    0  0.00000000000E+00  0.00000000000E+00  0.92466442192E+03  0.25722223527E+04  0.24002757214E+04 0.  0.
        1    1    3    3  502    0  0.66514813751E+03 -0.61182637101E+03 -0.38390581241E+03  0.98190489658E+03  0.50400001928E-02 0. -1.
       -1    1    3    3    0  502 -0.66514813751E+03  0.61182637101E+03  0.13085702343E+04  0.15903174561E+04  0.50400001928E-02 0.  1.
</event>
<event>
 5   0  0.5690124E-07  0.2398888E+04  0.7818609E-02  0.8439920E-01
        1   -1    0    0  501    0  0.00000000000E+00  0.00000000000E+00  0.83213899075E+03  0.83213899077E+03  0.50400001928E-02 0. -1.
       -1   -1    0    0    0  501  0.00000000000E+00  0.00000000000E+00 -0.17288771005E+04  0.17288771005E+04  0.50400001928E-02 0.  1.
    10030    2    1    2    0    0  0.00000000000E+00  0.00000000000E+00 -0.89673810971E+03  0.25610160912E+04  0.23988881137E+04 0.  0.
        2    1    3    3  502    0  0.40431622904E+03 -0.11105266555E+04 -0.22977479855E+03  0.12039674097E+04  0.25500000920E-02 0. -1.
       -2    1    3    3    0  502 -0.40431622904E+03  0.11105266555E+04 -0.66696331116E+03  0.13570486815E+04  0.25500000920E-02 0.  1.
</event>
<event>
 5   0  0.1291468E-06  0.2400218E+04  0.7818609E-02  0.8439422E-01
       -2   -1    0    0    0  501  0.00000000000E+00  0.00000000000E+00  0.60737656829E+03  0.60737656830E+03  0.25500000920E-02 0.  1.
        2   -1    0    0  501    0  0.00000000000E+00  0.00000000000E+00 -0.23712837720E+04  0.23712837720E+04  0.25500000920E-02 0. -1.
    10030    2    1    2    0    0  0.00000000000E+00  0.00000000000E+00 -0.17639072037E+04  0.29786603403E+04  0.24002184900E+04 0.  0.
        4    1    3    3  502    0  0.47041454907E+03 -0.15980449341E+03  0.47376412601E+03  0.68649936933E+03  0.12699999809E+01 0.  1.
       -4    1    3    3    0  502 -0.47041454907E+03  0.15980449341E+03 -0.22376713297E+04  0.22921609710E+04  0.12699999809E+01 0. -1.
</event>
<event>
 5   0  0.4483375E-07  0.2391114E+04  0.7818609E-02  0.8442838E-01
       -4   -1    0    0    0  501  0.00000000000E+00  0.00000000000E+00  0.11413494723E+04  0.11413501789E+04  0.12699999809E+01 0. -1.
        4   -1    0    0  501    0  0.00000000000E+00  0.00000000000E+00 -0.12523378239E+04  0.12523384678E+04  0.12699999809E+01 0.  1.
    10030    2    1    2    0    0  0.00000000000E+00  0.00000000000E+00 -0.11098835153E+03  0.23936886467E+04  0.23911141594E+04 0.  0.
        4    1    3    3  502    0 -0.45420700475E+03 -0.11058335878E+04 -0.69043549710E+02  0.11974725683E+04  0.12699999809E+01 0. -1.
       -4    1    3    3    0  502  0.45420700475E+03  0.11058335878E+04 -0.41944801820E+02  0.11962160785E+04  0.12699999809E+01 0.  1.
</event>
<event>
 5   0  0.1291468E-06  0.2408561E+04  0.7818609E-02  0.8436305E-01
        2   -1    0    0  501    0  0.00000000000E+00  0.00000000000E+00  0.12873830628E+04  0.12873830628E+04  0.25500000920E-02 0.  1.
       -2   -1    0    0    0  501  0.00000000000E+00  0.00000000000E+00 -0.11265426763E+04  0.11265426763E+04  0.25500000920E-02 0. -1.
    10030    2    1    2    0    0  0.00000000000E+00  0.00000000000E+00  0.16084038652E+03  0.24139257391E+04  0.24085613640E+04 0.  0.
        4    1    3    3  502    0 -0.29004964632E+03 -0.89175316361E+03 -0.67686698910E+03  0.11565046632E+04  0.12699999809E+01 0. -1.
       -4    1    3    3    0  502  0.29004964632E+03  0.89175316361E+03  0.83770737562E+03  0.12574210759E+04  0.12699999809E+01 0.  1.
</event>
<event>
 5   0  0.1275948E-06  0.2399403E+04  0.7818609E-02  0.8439727E-01
       -2   -1    0    0    0  501  0.00000000000E+00  0.00000000000E+00  0.22657402682E+04  0.22657402682E+04  0.25500000920E-02 0.  1.
        2   -1    0    0  501    0  0.00000000000E+00  0.00000000000E+00 -0.63523753658E+03  0.63523753658E+03  0.25500000920E-02 0. -1.
    10030    2    1    2    0    0  0.00000000000E+00  0.00000000000E+00  0.16305027316E+04  0.29009778048E+04  0.23994026477E+04 0.  0.
        1    1    3    3  502    0  0.18593762441E+03  0.10415274175E+04  0.14991149927E+04  0.18348563767E+04  0.50400001928E-02 0.  1.
       -1    1    3    3    0  502 -0.18593762441E+03 -0.10415274175E+04  0.13138773889E+03  0.10661214281E+04  0.50400001928E-02 0. -1.
</event>
<event>
 5   0  0.1307477E-06  0.2401592E+04  0.7818609E-02  0.8438908E-01
       -2   -1    0    0    0  501  0.00000000000E+00  0.00000000000E+00  0.15344868431E+04  0.15344868431E+04  0.25500000920E-02 0.  1.
        2   -1    0    0  501    0  0.00000000000E+00  0.00000000000E+00 -0.93966962958E+03  0.93966962959E+03  0.25500000920E-02 0. -1.
    10030    2    1    2    0    0  0.00000000000E+00  0.00000000000E+00  0.59481721349E+03  0.24741564727E+04  0.24015917084E+04 0.  0.
        5    1    3    3  502    0 -0.11228047340E+04  0.18033237276E+03 -0.99830379620E+02  0.11415771678E+04  0.46999998093E+01 0. -1.
       -5    1    3    3    0  502  0.11228047340E+04 -0.18033237276E+03  0.69464759311E+03  0.13325793049E+04  0.46999998093E+01 0.  1.
</event>
<event>
 5   0  0.1308662E-06  0.2398473E+04  0.7818609E-02  0.8440076E-01
        2   -1    0    0  501    0  0.00000000000E+00  0.00000000000E+00  0.15259200191E+04  0.15259200191E+04  0.25500000920E-02 0. -1.
       -2   -1    0    0    0  501  0.00000000000E+00  0.00000000000E+00 -0.94249230370E+03  0.94249230370E+03  0.25500000920E-02 0.  1.
    10030    2    1    2    0    0  0.00000000000E+00  0.00000000000E+00  0.58342771537E+03  0.24684123228E+04  0.23984727424E+04 0.  0.
        3    1    3    3  502    0 -0.32142963385E+03  0.10127258869E+04 -0.28059271970E+03  0.10989372212E+04  0.10100000352E+00 0.  1.
       -3    1    3    3    0  502  0.32142963385E+03 -0.10127258869E+04  0.86402043506E+03  0.13694751016E+04  0.10100000352E+00 0. -1.
</event>
<event>
 5   0  0.1291468E-06  0.2399693E+04  0.7818609E-02  0.8439619E-01
        2   -1    0    0  501    0  0.00000000000E+00  0.00000000000E+00  0.26543847383E+04  0.26543847383E+04  0.25500000920E-02 0.  1.
       -2   -1    0    0    0  501  0.00000000000E+00  0.00000000000E+00 -0.54235965165E+03  0.54235965165E+03  0.25500000920E-02 0. -1.
    10030    2    1    2    0    0  0.00000000000E+00  0.00000000000E+00  0.21120250866E+04  0.31967443899E+04  0.23996926320E+04 0.  0.
        4    1    3    3  502    0  0.11665420481E+04 -0.27116566119E+03  0.95922854121E+03  0.15344289404E+04  0.12699999809E+01 0. -1.
       -4    1    3    3    0  502 -0.11665420481E+04  0.27116566119E+03  0.11527965454E+04  0.16623154496E+04  0.12699999809E+01 0.  1.
</event>
<event>
 5   0  0.5510176E-07  0.2399183E+04  0.7818609E-02  0.8439810E-01
        1   -1    0    0  501    0  0.00000000000E+00  0.00000000000E+00  0.11022267033E+04  0.11022267033E+04  0.50400001928E-02 0.  1.
       -1   -1    0    0    0  501  0.00000000000E+00  0.00000000000E+00 -0.13055565903E+04  0.13055565903E+04  0.50400001928E-02 0. -1.
    10030    2    1    2    0    0  0.00000000000E+00  0.00000000000E+00 -0.20332988707E+03  0.24077832936E+04  0.23991826412E+04 0.  0.
        3    1    3    3  502    0  0.82436744192E+03  0.84078675558E+01  0.77287557024E+03  0.11300393926E+04  0.10100000352E+00 0.  1.
       -3    1    3    3    0  502 -0.82436744192E+03 -0.84078675558E+01 -0.97620545732E+03  0.12777439010E+04  0.10100000352E+00 0. -1.
</event>
<event>
 5   0  0.5690124E-07  0.2399893E+04  0.7818609E-02  0.8439544E-01
       -1   -1    0    0    0  501  0.00000000000E+00  0.00000000000E+00  0.11653191409E+04  0.11653191409E+04  0.50400001928E-02 0.  1.
        1   -1    0    0  501    0  0.00000000000E+00  0.00000000000E+00 -0.12356023750E+04  0.12356023750E+04  0.50400001928E-02 0. -1.
    10030    2    1    2    0    0  0.00000000000E+00  0.00000000000E+00 -0.70283234064E+02  0.24009215159E+04  0.23998925794E+04 0.  0.
        2    1    3    3  502    0  0.52819167467E+03  0.13333784192E+03 -0.11047612127E+04  0.12317722040E+04  0.25500000920E-02 0. -1.
       -2    1    3    3    0  502 -0.52819167467E+03 -0.13333784192E+03  0.10344779787E+04  0.11691493119E+04  0.25500000920E-02 0.  1.
</event>
<event>
 5   0  0.5452384E-07  0.2399882E+04  0.7818609E-02  0.8439548E-01
       -1   -1    0    0    0  501  0.00000000000E+00  0.00000000000E+00  0.10873865439E+04  0.10873865439E+04  0.50400001928E-02 0.  1.
        1   -1    0    0  501    0  0.00000000000E+00  0.00000000000E+00 -0.13241456626E+04  0.13241456626E+04  0.50400001928E-02 0. -1.
    10030    2    1    2    0    0  0.00000000000E+00  0.00000000000E+00 -0.23675911870E+03  0.24115322065E+04  0.23998818102E+04 0.  0.
        5    1    3    3  502    0 -0.73880480391E+03 -0.47207938095E+03  0.70483162886E+03  0.11249449743E+04  0.46999998093E+01 0.  1.
       -5    1    3    3    0  502  0.73880480391E+03  0.47207938095E+03 -0.94159074756E+03  0.12865872322E+04  0.46999998093E+01 0. -1.
</event>
<event>
 5   0  0.1291468E-06  0.2399710E+04  0.7818609E-02  0.8439612E-01
        2   -1    0    0  501    0  0.00000000000E+00  0.00000000000E+00  0.14874049563E+04  0.14874049563E+04  0.25500000920E-02 0. -1.
       -2   -1    0    0    0  501  0.00000000000E+00  0.00000000000E+00 -0.96789533019E+03  0.96789533020E+03  0.25500000920E-02 0.  1.
    10030    2    1    2    0    0  0.00000000000E+00  0.00000000000E+00  0.51950962612E+03  0.24553002865E+04  0.23997102419E+04 0.  0.
        4    1    3    3  502    0  0.25064263519E+03 -0.10058195938E+04 -0.35852487336E+03  0.10968301981E+04  0.12699999809E+01 0.  1.
       -4    1    3    3    0  502 -0.25064263519E+03  0.10058195938E+04  0.87803449949E+03  0.13584700884E+04  0.12699999809E+01 0. -1.
</event>
<event>
 5   0  0.5527286E-07  0.2399715E+04  0.7818609E-02  0.8439610E-01
       -1   -1    0    0    0  501  0.00000000000E+00  0.00000000000E+00  0.11757530484E+04  0.11757530484E+04  0.50400001928E-02 0.  1.
        1   -1    0    0  501    0  0.00000000000E+00  0.00000000000E+00 -0.12244562507E+04  0.12244562507E+04  0.50400001928E-02 0. -1.
    10030    2    1    2    0    0  0.00000000000E+00  0.00000000000E+00 -0.48703202230E+02  0.24002092991E+04  0.23997151243E+04 0.  0.
        1    1    3    3  502    0  0.27541064949E+03 -0.10356918107E+04 -0.56404553503E+03  0.12110557040E+04  0.50400001928E-02 0.  1.
       -1    1    3    3    0  502 -0.27541064949E+03  0.10356918107E+04  0.51534233280E+03  0.11891535951E+04  0.50400001928E-02 0. -1.
</event>
<event>
 5   0  0.5452384E-07  0.2387575E+04  0.7818609E-02  0.8444170E-01
       -1   -1    0    0    0  501  0.00000000000E+00  0.00000000000E+00  0.16088740102E+04  0.16088740102E+04  0.50400001928E-02 0.  1.
        1   -1    0    0  501    0  0.00000000000E+00  0.00000000000E+00 -0.88579223434E+03  0.88579223435E+03  0.50400001928E-02 0. -1.
    10030    2    1    2    0    0  0.00000000000E+00  0.00000000000E+00  0.72308177585E+03  0.24946662445E+04  0.23875745888E+04 0.  0.
        5    1    3    3  502    0  0.10128159126E+04  0.15055224159E+03  0.10027814832E+04  0.14331974195E+04  0.46999998093E+01 0.  1.
       -5    1    3    3    0  502 -0.10128159126E+04 -0.15055224159E+03 -0.27969970735E+03  0.10614688250E+04  0.46999998093E+01 0. -1.
</event>
<event>
 5   0  0.5527286E-07  0.2399331E+04  0.7818609E-02  0.8439754E-01
       -1   -1    0    0    0  501  0.00000000000E+00  0.00000000000E+00  0.13621394386E+04  0.13621394386E+04  0.50400001928E-02 0. -1.
        1   -1    0    0  501    0  0.00000000000E+00  0.00000000000E+00 -0.10565711872E+04  0.10565711872E+04  0.50400001928E-02 0.  1.
    10030    2    1    2    0    0  0.00000000000E+00  0.00000000000E+00  0.30556825140E+03  0.24187106257E+04  0.23993309765E+04 0.  0.
        1    1    3    3  502    0 -0.66621894423E+03 -0.30451118609E+03 -0.80495413768E+03  0.10883592734E+04  0.50400001928E-02 0.  1.
       -1    1    3    3    0  502  0.66621894423E+03  0.30451118609E+03  0.11105223891E+04  0.13303513524E+04  0.50400001928E-02 0. -1.
</event>
<event>
 5   0  0.5690124E-07  0.2397598E+04  0.7818609E-02  0.8440403E-01
        1   -1    0    0  501    0  0.00000000000E+00  0.00000000000E+00  0.11934259566E+04  0.11934259566E+04  0.50400001928E-02 0.  1.
       -1   -1    0    0    0  501  0.00000000000E+00  0.00000000000E+00 -0.12041960390E+04  0.12041960390E+04  0.50400001928E-02 0. -1.
    10030    2    1    2    0    0  0.00000000000E+00  0.00000000000E+00 -0.10770082462E+02  0.23976219956E+04  0.23975978059E+04 0.  0.
        2    1    3    3  502    0  0.89004709181E+03  0.43014635714E+03 -0.68355786269E+03  0.12018573401E+04  0.25500000920E-02 0. -1.
       -2    1    3    3    0  502 -0.89004709181E+03 -0.43014635714E+03  0.67278778023E+03  0.11957646555E+04  0.25500000920E-02 0.  1.
</event>
<event>
 5   0  0.1307477E-06  0.2399789E+04  0.7818609E-02  0.8439582E-01
        2   -1    0    0  501    0  0.00000000000E+00  0.00000000000E+00  0.20512144526E+04  0.20512144526E+04  0.25500000920E-02 0.  1.
       -2   -1    0    0    0  501  0.00000000000E+00  0.00000000000E+00 -0.70189997141E+03  0.70189997141E+03  0.25500000920E-02 0. -1.
    10030    2    1    2    0    0  0.00000000000E+00  0.00000000000E+00  0.13493144812E+04  0.27531144240E+04  0.23997894621E+04 0.  0.
        5    1    3    3  502    0  0.76872861173E+03  0.85204046810E+03  0.27262065398E+03  0.11795171676E+04  0.46999998093E+01 0.  1.
       -5    1    3    3    0  502 -0.76872861173E+03 -0.85204046810E+03  0.10766938272E+04  0.15735972564E+04  0.46999998093E+01 0. -1.
</event>
<event>
 5   0  0.1291468E-06  0.2398432E+04  0.7818609E-02  0.8440091E-01
       -2   -1    0    0    0  501  0.00000000000E+00  0.00000000000E+00  0.77987626930E+03  0.77987626930E+03  0.25500000920E-02 0. -1.
        2   -1    0    0  501    0  0.00000000000E+00  0.00000000000E+00 -0.18440351545E+04  0.18440351545E+04  0.25500000920E-02 0.  1.
    10030    2    1    2    0    0  0.00000000000E+00  0.00000000000E+00 -0.10641588852E+04  0.26239114238E+04  0.23984322019E+04 0.  0.
        4    1    3    3  502    0  0.63190915595E+03 -0.99552389882E+03 -0.29304207706E+03  0.12150112289E+04  0.12699999809E+01 0. -1.
       -4    1    3    3    0  502 -0.63190915595E+03  0.99552389882E+03 -0.77111680812E+03  0.14089001949E+04  0.12699999809E+01 0.  1.
</event>
<event>
 5   0  0.5510176E-07  0.2402262E+04  0.7818609E-02  0.8438657E-01
       -1   -1    0    0    0  501  0.00000000000E+00  0.00000000000E+00  0.93522843652E+03  0.93522843653E+03  0.50400001928E-02 0. -1.
        1   -1    0    0  501    0  0.00000000000E+00  0.00000000000E+00 -0.15426339860E+04  0.15426339860E+04  0.50400001928E-02 0.  1.
    10030    2    1    2    0    0  0.00000000000E+00  0.00000000000E+00 -0.60740554945E+03  0.24778624225E+04  0.24022615768E+04 0.  0.
        3    1    3    3  502    0 -0.20071361728E+03  0.28043563072E+03  0.88306469244E+03  0.94801548530E+03  0.10100000352E+00 0. -1.
       -3    1    3    3    0  502  0.20071361728E+03 -0.28043563072E+03 -0.14904702419E+04  0.15298469372E+04  0.10100000352E+00 0.  1.
</event>
<event>
 5   0  0.5690124E-07  0.2397427E+04  0.7818609E-02  0.8440468E-01
       -1   -1    0    0    0  501  0.00000000000E+00  0.00000000000E+00  0.12479396043E+04  0.12479396043E+04  0.50400001928E-02 0. -1.
        1   -1    0    0  501    0  0.00000000000E+00  0.00000000000E+00 -0.11514289394E+04  0.11514289395E+04  0.50400001928E-02 0.  1.
    10030    2    1    2    0    0  0.00000000000E+00  0.00000000000E+00  0.96510664833E+02  0.23993685437E+04  0.23974267664E+04 0.  0.
        2    1    3    3  502    0  0.47769705988E+03  0.66028583052E+03 -0.83151405538E+03  0.11642969910E+04  0.25500000920E-02 0.  1.
       -2    1    3    3    0  502 -0.47769705988E+03 -0.66028583052E+03  0.92802472022E+03  0.12350715527E+04  0.25500000920E-02 0. -1.
</event>
<event>
 5   0  0.1291468E-06  0.2399897E+04  0.7818609E-02  0.8439542E-01
        2   -1    0    0  501    0  0.00000000000E+00  0.00000000000E+00  0.11541194003E+04  0.11541194003E+04  0.25500000920E-02 0.  1.
       -2   -1    0    0    0  501  0.00000000000E+00  0.00000000000E+00 -0.12475979345E+04  0.12475979345E+04  0.25500000920E-02 0. -1.
    10030    2    1    2    0    0  0.00000000000E+00  0.00000000000E+00 -0.93478534275E+02  0.24017173348E+04  0.23998974811E+04 0.  0.
        4    1    3    3  502    0 -0.79705206641E+03  0.12037089799E+03 -0.93628574495E+03  0.12354811851E+04  0.12699999809E+01 0. -1.
       -4    1    3    3    0  502  0.79705206641E+03 -0.12037089799E+03  0.84280721067E+03  0.11662361497E+04  0.12699999809E+01 0.  1.
</event>
<event>
 5   0  0.5527286E-07  0.2399712E+04  0.7818609E-02  0.8439611E-01
        1   -1    0    0  501    0  0.00000000000E+00  0.00000000000E+00  0.11316758418E+04  0.11316758418E+04  0.50400001928E-02 0.  1.
       -1   -1    0    0    0  501  0.00000000000E+00  0.00000000000E+00 -0.12721438216E+04  0.12721438216E+04  0.50400001928E-02 0. -1.
    10030    2    1    2    0    0  0.00000000000E+00  0.00000000000E+00 -0.14046797984E+03  0.24038196634E+04  0.23997120079E+04 0.  0.
        1    1    3    3  502    0 -0.29648112685E+02  0.10805921056E+04 -0.59179415055E+03  0.12323873684E+04  0.50400001928E-02 0. -1.
       -1    1    3    3    0  502  0.29648112685E+02 -0.10805921056E+04  0.45132617071E+03  0.11714322949E+04  0.50400001928E-02 0.  1.
</event>
<event>
 5   0  0.1275948E-06  0.2399432E+04  0.7818609E-02  0.8439716E-01
        2   -1    0    0  501    0  0.00000000000E+00  0.00000000000E+00  0.17073392695E+04  0.17073392695E+04  0.25500000920E-02 0. -1.
       -2   -1    0    0    0  501  0.00000000000E+00  0.00000000000E+00 -0.84301851594E+03  0.84301851595E+03  0.25500000920E-02 0.  1.
    10030    2    1    2    0    0  0.00000000000E+00  0.00000000000E+00  0.86432075352E+03  0.25503577854E+04  0.23994321138E+04 0.  0.
        1    1    3    3  502    0  0.45901445303E+03  0.89570684189E+03  0.11261730898E+04  0.15103810257E+04  0.50400001928E-02 0. -1.
       -1    1    3    3    0  502 -0.45901445303E+03 -0.89570684189E+03 -0.26185233624E+03  0.10399767597E+04  0.50400001928E-02 0.  1.
</event>
<event>
 5   0  0.5527286E-07  0.2400532E+04  0.7818609E-02  0.8439304E-01
        1   -1    0    0  501    0  0.00000000000E+00  0.00000000000E+00  0.20754981621E+04  0.20754981621E+04  0.50400001928E-02 0. -1.
       -1   -1    0    0    0  501  0.00000000000E+00  0.00000000000E+00 -0.69411696387E+03  0.69411696389E+03  0.50400001928E-02 0.  1.
    10030    2    1    2    0    0  0.00000000000E+00  0.00000000000E+00  0.13813811983E+04  0.27696151260E+04  0.24005320101E+04 0.  0.
        1    1    3    3  502    0 -0.31769787719E+03  0.10019205818E+04  0.13593302932E+04  0.17183002180E+04  0.50400001928E-02 0. -1.
       -1    1    3    3    0  502  0.31769787719E+03 -0.10019205818E+04  0.22050905075E+02  0.10513149080E+04  0.50400001928E-02 0.  1.
</event>
<event>
 5   0  0.5527286E-07  0.2399917E+04  0.7818609E-02  0.8439535E-01
       -1   -1    0    0    0  501  0.00000000000E+00  0.00000000000E+00  0.12684119025E+04  0.12684119025E+04  0.50400001928E-02 0.  1.
        1   -1    0    0  501    0  0.00000000000E+00  0.00000000000E+00 -0.11351994297E+04  0.11351994297E+04  0.50400001928E-02 0. -1.
    10030    2    1    2    0    0  0.00000000000E+00  0.00000000000E+00  0.13321247278E+03  0.24036113323E+04  0.23999170556E+04 0.  0.
        1    1    3    3  502    0  0.26063810420E+03  0.11531429440E+03 -0.11008084198E+04  0.11371054415E+04  0.50400001928E-02 0. -1.
       -1    1    3    3    0  502 -0.26063810420E+03 -0.11531429440E+03  0.12340208926E+04  0.12665058908E+04  0.50400001928E-02 0.  1.
</event>
<event>
 5   0  0.1308662E-06  0.2398970E+04  0.7818609E-02  0.8439889E-01
       -2   -1    0    0    0  501  0.00000000000E+00  0.00000000000E+00  0.24120354807E+04  0.24120354807E+04  0.25500000920E-02 0.  1.
        2   -1    0    0  501    0  0.00000000000E+00  0.00000000000E+00 -0.59649404487E+03  0.59649404488E+03  0.25500000920E-02 0. -1.
    10030    2    1    2    0    0  0.00000000000E+00  0.00000000000E+00  0.18155414358E+04  0.30085295256E+04  0.23989704461E+04 0.  0.
        3    1    3    3  502    0  0.10060935639E+04  0.65248762142E+03  0.94325142884E+03  0.15256761202E+04  0.10100000352E+00 0.  1.
       -3    1    3    3    0  502 -0.10060935639E+04 -0.65248762142E+03  0.87229000697E+03  0.14828534054E+04  0.10100000352E+00 0. -1.
</event>
<event>
 5   0  0.5452384E-07  0.2400144E+04  0.7818609E-02  0.8439450E-01
       -1   -1    0    0    0  501  0.00000000000E+00  0.00000000000E+00  0.14697140697E+04  0.14697140697E+04  0.50400001928E-02 0.  1.
        1   -1    0    0  501    0  0.00000000000E+00  0.00000000000E+00 -0.97989965470E+03  0.97989965471E+03  0.50400001928E-02 0. -1.
    10030    2    1    2    0    0  0.00000000000E+00  0.00000000000E+00  0.48981441500E+03  0.24496137244E+04  0.24001435869E+04 0.  0.
        5    1    3    3  502    0 -0.13964750680E+03 -0.96925644839E+03  0.95288397933E+03  0.13663709075E+04  0.46999998093E+01 0.  1.
       -5    1    3    3    0  502  0.13964750680E+03  0.96925644839E+03 -0.46306956433E+03  0.10832428169E+04  0.46999998093E+01 0. -1.
</event>
<event>
 5   0  0.1308662E-06  0.2400620E+04  0.7818609E-02  0.8439271E-01
       -2   -1    0    0    0  501  0.00000000000E+00  0.00000000000E+00  0.59947839050E+03  0.59947839051E+03  0.25500000920E-02 0.  1.
        2   -1    0    0  501    0  0.00000000000E+00  0.00000000000E+00 -0.24033295970E+04  0.24033295970E+04  0.25500000920E-02 0. -1.
    10030    2    1    2    0    0  0.00000000000E+00  0.00000000000E+00 -0.18038512065E+04  0.30028079875E+04  0.24006200521E+04 0.  0.
        3    1    3    3  502    0  0.18260844506E+03 -0.60882403060E+03 -0.21755380714E+04  0.22664903385E+04  0.10100000352E+00 0. -1.
       -3    1    3    3    0  502 -0.18260844506E+03  0.60882403060E+03  0.37168686489E+03  0.73631764896E+03  0.10100000352E+00 0.  1.
</event>
<event>
 5   0  0.1291468E-06  0.2401450E+04  0.7818609E-02  0.8438961E-01
        2   -1    0    0  501    0  0.00000000000E+00  0.00000000000E+00  0.17916282954E+04  0.17916282954E+04  0.25500000920E-02 0. -1.
       -2   -1    0    0    0  501  0.00000000000E+00  0.00000000000E+00 -0.80470990928E+03  0.80470990929E+03  0.25500000920E-02 0.  1.
    10030    2    1    2    0    0  0.00000000000E+00  0.00000000000E+00  0.98691838616E+03  0.25963382047E+04  0.24014504310E+04 0.  0.
        4    1    3    3  502    0  0.74123360565E+03 -0.63238494972E+02 -0.52553254328E+03  0.91083062769E+03  0.12699999809E+01 0.  1.
       -4    1    3    3    0  502 -0.74123360565E+03  0.63238494972E+02  0.15124509294E+04  0.16855075770E+04  0.12699999809E+01 0. -1.
</event>
<event>
 5   0  0.1308662E-06  0.2392941E+04  0.7818609E-02  0.8442151E-01
        2   -1    0    0  501    0  0.00000000000E+00  0.00000000000E+00  0.11338869153E+04  0.11338869153E+04  0.25500000920E-02 0.  1.
       -2   -1    0    0    0  501  0.00000000000E+00  0.00000000000E+00 -0.12625082538E+04  0.12625082538E+04  0.25500000920E-02 0. -1.
    10030    2    1    2    0    0  0.00000000000E+00  0.00000000000E+00 -0.12862133846E+03  0.23963951691E+04  0.23929409433E+04 0.  0.
        3    1    3    3  502    0  0.91380882045E+02 -0.15227129205E+03 -0.12492365386E+04  0.12617959231E+04  0.10100000352E+00 0. -1.
       -3    1    3    3    0  502 -0.91380882045E+02  0.15227129205E+03  0.11206152002E+04  0.11345992460E+04  0.10100000352E+00 0.  1.
</event>
<event>
 5   0  0.1275948E-06  0.2400523E+04  0.7818609E-02  0.8439308E-01
        2   -1    0    0  501    0  0.00000000000E+00  0.00000000000E+00  0.16657892465E+04  0.16657892465E+04  0.25500000920E-02 0.  1.
       -2   -1    0    0    0  501  0.00000000000E+00  0.00000000000E+00 -0.86483209328E+03  0.86483209329E+03  0.25500000920E-02 0. -1.
    10030    2    1    2    0    0  0.00000000000E+00  0.00000000000E+00  0.80095715322E+03  0.25306213398E+04  0.24005232771E+04 0.  0.
        1    1    3    3  502    0  0.62032891476E+03 -0.48571085591E+03 -0.55408094193E+03  0.96318673593E+03  0.50400001928E-02 0. -1.
       -1    1    3    3    0  502 -0.62032891476E+03  0.48571085591E+03  0.13550380951E+04  0.15674346039E+04  0.50400001928E-02 0.  1.
</event>
<event>
 5   0  0.5690124E-07  0.2400735E+04  0.7818609E-02  0.8439228E-01
       -1   -1    0    0    0  501  0.00000000000E+00  0.00000000000E+00  0.13468577981E+04  0.13468577981E+04  0.50400001928E-02 0.  1.
        1   -1    0    0  501    0  0.00000000000E+00  0.00000000000E+00 -0.10698101128E+04  0.10698101128E+04  0.50400001928E-02 0. -1.
    10030    2    1    2    0    0  0.00000000000E+00  0.00000000000E+00  0.27704768533E+03  0.24166679109E+04  0.24007349649E+04 0.  0.
        2    1    3    3  502    0 -0.40344156824E+03  0.40967957729E+03 -0.92216730741E+03  0.10867359375E+04  0.25500000920E-02 0. -1.
       -2    1    3    3    0  502  0.40344156824E+03 -0.40967957729E+03  0.11992149927E+04  0.13299319734E+04  0.25500000920E-02 0.  1.
</event>
<event>
 5   0  0.5363690E-07  0.2401018E+04  0.7818609E-02  0.8439123E-01
        1   -1    0    0  501    0  0.00000000000E+00  0.00000000000E+00  0.15458207659E+04  0.15458207659E+04  0.50400001928E-02 0. -1.
       -1   -1    0    0    0  501  0.00000000000E+00  0.00000000000E+00 -0.93233424472E+03  0.93233424474E+03  0.50400001928E-02 0.  1.
    10030    2    1    2    0    0  0.00000000000E+00  0.00000000000E+00  0.61348652117E+03  0.24781550106E+04  0.24010178144E+04 0.  0.
        4    1    3    3  502    0 -0.10795875596E+04  0.17313108333E+03  0.81838714780E+03  0.13657389236E+04  0.12699999809E+01 0. -1.
       -4    1    3    3    0  502  0.10795875596E+04 -0.17313108333E+03 -0.20490062664E+03  0.11124160870E+04  0.12699999809E+01 0.  1.
</event>
<event>
 5   0  0.1307477E-06  0.2399014E+04  0.7818609E-02  0.8439873E-01
       -2   -1    0    0    0  501  0.00000000000E+00  0.00000000000E+00  0.11987456448E+04  0.11987456448E+04  0.25500000920E-02 0. -1.
        2   -1    0    0  501    0  0.00000000000E+00  0.00000000000E+00 -0.12002689976E+04  0.12002689976E+04  0.25500000920E-02 0.  1.
    10030    2    1    2    0    0  0.00000000000E+00  0.00000000000E+00 -0.15233527568E+01  0.23990146424E+04  0.23990141588E+04 0.  0.
        5    1    3    3  502    0 -0.32036047991E+03 -0.11279455932E+04 -0.25355224367E+03  0.11996678410E+04  0.46999998093E+01 0.  1.
       -5    1    3    3    0  502  0.32036047991E+03  0.11279455932E+04  0.25202889092E+03  0.11993468015E+04  0.46999998093E+01 0. -1.
</event>
<event>
 5   0  0.5527286E-07  0.2399972E+04  0.7818609E-02  0.8439514E-01
        1   -1    0    0  501    0  0.00000000000E+00  0.00000000000E+00  0.10881237574E+04  0.10881237574E+04  0.50400001928E-02 0. -1.
       -1   -1    0    0    0  501  0.00000000000E+00  0.00000000000E+00 -0.13233476396E+04  0.13233476396E+04  0.50400001928E-02 0.  1.
    10030    2    1    2    0    0  0.00000000000E+00  0.00000000000E+00 -0.23522388220E+03  0.24114713969E+04  0.23999716714E+04 0.  0.
        1    1    3    3  502    0 -0.87118429267E+03  0.78535736494E+03  0.13701451162E+03  0.11808984880E+04  0.50400001928E-02 0. -1.
       -1    1    3    3    0  502  0.87118429267E+03 -0.78535736494E+03 -0.37223839383E+03  0.12305729090E+04  0.50400001928E-02 0.  1.
</event>
<event>
 5   0  0.5363690E-07  0.2399614E+04  0.7818609E-02  0.8439648E-01
       -1   -1    0    0    0  501  0.00000000000E+00  0.00000000000E+00  0.66070007521E+03  0.66070007522E+03  0.50400001928E-02 0.  1.
        1   -1    0    0  501    0  0.00000000000E+00  0.00000000000E+00 -0.21788061196E+04  0.21788061196E+04  0.50400001928E-02 0. -1.
    10030    2    1    2    0    0  0.00000000000E+00  0.00000000000E+00 -0.15181060444E+04  0.28395061948E+04  0.23996144416E+04 0.  0.
        4    1    3    3  502    0 -0.43163799419E+03 -0.59534691215E+03 -0.18808896403E+04  0.20195288450E+04  0.12699999809E+01 0. -1.
       -4    1    3    3    0  502  0.43163799419E+03  0.59534691215E+03  0.36278359593E+03  0.81997734982E+03  0.12699999809E+01 0.  1.
</event>
<event>
 5   0  0.5452384E-07  0.2401502E+04  0.7818609E-02  0.8438942E-01
       -1   -1    0    0    0  501  0.00000000000E+00  0.00000000000E+00  0.10227791699E+04  0.10227791699E+04  0.50400001928E-02 0. -1.
        1   -1    0    0  501    0  0.00000000000E+00  0.00000000000E+00 -0.14096909975E+04  0.14096909975E+04  0.50400001928E-02 0.  1.
    10030    2    1    2    0    0  0.00000000000E+00  0.00000000000E+00 -0.38691182764E+03  0.24324701674E+04  0.24015016870E+04 0.  0.
        5    1    3    3  502    0 -0.59994037295E+03 -0.11635734964E+03 -0.12403768530E+04  0.13827596723E+04  0.46999998093E+01 0.  1.
       -5    1    3    3    0  502  0.59994037295E+03  0.11635734964E+03  0.85346502537E+03  0.10497104951E+04  0.46999998093E+01 0. -1.
</event>
<event>
 5   0  0.1291468E-06  0.2400427E+04  0.7818609E-02  0.8439344E-01
       -2   -1    0    0    0  501  0.00000000000E+00  0.00000000000E+00  0.11039223893E+04  0.11039223893E+04  0.25500000920E-02 0.  1.
        2   -1    0    0  501    0  0.00000000000E+00  0.00000000000E+00 -0.13049036319E+04  0.13049036319E+04  0.25500000920E-02 0. -1.
    10030    2    1    2    0    0  0.00000000000E+00  0.00000000000E+00 -0.20098124264E+03  0.24088260212E+04  0.24004269080E+04 0.  0.
        4    1    3    3  502    0 -0.11662190766E+04 -0.27322499942E+03 -0.17686136093E+03  0.12107850300E+04  0.12699999809E+01 0. -1.
       -4    1    3    3    0  502  0.11662190766E+04  0.27322499942E+03 -0.24119881711E+02  0.11980409912E+04  0.12699999809E+01 0.  1.
</event>
<event>
 5   0  0.5527286E-07  0.2400048E+04  0.7818609E-02  0.8439486E-01
       -1   -1    0    0    0  501  0.00000000000E+00  0.00000000000E+00  0.77061186696E+03  0.77061186697E+03  0.50400001928E-02 0.  1.
        1   -1    0    0  501    0  0.00000000000E+00  0.00000000000E+00 -0.18687194991E+04  0.18687194991E+04  0.50400001928E-02 0. -1.
    10030    2    1    2    0    0  0.00000000000E+00  0.00000000000E+00 -0.10981076322E+04  0.26393313661E+04  0.24000478512E+04 0.  0.
        1    1    3    3  502    0 -0.34263059476E+03 -0.49416640840E+03  0.59297297609E+03  0.84451945748E+03  0.50400001928E-02 0.  1.
       -1    1    3    3    0  502  0.34263059476E+03  0.49416640840E+03 -0.16910806083E+04  0.17948119086E+04  0.50400001928E-02 0. -1.
</event>
<event>
 5   0  0.1336057E-06  0.2399776E+04  0.7818609E-02  0.8439587E-01
        2   -1    0    0  501    0  0.00000000000E+00  0.00000000000E+00  0.93837398819E+03  0.93837398820E+03  0.25500000920E-02 0. -1.
       -2   -1    0    0    0  501  0.00000000000E+00  0.00000000000E+00 -0.15342834424E+04  0.15342834424E+04  0.25500000920E-02 0.  1.
    10030    2    1    2    0    0  0.00000000000E+00  0.00000000000E+00 -0.59590945420E+03  0.24726574306E+04  0.23997763836E+04 0.  0.
        2    1    3    3  502    0  0.76238355016E+03 -0.88112718699E+03 -0.59321976794E+03  0.13074874723E+04  0.25500000920E-02 0.  1.
       -2    1    3    3    0  502 -0.76238355016E+03  0.88112718699E+03 -0.26896862577E+01  0.11651699583E+04  0.25500000920E-02 0. -1.
</event>
<event>
 5   0  0.1307477E-06  0.2399346E+04  0.7818609E-02  0.8439749E-01
        2   -1    0    0  501    0  0.00000000000E+00  0.00000000000E+00  0.10412011287E+04  0.10412011287E+04  0.25500000920E-02 0. -1.
       -2   -1    0    0    0  501  0.00000000000E+00  0.00000000000E+00 -0.13822642725E+04  0.13822642725E+04  0.25500000920E-02 0.  1.
    10030    2    1    2    0    0  0.00000000000E+00  0.00000000000E+00 -0.34106314380E+03  0.24234654013E+04  0.23993458448E+04 0.  0.
        5    1    3    3  502    0 -0.33195038216E+03  0.29883485435E+01  0.99387681693E+03  0.10478612521E+04  0.46999998093E+01 0. -1.
       -5    1    3    3    0  502  0.33195038216E+03 -0.29883485435E+01 -0.13349399607E+04  0.13756041492E+04  0.46999998093E+01 0.  1.
</event>
<event>
 5   0  0.5510176E-07  0.2400620E+04  0.7818609E-02  0.8439272E-01
       -1   -1    0    0    0  501  0.00000000000E+00  0.00000000000E+00  0.55567252033E+03  0.55567252035E+03  0.50400001928E-02 0.  1.
        1   -1    0    0  501    0  0.00000000000E+00  0.00000000000E+00 -0.25927930768E+04  0.25927930768E+04  0.50400001928E-02 0. -1.
    10030    2    1    2    0    0  0.00000000000E+00  0.00000000000E+00 -0.20371205565E+04  0.31484655972E+04  0.24006198064E+04 0.  0.
        3    1    3    3  502    0 -0.11110159871E+04  0.14382170179E+03 -0.45338310168E+03  0.12085517997E+04  0.10100000352E+00 0.  1.
       -3    1    3    3    0  502  0.11110159871E+04 -0.14382170179E+03 -0.15837374548E+04  0.19399137975E+04  0.10100000352E+00 0. -1.
</event>
<event>
 5   0  0.5452384E-07  0.2400210E+04  0.7818609E-02  0.8439425E-01
        1   -1    0    0  501    0  0.00000000000E+00  0.00000000000E+00  0.20798220118E+04  0.20798220118E+04  0.50400001928E-02 0. -1.
       -1   -1    0    0    0  501  0.00000000000E+00  0.00000000000E+00 -0.69248838618E+03  0.69248838619E+03  0.50400001928E-02 0.  1.
    10030    2    1    2    0    0  0.00000000000E+00  0.00000000000E+00  0.13873336256E+04  0.27723103980E+04  0.24002104812E+04 0.  0.
        5    1    3    3  502    0 -0.15182455574E+03  0.41944420843E+03 -0.59316420240E+03  0.74219269784E+03  0.46999998093E+01 0.  1.
       -5    1    3    3    0  502  0.15182455574E+03 -0.41944420843E+03  0.19804978280E+04  0.20301177002E+04  0.46999998093E+01 0. -1.
</event>
<event>
 5   0  0.1336057E-06  0.2400071E+04  0.7818609E-02  0.8439477E-01
       -2   -1    0    0    0  501  0.00000000000E+00  0.00000000000E+00  0.60986416748E+03  0.60986416749E+03  0.25500000920E-02 0. -1.
        2   -1    0    0  501    0  0.00000000000E+00  0.00000000000E+00 -0.23613216154E+04  0.23613216155E+04  0.25500000920E-02 0.  1.
    10030    2    1    2    0    0  0.00000000000E+00  0.00000000000E+00 -0.17514574480E+04  0.29711857829E+04  0.24000711999E+04 0.  0.
        2    1    3    3  502    0  0.31395673607E+03 -0.92638094083E+03 -0.17363850950E+04  0.19929334354E+04  0.25500000920E-02 0.  1.
       -2    1    3    3    0  502 -0.31395673607E+03  0.92638094083E+03 -0.15072352944E+02  0.97825234755E+03  0.25500000920E-02 0. -1.
</event>
<event>
 5   0  0.5363690E-07  0.2390504E+04  0.7818609E-02  0.8443067E-01
        1   -1    0    0  501    0  0.00000000000E+00  0.00000000000E+00  0.10183292485E+04  0.10183292485E+04  0.50400001928E-02 0.  1.
       -1   -1    0    0    0  501  0.00000000000E+00  0.00000000000E+00 -0.14029134953E+04  0.14029134953E+04  0.50400001928E-02 0. -1.
    10030    2    1    2    0    0  0.00000000000E+00  0.00000000000E+00 -0.38458424684E+03  0.24212427438E+04  0.23905044199E+04 0.  0.
        4    1    3    3  502    0  0.89466048681E+03 -0.78861251067E+03 -0.27267987632E+03  0.12233899650E+04  0.12699999809E+01 0.  1.
       -4    1    3    3    0  502 -0.89466048681E+03  0.78861251067E+03 -0.11190437051E+03  0.11978527788E+04  0.12699999809E+01 0. -1.
</event>
<event>
 5   0  0.1308662E-06  0.2402997E+04  0.7818609E-02  0.8438383E-01
        2   -1    0    0  501    0  0.00000000000E+00  0.00000000000E+00  0.13248691318E+04  0.13248691318E+04  0.25500000920E-02 0. -1.
       -2   -1    0    0    0  501  0.00000000000E+00  0.00000000000E+00 -0.10896157440E+04  0.10896157440E+04  0.25500000920E-02 0.  1.
    10030    2    1    2    0    0  0.00000000000E+00  0.00000000000E+00  0.23525338776E+03  0.24144848758E+04  0.24029966831E+04 0.  0.
        3    1    3    3  502    0  0.37402338122E+03  0.90963592065E+02 -0.10259843970E+04  0.10958156130E+04  0.10100000352E+00 0.  1.
       -3    1    3    3    0  502 -0.37402338122E+03 -0.90963592065E+02  0.12612377847E+04  0.13186692628E+04  0.10100000352E+00 0. -1.
</event>
<event>
 5   0  0.1307477E-06  0.2400623E+04  0.7818609E-02  0.8439270E-01
       -2   -1    0    0    0  501  0.00000000000E+00  0.00000000000E+00  0.89031802472E+03  0.89031802472E+03  0.25500000920E-02 0.  1.
        2   -1    0    0  501    0  0.00000000000E+00  0.00000000000E+00 -0.16182399631E+04  0.16182399631E+04  0.25500000920E-02 0. -1.
    10030    2    1    2    0    0  0.00000000000E+00  0.00000000000E+00 -0.72792193841E+03  0.25085579879E+04  0.24006234253E+04 0.  0.
        5    1    3    3  502    0  0.11492089258E+04 -0.52827163180E+02 -0.61411371492E+01  0.11504484638E+04  0.46999998093E+01 0. -1.
       -5    1    3    3    0  502 -0.11492089258E+04  0.52827163180E+02 -0.72178080126E+03  0.13581095241E+04  0.46999998093E+01 0.  1.
</event>
<event>
 5   0  0.1275948E-06  0.2400391E+04  0.7818609E-02  0.8439357E-01
        2   -1    0    0  501    0  0.00000000000E+00  0.00000000000E+00  0.11008240736E+04  0.11008240736E+04  0.25500000920E-02 0.  1.
       -2   -1    0    0    0  501  0.00000000000E+00  0.00000000000E+00 -0.13085372535E+04  0.13085372535E+04  0.25500000920E-02 0. -1.
    10030    2    1    2    0    0  0.00000000000E+00  0.00000000000E+00 -0.20771317988E+03  0.24093613271E+04  0.24003910597E+04 0.  0.
        1    1    3    3  502    0 -0.49260264045E+03 -0.83889067842E+03  0.60167441034E+03  0.11438562094E+04  0.50400001928E-02 0. -1.
       -1    1    3    3    0  502  0.49260264045E+03  0.83889067842E+03 -0.80938759022E+03  0.12655051177E+04  0.50400001928E-02 0.  1.
</event>
<event>
 5   0  0.5363690E-07  0.2404673E+04  0.7818609E-02  0.8437756E-01
       -1   -1    0    0    0  501  0.00000000000E+00  0.00000000000E+00  0.16910181650E+04  0.16910181650E+04  0.50400001928E-02 0.  1.
        1   -1    0    0  501    0  0.00000000000E+00  0.00000000000E+00 -0.85487751579E+03  0.85487751581E+03  0.50400001928E-02 0. -1.
    10030    2    1    2    0    0  0.00000000000E+00  0.00000000000E+00  0.83614064916E+03  0.25458956808E+04  0.24046732901E+04 0.  0.
        4    1    3    3  502    0 -0.11432822472E+04  0.29923764146E+03  0.18377221371E+03  0.11959980360E+04  0.12699999809E+01 0.  1.
       -4    1    3    3    0  502  0.11432822472E+04 -0.29923764146E+03  0.65236843545E+03  0.13498976447E+04  0.12699999809E+01 0. -1.
</event>
<event>
 5   0  0.1275948E-06  0.2399774E+04  0.7818609E-02  0.8439588E-01
        2   -1    0    0  501    0  0.00000000000E+00  0.00000000000E+00  0.24430016797E+04  0.24430016797E+04  0.25500000920E-02 0. -1.
       -2   -1    0    0    0  501  0.00000000000E+00  0.00000000000E+00 -0.58932786327E+03  0.58932786327E+03  0.25500000920E-02 0.  1.
    10030    2    1    2    0    0  0.00000000000E+00  0.00000000000E+00  0.18536738164E+04  0.30323295430E+04  0.23997741226E+04 0.  0.
        1    1    3    3  502    0  0.66976238705E+03  0.89094571914E+03  0.14881936380E+04  0.18593241336E+04  0.50400001928E-02 0. -1.
       -1    1    3    3    0  502 -0.66976238705E+03 -0.89094571914E+03  0.36548017842E+03  0.11730054094E+04  0.50400001928E-02 0.  1.
</event>
<event>
 5   0  0.5527286E-07  0.2400559E+04  0.7818609E-02  0.8439294E-01
       -1   -1    0    0    0  501  0.00000000000E+00  0.00000000000E+00  0.53073479479E+03  0.53073479482E+03  0.50400001928E-02 0.  1.
        1   -1    0    0  501    0  0.00000000000E+00  0.00000000000E+00 -0.27144827316E+04  0.27144827316E+04  0.50400001928E-02 0. -1.
    10030    2    1    2    0    0  0.00000000000E+00  0.00000000000E+00 -0.21837479368E+04  0.32452175264E+04  0.24005586313E+04 0.  0.
        1    1    3    3  502    0  0.80649145091E+02 -0.92121537672E+03 -0.21263143606E+04  0.23186967924E+04  0.50400001928E-02 0. -1.
       -1    1    3    3    0  502 -0.80649145091E+02  0.92121537672E+03 -0.57433576217E+02  0.92652073404E+03  0.50400001928E-02 0.  1.
</event>
<event>
 5   0  0.1291468E-06  0.2397763E+04  0.7818609E-02  0.8440342E-01
        2   -1    0    0  501    0  0.00000000000E+00  0.00000000000E+00  0.60289653548E+03  0.60289653549E+03  0.25500000920E-02 0.  1.
       -2   -1    0    0    0  501  0.00000000000E+00  0.00000000000E+00 -0.23840188401E+04  0.23840188401E+04  0.25500000920E-02 0. -1.
    10030    2    1    2    0    0  0.00000000000E+00  0.00000000000E+00 -0.17811223046E+04  0.29869153756E+04  0.23977628734E+04 0.  0.
        4    1    3    3  502    0 -0.78136285868E+03  0.17183487660E+03 -0.20028476357E+04  0.21567233031E+04  0.12699999809E+01 0. -1.
       -4    1    3    3    0  502  0.78136285868E+03 -0.17183487660E+03  0.22172533108E+03  0.83019207241E+03  0.12699999809E+01 0.  1.
</event>
<event>
 5   0  0.5527286E-07  0.2399731E+04  0.7818609E-02  0.8439604E-01
        1   -1    0    0  501    0  0.00000000000E+00  0.00000000000E+00  0.13958502087E+04  0.13958502088E+04  0.50400001928E-02 0.  1.
       -1   -1    0    0    0  501  0.00000000000E+00  0.00000000000E+00 -0.10313982894E+04  0.10313982895E+04  0.50400001928E-02 0. -1.
    10030    2    1    2    0    0  0.00000000000E+00  0.00000000000E+00  0.36445191930E+03  0.24272484982E+04  0.23997312497E+04 0.  0.
        1    1    3    3  502    0  0.11732200769E+04 -0.22163060704E+03  0.30238226803E+03  0.12316657464E+04  0.50400001928E-02 0. -1.
       -1    1    3    3    0  502 -0.11732200769E+04  0.22163060704E+03  0.62069651272E+02  0.11955827518E+04  0.50400001928E-02 0.  1.
</event>
<event>
 5   0  0.1307477E-06  0.2399926E+04  0.7818609E-02  0.8439531E-01
       -2   -1    0    0    0  501  0.00000000000E+00  0.00000000000E+00  0.99859385609E+03  0.99859385610E+03  0.25500000920E-02 0. -1.
        2   -1    0    0  501    0  0.00000000000E+00  0.00000000000E+00 -0.14419383763E+04  0.14419383763E+04  0.25500000920E-02 0.  1.
    10030    2    1    2    0    0  0.00000000000E+00  0.00000000000E+00 -0.44334452021E+03  0.24405322324E+04  0.23999256684E+04 0.  0.
        5    1    3    3  502    0 -0.72581595628E+03 -0.83811115337E+03  0.24505920724E+03  0.11354801684E+04  0.46999998093E+01 0. -1.
       -5    1    3    3    0  502  0.72581595628E+03  0.83811115337E+03 -0.68840372745E+03  0.13050520640E+04  0.46999998093E+01 0.  1.
</event>
<event>
 5   0  0.1307477E-06  0.2401340E+04  0.7818609E-02  0.8439002E-01
       -2   -1    0    0    0  501  0.00000000000E+00  0.00000000000E+00  0.10225260693E+04  0.10225260693E+04  0.25500000920E-02 0.  1.
        2   -1    0    0  501    0  0.00000000000E+00  0.00000000000E+00 -0.14098501998E+04  0.14098501998E+04  0.25500000920E-02 0. -1.
    10030    2    1    2    0    0  0.00000000000E+00  0.00000000000E+00 -0.38732413054E+03  0.24323762691E+04  0.24013401118E+04 0.  0.
        5    1    3    3  502    0  0.11788869689E+04  0.29402581613E+02 -0.42229484875E+03  0.12525949172E+04  0.46999998093E+01 0. -1.
       -5    1    3    3    0  502 -0.11788869689E+04 -0.29402581613E+02  0.34970718211E+02  0.11797813519E+04  0.46999998093E+01 0.  1.
</event>
<event>
 5   0  0.1336057E-06  0.2399455E+04  0.7818609E-02  0.8439708E-01
        2   -1    0    0  501    0  0.00000000000E+00  0.00000000000E+00  0.12968548205E+04  0.12968548205E+04  0.25500000920E-02 0.  1.
       -2   -1    0    0    0  501  0.00000000000E+00  0.00000000000E+00 -0.11098744973E+04  0.11098744973E+04  0.25500000920E-02 0. -1.
    10030    2    1    2    0    0  0.00000000000E+00  0.00000000000E+00  0.18698032324E+03  0.24067293179E+04  0.23994550148E+04 0.  0.
        2    1    3    3  502    0  0.41214951997E+03  0.26340312997E+03 -0.10053206654E+04  0.11179973506E+04  0.25500000920E-02 0. -1.
       -2    1    3    3    0  502 -0.41214951997E+03 -0.26340312997E+03  0.11923009887E+04  0.12887319672E+04  0.25500000920E-02 0.  1.
</event>
<event>
 5   0  0.1336057E-06  0.2397300E+04  0.7818609E-02  0.8440515E-01
        2   -1    0    0  501    0  0.00000000000E+00  0.00000000000E+00  0.15683052153E+04  0.15683052153E+04  0.25500000920E-02 0. -1.
       -2   -1    0    0    0  501  0.00000000000E+00  0.00000000000E+00 -0.91612349469E+03  0.91612349470E+03  0.25500000920E-02 0.  1.
    10030    2    1    2    0    0  0.00000000000E+00  0.00000000000E+00  0.65218172061E+03  0.24844287100E+04  0.23972995262E+04 0.  0.
        2    1    3    3  502    0 -0.66900959559E+03  0.37988798877E+03 -0.62648557774E+03  0.99215568442E+03  0.25500000920E-02 0.  1.
       -2    1    3    3    0  502  0.66900959559E+03 -0.37988798877E+03  0.12786672983E+04  0.14922730256E+04  0.25500000920E-02 0. -1.
</event>
<event>
 5   0  0.1275948E-06  0.2400749E+04  0.7818609E-02  0.8439223E-01
       -2   -1    0    0    0  501  0.00000000000E+00  0.00000000000E+00  0.52172742244E+03  0.52172742244E+03  0.25500000920E-02 0. -1.
        2   -1    0    0  501    0  0.00000000000E+00  0.00000000000E+00 -0.27617838949E+04  0.27617838949E+04  0.25500000920E-02 0.  1.
    10030    2    1    2    0    0  0.00000000000E+00  0.00000000000E+00 -0.22400564725E+04  0.32835113174E+04  0.24007485440E+04 0.  0.
        1    1    3    3  502    0  0.57149045539E+03 -0.35851803530E+03  0.23790322741E+03  0.71535618253E+03  0.50400001928E-02 0. -1.
       -1    1    3    3    0  502 -0.57149045539E+03  0.35851803530E+03 -0.24779596999E+04  0.25681551349E+04  0.50400001928E-02 0.  1.
</event>
<event>
 5   0  0.5452384E-07  0.2401315E+04  0.7818609E-02  0.8439011E-01
        1   -1    0    0  501    0  0.00000000000E+00  0.00000000000E+00  0.20152575100E+04  0.20152575100E+04  0.50400001928E-02 0.  1.
       -1   -1    0    0    0  501  0.00000000000E+00  0.00000000000E+00 -0.71533198841E+03  0.71533198843E+03  0.50400001928E-02 0. -1.
    10030    2    1    2    0    0  0.00000000000E+00  0.00000000000E+00  0.12999255216E+04  0.27305894984E+04  0.24013147747E+04 0.  0.
        5    1    3    3  502    0 -0.89599715483E+03  0.14153956715E+03  0.15444033406E+04  0.17911024870E+04  0.46999998093E+01 0.  1.
       -5    1    3    3    0  502  0.89599715483E+03 -0.14153956715E+03 -0.24447781907E+03  0.93948701138E+03  0.46999998093E+01 0. -1.
</event>
<event>
 5   0  0.5510176E-07  0.2398696E+04  0.7818609E-02  0.8439992E-01
        1   -1    0    0  501    0  0.00000000000E+00  0.00000000000E+00  0.13374530333E+04  0.13374530333E+04  0.50400001928E-02 0.  1.
       -1   -1    0    0    0  501  0.00000000000E+00  0.00000000000E+00 -0.10755037841E+04  0.10755037841E+04  0.50400001928E-02 0. -1.
    10030    2    1    2    0    0  0.00000000000E+00  0.00000000000E+00  0.26194924922E+03  0.24129568174E+04  0.23986961444E+04 0.  0.
        3    1    3    3  502    0 -0.11209955348E+03  0.40590555784E+03  0.12606426185E+04  0.13291145374E+04  0.10100000352E+00 0.  1.
       -3    1    3    3    0  502  0.11209955348E+03 -0.40590555784E+03 -0.99869336928E+03  0.10838422800E+04  0.10100000352E+00 0. -1.
</event>
<event>
 5   0  0.1308662E-06  0.2400682E+04  0.7818609E-02  0.8439248E-01
        2   -1    0    0  501    0  0.00000000000E+00  0.00000000000E+00  0.16322765767E+04  0.16322765767E+04  0.25500000920E-02 0. -1.
       -2   -1    0    0    0  501  0.00000000000E+00  0.00000000000E+00 -0.88270511049E+03  0.88270511050E+03  0.25500000920E-02 0.  1.
    10030    2    1    2    0    0  0.00000000000E+00  0.00000000000E+00  0.74957146624E+03  0.25149816872E+04  0.24006822997E+04 0.  0.
        3    1    3    3  502    0  0.37016286396E+03 -0.36289052447E+03 -0.75939978479E+03  0.91945533983E+03  0.10100000352E+00 0.  1.
       -3    1    3    3    0  502 -0.37016286396E+03  0.36289052447E+03  0.15089712510E+04  0.15955263474E+04  0.10100000352E+00 0. -1.
</event>
<event>
 5   0  0.5527286E-07  0.2400127E+04  0.7818609E-02  0.8439456E-01
        1   -1    0    0  501    0  0.00000000000E+00  0.00000000000E+00  0.14246855320E+04  0.14246855320E+04  0.50400001928E-02 0.  1.
       -1   -1    0    0    0  501  0.00000000000E+00  0.00000000000E+00 -0.10108561126E+04  0.10108561126E+04  0.50400001928E-02 0. -1.
    10030    2    1    2    0    0  0.00000000000E+00  0.00000000000E+00  0.41382941945E+03  0.24355416446E+04  0.24001267288E+04 0.  0.
        1    1    3    3  502    0  0.54543318228E+03 -0.60779486198E+03 -0.68540108085E+03  0.10661550508E+04  0.50400001928E-02 0. -1.
       -1    1    3    3    0  502 -0.54543318228E+03  0.60779486198E+03  0.10992305003E+04  0.13693865938E+04  0.50400001928E-02 0.  1.
</event>
<event>
 5   0  0.1336057E-06  0.2408595E+04  0.7818609E-02  0.8436293E-01
       -2   -1    0    0    0  501  0.00000000000E+00  0.00000000000E+00  0.11600892827E+04  0.11600892827E+04  0.25500000920E-02 0. -1.
        2   -1    0    0  501    0  0.00000000000E+00  0.00000000000E+00 -0.12501902731E+04  0.12501902731E+04  0.25500000920E-02 0.  1.
    10030    2    1    2    0    0  0.00000000000E+00  0.00000000000E+00 -0.90100990412E+02  0.24102795559E+04  0.24085948910E+04 0.  0.
        2    1    3    3  502    0  0.40906303384E+03  0.11655607394E+03 -0.11725214837E+04  0.12472868610E+04  0.25500000920E-02 0.  1.
       -2    1    3    3    0  502 -0.40906303384E+03 -0.11655607394E+03  0.10824204933E+04  0.11629926948E+04  0.25500000920E-02 0. -1.
</event>
<event>
 5   0  0.5363690E-07  0.2399518E+04  0.7818609E-02  0.8439684E-01
        1   -1    0    0  501    0  0.00000000000E+00  0.00000000000E+00  0.11075160293E+04  0.11075160294E+04  0.50400001928E-02 0. -1.
       -1   -1    0    0    0  501  0.00000000000E+00  0.00000000000E+00 -0.12996851779E+04  0.12996851779E+04  0.50400001928E-02 0.  1.
    10030    2    1    2    0    0  0.00000000000E+00  0.00000000000E+00 -0.19216914851E+03  0.24072012072E+04  0.23995184247E+04 0.  0.
        4    1    3    3  502    0 -0.85083532101E+03  0.84572377650E+03 -0.80187541760E+02  0.12023315285E+04  0.12699999809E+01 0.  1.
       -4    1    3    3    0  502  0.85083532101E+03 -0.84572377650E+03 -0.11198160675E+03  0.12048696787E+04  0.12699999809E+01 0. -1.
</event>
<event>
 5   0  0.5527286E-07  0.2400339E+04  0.7818609E-02  0.8439377E-01
       -1   -1    0    0    0  501  0.00000000000E+00  0.00000000000E+00  0.66650631426E+03  0.66650631428E+03  0.50400001928E-02 0. -1.
        1   -1    0    0  501    0  0.00000000000E+00  0.00000000000E+00 -0.21611307043E+04  0.21611307043E+04  0.50400001928E-02 0.  1.
    10030    2    1    2    0    0  0.00000000000E+00  0.00000000000E+00 -0.14946243900E+04  0.28276370186E+04  0.24003393597E+04 0.  0.
        1    1    3    3  502    0 -0.49113178501E+03  0.19422384267E+03 -0.20168795453E+04  0.20848828340E+04  0.50400001928E-02 0.  1.
       -1    1    3    3    0  502  0.49113178501E+03 -0.19422384267E+03  0.52225515533E+03  0.74275418451E+03  0.50400001928E-02 0. -1.
</event>
<event>
 5   0  0.5690124E-07  0.2399066E+04  0.7818609E-02  0.8439853E-01
       -1   -1    0    0    0  501  0.00000000000E+00  0.00000000000E+00  0.90715100374E+03  0.90715100375E+03  0.50400001928E-02 0.  1.
        1   -1    0    0  501    0  0.00000000000E+00  0.00000000000E+00 -0.15861521191E+04  0.15861521191E+04  0.50400001928E-02 0. -1.
    10030    2    1    2    0    0  0.00000000000E+00  0.00000000000E+00 -0.67900111533E+03  0.24933031228E+04  0.23990660574E+04 0.  0.
        2    1    3    3  502    0  0.42733166939E+01  0.85307316715E+03  0.53690794052E+03  0.10079792787E+04  0.25500000920E-02 0.  1.
       -2    1    3    3    0  502 -0.42733166939E+01 -0.85307316715E+03 -0.12159090558E+04  0.14853238441E+04  0.25500000920E-02 0. -1.
</event>
<event>
 5   0  0.5510176E-07  0.2399028E+04  0.7818609E-02  0.8439868E-01
       -1   -1    0    0    0  501  0.00000000000E+00  0.00000000000E+00  0.74602252687E+03  0.74602252689E+03  0.50400001928E-02 0. -1.
        1   -1    0    0  501    0  0.00000000000E+00  0.00000000000E+00 -0.19286727985E+04  0.19286727985E+04  0.50400001928E-02 0.  1.
    10030    2    1    2    0    0  0.00000000000E+00  0.00000000000E+00 -0.11826502716E+04  0.26746953254E+04  0.23990275986E+04 0.  0.
        3    1    3    3  502    0  0.93454390477E+02  0.11101178856E+04 -0.95550807245E+02  0.11181347906E+04  0.10100000352E+00 0. -1.
       -3    1    3    3    0  502 -0.93454390477E+02 -0.11101178856E+04 -0.10870994644E+04  0.15565605348E+04  0.10100000352E+00 0.  1.
</event>
<event>
 5   0  0.1291468E-06  0.2395200E+04  0.7818609E-02  0.8441303E-01
        2   -1    0    0  501    0  0.00000000000E+00  0.00000000000E+00  0.22307613831E+04  0.22307613831E+04  0.25500000920E-02 0.  1.
       -2   -1    0    0    0  501  0.00000000000E+00  0.00000000000E+00 -0.64293990016E+03  0.64293990017E+03  0.25500000920E-02 0. -1.
    10030    2    1    2    0    0  0.00000000000E+00  0.00000000000E+00  0.15878214829E+04  0.28737012833E+04  0.23951997837E+04 0.  0.
        4    1    3    3  502    0  0.74832481861E+03  0.76266051690E+03  0.14429023919E+04  0.17954414565E+04  0.12699999809E+01 0.  1.
       -4    1    3    3    0  502 -0.74832481861E+03 -0.76266051690E+03  0.14491909101E+03  0.10782598268E+04  0.12699999809E+01 0. -1.
</event>
<event>
 5   0  0.1291468E-06  0.2398866E+04  0.7818609E-02  0.8439928E-01
        2   -1    0    0  501    0  0.00000000000E+00  0.00000000000E+00  0.18669625868E+04  0.18669625868E+04  0.25500000920E-02 0. -1.
       -2   -1    0    0    0  501  0.00000000000E+00  0.00000000000E+00 -0.77057731210E+03  0.77057731210E+03  0.25500000920E-02 0.  1.
    10030    2    1    2    0    0  0.00000000000E+00  0.00000000000E+00  0.10963852747E+04  0.26375398989E+04  0.23988655752E+04 0.  0.
        4    1    3    3  502    0 -0.10492028866E+04 -0.12567375532E+03  0.11721176507E+04  0.15781261008E+04  0.12699999809E+01 0. -1.
       -4    1    3    3    0  502  0.10492028866E+04  0.12567375532E+03 -0.75732375996E+02  0.10594137981E+04  0.12699999809E+01 0.  1.
</event>
<event>
 5   0  0.5690124E-07  0.2400584E+04  0.7818609E-02  0.8439285E-01
       -1   -1    0    0    0  501  0.00000000000E+00  0.00000000000E+00  0.13312175789E+04  0.13312175790E+04  0.50400001928E-02 0.  1.
        1   -1    0    0  501    0  0.00000000000E+00  0.00000000000E+00 -0.10822428062E+04  0.10822428062E+04  0.50400001928E-02 0. -1.
    10030    2    1    2    0    0  0.00000000000E+00  0.00000000000E+00  0.24897477273E+03  0.24134603852E+04  0.24005838026E+04 0.  0.
        2    1    3    3  502    0  0.58453035152E+03  0.64867499481E+03  0.95246161140E+03  0.12921447682E+04  0.25500000920E-02 0. -1.
       -2    1    3    3    0  502 -0.58453035152E+03 -0.64867499481E+03 -0.70348683867E+03  0.11213156170E+04  0.25500000920E-02 0.  1.
</event>
<event>
 5   0  0.1291468E-06  0.2399519E+04  0.7818609E-02  0.8439684E-01
        2   -1    0    0  501    0  0.00000000000E+00  0.00000000000E+00  0.24149044429E+04  0.24149044429E+04  0.25500000920E-02 0. -1.
       -2   -1    0    0    0  501  0.00000000000E+00  0.00000000000E+00 -0.59605786975E+03  0.59605786976E+03  0.25500000920E-02 0.  1.
    10030    2    1    2    0    0  0.00000000000E+00  0.00000000000E+00  0.18188465732E+04  0.30109623127E+04  0.23995189501E+04 0.  0.
        4    1    3    3  502    0 -0.11440795923E+04  0.34419377871E+03  0.77177177609E+03  0.14223293424E+04  0.12699999809E+01 0.  1.
       -4    1    3    3    0  502  0.11440795923E+04 -0.34419377871E+03  0.10470747971E+04  0.15886329704E+04  0.12699999809E+01 0. -1.
</event>
<event>
 5   0  0.1275948E-06  0.2399250E+04  0.7818609E-02  0.8439784E-01
        2   -1    0    0  501    0  0.00000000000E+00  0.00000000000E+00  0.78554171903E+03  0.78554171904E+03  0.25500000920E-02 0. -1.
       -2   -1    0    0    0  501  0.00000000000E+00  0.00000000000E+00 -0.18319840593E+04  0.18319840593E+04  0.25500000920E-02 0.  1.
    10030    2    1    2    0    0  0.00000000000E+00  0.00000000000E+00 -0.10464423402E+04  0.26175257783E+04  0.23992498054E+04 0.  0.
        1    1    3    3  502    0  0.24972274583E+03 -0.94995087928E+03  0.22815360805E+03  0.10083760170E+04  0.50400001928E-02 0. -1.
       -1    1    3    3    0  502 -0.24972274583E+03  0.94995087928E+03 -0.12745959483E+04  0.16091497613E+04  0.50400001928E-02 0.  1.
</event>
<event>
 5   0  0.1291468E-06  0.2401267E+04  0.7818609E-02  0.8439029E-01
        2   -1    0    0  501    0  0.00000000000E+00  0.00000000000E+00  0.10331140836E+04  0.10331140836E+04  0.25500000920E-02 0.  1.
       -2   -1    0    0    0  501  0.00000000000E+00  0.00000000000E+00 -0.13953159989E+04  0.13953159989E+04  0.25500000920E-02 0. -1.
    10030    2    1    2    0    0  0.00000000000E+00  0.00000000000E+00 -0.36220191529E+03  0.24284300825E+04  0.24012668403E+04 0.  0.
        4    1    3    3  502    0  0.10222185827E+04  0.23107763245E+03 -0.77355315068E+03  0.13025796685E+04  0.12699999809E+01 0. -1.
       -4    1    3    3    0  502 -0.10222185827E+04 -0.23107763245E+03  0.41135123540E+03  0.11258504140E+04  0.12699999809E+01 0.  1.
</event>
<event>
 5   0  0.5510176E-07  0.2399420E+04  0.7818609E-02  0.8439721E-01
        1   -1    0    0  501    0  0.00000000000E+00  0.00000000000E+00  0.11869974528E+04  0.11869974528E+04  0.50400001928E-02 0.  1.
       -1   -1    0    0    0  501  0.00000000000E+00  0.00000000000E+00 -0.12125582832E+04  0.12125582832E+04  0.50400001928E-02 0. -1.
    10030    2    1    2    0    0  0.00000000000E+00  0.00000000000E+00 -0.25560830352E+02  0.23995557360E+04  0.23994195911E+04 0.  0.
        3    1    3    3  502    0 -0.94262282249E+02 -0.57809477825E+02 -0.12074511737E+04  0.12125038806E+04  0.10100000352E+00 0. -1.
       -3    1    3    3    0  502  0.94262282249E+02  0.57809477825E+02  0.11818903433E+04  0.11870518554E+04  0.10100000352E+00 0.  1.
</event>
<event>
 5   0  0.1307477E-06  0.2397848E+04  0.7818609E-02  0.8440310E-01
       -2   -1    0    0    0  501  0.00000000000E+00  0.00000000000E+00  0.71018284500E+03  0.71018284501E+03  0.25500000920E-02 0. -1.
        2   -1    0    0  501    0  0.00000000000E+00  0.00000000000E+00 -0.20240126732E+04  0.20240126732E+04  0.25500000920E-02 0.  1.
    10030    2    1    2    0    0  0.00000000000E+00  0.00000000000E+00 -0.13138298282E+04  0.27341955182E+04  0.23978482676E+04 0.  0.
        5    1    3    3  502    0 -0.49029173604E+03 -0.99125905292E+03 -0.12891121840E+03  0.11133825437E+04  0.46999998093E+01 0. -1.
       -5    1    3    3    0  502  0.49029173604E+03  0.99125905292E+03 -0.11849186098E+04  0.16208129745E+04  0.46999998093E+01 0.  1.
</event>
<event>
 5   0  0.5452384E-07  0.2400381E+04  0.7818609E-02  0.8439361E-01
       -1   -1    0    0    0  501  0.00000000000E+00  0.00000000000E+00  0.14103640782E+04  0.14103640782E+04  0.50400001928E-02 0.  1.
        1   -1    0    0  501    0  0.00000000000E+00  0.00000000000E+00 -0.10213369428E+04  0.10213369428E+04  0.50400001928E-02 0. -1.
    10030    2    1    2    0    0  0.00000000000E+00  0.00000000000E+00  0.38902713545E+03  0.24317010210E+04  0.24003807497E+04 0.  0.
        5    1    3    3  502    0 -0.16268852745E+03  0.20495417430E+03  0.13811042587E+04  0.14056830489E+04  0.46999998093E+01 0.  1.
       -5    1    3    3    0  502  0.16268852745E+03 -0.20495417430E+03 -0.99207712329E+03  0.10260179721E+04  0.46999998093E+01 0. -1.
</event>
<event>
 5   0  0.5510176E-07  0.2406633E+04  0.7818609E-02  0.8437025E-01
        1   -1    0    0  501    0  0.00000000000E+00  0.00000000000E+00  0.15731710282E+04  0.15731710282E+04  0.50400001928E-02 0. -1.
       -1   -1    0    0    0  501  0.00000000000E+00  0.00000000000E+00 -0.92041494126E+03  0.92041494127E+03  0.50400001928E-02 0.  1.
    10030    2    1    2    0    0  0.00000000000E+00  0.00000000000E+00  0.65275608690E+03  0.24935859694E+04  0.24066326014E+04 0.  0.
        3    1    3    3  502    0  0.37190952388E+03  0.10798388293E+04  0.71901761358E+03  0.13495758334E+04  0.10100000352E+00 0. -1.
       -3    1    3    3    0  502 -0.37190952388E+03 -0.10798388293E+04 -0.66261526683E+02  0.11440101360E+04  0.10100000352E+00 0.  1.
</event>
<event>
 5   0  0.1308662E-06  0.2399456E+04  0.7818609E-02  0.8439707E-01
        2   -1    0    0  501    0  0.00000000000E+00  0.00000000000E+00  0.22444092643E+04  0.22444092643E+04  0.25500000920E-02 0. -1.
       -2   -1    0    0    0  501  0.00000000000E+00  0.00000000000E+00 -0.64130321819E+03  0.64130321819E+03  0.25500000920E-02 0.  1.
    10030    2    1    2    0    0  0.00000000000E+00  0.00000000000E+00  0.16031060461E+04  0.28857124825E+04  0.23994556750E+04 0.  0.
        3    1    3    3  502    0  0.44113804760E+03 -0.60176725502E+03  0.19314198929E+04  0.20705336074E+04  0.10100000352E+00 0. -1.
       -3    1    3    3    0  502 -0.44113804760E+03  0.60176725502E+03 -0.32831384680E+03  0.81517887513E+03  0.10100000352E+00 0.  1.
</event>
<event>
 5   0  0.5527286E-07  0.2401052E+04  0.7818609E-02  0.8439110E-01
        1   -1    0    0  501    0  0.00000000000E+00  0.00000000000E+00  0.13467703280E+04  0.13467703280E+04  0.50400001928E-02 0. -1.
       -1   -1    0    0    0  501  0.00000000000E+00  0.00000000000E+00 -0.10701625678E+04  0.10701625678E+04  0.50400001928E-02 0.  1.
    10030    2    1    2    0    0  0.00000000000E+00  0.00000000000E+00  0.27660776025E+03  0.24169328958E+04  0.24010524296E+04 0.  0.
        1    1    3    3  502    0 -0.24811154692E+03  0.10259785304E+04 -0.43738066615E+03  0.11425817834E+04  0.50400001928E-02 0.  1.
       -1    1    3    3    0  502  0.24811154692E+03 -0.10259785304E+04  0.71398842640E+03  0.12743511124E+04  0.50400001928E-02 0. -1.
</event>
<event>
 5   0  0.5363690E-07  0.2400084E+04  0.7818609E-02  0.8439472E-01
        1   -1    0    0  501    0  0.00000000000E+00  0.00000000000E+00  0.11863665718E+04  0.11863665718E+04  0.50400001928E-02 0. -1.
       -1   -1    0    0    0  501  0.00000000000E+00  0.00000000000E+00 -0.12138749818E+04  0.12138749818E+04  0.50400001928E-02 0.  1.
    10030    2    1    2    0    0  0.00000000000E+00  0.00000000000E+00 -0.27508409986E+02  0.24002415537E+04  0.24000839159E+04 0.  0.
        4    1    3    3  502    0 -0.23610444281E+03 -0.54767832895E+03  0.10276605443E+04  0.11881854515E+04  0.12699999809E+01 0. -1.
       -4    1    3    3    0  502  0.23610444281E+03  0.54767832895E+03 -0.10551689543E+04  0.12120561022E+04  0.12699999809E+01 0.  1.
</event>
<event>
 5   0  0.5452384E-07  0.2399496E+04  0.7818609E-02  0.8439692E-01
       -1   -1    0    0    0  501  0.00000000000E+00  0.00000000000E+00  0.96080908214E+03  0.96080908216E+03  0.50400001928E-02 0. -1.
        1   -1    0    0  501    0  0.00000000000E+00  0.00000000000E+00 -0.14981071326E+04  0.14981071326E+04  0.50400001928E-02 0.  1.
    10030    2    1    2    0    0  0.00000000000E+00  0.00000000000E+00 -0.53729805049E+03  0.24589162148E+04  0.23994957296E+04 0.  0.
        5    1    3    3  502    0 -0.57813524811E+03 -0.56642653524E+03 -0.11761833239E+04  0.14277635261E+04  0.46999998093E+01 0.  1.
       -5    1    3    3    0  502  0.57813524811E+03  0.56642653524E+03  0.63888527340E+03  0.10311526887E+04  0.46999998093E+01 0. -1.
</event>
<event>
 5   0  0.5363690E-07  0.2401302E+04  0.7818609E-02  0.8439016E-01
       -1   -1    0    0    0  501  0.00000000000E+00  0.00000000000E+00  0.10887234182E+04  0.10887234183E+04  0.50400001928E-02 0.  1.
        1   -1    0    0  501    0  0.00000000000E+00  0.00000000000E+00 -0.13240852159E+04  0.13240852159E+04  0.50400001928E-02 0. -1.
    10030    2    1    2    0    0  0.00000000000E+00  0.00000000000E+00 -0.23536179764E+03  0.24128086341E+04  0.24013017989E+04 0.  0.
        4    1    3    3  502    0 -0.53793076452E+03  0.42720391494E+03  0.87176534632E+03  0.11098869872E+04  0.12699999809E+01 0.  1.
       -4    1    3    3    0  502  0.53793076452E+03 -0.42720391494E+03 -0.11071271440E+04  0.13029216470E+04  0.12699999809E+01 0. -1.
</event>
<event>
 5   0  0.5527286E-07  0.2400010E+04  0.7818609E-02  0.8439500E-01
        1   -1    0    0  501    0  0.00000000000E+00  0.00000000000E+00  0.21339886669E+04  0.21339886669E+04  0.50400001928E-02 0. -1.
       -1   -1    0    0    0  501  0.00000000000E+00  0.00000000000E+00 -0.67479861562E+03  0.67479861564E+03  0.50400001928E-02 0.  1.
    10030    2    1    2    0    0  0.00000000000E+00  0.00000000000E+00  0.14591900513E+04  0.28087872826E+04  0.24000104985E+04 0.  0.
        1    1    3    3  502    0 -0.10500637535E+04  0.13816798435E+03  0.69333395876E+02  0.10613818342E+04  0.50400001928E-02 0.  1.
       -1    1    3    3    0  502  0.10500637535E+04 -0.13816798435E+03  0.13898566554E+04  0.17474054483E+04  0.50400001928E-02 0. -1.
</event>
<event>
 5   0  0.1291468E-06  0.2404662E+04  0.7818609E-02  0.8437760E-01
        2   -1    0    0  501    0  0.00000000000E+00  0.00000000000E+00  0.58945686605E+03  0.58945686605E+03  0.25500000920E-02 0.  1.
       -2   -1    0    0    0  501  0.00000000000E+00  0.00000000000E+00 -0.24524261268E+04  0.24524261268E+04  0.25500000920E-02 0. -1.
    10030    2    1    2    0    0  0.00000000000E+00  0.00000000000E+00 -0.18629692608E+04  0.30418829929E+04  0.24046616551E+04 0.  0.
        4    1    3    3  502    0  0.77392657983E+03 -0.27333381008E+03  0.17992926431E+03  0.84026774052E+03  0.12699999809E+01 0.  1.
       -4    1    3    3    0  502 -0.77392657983E+03  0.27333381008E+03 -0.20428985251E+04  0.22016152524E+04  0.12699999809E+01 0. -1.
</event>
<event>
 5   0  0.5363690E-07  0.2400831E+04  0.7818609E-02  0.8439192E-01
       -1   -1    0    0    0  501  0.00000000000E+00  0.00000000000E+00  0.79635917531E+03  0.79635917533E+03  0.50400001928E-02 0. -1.
        1   -1    0    0  501    0  0.00000000000E+00  0.00000000000E+00 -0.18094822429E+04  0.18094822429E+04  0.50400001928E-02 0.  1.
    10030    2    1    2    0    0  0.00000000000E+00  0.00000000000E+00 -0.10131230676E+04  0.26058414182E+04  0.24008313449E+04 0.  0.
        4    1    3    3  502    0  0.12595463694E+03  0.54072063405E+03  0.64862974665E+03  0.85379478553E+03  0.12699999809E+01 0. -1.
       -4    1    3    3    0  502 -0.12595463694E+03 -0.54072063405E+03 -0.16617528142E+04  0.17520466327E+04  0.12699999809E+01 0.  1.
</event>
<event>
 5   0  0.5527286E-07  0.2399830E+04  0.7818609E-02  0.8439567E-01
        1   -1    0    0  501    0  0.00000000000E+00  0.00000000000E+00  0.14535344963E+04  0.14535344963E+04  0.50400001928E-02 0. -1.
       -1   -1    0    0    0  501  0.00000000000E+00  0.00000000000E+00 -0.99054842840E+03  0.99054842841E+03  0.50400001928E-02 0.  1.
    10030    2    1    2    0    0  0.00000000000E+00  0.00000000000E+00  0.46298606791E+03  0.24440829247E+04  0.23998302531E+04 0.  0.
        1    1    3    3  502    0 -0.52301417155E+03  0.99546485592E+03 -0.19491865971E+03  0.11412656952E+04  0.50400001928E-02 0. -1.
       -1    1    3    3    0  502  0.52301417155E+03 -0.99546485592E+03  0.65790472762E+03  0.13028172296E+04  0.50400001928E-02 0.  1.
</event>
<event>
 5   0  0.5510176E-07  0.2400172E+04  0.7818609E-02  0.8439439E-01
       -1   -1    0    0    0  501  0.00000000000E+00  0.00000000000E+00  0.78271923853E+03  0.78271923854E+03  0.50400001928E-02 0.  1.
        1   -1    0    0  501    0  0.00000000000E+00  0.00000000000E+00 -0.18400032143E+04  0.18400032143E+04  0.50400001928E-02 0. -1.
    10030    2    1    2    0    0  0.00000000000E+00  0.00000000000E+00 -0.10572839757E+04  0.26227224528E+04  0.24001715895E+04 0.  0.
        3    1    3    3  502    0 -0.51738762439E+03  0.30938769609E+03 -0.16625468036E+04  0.17684661673E+04  0.10100000352E+00 0. -1.
       -3    1    3    3    0  502  0.51738762439E+03 -0.30938769609E+03  0.60526282789E+03  0.85425628554E+03  0.10100000352E+00 0.  1.
</event>
<event>
 5   0  0.5510176E-07  0.2401772E+04  0.7818609E-02  0.8438841E-01
        1   -1    0    0  501    0  0.00000000000E+00  0.00000000000E+00  0.27564668025E+04  0.27564668025E+04  0.50400001928E-02 0. -1.
       -1   -1    0    0    0  501  0.00000000000E+00  0.00000000000E+00 -0.52317951793E+03  0.52317951795E+03  0.50400001928E-02 0.  1.
    10030    2    1    2    0    0  0.00000000000E+00  0.00000000000E+00  0.22332872846E+04  0.32796463205E+04  0.24017718234E+04 0.  0.
        3    1    3    3  502    0  0.65246788009E+02  0.10795040198E+04  0.18295148947E+04  0.21252554746E+04  0.10100000352E+00 0. -1.
       -3    1    3    3    0  502 -0.65246788009E+02 -0.10795040198E+04  0.40377238988E+03  0.11543908459E+04  0.10100000352E+00 0.  1.
</event>
<event>
 5   0  0.1291468E-06  0.2400044E+04  0.7818609E-02  0.8439487E-01
        2   -1    0    0  501    0  0.00000000000E+00  0.00000000000E+00  0.14814305457E+04  0.14814305457E+04  0.25500000920E-02 0.  1.
       -2   -1    0    0    0  501  0.00000000000E+00  0.00000000000E+00 -0.97206872213E+03  0.97206872214E+03  0.25500000920E-02 0. -1.
    10030    2    1    2    0    0  0.00000000000E+00  0.00000000000E+00  0.50936182354E+03  0.24534992678E+04  0.24000435808E+04 0.  0.
        4    1    3    3  502    0  0.79233696585E+02  0.11896969063E+04  0.11603577972E+03  0.11979660356E+04  0.12699999809E+01 0. -1.
       -4    1    3    3    0  502 -0.79233696585E+02 -0.11896969063E+04  0.39332604381E+03  0.12555332322E+04  0.12699999809E+01 0.  1.
</event>
<event>
 5   0  0.5690124E-07  0.2401248E+04  0.7818609E-02  0.8439036E-01
        1   -1    0    0  501    0  0.00000000000E+00  0.00000000000E+00  0.11385222193E+04  0.11385222193E+04  0.50400001928E-02 0.  1.
       -1   -1    0    0    0  501  0.00000000000E+00  0.00000000000E+00 -0.12661134281E+04  0.12661134281E+04  0.50400001928E-02 0. -1.
    10030    2    1    2    0    0  0.00000000000E+00  0.00000000000E+00 -0.12759120882E+03  0.24046356474E+04  0.24012482337E+04 0.  0.
        2    1    3    3  502    0  0.96219625759E+03 -0.45973283298E+03  0.48863680588E+03  0.11730054748E+04  0.25500000920E-02 0.  1.
       -2    1    3    3    0  502 -0.96219625759E+03  0.45973283298E+03 -0.61622801470E+03  0.12316301726E+04  0.25500000920E-02 0. -1.
</event>
<event>
 5   0  0.5363690E-07  0.2399161E+04  0.7818609E-02  0.8439818E-01
        1   -1    0    0  501    0  0.00000000000E+00  0.00000000000E+00  0.10966770994E+04  0.10966770994E+04  0.50400001928E-02 0.  1.
       -1   -1    0    0    0  501  0.00000000000E+00  0.00000000000E+00 -0.13121396786E+04  0.13121396786E+04  0.50400001928E-02 0. -1.
    10030    2    1    2    0    0  0.00000000000E+00  0.00000000000E+00 -0.21546257919E+03  0.24088167780E+04  0.23991611340E+04 0.  0.
        4    1    3    3  502    0  0.18355347161E+03  0.59857533211E+03 -0.11350832905E+04  0.12963024317E+04  0.12699999809E+01 0. -1.
       -4    1    3    3    0  502 -0.18355347161E+03 -0.59857533211E+03  0.91962071133E+03  0.11125143463E+04  0.12699999809E+01 0.  1.
</event>
<event>
 5   0  0.1291468E-06  0.2397250E+04  0.7818609E-02  0.8440534E-01
       -2   -1    0    0    0  501  0.00000000000E+00  0.00000000000E+00  0.12068625403E+04  0.12068625403E+04  0.25500000920E-02 0.  1.
        2   -1    0    0  501    0  0.00000000000E+00  0.00000000000E+00 -0.11904434688E+04  0.11904434688E+04  0.25500000920E-02 0. -1.
    10030    2    1    2    0    0  0.00000000000E+00  0.00000000000E+00  0.16419071481E+02  0.23973060092E+04  0.23972497817E+04 0.  0.
        4    1    3    3  502    0 -0.28398583350E+03 -0.69457182753E+03 -0.92648989236E+03  0.11922512784E+04  0.12699999809E+01 0. -1.
       -4    1    3    3    0  502  0.28398583350E+03  0.69457182753E+03  0.94290896384E+03  0.12050547308E+04  0.12699999809E+01 0.  1.
</event>
<event>
 5   0  0.1307477E-06  0.2400025E+04  0.7818609E-02  0.8439494E-01
       -2   -1    0    0    0  501  0.00000000000E+00  0.00000000000E+00  0.12281616528E+04  0.12281616528E+04  0.25500000920E-02 0.  1.
        2   -1    0    0  501    0  0.00000000000E+00  0.00000000000E+00 -0.11725084953E+04  0.11725084953E+04  0.25500000920E-02 0. -1.
    10030    2    1    2    0    0  0.00000000000E+00  0.00000000000E+00  0.55653157527E+02  0.24006701481E+04  0.24000249761E+04 0.  0.
        5    1    3    3  502    0 -0.43210255228E+02  0.11702065365E+04  0.29011342343E+03  0.12064154975E+04  0.46999998093E+01 0. -1.
       -5    1    3    3    0  502  0.43210255228E+02 -0.11702065365E+04 -0.23446026590E+03  0.11942546506E+04  0.46999998093E+01 0.  1.
</event>
<event>
 5   0  0.5363690E-07  0.2405986E+04  0.7818609E-02  0.8437266E-01
        1   -1    0    0  501    0  0.00000000000E+00  0.00000000000E+00  0.69648639851E+03  0.69648639853E+03  0.50400001928E-02 0.  1.
       -1   -1    0    0    0  501  0.00000000000E+00  0.00000000000E+00 -0.20778475610E+04  0.20778475610E+04  0.50400001928E-02 0. -1.
    10030    2    1    2    0    0  0.00000000000E+00  0.00000000000E+00 -0.13813611625E+04  0.27743339596E+04  0.24059863378E+04 0.  0.
        4    1    3    3  502    0  0.47121123981E+03  0.75406667449E+03 -0.16249977172E+04  0.18523703129E+04  0.12699999809E+01 0. -1.
       -4    1    3    3    0  502 -0.47121123981E+03 -0.75406667449E+03  0.24363655473E+03  0.92196364668E+03  0.12699999809E+01 0.  1.
</event>
<event>
 5   0  0.1291468E-06  0.2399520E+04  0.7818609E-02  0.8439683E-01
        2   -1    0    0  501    0  0.00000000000E+00  0.00000000000E+00  0.24088615728E+04  0.24088615728E+04  0.25500000920E-02 0. -1.
       -2   -1    0    0    0  501  0.00000000000E+00  0.00000000000E+00 -0.59755372985E+03  0.59755372985E+03  0.25500000920E-02 0.  1.
    10030    2    1    2    0    0  0.00000000000E+00  0.00000000000E+00  0.18113078430E+04  0.30064153027E+04  0.23995201333E+04 0.  0.
        4    1    3    3  502    0  0.69182937885E+03  0.30311027830E+03 -0.26226902316E+03  0.79955636678E+03  0.12699999809E+01 0.  1.
       -4    1    3    3    0  502 -0.69182937885E+03 -0.30311027830E+03  0.20735768661E+04  0.22068589359E+04  0.12699999809E+01 0. -1.
</event>
<event>
 5   0  0.1308662E-06  0.2399967E+04  0.7818609E-02  0.8439516E-01
       -2   -1    0    0    0  501  0.00000000000E+00  0.00000000000E+00  0.71660077060E+03  0.71660077060E+03  0.25500000920E-02 0. -1.
        2   -1    0    0  501    0  0.00000000000E+00  0.00000000000E+00 -0.20094324518E+04  0.20094324518E+04  0.25500000920E-02 0.  1.
    10030    2    1    2    0    0  0.00000000000E+00  0.00000000000E+00 -0.12928316812E+04  0.27260332224E+04  0.23999673693E+04 0.  0.
        3    1    3    3  502    0  0.20406512925E+03  0.13101460148E+03  0.68847812732E+03  0.72993804173E+03  0.10100000352E+00 0. -1.
       -3    1    3    3    0  502 -0.20406512925E+03 -0.13101460148E+03 -0.19813098086E+04  0.19960951807E+04  0.10100000352E+00 0.  1.
</event>
<event>
 5   0  0.5452384E-07  0.2398920E+04  0.7818609E-02  0.8439908E-01
        1   -1    0    0  501    0  0.00000000000E+00  0.00000000000E+00  0.17607591105E+04  0.17607591105E+04  0.50400001928E-02 0.  1.
       -1   -1    0    0    0  501  0.00000000000E+00  0.00000000000E+00 -0.81709336920E+03  0.81709336921E+03  0.50400001928E-02 0. -1.
    10030    2    1    2    0    0  0.00000000000E+00  0.00000000000E+00  0.94366574133E+03  0.25778524798E+04  0.23989202521E+04 0.  0.
        5    1    3    3  502    0  0.24228628098E+03 -0.11563811843E+04  0.69404787512E+03  0.13702717352E+04  0.46999998093E+01 0.  1.
       -5    1    3    3    0  502 -0.24228628098E+03  0.11563811843E+04  0.24961786621E+03  0.12075807445E+04  0.46999998093E+01 0. -1.
</event>
<event>
 5   0  0.1336057E-06  0.2381449E+04  0.7818609E-02  0.8446482E-01
       -2   -1    0    0    0  501  0.00000000000E+00  0.00000000000E+00  0.87177815249E+03  0.87177815250E+03  0.25500000920E-02 0. -1.
        2   -1    0    0  501    0  0.00000000000E+00  0.00000000000E+00 -0.16263590551E+04  0.16263590551E+04  0.25500000920E-02 0.  1.
    10030    2    1    2    0    0  0.00000000000E+00  0.00000000000E+00 -0.75458090263E+03  0.24981372076E+04  0.23814485444E+04 0.  0.
        2    1    3    3  502    0  0.31733306679E+03 -0.78249409309E+03 -0.12579668450E+04  0.15150834512E+04  0.25500000920E-02 0.  1.
       -2    1    3    3    0  502 -0.31733306679E+03  0.78249409309E+03  0.50338594238E+03  0.98305375641E+03  0.25500000920E-02 0. -1.
</event>
<event>
 5   0  0.5452384E-07  0.2400557E+04  0.7818609E-02  0.8439295E-01
       -1   -1    0    0    0  501  0.00000000000E+00  0.00000000000E+00  0.10638668883E+04  0.10638668883E+04  0.50400001928E-02 0.  1.
        1   -1    0    0  501    0  0.00000000000E+00  0.00000000000E+00 -0.13541816825E+04  0.13541816825E+04  0.50400001928E-02 0. -1.
    10030    2    1    2    0    0  0.00000000000E+00  0.00000000000E+00 -0.29031479414E+03  0.24180485708E+04  0.24005574793E+04 0.  0.
        5    1    3    3  502    0 -0.54540730071E+03  0.16349252777E+02  0.93170206908E+03  0.10797348088E+04  0.46999998093E+01 0.  1.
       -5    1    3    3    0  502  0.54540730071E+03 -0.16349252777E+02 -0.12220168632E+04  0.13383137621E+04  0.46999998093E+01 0. -1.
</event>
<event>
 5   0  0.1336057E-06  0.2399611E+04  0.7818609E-02  0.8439649E-01
       -2   -1    0    0    0  501  0.00000000000E+00  0.00000000000E+00  0.13928008712E+04  0.13928008712E+04  0.25500000920E-02 0.  1.
        2   -1    0    0  501    0  0.00000000000E+00  0.00000000000E+00 -0.10335524135E+04  0.10335524135E+04  0.25500000920E-02 0. -1.
    10030    2    1    2    0    0  0.00000000000E+00  0.00000000000E+00  0.35924845769E+03  0.24263532848E+04  0.23996105534E+04 0.  0.
        2    1    3    3  502    0 -0.14122659897E+03  0.77709888247E+03  0.10928535671E+04  0.13483903532E+04  0.25500000920E-02 0.  1.
       -2    1    3    3    0  502  0.14122659897E+03 -0.77709888247E+03 -0.73360510940E+03  0.10779629316E+04  0.25500000920E-02 0. -1.
</event>
<event>
 5   0  0.5510176E-07  0.2403582E+04  0.7818609E-02  0.8438164E-01
        1   -1    0    0  501    0  0.00000000000E+00  0.00000000000E+00  0.11805220617E+04  0.11805220618E+04  0.50400001928E-02 0. -1.
       -1   -1    0    0    0  501  0.00000000000E+00  0.00000000000E+00 -0.12234429098E+04  0.12234429098E+04  0.50400001928E-02 0.  1.
    10030    2    1    2    0    0  0.00000000000E+00  0.00000000000E+00 -0.42920848044E+02  0.24039649716E+04  0.24035817825E+04 0.  0.
        3    1    3    3  502    0 -0.95374122269E+03 -0.57354668885E+03 -0.47509994137E+03  0.12100818520E+04  0.10100000352E+00 0.  1.
       -3    1    3    3    0  502  0.95374122269E+03  0.57354668885E+03  0.43217909333E+03  0.11938831195E+04  0.10100000352E+00 0. -1.
</event>
<event>
 5   0  0.1308662E-06  0.2401715E+04  0.7818609E-02  0.8438862E-01
        2   -1    0    0  501    0  0.00000000000E+00  0.00000000000E+00  0.16945605207E+04  0.16945605207E+04  0.25500000920E-02 0.  1.
       -2   -1    0    0    0  501  0.00000000000E+00  0.00000000000E+00 -0.85099263380E+03  0.85099263381E+03  0.25500000920E-02 0. -1.
    10030    2    1    2    0    0  0.00000000000E+00  0.00000000000E+00  0.84356788693E+03  0.25455531545E+04  0.24017148213E+04 0.  0.
        3    1    3    3  502    0 -0.39250866380E+03  0.64896431943E+03  0.14085867976E+04  0.15997920226E+04  0.10100000352E+00 0.  1.
       -3    1    3    3    0  502  0.39250866380E+03 -0.64896431943E+03 -0.56501891067E+03  0.94576113193E+03  0.10100000352E+00 0. -1.
</event>
<event>
 5   0  0.5363690E-07  0.2399491E+04  0.7818609E-02  0.8439694E-01
        1   -1    0    0  501    0  0.00000000000E+00  0.00000000000E+00  0.15874931603E+04  0.15874931603E+04  0.50400001928E-02 0.  1.
       -1   -1    0    0    0  501  0.00000000000E+00  0.00000000000E+00 -0.90670588049E+03  0.90670588050E+03  0.50400001928E-02 0. -1.
    10030    2    1    2    0    0  0.00000000000E+00  0.00000000000E+00  0.68078727984E+03  0.24941990408E+04  0.23994910992E+04 0.  0.
        4    1    3    3  502    0 -0.47278199141E+03  0.29416071545E+03  0.14450399584E+04  0.15486108072E+04  0.12699999809E+01 0.  1.
       -4    1    3    3    0  502  0.47278199141E+03 -0.29416071545E+03 -0.76425267859E+03  0.94558823361E+03  0.12699999809E+01 0. -1.
</event>
<event>
 5   0  0.5527286E-07  0.2400513E+04  0.7818609E-02  0.8439312E-01
       -1   -1    0    0    0  501  0.00000000000E+00  0.00000000000E+00  0.12438311451E+04  0.12438311451E+04  0.50400001928E-02 0. -1.
        1   -1    0    0  501    0  0.00000000000E+00  0.00000000000E+00 -0.11582084547E+04  0.11582084547E+04  0.50400001928E-02 0.  1.
    10030    2    1    2    0    0  0.00000000000E+00  0.00000000000E+00  0.85622690485E+02  0.24020395998E+04  0.24005130689E+04 0.  0.
        1    1    3    3  502    0  0.20896095951E+03 -0.32114946853E+03  0.11809941640E+04  0.12415912689E+04  0.50400001928E-02 0. -1.
       -1    1    3    3    0  502 -0.20896095951E+03  0.32114946853E+03 -0.10953714735E+04  0.11604483309E+04  0.50400001928E-02 0.  1.
</event>
<event>
 5   0  0.1336057E-06  0.2408630E+04  0.7818609E-02  0.8436280E-01
        2   -1    0    0  501    0  0.00000000000E+00  0.00000000000E+00  0.14167291185E+04  0.14167291185E+04  0.25500000920E-02 0.  1.
       -2   -1    0    0    0  501  0.00000000000E+00  0.00000000000E+00 -0.10237484577E+04  0.10237484577E+04  0.25500000920E-02 0. -1.
    10030    2    1    2    0    0  0.00000000000E+00  0.00000000000E+00  0.39298066083E+03  0.24404775761E+04  0.24086296934E+04 0.  0.
        2    1    3    3  502    0 -0.44739950417E+03 -0.17980609323E+03 -0.92167655180E+03  0.10401847017E+04  0.25500000920E-02 0. -1.
       -2    1    3    3    0  502  0.44739950417E+03  0.17980609323E+03  0.13146572126E+04  0.14002928744E+04  0.25500000920E-02 0.  1.
</event>
<event>
 5   0  0.5510176E-07  0.2399576E+04  0.7818609E-02  0.8439662E-01
       -1   -1    0    0    0  501  0.00000000000E+00  0.00000000000E+00  0.77828087716E+03  0.77828087718E+03  0.50400001928E-02 0. -1.
        1   -1    0    0  501    0  0.00000000000E+00  0.00000000000E+00 -0.18495780896E+04  0.18495780896E+04  0.50400001928E-02 0.  1.
    10030    2    1    2    0    0  0.00000000000E+00  0.00000000000E+00 -0.10712972124E+04  0.26278589667E+04  0.23995760108E+04 0.  0.
        3    1    3    3  502    0  0.10667258780E+04 -0.34644413171E+03 -0.69008621082E+02  0.11236947251E+04  0.10100000352E+00 0. -1.
       -3    1    3    3    0  502 -0.10667258780E+04  0.34644413171E+03 -0.10022885913E+04  0.15041642416E+04  0.10100000352E+00 0.  1.
</event>
<event>
 5   0  0.1291468E-06  0.2399664E+04  0.7818609E-02  0.8439629E-01
        2   -1    0    0  501    0  0.00000000000E+00  0.00000000000E+00  0.15747883055E+04  0.15747883055E+04  0.25500000920E-02 0. -1.
       -2   -1    0    0    0  501  0.00000000000E+00  0.00000000000E+00 -0.91415243442E+03  0.91415243442E+03  0.25500000920E-02 0.  1.
    10030    2    1    2    0    0  0.00000000000E+00  0.00000000000E+00  0.66063587105E+03  0.24889407399E+04  0.23996637791E+04 0.  0.
        4    1    3    3  502    0 -0.51328577651E+03  0.71499778824E+03 -0.51543957254E+03  0.10199822015E+04  0.12699999809E+01 0.  1.
       -4    1    3    3    0  502  0.51328577651E+03 -0.71499778824E+03  0.11760754436E+04  0.14689585384E+04  0.12699999809E+01 0. -1.
</event>
<event>
 5   0  0.1308662E-06  0.2400107E+04  0.7818609E-02  0.8439463E-01
       -2   -1    0    0    0  501  0.00000000000E+00  0.00000000000E+00  0.69674062497E+03  0.69674062498E+03  0.25500000920E-02 0. -1.
        2   -1    0    0  501    0  0.00000000000E+00  0.00000000000E+00 -0.20669509784E+04  0.20669509784E+04  0.25500000920E-02 0.  1.
    10030    2    1    2    0    0  0.00000000000E+00  0.00000000000E+00 -0.13702103534E+04  0.27636916034E+04  0.24001072613E+04 0.  0.
        3    1    3    3  502    0  0.63556352332E+03  0.15126477224E+02 -0.18571121398E+04  0.19629150039E+04  0.10100000352E+00 0.  1.
       -3    1    3    3    0  502 -0.63556352332E+03 -0.15126477224E+02  0.48690178638E+03  0.80077659948E+03  0.10100000352E+00 0. -1.
</event>
<event>
 5   0  0.1307477E-06  0.2400334E+04  0.7818609E-02  0.8439379E-01
       -2   -1    0    0    0  501  0.00000000000E+00  0.00000000000E+00  0.70158125313E+03  0.70158125313E+03  0.25500000920E-02 0.  1.
        2   -1    0    0  501    0  0.00000000000E+00  0.00000000000E+00 -0.20530770484E+04  0.20530770484E+04  0.25500000920E-02 0. -1.
    10030    2    1    2    0    0  0.00000000000E+00  0.00000000000E+00 -0.13514957953E+04  0.27546583015E+04  0.24003336171E+04 0.  0.
        5    1    3    3  502    0  0.59553149626E+03 -0.10268057560E+04 -0.87907484058E+03  0.14770858096E+04  0.46999998093E+01 0. -1.
       -5    1    3    3    0  502 -0.59553149626E+03  0.10268057560E+04 -0.47242095469E+03  0.12775724919E+04  0.46999998093E+01 0.  1.
</event>
<event>
 5   0  0.5363690E-07  0.2398598E+04  0.7818609E-02  0.8440029E-01
        1   -1    0    0  501    0  0.00000000000E+00  0.00000000000E+00  0.13421953467E+04  0.13421953467E+04  0.50400001928E-02 0. -1.
       -1   -1    0    0    0  501  0.00000000000E+00  0.00000000000E+00 -0.10716163222E+04  0.10716163222E+04  0.50400001928E-02 0.  1.
    10030    2    1    2    0    0  0.00000000000E+00  0.00000000000E+00  0.27057902449E+03  0.24138116690E+04  0.23985982917E+04 0.  0.
        4    1    3    3  502    0  0.64032527361E+02 -0.75138842277E+03  0.10737449259E+04  0.13121030848E+04  0.12699999809E+01 0. -1.
       -4    1    3    3    0  502 -0.64032527361E+02  0.75138842277E+03 -0.80316590136E+03  0.11017085842E+04  0.12699999809E+01 0.  1.
</event>
<event>
 5   0  0.5510176E-07  0.2398722E+04  0.7818609E-02  0.8439982E-01
        1   -1    0    0  501    0  0.00000000000E+00  0.00000000000E+00  0.11241080862E+04  0.11241080863E+04  0.50400001928E-02 0. -1.
       -1   -1    0    0    0  501  0.00000000000E+00  0.00000000000E+00 -0.12796517712E+04  0.12796517712E+04  0.50400001928E-02 0.  1.
    10030    2    1    2    0    0  0.00000000000E+00  0.00000000000E+00 -0.15554368491E+03  0.24037598574E+04  0.23987220794E+04 0.  0.
        3    1    3    3  502    0 -0.10556967903E+04  0.33982706761E+03 -0.53533647951E+03  0.12314882482E+04  0.10100000352E+00 0.  1.
       -3    1    3    3    0  502  0.10556967903E+04 -0.33982706761E+03  0.37979279460E+03  0.11722716093E+04  0.10100000352E+00 0. -1.
</event>
<event>
 5   0  0.5452384E-07  0.2397596E+04  0.7818609E-02  0.8440404E-01
       -1   -1    0    0    0  501  0.00000000000E+00  0.00000000000E+00  0.14747493432E+04  0.14747493432E+04  0.50400001928E-02 0. -1.
        1   -1    0    0  501    0  0.00000000000E+00  0.00000000000E+00 -0.97448222781E+03  0.97448222783E+03  0.50400001928E-02 0.  1.
    10030    2    1    2    0    0  0.00000000000E+00  0.00000000000E+00  0.50026711542E+03  0.24492315711E+04  0.23975963175E+04 0.  0.
        5    1    3    3  502    0  0.34218571331E+02  0.20446302747E+03 -0.95602302885E+03  0.97825260639E+03  0.46999998093E+01 0.  1.
       -5    1    3    3    0  502 -0.34218571331E+02 -0.20446302747E+03  0.14562901443E+04  0.14709789647E+04  0.46999998093E+01 0. -1.
</event>
<event>
 5   0  0.1291468E-06  0.2399910E+04  0.7818609E-02  0.8439537E-01
       -2   -1    0    0    0  501  0.00000000000E+00  0.00000000000E+00  0.14277287734E+04  0.14277287734E+04  0.25500000920E-02 0. -1.
        2   -1    0    0  501    0  0.00000000000E+00  0.00000000000E+00 -0.10085194210E+04  0.10085194210E+04  0.25500000920E-02 0.  1.
    10030    2    1    2    0    0  0.00000000000E+00  0.00000000000E+00  0.41920935245E+03  0.24362481944E+04  0.23999101615E+04 0.  0.
        4    1    3    3  502    0  0.53068587388E+03  0.96448622938E+03  0.69435930808E+03  0.13015366476E+04  0.12699999809E+01 0. -1.
       -4    1    3    3    0  502 -0.53068587388E+03 -0.96448622938E+03 -0.27514995563E+03  0.11347115468E+04  0.12699999809E+01 0.  1.
</event>
<event>
 5   0  0.1275948E-06  0.2401558E+04  0.7818609E-02  0.8438920E-01
        2   -1    0    0  501    0  0.00000000000E+00  0.00000000000E+00  0.23602250032E+04  0.23602250032E+04  0.25500000920E-02 0.  1.
       -2   -1    0    0    0  501  0.00000000000E+00  0.00000000000E+00 -0.61090386005E+03  0.61090386005E+03  0.25500000920E-02 0. -1.
    10030    2    1    2    0    0  0.00000000000E+00  0.00000000000E+00  0.17493211431E+04  0.29711288632E+04  0.24015582983E+04 0.  0.
        1    1    3    3  502    0  0.96766979855E+03  0.57930348036E+03  0.36472376777E+03  0.11853272916E+04  0.50400001928E-02 0. -1.
       -1    1    3    3    0  502 -0.96766979855E+03 -0.57930348036E+03  0.13845973754E+04  0.17858015716E+04  0.50400001928E-02 0.  1.
</event>
<event>
 5   0  0.1307477E-06  0.2404811E+04  0.7818609E-02  0.8437705E-01
       -2   -1    0    0    0  501  0.00000000000E+00  0.00000000000E+00  0.87652243358E+03  0.87652243358E+03  0.25500000920E-02 0. -1.
        2   -1    0    0  501    0  0.00000000000E+00  0.00000000000E+00 -0.16494485042E+04  0.16494485042E+04  0.25500000920E-02 0.  1.
    10030    2    1    2    0    0  0.00000000000E+00  0.00000000000E+00 -0.77292607061E+03  0.25259709378E+04  0.24048106927E+04 0.  0.
        5    1    3    3  502    0  0.48596522612E+03  0.42262457664E+03  0.68006718014E+03  0.93663610505E+03  0.46999998093E+01 0.  1.
       -5    1    3    3    0  502 -0.48596522612E+03 -0.42262457664E+03 -0.14529932508E+04  0.15893348327E+04  0.46999998093E+01 0. -1.
</event>
<event>
 5   0  0.1291468E-06  0.2399223E+04  0.7818609E-02  0.8439794E-01
        2   -1    0    0  501    0  0.00000000000E+00  0.00000000000E+00  0.78439851305E+03  0.78439851305E+03  0.25500000920E-02 0.  1.
       -2   -1    0    0    0  501  0.00000000000E+00  0.00000000000E+00 -0.18346135040E+04  0.18346135040E+04  0.25500000920E-02 0. -1.
    10030    2    1    2    0    0  0.00000000000E+00  0.00000000000E+00 -0.10502149910E+04  0.26190120171E+04  0.23992232948E+04 0.  0.
        4    1    3    3  502    0 -0.11701270858E+04 -0.18510920132E+03 -0.31913261667E+03  0.12269107764E+04  0.12699999809E+01 0.  1.
       -4    1    3    3    0  502  0.11701270858E+04  0.18510920132E+03 -0.73108237430E+03  0.13921012407E+04  0.12699999809E+01 0. -1.
</event>
<event>
 5   0  0.1336057E-06  0.2399265E+04  0.7818609E-02  0.8439779E-01
        2   -1    0    0  501    0  0.00000000000E+00  0.00000000000E+00  0.23370479379E+04  0.23370479379E+04  0.25500000920E-02 0. -1.
       -2   -1    0    0    0  501  0.00000000000E+00  0.00000000000E+00 -0.61578475558E+03  0.61578475558E+03  0.25500000920E-02 0.  1.
    10030    2    1    2    0    0  0.00000000000E+00  0.00000000000E+00  0.17212631823E+04  0.29528326935E+04  0.23992652986E+04 0.  0.
        2    1    3    3  502    0 -0.98310342473E+03  0.60742268753E+03  0.12568860749E+04  0.17074007351E+04  0.25500000920E-02 0. -1.
       -2    1    3    3    0  502  0.98310342473E+03 -0.60742268753E+03  0.46437710746E+03  0.12454319584E+04  0.25500000920E-02 0.  1.
</event>
<event>
 5   0  0.1307477E-06  0.2401378E+04  0.7818609E-02  0.8438988E-01
        2   -1    0    0  501    0  0.00000000000E+00  0.00000000000E+00  0.10440640226E+04  0.10440640226E+04  0.25500000920E-02 0. -1.
       -2   -1    0    0    0  501  0.00000000000E+00  0.00000000000E+00 -0.13808098155E+04  0.13808098155E+04  0.25500000920E-02 0.  1.
    10030    2    1    2    0    0  0.00000000000E+00  0.00000000000E+00 -0.33674579283E+03  0.24248738381E+04  0.24013778132E+04 0.  0.
        5    1    3    3  502    0 -0.76302668253E+03  0.91543562354E+03 -0.20655343698E+02  0.11919231654E+04  0.46999998093E+01 0.  1.
       -5    1    3    3    0  502  0.76302668253E+03 -0.91543562354E+03 -0.31609044914E+03  0.12329506726E+04  0.46999998093E+01 0. -1.
</event>
<event>
 5   0  0.1307477E-06  0.2400339E+04  0.7818609E-02  0.8439377E-01
        2   -1    0    0  501    0  0.00000000000E+00  0.00000000000E+00  0.15950747340E+04  0.15950747340E+04  0.25500000920E-02 0.  1.
       -2   -1    0    0    0  501  0.00000000000E+00  0.00000000000E+00 -0.90303431300E+03  0.90303431301E+03  0.25500000920E-02 0. -1.
    10030    2    1    2    0    0  0.00000000000E+00  0.00000000000E+00  0.69204042102E+03  0.24981090470E+04  0.24003393232E+04 0.  0.
        5    1    3    3  502    0 -0.54907702685E+03 -0.89836066317E+03  0.94554636591E+03  0.14151386796E+04  0.46999998093E+01 0.  1.
       -5    1    3    3    0  502  0.54907702685E+03  0.89836066317E+03 -0.25350594489E+03  0.10829703674E+04  0.46999998093E+01 0. -1.
</event>
<event>
 5   0  0.5690124E-07  0.2399968E+04  0.7818609E-02  0.8439516E-01
        1   -1    0    0  501    0  0.00000000000E+00  0.00000000000E+00  0.15340624295E+04  0.15340624295E+04  0.50400001928E-02 0.  1.
       -1   -1    0    0    0  501  0.00000000000E+00  0.00000000000E+00 -0.93865868210E+03  0.93865868211E+03  0.50400001928E-02 0. -1.
    10030    2    1    2    0    0  0.00000000000E+00  0.00000000000E+00  0.59540374742E+03  0.24727211116E+04  0.23999675151E+04 0.  0.
        2    1    3    3  502    0  0.36291412363E+02  0.37784902319E+03  0.14705753711E+04  0.15187754518E+04  0.25500000920E-02 0.  1.
       -2    1    3    3    0  502 -0.36291412363E+02 -0.37784902319E+03 -0.87517162370E+03  0.95394565981E+03  0.25500000920E-02 0. -1.
</event>
<event>
 5   0  0.5690124E-07  0.2400916E+04  0.7818609E-02  0.8439161E-01
        1   -1    0    0  501    0  0.00000000000E+00  0.00000000000E+00  0.16793099493E+04  0.16793099493E+04  0.50400001928E-02 0.  1.
       -1   -1    0    0    0  501  0.00000000000E+00  0.00000000000E+00 -0.85814949362E+03  0.85814949363E+03  0.50400001928E-02 0. -1.
    10030    2    1    2    0    0  0.00000000000E+00  0.00000000000E+00  0.82116045569E+03  0.25374594429E+04  0.24009156442E+04 0.  0.
        2    1    3    3  502    0 -0.11988157201E+04  0.58212484009E+02  0.38576830170E+03  0.12607002049E+04  0.25500000920E-02 0.  1.
       -2    1    3    3    0  502  0.11988157201E+04 -0.58212484009E+02  0.43539215399E+03  0.12767592380E+04  0.25500000920E-02 0. -1.
</event>
<event>
 5   0  0.5690124E-07  0.2398553E+04  0.7818609E-02  0.8440045E-01
       -1   -1    0    0    0  501  0.00000000000E+00  0.00000000000E+00  0.81796829948E+03  0.81796829949E+03  0.50400001928E-02 0.  1.
        1   -1    0    0  501    0  0.00000000000E+00  0.00000000000E+00 -0.17583376138E+04  0.17583376138E+04  0.50400001928E-02 0. -1.
    10030    2    1    2    0    0  0.00000000000E+00  0.00000000000E+00 -0.94036931435E+03  0.25763059133E+04  0.23985532539E+04 0.  0.
        2    1    3    3  502    0 -0.63917208200E+03 -0.33666920902E+03  0.55803341135E+03  0.91284631505E+03  0.25500000920E-02 0.  1.
       -2    1    3    3    0  502  0.63917208200E+03  0.33666920902E+03 -0.14984027257E+04  0.16634595983E+04  0.25500000920E-02 0. -1.
</event>
<event>
 5   0  0.5452384E-07  0.2399022E+04  0.7818609E-02  0.8439870E-01
       -1   -1    0    0    0  501  0.00000000000E+00  0.00000000000E+00  0.16489962306E+04  0.16489962306E+04  0.50400001928E-02 0.  1.
        1   -1    0    0  501    0  0.00000000000E+00  0.00000000000E+00 -0.87254683683E+03  0.87254683685E+03  0.50400001928E-02 0. -1.
    10030    2    1    2    0    0  0.00000000000E+00  0.00000000000E+00  0.77644939379E+03  0.25215430675E+04  0.23990218382E+04 0.  0.
        5    1    3    3  502    0  0.91095328000E+03 -0.29407895754E+03 -0.37152325139E+03  0.10268251691E+04  0.46999998093E+01 0. -1.
       -5    1    3    3    0  502 -0.91095328000E+03  0.29407895754E+03  0.11479726452E+04  0.14947178984E+04  0.46999998093E+01 0.  1.
</event>
<event>
 5   0  0.1308662E-06  0.2400009E+04  0.7818609E-02  0.8439500E-01
        2   -1    0    0  501    0  0.00000000000E+00  0.00000000000E+00  0.13084853044E+04  0.13084853044E+04  0.25500000920E-02 0. -1.
       -2   -1    0    0    0  501  0.00000000000E+00  0.00000000000E+00 -0.11005172858E+04  0.11005172858E+04  0.25500000920E-02 0.  1.
    10030    2    1    2    0    0  0.00000000000E+00  0.00000000000E+00  0.20796801855E+03  0.24090025902E+04  0.24000089131E+04 0.  0.
        3    1    3    3  502    0 -0.50211155375E+03 -0.51213364056E+02 -0.98879765673E+03  0.11101619869E+04  0.10100000352E+00 0.  1.
       -3    1    3    3    0  502  0.50211155375E+03  0.51213364056E+02  0.11967656753E+04  0.12988406033E+04  0.10100000352E+00 0. -1.
</event>
<event>
 5   0  0.5527286E-07  0.2390305E+04  0.7818609E-02  0.8443142E-01
       -1   -1    0    0    0  501  0.00000000000E+00  0.00000000000E+00  0.73982213991E+03  0.73982213993E+03  0.50400001928E-02 0.  1.
        1   -1    0    0  501    0  0.00000000000E+00  0.00000000000E+00 -0.19307201966E+04  0.19307201966E+04  0.50400001928E-02 0. -1.
    10030    2    1    2    0    0  0.00000000000E+00  0.00000000000E+00 -0.11908980567E+04  0.26705423365E+04  0.23903050411E+04 0.  0.
        1    1    3    3  502    0 -0.20181765791E+03  0.56245494375E+03  0.56093590726E+03  0.81959442584E+03  0.50400001928E-02 0.  1.
       -1    1    3    3    0  502  0.20181765791E+03 -0.56245494375E+03 -0.17518339639E+04  0.18509479107E+04  0.50400001928E-02 0. -1.
</event>
<event>
 5   0  0.5690124E-07  0.2403966E+04  0.7818609E-02  0.8438020E-01
        1   -1    0    0  501    0  0.00000000000E+00  0.00000000000E+00  0.27859585867E+04  0.27859585867E+04  0.50400001928E-02 0. -1.
       -1   -1    0    0    0  501  0.00000000000E+00  0.00000000000E+00 -0.51858724438E+03  0.51858724440E+03  0.50400001928E-02 0.  1.
    10030    2    1    2    0    0  0.00000000000E+00  0.00000000000E+00  0.22673713423E+04  0.33045458311E+04  0.24039655459E+04 0.  0.
        2    1    3    3  502    0  0.53848986504E+03 -0.28617685419E+03 -0.29015685826E+03  0.67532179664E+03  0.25500000920E-02 0.  1.
       -2    1    3    3    0  502 -0.53848986504E+03  0.28617685419E+03  0.25575282006E+04  0.26292240345E+04  0.25500000920E-02 0. -1.
</event>
<event>
 5   0  0.5452384E-07  0.2400200E+04  0.7818609E-02  0.8439429E-01
       -1   -1    0    0    0  501  0.00000000000E+00  0.00000000000E+00  0.79959335842E+03  0.79959335843E+03  0.50400001928E-02 0. -1.
        1   -1    0    0  501    0  0.00000000000E+00  0.00000000000E+00 -0.18012153840E+04  0.18012153840E+04  0.50400001928E-02 0.  1.
    10030    2    1    2    0    0  0.00000000000E+00  0.00000000000E+00 -0.10016220256E+04  0.26008087424E+04  0.24001998735E+04 0.  0.
        5    1    3    3  502    0  0.10747662803E+04  0.48360458467E+03 -0.74604942500E+03  0.13948504530E+04  0.46999998093E+01 0. -1.
       -5    1    3    3    0  502 -0.10747662803E+04 -0.48360458467E+03 -0.25557260056E+03  0.12059582894E+04  0.46999998093E+01 0.  1.
</event>
<event>
 5   0  0.1336057E-06  0.2400683E+04  0.7818609E-02  0.8439248E-01
       -2   -1    0    0    0  501  0.00000000000E+00  0.00000000000E+00  0.70183712385E+03  0.70183712386E+03  0.25500000920E-02 0.  1.
        2   -1    0    0  501    0  0.00000000000E+00  0.00000000000E+00 -0.20529254744E+04  0.20529254744E+04  0.25500000920E-02 0. -1.
    10030    2    1    2    0    0  0.00000000000E+00  0.00000000000E+00 -0.13510883506E+04  0.27547625983E+04  0.24006826616E+04 0.  0.
        2    1    3    3  502    0 -0.11196741806E+04 -0.32364651667E+03 -0.34614824855E+03  0.12158272692E+04  0.25500000920E-02 0.  1.
       -2    1    3    3    0  502  0.11196741806E+04  0.32364651667E+03 -0.10049401020E+04  0.15389353291E+04  0.25500000920E-02 0. -1.
</event>
<event>
 5   0  0.1291468E-06  0.2400039E+04  0.7818609E-02  0.8439489E-01
        2   -1    0    0  501    0  0.00000000000E+00  0.00000000000E+00  0.17051718409E+04  0.17051718409E+04  0.25500000920E-02 0. -1.
       -2   -1    0    0    0  501  0.00000000000E+00  0.00000000000E+00 -0.84451706739E+03  0.84451706739E+03  0.25500000920E-02 0.  1.
    10030    2    1    2    0    0  0.00000000000E+00  0.00000000000E+00  0.86065477353E+03  0.25496889083E+04  0.24000389351E+04 0.  0.
        4    1    3    3  502    0  0.80272603175E+03  0.74227593341E+03 -0.95191199692E+02  0.10974541543E+04  0.12699999809E+01 0.  1.
       -4    1    3    3    0  502 -0.80272603175E+03 -0.74227593341E+03  0.95584597322E+03  0.14522347540E+04  0.12699999809E+01 0. -1.
</event>
<event>
 5   0  0.5510176E-07  0.2400038E+04  0.7818609E-02  0.8439489E-01
       -1   -1    0    0    0  501  0.00000000000E+00  0.00000000000E+00  0.71919316469E+03  0.71919316470E+03  0.50400001928E-02 0. -1.
        1   -1    0    0  501    0  0.00000000000E+00  0.00000000000E+00 -0.20023077404E+04  0.20023077404E+04  0.50400001928E-02 0.  1.
    10030    2    1    2    0    0  0.00000000000E+00  0.00000000000E+00 -0.12831145757E+04  0.27215009051E+04  0.24000383668E+04 0.  0.
        3    1    3    3  502    0 -0.14387197366E+03  0.10707080743E+04 -0.12339596965E+04  0.16400522760E+04  0.10100000352E+00 0.  1.
       -3    1    3    3    0  502  0.14387197366E+03 -0.10707080743E+04 -0.49154879183E+02  0.10814486291E+04  0.10100000352E+00 0. -1.
</event>
<event>
 5   0  0.1336057E-06  0.2399921E+04  0.7818609E-02  0.8439533E-01
       -2   -1    0    0    0  501  0.00000000000E+00  0.00000000000E+00  0.68477696747E+03  0.68477696747E+03  0.25500000920E-02 0.  1.
        2   -1    0    0  501    0  0.00000000000E+00  0.00000000000E+00 -0.21027360458E+04  0.21027360458E+04  0.25500000920E-02 0. -1.
    10030    2    1    2    0    0  0.00000000000E+00  0.00000000000E+00 -0.14179590784E+04  0.27875130133E+04  0.23999210094E+04 0.  0.
        2    1    3    3  502    0 -0.73999668236E+01  0.60071211088E+03  0.49752720845E+03  0.78002764234E+03  0.25500000920E-02 0.  1.
       -2    1    3    3    0  502  0.73999668236E+01 -0.60071211088E+03 -0.19154862868E+04  0.20074853710E+04  0.25500000920E-02 0. -1.
</event>
<event>
 5   0  0.5452384E-07  0.2399994E+04  0.7818609E-02  0.8439506E-01
        1   -1    0    0  501    0  0.00000000000E+00  0.00000000000E+00  0.10461190166E+04  0.10461190166E+04  0.50400001928E-02 0.  1.
       -1   -1    0    0    0  501  0.00000000000E+00  0.00000000000E+00 -0.13765091003E+04  0.13765091004E+04  0.50400001928E-02 0. -1.
    10030    2    1    2    0    0  0.00000000000E+00  0.00000000000E+00 -0.33039008377E+03  0.24226281169E+04  0.23999936220E+04 0.  0.
        5    1    3    3  502    0  0.35494546423E+03 -0.20353666538E+03  0.97352051436E+03  0.10560197624E+04  0.46999998093E+01 0.  1.
       -5    1    3    3    0  502 -0.35494546423E+03  0.20353666538E+03 -0.13039105981E+04  0.13666083545E+04  0.46999998093E+01 0. -1.
</event>
<event>
 5   0  0.5363690E-07  0.2399077E+04  0.7818609E-02  0.8439849E-01
       -1   -1    0    0    0  501  0.00000000000E+00  0.00000000000E+00  0.92542961751E+03  0.92542961752E+03  0.50400001928E-02 0.  1.
        1   -1    0    0  501    0  0.00000000000E+00  0.00000000000E+00 -0.15548374211E+04  0.15548374211E+04  0.50400001928E-02 0. -1.
    10030    2    1    2    0    0  0.00000000000E+00  0.00000000000E+00 -0.62940780358E+03  0.24802670386E+04  0.23990769891E+04 0.  0.
        4    1    3    3  502    0  0.73164204033E+03 -0.83308346411E+03  0.15856874899E+03  0.11200329435E+04  0.12699999809E+01 0.  1.
       -4    1    3    3    0  502 -0.73164204033E+03  0.83308346411E+03 -0.78797655257E+03  0.13602340952E+04  0.12699999809E+01 0. -1.
</event>
<event>
 5   0  0.5690124E-07  0.2400689E+04  0.7818609E-02  0.8439246E-01
        1   -1    0    0  501    0  0.00000000000E+00  0.00000000000E+00  0.22247509966E+04  0.22247509966E+04  0.50400001928E-02 0. -1.
       -1   -1    0    0    0  501  0.00000000000E+00  0.00000000000E+00 -0.64763514509E+03  0.64763514511E+03  0.50400001928E-02 0.  1.
    10030    2    1    2    0    0  0.00000000000E+00  0.00000000000E+00  0.15771158515E+04  0.28723861417E+04  0.24006890132E+04 0.  0.
        2    1    3    3  502    0 -0.20571675242E+02 -0.91642352075E+03  0.17157919070E+04  0.19453012958E+04  0.25500000920E-02 0. -1.
       -2    1    3    3    0  502  0.20571675242E+02  0.91642352075E+03 -0.13867605549E+03  0.92708484594E+03  0.25500000920E-02 0.  1.
</event>
<event>
 5   0  0.5452384E-07  0.2399680E+04  0.7818609E-02  0.8439623E-01
       -1   -1    0    0    0  501  0.00000000000E+00  0.00000000000E+00  0.14021340062E+04  0.14021340062E+04  0.50400001928E-02 0.  1.
        1   -1    0    0  501    0  0.00000000000E+00  0.00000000000E+00 -0.10267321706E+04  0.10267321706E+04  0.50400001928E-02 0. -1.
    10030    2    1    2    0    0  0.00000000000E+00  0.00000000000E+00  0.37540183558E+03  0.24288661768E+04  0.23996800551E+04 0.  0.
        5    1    3    3  502    0 -0.86323935545E+03  0.25434294233E+03  0.99090239879E+03  0.13385746789E+04  0.46999998093E+01 0.  1.
       -5    1    3    3    0  502  0.86323935545E+03 -0.25434294233E+03 -0.61550056322E+03  0.10902914979E+04  0.46999998093E+01 0. -1.
</event>
<event>
 5   0  0.5527286E-07  0.2405718E+04  0.7818609E-02  0.8437366E-01
        1   -1    0    0  501    0  0.00000000000E+00  0.00000000000E+00  0.18236194030E+04  0.18236194030E+04  0.50400001928E-02 0.  1.
       -1   -1    0    0    0  501  0.00000000000E+00  0.00000000000E+00 -0.79340568104E+03  0.79340568106E+03  0.50400001928E-02 0. -1.
    10030    2    1    2    0    0  0.00000000000E+00  0.00000000000E+00  0.10302137220E+04  0.26170250841E+04  0.24057181834E+04 0.  0.
        1    1    3    3  502    0  0.79491652571E+03 -0.44035665193E+03  0.13724036922E+04  0.16459945802E+04  0.50400001928E-02 0.  1.
       -1    1    3    3    0  502 -0.79491652571E+03  0.44035665193E+03 -0.34218997019E+03  0.97103050388E+03  0.50400001928E-02 0. -1.
</event>
<event>
 5   0  0.1308662E-06  0.2400105E+04  0.7818609E-02  0.8439464E-01
        2   -1    0    0  501    0  0.00000000000E+00  0.00000000000E+00  0.16638344187E+04  0.16638344187E+04  0.25500000920E-02 0. -1.
       -2   -1    0    0    0  501  0.00000000000E+00  0.00000000000E+00 -0.86554637975E+03  0.86554637976E+03  0.25500000920E-02 0.  1.
    10030    2    1    2    0    0  0.00000000000E+00  0.00000000000E+00  0.79828803891E+03  0.25293807984E+04  0.24001048790E+04 0.  0.
        3    1    3    3  502    0  0.13635270431E+03 -0.33706810025E+03  0.16043864220E+04  0.16450722676E+04  0.10100000352E+00 0. -1.
       -3    1    3    3    0  502 -0.13635270431E+03  0.33706810025E+03 -0.80609838314E+03  0.88430853082E+03  0.10100000352E+00 0.  1.
</event>
<event>
 5   0  0.1308662E-06  0.2400213E+04  0.7818609E-02  0.8439424E-01
       -2   -1    0    0    0  501  0.00000000000E+00  0.00000000000E+00  0.14877808471E+04  0.14877808471E+04  0.25500000920E-02 0. -1.
        2   -1    0    0  501    0  0.00000000000E+00  0.00000000000E+00 -0.96805625295E+03  0.96805625296E+03  0.25500000920E-02 0.  1.
    10030    2    1    2    0    0  0.00000000000E+00  0.00000000000E+00  0.51972459410E+03  0.24558371000E+04  0.24002129506E+04 0.  0.
        3    1    3    3  502    0 -0.89347939463E+03  0.42270525907E+03 -0.43655098710E+03  0.10805378009E+04  0.10100000352E+00 0.  1.
       -3    1    3    3    0  502  0.89347939463E+03 -0.42270525907E+03  0.95627558120E+03  0.13752992991E+04  0.10100000352E+00 0. -1.
</event>
<event>
 5   0  0.5452384E-07  0.2400276E+04  0.7818609E-02  0.8439400E-01
        1   -1    0    0  501    0  0.00000000000E+00  0.00000000000E+00  0.28170557999E+04  0.28170557999E+04  0.50400001928E-02 0.  1.
       -1   -1    0    0    0  501  0.00000000000E+00  0.00000000000E+00 -0.51128963879E+03  0.51128963881E+03  0.50400001928E-02 0. -1.
    10030    2    1    2    0    0  0.00000000000E+00  0.00000000000E+00  0.23057661611E+04  0.33283454387E+04  0.24002761861E+04 0.  0.
        5    1    3    3  502    0  0.48398733582E+03  0.90000675270E+03  0.20255410948E+04  0.22687209421E+04  0.46999998093E+01 0.  1.
       -5    1    3    3    0  502 -0.48398733582E+03 -0.90000675270E+03  0.28022506629E+03  0.10596244967E+04  0.46999998093E+01 0. -1.
</event>
<event>
 5   0  0.5510176E-07  0.2399863E+04  0.7818609E-02  0.8439555E-01
        1   -1    0    0  501    0  0.00000000000E+00  0.00000000000E+00  0.20143505591E+04  0.20143505591E+04  0.50400001928E-02 0.  1.
       -1   -1    0    0    0  501  0.00000000000E+00  0.00000000000E+00 -0.71478882462E+03  0.71478882463E+03  0.50400001928E-02 0. -1.
    10030    2    1    2    0    0  0.00000000000E+00  0.00000000000E+00  0.12995617345E+04  0.27291393838E+04  0.23998627199E+04 0.  0.
        3    1    3    3  502    0 -0.47691798324E+03  0.75767841499E+03 -0.25878084713E+03  0.93193072721E+03  0.10100000352E+00 0. -1.
       -3    1    3    3    0  502  0.47691798324E+03 -0.75767841499E+03  0.15583425816E+04  0.17972086566E+04  0.10100000352E+00 0.  1.
</event>
<event>
 5   0  0.5510176E-07  0.2400389E+04  0.7818609E-02  0.8439358E-01
        1   -1    0    0  501    0  0.00000000000E+00  0.00000000000E+00  0.15330266548E+04  0.15330266548E+04  0.50400001928E-02 0.  1.
       -1   -1    0    0    0  501  0.00000000000E+00  0.00000000000E+00 -0.93962308404E+03  0.93962308405E+03  0.50400001928E-02 0. -1.
    10030    2    1    2    0    0  0.00000000000E+00  0.00000000000E+00  0.59340357079E+03  0.24726497389E+04  0.24003893296E+04 0.  0.
        3    1    3    3  502    0 -0.57473405337E+03  0.35181245207E+03  0.13197642703E+04  0.14818464741E+04  0.10100000352E+00 0.  1.
       -3    1    3    3    0  502  0.57473405337E+03 -0.35181245207E+03 -0.72636069949E+03  0.99080326478E+03  0.10100000352E+00 0. -1.
</event>
<event>
 5   0  0.1336057E-06  0.2403633E+04  0.7818609E-02  0.8438145E-01
        2   -1    0    0  501    0  0.00000000000E+00  0.00000000000E+00  0.91921645205E+03  0.91921645205E+03  0.25500000920E-02 0.  1.
       -2   -1    0    0    0  501  0.00000000000E+00  0.00000000000E+00 -0.15712978249E+04  0.15712978249E+04  0.25500000920E-02 0. -1.
    10030    2    1    2    0    0  0.00000000000E+00  0.00000000000E+00 -0.65208137286E+03  0.24905142770E+04  0.24036329268E+04 0.  0.
        2    1    3    3  502    0  0.71161803416E+03 -0.65704373745E+03  0.41119445925E+03  0.10522298146E+04  0.25500000920E-02 0.  1.
       -2    1    3    3    0  502 -0.71161803416E+03  0.65704373745E+03 -0.10632758321E+04  0.14382844623E+04  0.25500000920E-02 0. -1.
</event>
<event>
 5   0  0.1336057E-06  0.2401705E+04  0.7818609E-02  0.8438866E-01
        2   -1    0    0  501    0  0.00000000000E+00  0.00000000000E+00  0.22200066979E+04  0.22200066979E+04  0.25500000920E-02 0. -1.
       -2   -1    0    0    0  501  0.00000000000E+00  0.00000000000E+00 -0.64956863360E+03  0.64956863361E+03  0.25500000920E-02 0.  1.
    10030    2    1    2    0    0  0.00000000000E+00  0.00000000000E+00  0.15704380643E+04  0.28695753315E+04  0.24017049922E+04 0.  0.
        2    1    3    3  502    0  0.22343774083E+03  0.90756991557E+03 -0.11560498588E+03  0.94179195603E+03  0.25500000920E-02 0.  1.
       -2    1    3    3    0  502 -0.22343774083E+03 -0.90756991557E+03  0.16860430502E+04  0.19277833755E+04  0.25500000920E-02 0. -1.
</event>
<event>
 5   0  0.5363690E-07  0.2398967E+04  0.7818609E-02  0.8439890E-01
       -1   -1    0    0    0  501  0.00000000000E+00  0.00000000000E+00  0.94936569331E+03  0.94936569333E+03  0.50400001928E-02 0.  1.
        1   -1    0    0  501    0  0.00000000000E+00  0.00000000000E+00 -0.15154966692E+04  0.15154966692E+04  0.50400001928E-02 0. -1.
    10030    2    1    2    0    0  0.00000000000E+00  0.00000000000E+00 -0.56613097588E+03  0.24648623625E+04  0.23989668994E+04 0.  0.
        4    1    3    3  502    0  0.89795982566E+03 -0.22592881245E+02  0.53370176248E+03  0.10448356191E+04  0.12699999809E+01 0.  1.
       -4    1    3    3    0  502 -0.89795982566E+03  0.22592881245E+02 -0.10998327384E+04  0.14200267434E+04  0.12699999809E+01 0. -1.
</event>
<event>
 5   0  0.1275948E-06  0.2400107E+04  0.7818609E-02  0.8439464E-01
       -2   -1    0    0    0  501  0.00000000000E+00  0.00000000000E+00  0.13568527559E+04  0.13568527559E+04  0.25500000920E-02 0.  1.
        2   -1    0    0  501    0  0.00000000000E+00  0.00000000000E+00 -0.10613739813E+04  0.10613739813E+04  0.25500000920E-02 0. -1.
    10030    2    1    2    0    0  0.00000000000E+00  0.00000000000E+00  0.29547877455E+03  0.24182267372E+04  0.24001068406E+04 0.  0.
        1    1    3    3  502    0  0.11565404420E+03  0.77337655299E+02 -0.10532205573E+04  0.10623702335E+04  0.50400001928E-02 0. -1.
       -1    1    3    3    0  502 -0.11565404420E+03 -0.77337655299E+02  0.13486993318E+04  0.13558565037E+04  0.50400001928E-02 0.  1.
</event>
<event>
 5   0  0.4483375E-07  0.2400319E+04  0.7818609E-02  0.8439384E-01
        3   -1    0    0  501    0  0.00000000000E+00  0.00000000000E+00  0.13406560563E+04  0.13406560601E+04  0.10100000352E+00 0.  1.
       -3   -1    0    0    0  501  0.00000000000E+00  0.00000000000E+00 -0.10743869118E+04  0.10743869165E+04  0.10100000352E+00 0. -1.
    10030    2    1    2    0    0  0.00000000000E+00  0.00000000000E+00  0.26626914457E+03  0.24150429766E+04  0.24003194208E+04 0.  0.
        5    1    3    3  502    0  0.82294819169E+03  0.87203323749E+03  0.81091597658E+02  0.12017835207E+04  0.46999998093E+01 0.  1.
       -5    1    3    3    0  502 -0.82294819169E+03 -0.87203323749E+03  0.18517754692E+03  0.12132594559E+04  0.46999998093E+01 0. -1.
</event>
<event>
 5   0  0.1307477E-06  0.2400138E+04  0.7818609E-02  0.8439452E-01
       -2   -1    0    0    0  501  0.00000000000E+00  0.00000000000E+00  0.29591733174E+04  0.29591733174E+04  0.25500000920E-02 0. -1.
        2   -1    0    0  501    0  0.00000000000E+00  0.00000000000E+00 -0.48667854725E+03  0.48667854725E+03  0.25500000920E-02 0.  1.
    10030    2    1    2    0    0  0.00000000000E+00  0.00000000000E+00  0.24724947702E+04  0.34458518647E+04  0.24001384720E+04 0.  0.
        5    1    3    3  502    0 -0.83438786000E+03 -0.33214442477E+03  0.93434555123E+02  0.90292586955E+03  0.46999998093E+01 0.  1.
       -5    1    3    3    0  502  0.83438786000E+03  0.33214442477E+03  0.23790602150E+04  0.25429259951E+04  0.46999998093E+01 0. -1.
</event>
<event>
 5   0  0.1307477E-06  0.2399756E+04  0.7818609E-02  0.8439595E-01
        2   -1    0    0  501    0  0.00000000000E+00  0.00000000000E+00  0.80932090983E+03  0.80932090984E+03  0.25500000920E-02 0.  1.
       -2   -1    0    0    0  501  0.00000000000E+00  0.00000000000E+00 -0.17789081947E+04  0.17789081947E+04  0.25500000920E-02 0. -1.
    10030    2    1    2    0    0  0.00000000000E+00  0.00000000000E+00 -0.96958728486E+03  0.25882291045E+04  0.23997563198E+04 0.  0.
        5    1    3    3  502    0 -0.95630540723E+03 -0.27854300626E+03 -0.12063504933E+04  0.15644199695E+04  0.46999998093E+01 0. -1.
       -5    1    3    3    0  502  0.95630540723E+03  0.27854300626E+03  0.23676320840E+03  0.10238091351E+04  0.46999998093E+01 0.  1.
</event>
<event>
 5   0  0.1336057E-06  0.2400662E+04  0.7818609E-02  0.8439256E-01
        2   -1    0    0  501    0  0.00000000000E+00  0.00000000000E+00  0.20656567285E+04  0.20656567285E+04  0.25500000920E-02 0. -1.
       -2   -1    0    0    0  501  0.00000000000E+00  0.00000000000E+00 -0.69749935908E+03  0.69749935909E+03  0.25500000920E-02 0.  1.
    10030    2    1    2    0    0  0.00000000000E+00  0.00000000000E+00  0.13681573694E+04  0.27631560876E+04  0.24006617789E+04 0.  0.
        2    1    3    3  502    0 -0.20166384691E+03 -0.26662838664E+03 -0.64283504778E+03  0.72456600968E+03  0.25500000920E-02 0.  1.
       -2    1    3    3    0  502  0.20166384691E+03  0.26662838664E+03  0.20109924172E+04  0.20385900779E+04  0.25500000920E-02 0. -1.
</event>
<event>
 5   0  0.5452384E-07  0.2400906E+04  0.7818609E-02  0.8439165E-01
        1   -1    0    0  501    0  0.00000000000E+00  0.00000000000E+00  0.10876491951E+04  0.10876491951E+04  0.50400001928E-02 0.  1.
       -1   -1    0    0    0  501  0.00000000000E+00  0.00000000000E+00 -0.13249556581E+04  0.13249556581E+04  0.50400001928E-02 0. -1.
    10030    2    1    2    0    0  0.00000000000E+00  0.00000000000E+00 -0.23730646303E+03  0.24126048532E+04  0.24009056250E+04 0.  0.
        5    1    3    3  502    0  0.25996228989E+03  0.10952387251E+04 -0.53774256377E+03  0.12475245136E+04  0.46999998093E+01 0.  1.
       -5    1    3    3    0  502 -0.25996228989E+03 -0.10952387251E+04  0.30043610073E+03  0.11650803396E+04  0.46999998093E+01 0. -1.
</event>
<event>
 5   0  0.1308662E-06  0.2404285E+04  0.7818609E-02  0.8437901E-01
        2   -1    0    0  501    0  0.00000000000E+00  0.00000000000E+00  0.16521094016E+04  0.16521094016E+04  0.25500000920E-02 0.  1.
       -2   -1    0    0    0  501  0.00000000000E+00  0.00000000000E+00 -0.87472839871E+03  0.87472839871E+03  0.25500000920E-02 0. -1.
    10030    2    1    2    0    0  0.00000000000E+00  0.00000000000E+00  0.77738100292E+03  0.25268378003E+04  0.24042853503E+04 0.  0.
        3    1    3    3  502    0 -0.68316978296E+03  0.36562558008E+03  0.13546388597E+04  0.15605926655E+04  0.10100000352E+00 0.  1.
       -3    1    3    3    0  502  0.68316978296E+03 -0.36562558008E+03 -0.57725785680E+03  0.96624513484E+03  0.10100000352E+00 0. -1.
</event>
<event>
 5   0  0.5510176E-07  0.2398610E+04  0.7818609E-02  0.8440024E-01
       -1   -1    0    0    0  501  0.00000000000E+00  0.00000000000E+00  0.16431448277E+04  0.16431448277E+04  0.50400001928E-02 0. -1.
        1   -1    0    0  501    0  0.00000000000E+00  0.00000000000E+00 -0.87535344306E+03  0.87535344307E+03  0.50400001928E-02 0.  1.
    10030    2    1    2    0    0  0.00000000000E+00  0.00000000000E+00  0.76779138463E+03  0.25184982708E+04  0.23986099995E+04 0.  0.
        3    1    3    3  502    0  0.75206911308E+03  0.35021887807E+03 -0.52545893146E+03  0.98202256199E+03  0.10100000352E+00 0.  1.
       -3    1    3    3    0  502 -0.75206911308E+03 -0.35021887807E+03  0.12932503161E+04  0.15364757088E+04  0.10100000352E+00 0. -1.
</event>
<event>
 5   0  0.1291468E-06  0.2403270E+04  0.7818609E-02  0.8438280E-01
       -2   -1    0    0    0  501  0.00000000000E+00  0.00000000000E+00  0.94623584847E+03  0.94623584847E+03  0.25500000920E-02 0.  1.
        2   -1    0    0  501    0  0.00000000000E+00  0.00000000000E+00 -0.15259691483E+04  0.15259691483E+04  0.25500000920E-02 0. -1.
    10030    2    1    2    0    0  0.00000000000E+00  0.00000000000E+00 -0.57973329982E+03  0.24722049968E+04  0.24032700321E+04 0.  0.
        4    1    3    3  502    0 -0.56817513536E+03 -0.66745601104E+03  0.55566175872E+03  0.10378256665E+04  0.12699999809E+01 0.  1.
       -4    1    3    3    0  502  0.56817513536E+03  0.66745601104E+03 -0.11353950585E+04  0.14343793302E+04  0.12699999809E+01 0. -1.
</event>
<event>
 5   0  0.5690124E-07  0.2399825E+04  0.7818609E-02  0.8439569E-01
        1   -1    0    0  501    0  0.00000000000E+00  0.00000000000E+00  0.10513821001E+04  0.10513821001E+04  0.50400001928E-02 0.  1.
       -1   -1    0    0    0  501  0.00000000000E+00  0.00000000000E+00 -0.13694259585E+04  0.13694259585E+04  0.50400001928E-02 0. -1.
    10030    2    1    2    0    0  0.00000000000E+00  0.00000000000E+00 -0.31804385848E+03  0.24208080586E+04  0.23998249438E+04 0.  0.
        2    1    3    3  502    0  0.99286934592E+03  0.27988929030E+03 -0.77729403106E+03  0.12916321317E+04  0.25500000920E-02 0. -1.
       -2    1    3    3    0  502 -0.99286934592E+03 -0.27988929030E+03  0.45925017258E+03  0.11291759269E+04  0.25500000920E-02 0.  1.
</event>
<event>
 5   0  0.5527286E-07  0.2400444E+04  0.7818609E-02  0.8439337E-01
       -1   -1    0    0    0  501  0.00000000000E+00  0.00000000000E+00  0.68839755063E+03  0.68839755065E+03  0.50400001928E-02 0. -1.
        1   -1    0    0  501    0  0.00000000000E+00  0.00000000000E+00 -0.20925880517E+04  0.20925880517E+04  0.50400001928E-02 0.  1.
    10030    2    1    2    0    0  0.00000000000E+00  0.00000000000E+00 -0.14041905011E+04  0.27809856024E+04  0.24004437001E+04 0.  0.
        1    1    3    3  502    0  0.18949893536E+03  0.11849785739E+04 -0.67756224427E+03  0.13781054611E+04  0.50400001928E-02 0.  1.
       -1    1    3    3    0  502 -0.18949893536E+03 -0.11849785739E+04 -0.72662825681E+03  0.14028801412E+04  0.50400001928E-02 0. -1.
</event>
<event>
 5   0  0.1307477E-06  0.2382108E+04  0.7818609E-02  0.8446233E-01
        2   -1    0    0  501    0  0.00000000000E+00  0.00000000000E+00  0.17594857791E+04  0.17594857791E+04  0.25500000920E-02 0. -1.
       -2   -1    0    0    0  501  0.00000000000E+00  0.00000000000E+00 -0.80626361775E+03  0.80626361775E+03  0.25500000920E-02 0.  1.
    10030    2    1    2    0    0  0.00000000000E+00  0.00000000000E+00  0.95322216136E+03  0.25657493969E+04  0.23821077806E+04 0.  0.
        5    1    3    3  502    0 -0.21185526736E+03  0.56699403857E+03 -0.62824725434E+03  0.87239990639E+03  0.46999998093E+01 0.  1.
       -5    1    3    3    0  502  0.21185526736E+03 -0.56699403857E+03  0.15814694157E+04  0.16933494905E+04  0.46999998093E+01 0. -1.
</event>
<event>
 5   0  0.5452384E-07  0.2399617E+04  0.7818609E-02  0.8439647E-01
       -1   -1    0    0    0  501  0.00000000000E+00  0.00000000000E+00  0.67826003492E+03  0.67826003494E+03  0.50400001928E-02 0. -1.
        1   -1    0    0  501    0  0.00000000000E+00  0.00000000000E+00 -0.21224023219E+04  0.21224023219E+04  0.50400001928E-02 0.  1.
    10030    2    1    2    0    0  0.00000000000E+00  0.00000000000E+00 -0.14441422869E+04  0.28006623568E+04  0.23996171969E+04 0.  0.
        5    1    3    3  502    0 -0.77389085742E+03  0.26653535365E+03 -0.17459367965E+04  0.19282804623E+04  0.46999998093E+01 0.  1.
       -5    1    3    3    0  502  0.77389085742E+03 -0.26653535365E+03  0.30179450951E+03  0.87238189454E+03  0.46999998093E+01 0. -1.
</event>
<event>
 5   0  0.1308662E-06  0.2402174E+04  0.7818609E-02  0.8438690E-01
        2   -1    0    0  501    0  0.00000000000E+00  0.00000000000E+00  0.78359062145E+03  0.78359062146E+03  0.25500000920E-02 0.  1.
       -2   -1    0    0    0  501  0.00000000000E+00  0.00000000000E+00 -0.18410247976E+04  0.18410247976E+04  0.25500000920E-02 0. -1.
    10030    2    1    2    0    0  0.00000000000E+00  0.00000000000E+00 -0.10574341761E+04  0.26246154190E+04  0.24021738199E+04 0.  0.
        3    1    3    3  502    0  0.60292847045E+03 -0.45805988951E+03  0.48996373520E+03  0.90189027873E+03  0.10100000352E+00 0.  1.
       -3    1    3    3    0  502 -0.60292847045E+03  0.45805988951E+03 -0.15473979113E+04  0.17227251403E+04  0.10100000352E+00 0. -1.
</event>
<event>
 5   0  0.1275948E-06  0.2399018E+04  0.7818609E-02  0.8439871E-01
       -2   -1    0    0    0  501  0.00000000000E+00  0.00000000000E+00  0.14107786051E+04  0.14107786051E+04  0.25500000920E-02 0. -1.
        2   -1    0    0  501    0  0.00000000000E+00  0.00000000000E+00 -0.10198776816E+04  0.10198776816E+04  0.25500000920E-02 0.  1.
    10030    2    1    2    0    0  0.00000000000E+00  0.00000000000E+00  0.39090092354E+03  0.24306562867E+04  0.23990178099E+04 0.  0.
        1    1    3    3  502    0  0.51721215328E+02 -0.10386044671E+04 -0.41030324830E+03  0.11179101390E+04  0.50400001928E-02 0.  1.
       -1    1    3    3    0  502 -0.51721215328E+02  0.10386044671E+04  0.80120417184E+03  0.13127461477E+04  0.50400001928E-02 0. -1.
</event>
<event>
 5   0  0.5690124E-07  0.2398646E+04  0.7818609E-02  0.8440010E-01
        1   -1    0    0  501    0  0.00000000000E+00  0.00000000000E+00  0.13785946515E+04  0.13785946515E+04  0.50400001928E-02 0.  1.
       -1   -1    0    0    0  501  0.00000000000E+00  0.00000000000E+00 -0.10433640742E+04  0.10433640742E+04  0.50400001928E-02 0. -1.
    10030    2    1    2    0    0  0.00000000000E+00  0.00000000000E+00  0.33523057729E+03  0.24219587257E+04  0.23986463952E+04 0.  0.
        2    1    3    3  502    0 -0.11751288219E+03  0.16677374167E+03  0.13609447771E+04  0.13761516794E+04  0.25500000920E-02 0.  1.
       -2    1    3    3    0  502  0.11751288219E+03 -0.16677374167E+03 -0.10257141998E+04  0.10458070463E+04  0.25500000920E-02 0. -1.
</event>
<event>
 5   0  0.5690124E-07  0.2403533E+04  0.7818609E-02  0.8438182E-01
        1   -1    0    0  501    0  0.00000000000E+00  0.00000000000E+00  0.96997727057E+03  0.96997727058E+03  0.50400001928E-02 0.  1.
       -1   -1    0    0    0  501  0.00000000000E+00  0.00000000000E+00 -0.14889452864E+04  0.14889452864E+04  0.50400001928E-02 0. -1.
    10030    2    1    2    0    0  0.00000000000E+00  0.00000000000E+00 -0.51896801587E+03  0.24589225570E+04  0.24035333033E+04 0.  0.
        2    1    3    3  502    0 -0.23192718606E+03  0.11373792957E+04  0.58847732902E+02  0.11622757580E+04  0.25500000920E-02 0.  1.
       -2    1    3    3    0  502  0.23192718606E+03 -0.11373792957E+04 -0.57781574877E+03  0.12966467990E+04  0.25500000920E-02 0. -1.
</event>
<event>
 5   0  0.1308662E-06  0.2402298E+04  0.7818609E-02  0.8438644E-01
       -2   -1    0    0    0  501  0.00000000000E+00  0.00000000000E+00  0.11656950821E+04  0.11656950821E+04  0.25500000920E-02 0. -1.
        2   -1    0    0  501    0  0.00000000000E+00  0.00000000000E+00 -0.12376815759E+04  0.12376815759E+04  0.25500000920E-02 0.  1.
    10030    2    1    2    0    0  0.00000000000E+00  0.00000000000E+00 -0.71986493831E+02  0.24033766580E+04  0.24022983381E+04 0.  0.
        3    1    3    3  502    0  0.76031465239E+02 -0.11730912423E+04 -0.28275243368E+03  0.12090793173E+04  0.10100000352E+00 0.  1.
       -3    1    3    3    0  502 -0.76031465239E+02  0.11730912423E+04  0.21076593985E+03  0.11942973408E+04  0.10100000352E+00 0. -1.
</event>
<event>
 5   0  0.1308662E-06  0.2399576E+04  0.7818609E-02  0.8439662E-01
        2   -1    0    0  501    0  0.00000000000E+00  0.00000000000E+00  0.11735782818E+04  0.11735782818E+04  0.25500000920E-02 0.  1.
       -2   -1    0    0    0  501  0.00000000000E+00  0.00000000000E+00 -0.12265831567E+04  0.12265831567E+04  0.25500000920E-02 0. -1.
    10030    2    1    2    0    0  0.00000000000E+00  0.00000000000E+00 -0.53004874942E+02  0.24001614385E+04  0.23995760905E+04 0.  0.
        3    1    3    3  502    0 -0.76941968252E+02  0.16328965486E+03  0.11599183336E+04  0.11738799464E+04  0.10100000352E+00 0.  1.
       -3    1    3    3    0  502  0.76941968252E+02 -0.16328965486E+03 -0.12129232085E+04  0.12262814921E+04  0.10100000352E+00 0. -1.
</event>
<event>
 5   0  0.5363690E-07  0.2399195E+04  0.7818609E-02  0.8439805E-01
        1   -1    0    0  501    0  0.00000000000E+00  0.00000000000E+00  0.11636479749E+04  0.11636479749E+04  0.50400001928E-02 0.  1.
       -1   -1    0    0    0  501  0.00000000000E+00  0.00000000000E+00 -0.12366577140E+04  0.12366577140E+04  0.50400001928E-02 0. -1.
    10030    2    1    2    0    0  0.00000000000E+00  0.00000000000E+00 -0.73009739122E+02  0.24003056889E+04  0.23991950688E+04 0.  0.
        4    1    3    3  502    0  0.10517340572E+04  0.56846611936E+03 -0.13521348148E+03  0.12031552495E+04  0.12699999809E+01 0.  1.
       -4    1    3    3    0  502 -0.10517340572E+04 -0.56846611936E+03  0.62203742359E+02  0.11971504394E+04  0.12699999809E+01 0. -1.
</event>
<event>
 5   0  0.5363690E-07  0.2402251E+04  0.7818609E-02  0.8438661E-01
        1   -1    0    0  501    0  0.00000000000E+00  0.00000000000E+00  0.10571747098E+04  0.10571747098E+04  0.50400001928E-02 0.  1.
       -1   -1    0    0    0  501  0.00000000000E+00  0.00000000000E+00 -0.13646768940E+04  0.13646768940E+04  0.50400001928E-02 0. -1.
    10030    2    1    2    0    0  0.00000000000E+00  0.00000000000E+00 -0.30750218414E+03  0.24218516038E+04  0.24022505276E+04 0.  0.
        4    1    3    3  502    0  0.10232307552E+04 -0.59386338712E+03  0.55367004322E+02  0.11843741043E+04  0.12699999809E+01 0.  1.
       -4    1    3    3    0  502 -0.10232307552E+04  0.59386338712E+03 -0.36286918847E+03  0.12374774995E+04  0.12699999809E+01 0. -1.
</event>
<event>
 5   0  0.5527286E-07  0.2400292E+04  0.7818609E-02  0.8439394E-01
       -1   -1    0    0    0  501  0.00000000000E+00  0.00000000000E+00  0.13241320320E+04  0.13241320320E+04  0.50400001928E-02 0. -1.
        1   -1    0    0  501    0  0.00000000000E+00  0.00000000000E+00 -0.10877695013E+04  0.10877695013E+04  0.50400001928E-02 0.  1.
    10030    2    1    2    0    0  0.00000000000E+00  0.00000000000E+00  0.23636253070E+03  0.24119015334E+04  0.24002920157E+04 0.  0.
        1    1    3    3  502    0  0.61475306113E+03  0.85475745754E+03  0.69700454429E+03  0.12626745314E+04  0.50400001928E-02 0. -1.
       -1    1    3    3    0  502 -0.61475306113E+03 -0.85475745754E+03 -0.46064201358E+03  0.11492270020E+04  0.50400001928E-02 0.  1.
</event>
<event>
 5   0  0.5527286E-07  0.2400145E+04  0.7818609E-02  0.8439449E-01
       -1   -1    0    0    0  501  0.00000000000E+00  0.00000000000E+00  0.13443793151E+04  0.13443793151E+04  0.50400001928E-02 0.  1.
        1   -1    0    0  501    0  0.00000000000E+00  0.00000000000E+00 -0.10712560400E+04  0.10712560400E+04  0.50400001928E-02 0. -1.
    10030    2    1    2    0    0  0.00000000000E+00  0.00000000000E+00  0.27312327515E+03  0.24156353551E+04  0.24001453801E+04 0.  0.
        1    1    3    3  502    0  0.47161079701E+03 -0.30111117697E+02 -0.97366728627E+03  0.10822898908E+04  0.50400001928E-02 0. -1.
       -1    1    3    3    0  502 -0.47161079701E+03  0.30111117697E+02  0.12467905614E+04  0.13333454644E+04  0.50400001928E-02 0.  1.
</event>
<event>
 5   0  0.5690124E-07  0.2403692E+04  0.7818609E-02  0.8438123E-01
       -1   -1    0    0    0  501  0.00000000000E+00  0.00000000000E+00  0.72807827624E+03  0.72807827625E+03  0.50400001928E-02 0.  1.
        1   -1    0    0  501    0  0.00000000000E+00  0.00000000000E+00 -0.19838995049E+04  0.19838995049E+04  0.50400001928E-02 0. -1.
    10030    2    1    2    0    0  0.00000000000E+00  0.00000000000E+00 -0.12558212286E+04  0.27119777811E+04  0.24036922696E+04 0.  0.
        2    1    3    3  502    0  0.42629176127E+03 -0.46328368179E+02  0.63883545009E+03  0.76940348045E+03  0.25500000920E-02 0.  1.
       -2    1    3    3    0  502 -0.42629176127E+03  0.46328368179E+02 -0.18946566787E+04  0.19425743007E+04  0.25500000920E-02 0. -1.
</event>
<event>
 5   0  0.5452384E-07  0.2399897E+04  0.7818609E-02  0.8439542E-01
        1   -1    0    0  501    0  0.00000000000E+00  0.00000000000E+00  0.12910651588E+04  0.12910651588E+04  0.50400001928E-02 0. -1.
       -1   -1    0    0    0  501  0.00000000000E+00  0.00000000000E+00 -0.11152624075E+04  0.11152624075E+04  0.50400001928E-02 0.  1.
    10030    2    1    2    0    0  0.00000000000E+00  0.00000000000E+00  0.17580275133E+03  0.24063275664E+04  0.23998970289E+04 0.  0.
        5    1    3    3  502    0 -0.60298988838E+03  0.10121864561E+04  0.31596659840E+03  0.12198258928E+04  0.46999998093E+01 0. -1.
       -5    1    3    3    0  502  0.60298988838E+03 -0.10121864561E+04 -0.14016384707E+03  0.11865016736E+04  0.46999998093E+01 0.  1.
</event>
<event>
 5   0  0.5690124E-07  0.2393881E+04  0.7818609E-02  0.8441798E-01
        1   -1    0    0  501    0  0.00000000000E+00  0.00000000000E+00  0.15846523828E+04  0.15846523828E+04  0.50400001928E-02 0.  1.
       -1   -1    0    0    0  501  0.00000000000E+00  0.00000000000E+00 -0.90408864833E+03  0.90408864834E+03  0.50400001928E-02 0. -1.
    10030    2    1    2    0    0  0.00000000000E+00  0.00000000000E+00  0.68056373444E+03  0.24887410311E+04  0.23938807245E+04 0.  0.
        2    1    3    3  502    0  0.64692412754E+03 -0.11937793978E+03 -0.69929455396E+03  0.96009103345E+03  0.25500000920E-02 0. -1.
       -2    1    3    3    0  502 -0.64692412754E+03  0.11937793978E+03  0.13798582884E+04  0.15286499977E+04  0.25500000920E-02 0.  1.
</event>
<event>
 5   0  0.1275948E-06  0.2401027E+04  0.7818609E-02  0.8439119E-01
       -2   -1    0    0    0  501  0.00000000000E+00  0.00000000000E+00  0.99092909722E+03  0.99092909723E+03  0.25500000920E-02 0. -1.
        2   -1    0    0  501    0  0.00000000000E+00  0.00000000000E+00 -0.14544254042E+04  0.14544254042E+04  0.25500000920E-02 0.  1.
    10030    2    1    2    0    0  0.00000000000E+00  0.00000000000E+00 -0.46349630693E+03  0.24453545014E+04  0.24010268243E+04 0.  0.
        1    1    3    3  502    0 -0.30631796424E+03  0.77493605501E+03 -0.11119231538E+04  0.13895069933E+04  0.50400001928E-02 0.  1.
       -1    1    3    3    0  502  0.30631796424E+03 -0.77493605501E+03  0.64842684683E+03  0.10558475081E+04  0.50400001928E-02 0. -1.
</event>
<event>
 5   0  0.1275948E-06  0.2399057E+04  0.7818609E-02  0.8439857E-01
       -2   -1    0    0    0  501  0.00000000000E+00  0.00000000000E+00  0.78677133410E+03  0.78677133411E+03  0.25500000920E-02 0.  1.
        2   -1    0    0  501    0  0.00000000000E+00  0.00000000000E+00 -0.18288265768E+04  0.18288265768E+04  0.25500000920E-02 0. -1.
    10030    2    1    2    0    0  0.00000000000E+00  0.00000000000E+00 -0.10420552427E+04  0.26155979110E+04  0.23990567527E+04 0.  0.
        1    1    3    3  502    0  0.67234100097E+03 -0.73713955551E+03  0.20500037405E+03  0.10185491148E+04  0.50400001928E-02 0.  1.
       -1    1    3    3    0  502 -0.67234100097E+03  0.73713955551E+03 -0.12470556168E+04  0.15970487962E+04  0.50400001928E-02 0. -1.
</event>
<event>
 5   0  0.1336057E-06  0.2399649E+04  0.7818609E-02  0.8439635E-01
        2   -1    0    0  501    0  0.00000000000E+00  0.00000000000E+00  0.15664334209E+04  0.15664334209E+04  0.25500000920E-02 0. -1.
       -2   -1    0    0    0  501  0.00000000000E+00  0.00000000000E+00 -0.91901685674E+03  0.91901685674E+03  0.25500000920E-02 0.  1.
    10030    2    1    2    0    0  0.00000000000E+00  0.00000000000E+00  0.64741656417E+03  0.24854502777E+04  0.23996489066E+04 0.  0.
        2    1    3    3  502    0 -0.11835340072E+04  0.13998796219E+03  0.18008012131E+03  0.12053125013E+04  0.25500000920E-02 0. -1.
       -2    1    3    3    0  502  0.11835340072E+04 -0.13998796219E+03  0.46733644286E+03  0.12801377764E+04  0.25500000920E-02 0.  1.
</event>
<event>
 5   0  0.5363690E-07  0.2399591E+04  0.7818609E-02  0.8439657E-01
        1   -1    0    0  501    0  0.00000000000E+00  0.00000000000E+00  0.21155226940E+04  0.21155226940E+04  0.50400001928E-02 0.  1.
       -1   -1    0    0    0  501  0.00000000000E+00  0.00000000000E+00 -0.68045078040E+03  0.68045078042E+03  0.50400001928E-02 0. -1.
    10030    2    1    2    0    0  0.00000000000E+00  0.00000000000E+00  0.14350719136E+04  0.27959734744E+04  0.23995908552E+04 0.  0.
        4    1    3    3  502    0 -0.73385279202E+02  0.83114208143E+03 -0.28704557135E+03  0.88237142500E+03  0.12699999809E+01 0. -1.
       -4    1    3    3    0  502  0.73385279202E+02 -0.83114208143E+03  0.17221174850E+04  0.19136020494E+04  0.12699999809E+01 0.  1.
</event>
<event>
 5   0  0.5363690E-07  0.2399549E+04  0.7818609E-02  0.8439673E-01
        1   -1    0    0  501    0  0.00000000000E+00  0.00000000000E+00  0.10066423398E+04  0.10066423398E+04  0.50400001928E-02 0.  1.
       -1   -1    0    0    0  501  0.00000000000E+00  0.00000000000E+00 -0.14299601421E+04  0.14299601421E+04  0.50400001928E-02 0. -1.
    10030    2    1    2    0    0  0.00000000000E+00  0.00000000000E+00 -0.42331780229E+03  0.24366024819E+04  0.23995486436E+04 0.  0.
        4    1    3    3  502    0 -0.54492897819E+03  0.27442670316E+03  0.83734685221E+03  0.10360545210E+04  0.12699999809E+01 0.  1.
       -4    1    3    3    0  502  0.54492897819E+03 -0.27442670316E+03 -0.12606646545E+04  0.14005479609E+04  0.12699999809E+01 0. -1.
</event>
<event>
 5   0  0.5527286E-07  0.2407335E+04  0.7818609E-02  0.8436763E-01
        1   -1    0    0  501    0  0.00000000000E+00  0.00000000000E+00  0.15729917685E+04  0.15729917685E+04  0.50400001928E-02 0. -1.
       -1   -1    0    0    0  501  0.00000000000E+00  0.00000000000E+00 -0.92105712136E+03  0.92105712137E+03  0.50400001928E-02 0.  1.
    10030    2    1    2    0    0  0.00000000000E+00  0.00000000000E+00  0.65193464717E+03  0.24940488899E+04  0.24073348502E+04 0.  0.
        1    1    3    3  502    0  0.11065477097E+04 -0.16005992128E+02 -0.16448893779E+03  0.11188210922E+04  0.50400001928E-02 0.  1.
       -1    1    3    3    0  502 -0.11065477097E+04  0.16005992128E+02  0.81642358496E+03  0.13752277977E+04  0.50400001928E-02 0. -1.
</event>
<event>
 5   0  0.5690124E-07  0.2395846E+04  0.7818609E-02  0.8441060E-01
       -1   -1    0    0    0  501  0.00000000000E+00  0.00000000000E+00  0.17032490500E+04  0.17032490500E+04  0.50400001928E-02 0. -1.
        1   -1    0    0  501    0  0.00000000000E+00  0.00000000000E+00 -0.84251876265E+03  0.84251876266E+03  0.50400001928E-02 0.  1.
    10030    2    1    2    0    0  0.00000000000E+00  0.00000000000E+00  0.86073028731E+03  0.25457678126E+04  0.23958458065E+04 0.  0.
        2    1    3    3  502    0 -0.76053741540E+03 -0.90990465048E+03  0.25042976830E+03  0.12120473184E+04  0.25500000920E-02 0.  1.
       -2    1    3    3    0  502  0.76053741540E+03  0.90990465048E+03  0.61030051901E+03  0.13337204942E+04  0.25500000920E-02 0. -1.
</event>
<event>
 5   0  0.5690124E-07  0.2399043E+04  0.7818609E-02  0.8439862E-01
        1   -1    0    0  501    0  0.00000000000E+00  0.00000000000E+00  0.10577300758E+04  0.10577300759E+04  0.50400001928E-02 0.  1.
       -1   -1    0    0    0  501  0.00000000000E+00  0.00000000000E+00 -0.13603200456E+04  0.13603200456E+04  0.50400001928E-02 0. -1.
    10030    2    1    2    0    0  0.00000000000E+00  0.00000000000E+00 -0.30258996980E+03  0.24180501215E+04  0.23990426633E+04 0.  0.
        2    1    3    3  502    0  0.63848379110E+03 -0.56532785180E+03 -0.10015389455E+04  0.13154228943E+04  0.25500000920E-02 0. -1.
       -2    1    3    3    0  502 -0.63848379110E+03  0.56532785180E+03  0.69894897569E+03  0.11026272272E+04  0.25500000920E-02 0.  1.
</event>
<event>
 5   0  0.1308662E-06  0.2397497E+04  0.7818609E-02  0.8440441E-01
        2   -1    0    0  501    0  0.00000000000E+00  0.00000000000E+00  0.19409469044E+04  0.19409469044E+04  0.25500000920E-02 0. -1.
       -2   -1    0    0    0  501  0.00000000000E+00  0.00000000000E+00 -0.74035898691E+03  0.74035898692E+03  0.25500000920E-02 0.  1.
    10030    2    1    2    0    0  0.00000000000E+00  0.00000000000E+00  0.12005879175E+04  0.26813058913E+04  0.23974965975E+04 0.  0.
        3    1    3    3  502    0 -0.18390824622E+03 -0.65673761876E+03  0.17028296543E+04  0.18343269569E+04  0.10100000352E+00 0. -1.
       -3    1    3    3    0  502  0.18390824622E+03  0.65673761876E+03 -0.50224173684E+03  0.84697893442E+03  0.10100000352E+00 0.  1.
</event>
<event>
 5   0  0.1275948E-06  0.2399944E+04  0.7818609E-02  0.8439525E-01
        2   -1    0    0  501    0  0.00000000000E+00  0.00000000000E+00  0.17632384876E+04  0.17632384876E+04  0.25500000920E-02 0.  1.
       -2   -1    0    0    0  501  0.00000000000E+00  0.00000000000E+00 -0.81664072356E+03  0.81664072356E+03  0.25500000920E-02 0. -1.
    10030    2    1    2    0    0  0.00000000000E+00  0.00000000000E+00  0.94659776403E+03  0.25798792112E+04  0.23999436279E+04 0.  0.
        1    1    3    3  502    0 -0.87114244381E+02  0.45124954953E+02 -0.81232222757E+03  0.81822524683E+03  0.50400001928E-02 0. -1.
       -1    1    3    3    0  502  0.87114244381E+02 -0.45124954953E+02  0.17589199916E+04  0.17616539643E+04  0.50400001928E-02 0.  1.
</event>
<event>
 5   0  0.1308662E-06  0.2402216E+04  0.7818609E-02  0.8438674E-01
       -2   -1    0    0    0  501  0.00000000000E+00  0.00000000000E+00  0.57141434761E+03  0.57141434762E+03  0.25500000920E-02 0.  1.
        2   -1    0    0  501    0  0.00000000000E+00  0.00000000000E+00 -0.25247181165E+04  0.25247181165E+04  0.25500000920E-02 0. -1.
    10030    2    1    2    0    0  0.00000000000E+00  0.00000000000E+00 -0.19533037689E+04  0.30961324641E+04  0.24022157734E+04 0.  0.
        3    1    3    3  502    0 -0.33213170301E+03 -0.86435961595E+03  0.93352066958E+01  0.92602168987E+03  0.10100000352E+00 0.  1.
       -3    1    3    3    0  502  0.33213170301E+03  0.86435961595E+03 -0.19626389756E+04  0.21701107743E+04  0.10100000352E+00 0. -1.
</event>
<event>
 5   0  0.5527286E-07  0.2396818E+04  0.7818609E-02  0.8440696E-01
        1   -1    0    0  501    0  0.00000000000E+00  0.00000000000E+00  0.15789117892E+04  0.15789117892E+04  0.50400001928E-02 0. -1.
       -1   -1    0    0    0  501  0.00000000000E+00  0.00000000000E+00 -0.90960378476E+03  0.90960378478E+03  0.50400001928E-02 0.  1.
    10030    2    1    2    0    0  0.00000000000E+00  0.00000000000E+00  0.66930800448E+03  0.24885155740E+04  0.23968180067E+04 0.  0.
        1    1    3    3  502    0 -0.41547178776E+03  0.38807252268E+03 -0.76067971799E+03  0.94965821360E+03  0.50400001928E-02 0.  1.
       -1    1    3    3    0  502  0.41547178776E+03 -0.38807252268E+03  0.14299877225E+04  0.15388573604E+04  0.50400001928E-02 0. -1.
</event>
<event>
 5   0  0.1336057E-06  0.2400858E+04  0.7818609E-02  0.8439182E-01
        2   -1    0    0  501    0  0.00000000000E+00  0.00000000000E+00  0.12390805086E+04  0.12390805086E+04  0.25500000920E-02 0.  1.
       -2   -1    0    0    0  501  0.00000000000E+00  0.00000000000E+00 -0.11629830641E+04  0.11629830641E+04  0.25500000920E-02 0. -1.
    10030    2    1    2    0    0  0.00000000000E+00  0.00000000000E+00  0.76097444544E+02  0.24020635727E+04  0.24008578855E+04 0.  0.
        2    1    3    3  502    0  0.10039129546E+04  0.27799833433E+03 -0.55882890869E+03  0.11821226855E+04  0.25500000920E-02 0. -1.
       -2    1    3    3    0  502 -0.10039129546E+04 -0.27799833433E+03  0.63492635323E+03  0.12199408872E+04  0.25500000920E-02 0.  1.
</event>
<event>
 5   0  0.1336057E-06  0.2399340E+04  0.7818609E-02  0.8439751E-01
        2   -1    0    0  501    0  0.00000000000E+00  0.00000000000E+00  0.16941806949E+04  0.16941806949E+04  0.25500000920E-02 0. -1.
       -2   -1    0    0    0  501  0.00000000000E+00  0.00000000000E+00 -0.84950089159E+03  0.84950089159E+03  0.25500000920E-02 0.  1.
    10030    2    1    2    0    0  0.00000000000E+00  0.00000000000E+00  0.84467980334E+03  0.25436815865E+04  0.23993399183E+04 0.  0.
        2    1    3    3  502    0  0.65748969986E+03  0.51607960472E+03 -0.48999884552E+03  0.96888065955E+03  0.25500000920E-02 0.  1.
       -2    1    3    3    0  502 -0.65748969986E+03 -0.51607960472E+03  0.13346786489E+04  0.15748009270E+04  0.25500000920E-02 0. -1.
</event>
<event>
 5   0  0.5527286E-07  0.2400350E+04  0.7818609E-02  0.8439372E-01
        1   -1    0    0  501    0  0.00000000000E+00  0.00000000000E+00  0.18650271597E+04  0.18650271597E+04  0.50400001928E-02 0.  1.
       -1   -1    0    0    0  501  0.00000000000E+00  0.00000000000E+00 -0.77233199993E+03  0.77233199994E+03  0.50400001928E-02 0. -1.
    10030    2    1    2    0    0  0.00000000000E+00  0.00000000000E+00  0.10926951598E+04  0.26373591597E+04  0.24003501046E+04 0.  0.
        1    1    3    3  502    0  0.27166569357E+03  0.86149049521E+03  0.14145964529E+04  0.16784073543E+04  0.50400001928E-02 0.  1.
       -1    1    3    3    0  502 -0.27166569357E+03 -0.86149049521E+03 -0.32190129314E+03  0.95895180533E+03  0.50400001928E-02 0. -1.
</event>
<event>
 5   0  0.5363690E-07  0.2400095E+04  0.7818609E-02  0.8439468E-01
        1   -1    0    0  501    0  0.00000000000E+00  0.00000000000E+00  0.12332311436E+04  0.12332311436E+04  0.50400001928E-02 0.  1.
       -1   -1    0    0    0  501  0.00000000000E+00  0.00000000000E+00 -0.11677567984E+04  0.11677567984E+04  0.50400001928E-02 0. -1.
    10030    2    1    2    0    0  0.00000000000E+00  0.00000000000E+00  0.65474345211E+02  0.24009879420E+04  0.24000950414E+04 0.  0.
        4    1    3    3  502    0  0.26916758818E+03 -0.39864196098E+03  0.11325759678E+04  0.12304863019E+04  0.12699999809E+01 0.  1.
       -4    1    3    3    0  502 -0.26916758818E+03  0.39864196098E+03 -0.10671016226E+04  0.11705016401E+04  0.12699999809E+01 0. -1.
</event>
<event>
 5   0  0.5452384E-07  0.2404474E+04  0.7818609E-02  0.8437830E-01
       -1   -1    0    0    0  501  0.00000000000E+00  0.00000000000E+00  0.10336358911E+04  0.10336358911E+04  0.50400001928E-02 0.  1.
        1   -1    0    0  501    0  0.00000000000E+00  0.00000000000E+00 -0.13983399932E+04  0.13983399933E+04  0.50400001928E-02 0. -1.
    10030    2    1    2    0    0  0.00000000000E+00  0.00000000000E+00 -0.36470410212E+03  0.24319758844E+04  0.24044744998E+04 0.  0.
        5    1    3    3  502    0 -0.34165682945E+03  0.23191768503E+03  0.95964882653E+03  0.10447311434E+04  0.46999998093E+01 0.  1.
       -5    1    3    3    0  502  0.34165682945E+03 -0.23191768503E+03 -0.13243529287E+04  0.13872447410E+04  0.46999998093E+01 0. -1.
</event>
<event>
 5   0  0.1291468E-06  0.2399277E+04  0.7818609E-02  0.8439774E-01
       -2   -1    0    0    0  501  0.00000000000E+00  0.00000000000E+00  0.75449327170E+03  0.75449327171E+03  0.25500000920E-02 0.  1.
        2   -1    0    0  501    0  0.00000000000E+00  0.00000000000E+00 -0.19074167446E+04  0.19074167446E+04  0.25500000920E-02 0. -1.
    10030    2    1    2    0    0  0.00000000000E+00  0.00000000000E+00 -0.11529234729E+04  0.26619100163E+04  0.23992774747E+04 0.  0.
        4    1    3    3  502    0 -0.27540273873E+03 -0.11648317528E+04 -0.66557730052E+03  0.13695526411E+04  0.12699999809E+01 0. -1.
       -4    1    3    3    0  502  0.27540273873E+03  0.11648317528E+04 -0.48734617241E+03  0.12923573753E+04  0.12699999809E+01 0.  1.
</event>
<event>
 5   0  0.5452384E-07  0.2399890E+04  0.7818609E-02  0.8439545E-01
       -1   -1    0    0    0  501  0.00000000000E+00  0.00000000000E+00  0.15780528139E+04  0.15780528139E+04  0.50400001928E-02 0.  1.
        1   -1    0    0  501    0  0.00000000000E+00  0.00000000000E+00 -0.91243347502E+03  0.91243347503E+03  0.50400001928E-02 0. -1.
    10030    2    1    2    0    0  0.00000000000E+00  0.00000000000E+00  0.66561933888E+03  0.24904862889E+04  0.23998901748E+04 0.  0.
        5    1    3    3  502    0  0.55148734757E+03  0.30515940342E+03 -0.72680665787E+03  0.96204499060E+03  0.46999998093E+01 0. -1.
       -5    1    3    3    0  502 -0.55148734757E+03 -0.30515940342E+03  0.13924259968E+04  0.15284412983E+04  0.46999998093E+01 0.  1.
</event>
<event>
 5   0  0.1275948E-06  0.2399262E+04  0.7818609E-02  0.8439780E-01
        2   -1    0    0  501    0  0.00000000000E+00  0.00000000000E+00  0.21211114873E+04  0.21211114873E+04  0.25500000920E-02 0.  1.
       -2   -1    0    0    0  501  0.00000000000E+00  0.00000000000E+00 -0.67847179041E+03  0.67847179041E+03  0.25500000920E-02 0. -1.
    10030    2    1    2    0    0  0.00000000000E+00  0.00000000000E+00  0.14426396968E+04  0.27995832777E+04  0.23992618102E+04 0.  0.
        1    1    3    3  502    0 -0.10692859730E+03 -0.37799048081E+03  0.20439370061E+04  0.20813430792E+04  0.50400001928E-02 0.  1.
       -1    1    3    3    0  502  0.10692859730E+03  0.37799048081E+03 -0.60129730926E+03  0.71824019844E+03  0.50400001928E-02 0. -1.
</event>
<event>
 5   0  0.5452384E-07  0.2401004E+04  0.7818609E-02  0.8439128E-01
       -1   -1    0    0    0  501  0.00000000000E+00  0.00000000000E+00  0.11176275514E+04  0.11176275514E+04  0.50400001928E-02 0.  1.
        1   -1    0    0  501    0  0.00000000000E+00  0.00000000000E+00 -0.12895216767E+04  0.12895216767E+04  0.50400001928E-02 0. -1.
    10030    2    1    2    0    0  0.00000000000E+00  0.00000000000E+00 -0.17189412529E+03  0.24071492281E+04  0.24010039183E+04 0.  0.
        5    1    3    3  502    0  0.11946812871E+04  0.87253854508E+02 -0.63319020872E+01  0.11978893087E+04  0.46999998093E+01 0. -1.
       -5    1    3    3    0  502 -0.11946812871E+04 -0.87253854508E+02 -0.16556222320E+03  0.12092599194E+04  0.46999998093E+01 0.  1.
</event>
<event>
 5   0  0.5510176E-07  0.2400198E+04  0.7818609E-02  0.8439430E-01
        1   -1    0    0  501    0  0.00000000000E+00  0.00000000000E+00  0.87506414754E+03  0.87506414755E+03  0.50400001928E-02 0. -1.
       -1   -1    0    0    0  501  0.00000000000E+00  0.00000000000E+00 -0.16458647705E+04  0.16458647705E+04  0.50400001928E-02 0.  1.
    10030    2    1    2    0    0  0.00000000000E+00  0.00000000000E+00 -0.77080062294E+03  0.25209289180E+04  0.24001977022E+04 0.  0.
        3    1    3    3  502    0 -0.23197028727E+03  0.59095190309E+03 -0.14550595359E+04  0.15875240562E+04  0.10100000352E+00 0.  1.
       -3    1    3    3    0  502  0.23197028727E+03 -0.59095190309E+03  0.68425891293E+03  0.93340486182E+03  0.10100000352E+00 0. -1.
</event>
<event>
 5   0  0.5510176E-07  0.2399493E+04  0.7818609E-02  0.8439694E-01
        1   -1    0    0  501    0  0.00000000000E+00  0.00000000000E+00  0.17482609463E+04  0.17482609463E+04  0.50400001928E-02 0.  1.
       -1   -1    0    0    0  501  0.00000000000E+00  0.00000000000E+00 -0.82332747195E+03  0.82332747197E+03  0.50400001928E-02 0. -1.
    10030    2    1    2    0    0  0.00000000000E+00  0.00000000000E+00  0.92493347432E+03  0.25715884182E+04  0.23994926674E+04 0.  0.
        3    1    3    3  502    0 -0.11503627287E+04 -0.38486780516E+02  0.99699437090E+02  0.11553162458E+04  0.10100000352E+00 0. -1.
       -3    1    3    3    0  502  0.11503627287E+04  0.38486780516E+02  0.82523403723E+03  0.14162721724E+04  0.10100000352E+00 0.  1.
</event>
<event>
 5   0  0.5452384E-07  0.2401870E+04  0.7818609E-02  0.8438804E-01
       -1   -1    0    0    0  501  0.00000000000E+00  0.00000000000E+00  0.24869515960E+04  0.24869515960E+04  0.50400001928E-02 0. -1.
        1   -1    0    0  501    0  0.00000000000E+00  0.00000000000E+00 -0.57992465552E+03  0.57992465554E+03  0.50400001928E-02 0.  1.
    10030    2    1    2    0    0  0.00000000000E+00  0.00000000000E+00  0.19070269405E+04  0.30668762516E+04  0.24018697281E+04 0.  0.
        5    1    3    3  502    0  0.65903335462E+03  0.95494517657E+03  0.55793663377E+03  0.12874628655E+04  0.46999998093E+01 0.  1.
       -5    1    3    3    0  502 -0.65903335462E+03 -0.95494517657E+03  0.13490903067E+04  0.17794133860E+04  0.46999998093E+01 0. -1.
</event>
<event>
 5   0  0.1291468E-06  0.2399754E+04  0.7818609E-02  0.8439596E-01
        2   -1    0    0  501    0  0.00000000000E+00  0.00000000000E+00  0.10437728103E+04  0.10437728103E+04  0.25500000920E-02 0.  1.
       -2   -1    0    0    0  501  0.00000000000E+00  0.00000000000E+00 -0.13793280803E+04  0.13793280803E+04  0.25500000920E-02 0. -1.
    10030    2    1    2    0    0  0.00000000000E+00  0.00000000000E+00 -0.33555526997E+03  0.24231008907E+04  0.23997542764E+04 0.  0.
        4    1    3    3  502    0 -0.38930535619E+03 -0.38285376836E+03 -0.12466140335E+04  0.13609496059E+04  0.12699999809E+01 0. -1.
       -4    1    3    3    0  502  0.38930535619E+03  0.38285376836E+03  0.91105876352E+03  0.10621512848E+04  0.12699999809E+01 0.  1.
</event>
<event>
 5   0  0.1308662E-06  0.2400166E+04  0.7818609E-02  0.8439442E-01
        2   -1    0    0  501    0  0.00000000000E+00  0.00000000000E+00  0.18743823637E+04  0.18743823637E+04  0.25500000920E-02 0. -1.
       -2   -1    0    0    0  501  0.00000000000E+00  0.00000000000E+00 -0.76835910868E+03  0.76835910869E+03  0.25500000920E-02 0.  1.
    10030    2    1    2    0    0  0.00000000000E+00  0.00000000000E+00  0.11060232551E+04  0.26427414724E+04  0.24001656296E+04 0.  0.
        3    1    3    3  502    0 -0.58889326606E+02 -0.26145712552E+03  0.18410102363E+04  0.18604156745E+04  0.10100000352E+00 0. -1.
       -3    1    3    3    0  502  0.58889326606E+02  0.26145712552E+03 -0.73498698129E+03  0.78232579795E+03  0.10100000352E+00 0.  1.
</event>
<event>
 5   0  0.1336057E-06  0.2400232E+04  0.7818609E-02  0.8439417E-01
        2   -1    0    0  501    0  0.00000000000E+00  0.00000000000E+00  0.11781366106E+04  0.11781366106E+04  0.25500000920E-02 0.  1.
       -2   -1    0    0    0  501  0.00000000000E+00  0.00000000000E+00 -0.12225052907E+04  0.12225052908E+04  0.25500000920E-02 0. -1.
    10030    2    1    2    0    0  0.00000000000E+00  0.00000000000E+00 -0.44368680170E+02  0.24006419013E+04  0.24002318552E+04 0.  0.
        2    1    3    3  502    0  0.77685847376E+03  0.74700754105E+03 -0.55024128198E+03  0.12100805027E+04  0.25500000920E-02 0. -1.
       -2    1    3    3    0  502 -0.77685847376E+03 -0.74700754105E+03  0.50587260181E+03  0.11905613986E+04  0.25500000920E-02 0.  1.
</event>
<event>
 5   0  0.1275948E-06  0.2400324E+04  0.7818609E-02  0.8439382E-01
       -2   -1    0    0    0  501  0.00000000000E+00  0.00000000000E+00  0.10771172407E+04  0.10771172407E+04  0.25500000920E-02 0. -1.
        2   -1    0    0  501    0  0.00000000000E+00  0.00000000000E+00 -0.13372628969E+04  0.13372628969E+04  0.25500000920E-02 0.  1.
    10030    2    1    2    0    0  0.00000000000E+00  0.00000000000E+00 -0.26014565615E+03  0.24143801376E+04  0.24003240794E+04 0.  0.
        1    1    3    3  502    0 -0.70246553053E+03 -0.96480760447E+03 -0.25336859116E+01  0.11934479271E+04  0.50400001928E-02 0. -1.
       -1    1    3    3    0  502  0.70246553053E+03  0.96480760447E+03 -0.25761197024E+03  0.12209322104E+04  0.50400001928E-02 0.  1.
</event>
<event>
 5   0  0.1307477E-06  0.2399604E+04  0.7818609E-02  0.8439652E-01
        2   -1    0    0  501    0  0.00000000000E+00  0.00000000000E+00  0.14961607731E+04  0.14961607731E+04  0.25500000920E-02 0.  1.
       -2   -1    0    0    0  501  0.00000000000E+00  0.00000000000E+00 -0.96214610432E+03  0.96214610432E+03  0.25500000920E-02 0. -1.
    10030    2    1    2    0    0  0.00000000000E+00  0.00000000000E+00  0.53401466874E+03  0.24583068774E+04  0.23996043501E+04 0.  0.
        5    1    3    3  502    0  0.10424146320E+04 -0.57723770540E+03  0.41069370944E+03  0.12603662351E+04  0.46999998093E+01 0. -1.
       -5    1    3    3    0  502 -0.10424146320E+04  0.57723770540E+03  0.12332095931E+03  0.11979406423E+04  0.46999998093E+01 0.  1.
</event>
<event>
 5   0  0.1308662E-06  0.2402015E+04  0.7818609E-02  0.8438749E-01
       -2   -1    0    0    0  501  0.00000000000E+00  0.00000000000E+00  0.81193436402E+03  0.81193436403E+03  0.25500000920E-02 0. -1.
        2   -1    0    0  501    0  0.00000000000E+00  0.00000000000E+00 -0.17765221312E+04  0.17765221312E+04  0.25500000920E-02 0.  1.
    10030    2    1    2    0    0  0.00000000000E+00  0.00000000000E+00 -0.96458776715E+03  0.25884564952E+04  0.24020152928E+04 0.  0.
        3    1    3    3  502    0  0.14622834089E+03 -0.11121754642E+04 -0.19918412747E+02  0.11219241259E+04  0.10100000352E+00 0.  1.
       -3    1    3    3    0  502 -0.14622834089E+03  0.11121754642E+04 -0.94466935440E+03  0.14665323693E+04  0.10100000352E+00 0. -1.
</event>
<event>
 5   0  0.5527286E-07  0.2399643E+04  0.7818609E-02  0.8439637E-01
       -1   -1    0    0    0  501  0.00000000000E+00  0.00000000000E+00  0.85508186034E+03  0.85508186035E+03  0.50400001928E-02 0. -1.
        1   -1    0    0  501    0  0.00000000000E+00  0.00000000000E+00 -0.16835477286E+04  0.16835477286E+04  0.50400001928E-02 0.  1.
    10030    2    1    2    0    0  0.00000000000E+00  0.00000000000E+00 -0.82846586822E+03  0.25386295889E+04  0.23996425765E+04 0.  0.
        1    1    3    3  502    0 -0.79991562392E+03 -0.89332881537E+03 -0.45746221154E+03  0.12834223984E+04  0.50400001928E-02 0. -1.
       -1    1    3    3    0  502  0.79991562392E+03  0.89332881537E+03 -0.37100365668E+03  0.12552071905E+04  0.50400001928E-02 0.  1.
</event>
<event>
 5   0  0.5510176E-07  0.2398428E+04  0.7818609E-02  0.8440092E-01
        1   -1    0    0  501    0  0.00000000000E+00  0.00000000000E+00  0.16813648606E+04  0.16813648607E+04  0.50400001928E-02 0.  1.
       -1   -1    0    0    0  501  0.00000000000E+00  0.00000000000E+00 -0.85532551672E+03  0.85532551673E+03  0.50400001928E-02 0. -1.
    10030    2    1    2    0    0  0.00000000000E+00  0.00000000000E+00  0.82603934393E+03  0.25366903774E+04  0.23984280421E+04 0.  0.
        3    1    3    3  502    0  0.22443027174E+03  0.10280514170E+04 -0.19533942969E+03  0.10702411719E+04  0.10100000352E+00 0. -1.
       -3    1    3    3    0  502 -0.22443027174E+03 -0.10280514170E+04  0.10213787736E+04  0.14664492055E+04  0.10100000352E+00 0.  1.
</event>
<event>
 5   0  0.5452384E-07  0.2400085E+04  0.7818609E-02  0.8439472E-01
       -1   -1    0    0    0  501  0.00000000000E+00  0.00000000000E+00  0.10689694129E+04  0.10689694129E+04  0.50400001928E-02 0.  1.
        1   -1    0    0  501    0  0.00000000000E+00  0.00000000000E+00 -0.13471873792E+04  0.13471873792E+04  0.50400001928E-02 0. -1.
    10030    2    1    2    0    0  0.00000000000E+00  0.00000000000E+00 -0.27821796630E+03  0.24161567921E+04  0.24000850833E+04 0.  0.
        5    1    3    3  502    0 -0.89858916542E+02  0.82870149356E+03  0.72995580715E+03  0.11080064804E+04  0.46999998093E+01 0.  1.
       -5    1    3    3    0  502  0.89858916542E+02 -0.82870149356E+03 -0.10081737735E+04  0.13081503116E+04  0.46999998093E+01 0. -1.
</event>
<event>
 5   0  0.5510176E-07  0.2400300E+04  0.7818609E-02  0.8439391E-01
        1   -1    0    0  501    0  0.00000000000E+00  0.00000000000E+00  0.94900033574E+03  0.94900033575E+03  0.50400001928E-02 0. -1.
       -1   -1    0    0    0  501  0.00000000000E+00  0.00000000000E+00 -0.15177659988E+04  0.15177659989E+04  0.50400001928E-02 0.  1.
    10030    2    1    2    0    0  0.00000000000E+00  0.00000000000E+00 -0.56876566311E+03  0.24667663346E+04  0.24003003500E+04 0.  0.
        3    1    3    3  502    0 -0.99871627311E+02  0.16788056475E+03  0.93255319236E+03  0.95279257593E+03  0.10100000352E+00 0. -1.
       -3    1    3    3    0  502  0.99871627311E+02 -0.16788056475E+03 -0.15013188555E+04  0.15139737587E+04  0.10100000352E+00 0.  1.
</event>
<event>
 5   0  0.1336057E-06  0.2404045E+04  0.7818609E-02  0.8437991E-01
        2   -1    0    0  501    0  0.00000000000E+00  0.00000000000E+00  0.22830128811E+04  0.22830128811E+04  0.25500000920E-02 0.  1.
       -2   -1    0    0    0  501  0.00000000000E+00  0.00000000000E+00 -0.63287332321E+03  0.63287332321E+03  0.25500000920E-02 0. -1.
    10030    2    1    2    0    0  0.00000000000E+00  0.00000000000E+00  0.16501395579E+04  0.29158862043E+04  0.24040448823E+04 0.  0.
        2    1    3    3  502    0 -0.52045703019E+03 -0.10011568056E+04  0.13276113751E+04  0.17423382085E+04  0.25500000920E-02 0.  1.
       -2    1    3    3    0  502  0.52045703019E+03  0.10011568056E+04  0.32252818281E+03  0.11735479958E+04  0.25500000920E-02 0. -1.
</event>
<event>
 5   0  0.1308662E-06  0.2400590E+04  0.7818609E-02  0.8439283E-01
        2   -1    0    0  501    0  0.00000000000E+00  0.00000000000E+00  0.97645829341E+03  0.97645829341E+03  0.25500000920E-02 0. -1.
       -2   -1    0    0    0  501  0.00000000000E+00  0.00000000000E+00 -0.14754425730E+04  0.14754425731E+04  0.25500000920E-02 0.  1.
    10030    2    1    2    0    0  0.00000000000E+00  0.00000000000E+00 -0.49898427964E+03  0.24519008665E+04  0.24005900416E+04 0.  0.
        3    1    3    3  502    0 -0.28053786528E+03  0.69396975499E+03 -0.12078507181E+04  0.14209851801E+04  0.10100000352E+00 0.  1.
       -3    1    3    3    0  502  0.28053786528E+03 -0.69396975499E+03  0.70886643842E+03  0.10309156864E+04  0.10100000352E+00 0. -1.
</event>
<event>
 5   0  0.5510176E-07  0.2404611E+04  0.7818609E-02  0.8437779E-01
        1   -1    0    0  501    0  0.00000000000E+00  0.00000000000E+00  0.11255884384E+04  0.11255884384E+04  0.50400001928E-02 0.  1.
       -1   -1    0    0    0  501  0.00000000000E+00  0.00000000000E+00 -0.12842508823E+04  0.12842508823E+04  0.50400001928E-02 0. -1.
    10030    2    1    2    0    0  0.00000000000E+00  0.00000000000E+00 -0.15866244390E+03  0.24098393206E+04  0.24046105257E+04 0.  0.
        3    1    3    3  502    0 -0.44886286765E+03  0.50308067216E+03 -0.10769705790E+04  0.12706036655E+04  0.10100000352E+00 0. -1.
       -3    1    3    3    0  502  0.44886286765E+03 -0.50308067216E+03  0.91830813510E+03  0.11392356551E+04  0.10100000352E+00 0.  1.
</event>
<event>
 5   0  0.5690124E-07  0.2400483E+04  0.7818609E-02  0.8439323E-01
        1   -1    0    0  501    0  0.00000000000E+00  0.00000000000E+00  0.21677783642E+04  0.21677783642E+04  0.50400001928E-02 0.  1.
       -1   -1    0    0    0  501  0.00000000000E+00  0.00000000000E+00 -0.66454213932E+03  0.66454213934E+03  0.50400001928E-02 0. -1.
    10030    2    1    2    0    0  0.00000000000E+00  0.00000000000E+00  0.15032362249E+04  0.28323205036E+04  0.24004833445E+04 0.  0.
        2    1    3    3  502    0 -0.92322787764E+03 -0.25443929873E+03  0.16053044077E+04  0.18692488631E+04  0.25500000920E-02 0.  1.
       -2    1    3    3    0  502  0.92322787764E+03  0.25443929873E+03 -0.10206818278E+03  0.96307164049E+03  0.25500000920E-02 0. -1.
</event>
<event>
 5   0  0.1336057E-06  0.2400363E+04  0.7818609E-02  0.8439368E-01
       -2   -1    0    0    0  501  0.00000000000E+00  0.00000000000E+00  0.14392422467E+04  0.14392422467E+04  0.25500000920E-02 0. -1.
        2   -1    0    0  501    0  0.00000000000E+00  0.00000000000E+00 -0.10008290249E+04  0.10008290249E+04  0.25500000920E-02 0.  1.
    10030    2    1    2    0    0  0.00000000000E+00  0.00000000000E+00  0.43841322172E+03  0.24400712716E+04  0.24003628179E+04 0.  0.
        2    1    3    3  502    0 -0.97002058969E+03 -0.65039605782E+03  0.50033247536E+03  0.12705461670E+04  0.25500000920E-02 0. -1.
       -2    1    3    3    0  502  0.97002058969E+03  0.65039605782E+03 -0.61919253642E+02  0.11695251047E+04  0.25500000920E-02 0.  1.
</event>
<event>
 5   0  0.5363690E-07  0.2401228E+04  0.7818609E-02  0.8439044E-01
        1   -1    0    0  501    0  0.00000000000E+00  0.00000000000E+00  0.17682849899E+04  0.17682849899E+04  0.50400001928E-02 0.  1.
       -1   -1    0    0    0  501  0.00000000000E+00  0.00000000000E+00 -0.81518181768E+03  0.81518181770E+03  0.50400001928E-02 0. -1.
    10030    2    1    2    0    0  0.00000000000E+00  0.00000000000E+00  0.95310317221E+03  0.25834668076E+04  0.24012278295E+04 0.  0.
        4    1    3    3  502    0 -0.52277727661E+03 -0.22440568451E+02  0.16391508510E+04  0.17206442937E+04  0.12699999809E+01 0.  1.
       -4    1    3    3    0  502  0.52277727661E+03  0.22440568451E+02 -0.68604767880E+03  0.86282251393E+03  0.12699999809E+01 0. -1.
</event>
<event>
 5   0  0.1275948E-06  0.2400360E+04  0.7818609E-02  0.8439369E-01
       -2   -1    0    0    0  501  0.00000000000E+00  0.00000000000E+00  0.67833838658E+03  0.67833838659E+03  0.25500000920E-02 0.  1.
        2   -1    0    0  501    0  0.00000000000E+00  0.00000000000E+00 -0.21234718369E+04  0.21234718369E+04  0.25500000920E-02 0. -1.
    10030    2    1    2    0    0  0.00000000000E+00  0.00000000000E+00 -0.14451334504E+04  0.28018102235E+04  0.24003603561E+04 0.  0.
        1    1    3    3  502    0  0.15794662750E+03  0.60462437304E+03  0.47345557254E+03  0.78401399784E+03  0.50400001928E-02 0.  1.
       -1    1    3    3    0  502 -0.15794662750E+03 -0.60462437304E+03 -0.19185890229E+04  0.20177962257E+04  0.50400001928E-02 0. -1.
</event>
<event>
 5   0  0.5363690E-07  0.2392510E+04  0.7818609E-02  0.8442313E-01
       -1   -1    0    0    0  501  0.00000000000E+00  0.00000000000E+00  0.16000389664E+04  0.16000389664E+04  0.50400001928E-02 0. -1.
        1   -1    0    0  501    0  0.00000000000E+00  0.00000000000E+00 -0.89436923421E+03  0.89436923423E+03  0.50400001928E-02 0.  1.
    10030    2    1    2    0    0  0.00000000000E+00  0.00000000000E+00  0.70566973217E+03  0.24944082006E+04  0.23925096657E+04 0.  0.
        4    1    3    3  502    0 -0.11554730356E+03  0.24581769554E+03  0.15674625875E+04  0.15908230872E+04  0.12699999809E+01 0. -1.
       -4    1    3    3    0  502  0.11554730356E+03 -0.24581769554E+03 -0.86179285531E+03  0.90358511340E+03  0.12699999809E+01 0.  1.
</event>
<event>
 5   0  0.5510176E-07  0.2400494E+04  0.7818609E-02  0.8439319E-01
       -1   -1    0    0    0  501  0.00000000000E+00  0.00000000000E+00  0.14964641827E+04  0.14964641827E+04  0.50400001928E-02 0. -1.
        1   -1    0    0  501    0  0.00000000000E+00  0.00000000000E+00 -0.96266418756E+03  0.96266418758E+03  0.50400001928E-02 0.  1.
    10030    2    1    2    0    0  0.00000000000E+00  0.00000000000E+00  0.53379999509E+03  0.24591283702E+04  0.24004936798E+04 0.  0.
        3    1    3    3  502    0 -0.46312291958E+03 -0.10665852264E+04 -0.37865617150E+02  0.11634090850E+04  0.10100000352E+00 0.  1.
       -3    1    3    3    0  502  0.46312291958E+03  0.10665852264E+04  0.57166561224E+03  0.12957192853E+04  0.10100000352E+00 0. -1.
</event>
<event>
 5   0  0.5690124E-07  0.2396048E+04  0.7818609E-02  0.8440984E-01
        1   -1    0    0  501    0  0.00000000000E+00  0.00000000000E+00  0.19911647892E+04  0.19911647892E+04  0.50400001928E-02 0. -1.
       -1   -1    0    0    0  501  0.00000000000E+00  0.00000000000E+00 -0.72081530360E+03  0.72081530362E+03  0.50400001928E-02 0.  1.
    10030    2    1    2    0    0  0.00000000000E+00  0.00000000000E+00  0.12703494856E+04  0.27119800928E+04  0.23960484570E+04 0.  0.
        2    1    3    3  502    0  0.55505968255E+03  0.37453195356E+03 -0.48924051584E+03  0.82928988766E+03  0.25500000920E-02 0.  1.
       -2    1    3    3    0  502 -0.55505968255E+03 -0.37453195356E+03  0.17595900014E+04  0.18826902051E+04  0.25500000920E-02 0. -1.
</event>
<event>
 5   0  0.1275948E-06  0.2399921E+04  0.7818609E-02  0.8439533E-01
       -2   -1    0    0    0  501  0.00000000000E+00  0.00000000000E+00  0.79232971509E+03  0.79232971509E+03  0.25500000920E-02 0. -1.
        2   -1    0    0  501    0  0.00000000000E+00  0.00000000000E+00 -0.18173059631E+04  0.18173059631E+04  0.25500000920E-02 0.  1.
    10030    2    1    2    0    0  0.00000000000E+00  0.00000000000E+00 -0.10249762480E+04  0.26096356782E+04  0.23999212620E+04 0.  0.
        1    1    3    3  502    0  0.17506146141E+03 -0.26247550813E+03 -0.17713976677E+04  0.17992747441E+04  0.50400001928E-02 0.  1.
       -1    1    3    3    0  502 -0.17506146141E+03  0.26247550813E+03  0.74642141971E+03  0.81036093407E+03  0.50400001928E-02 0. -1.
</event>
<event>
 5   0  0.1307477E-06  0.2399862E+04  0.7818609E-02  0.8439555E-01
       -2   -1    0    0    0  501  0.00000000000E+00  0.00000000000E+00  0.62204669836E+03  0.62204669836E+03  0.25500000920E-02 0. -1.
        2   -1    0    0  501    0  0.00000000000E+00  0.00000000000E+00 -0.23146733980E+04  0.23146733980E+04  0.25500000920E-02 0.  1.
    10030    2    1    2    0    0  0.00000000000E+00  0.00000000000E+00 -0.16926266997E+04  0.29367200964E+04  0.23998624502E+04 0.  0.
        5    1    3    3  502    0 -0.10920488782E+04 -0.39278518993E+03 -0.47321039042E+03  0.12533160501E+04  0.46999998093E+01 0. -1.
       -5    1    3    3    0  502  0.10920488782E+04  0.39278518993E+03 -0.12194163092E+04  0.16834040463E+04  0.46999998093E+01 0.  1.
</event>
<event>
 5   0  0.5452384E-07  0.2400108E+04  0.7818609E-02  0.8439463E-01
       -1   -1    0    0    0  501  0.00000000000E+00  0.00000000000E+00  0.88339575261E+03  0.88339575262E+03  0.50400001928E-02 0. -1.
        1   -1    0    0  501    0  0.00000000000E+00  0.00000000000E+00 -0.16302207302E+04  0.16302207302E+04  0.50400001928E-02 0.  1.
    10030    2    1    2    0    0  0.00000000000E+00  0.00000000000E+00 -0.74682497763E+03  0.25136164829E+04  0.24001083883E+04 0.  0.
        5    1    3    3  502    0 -0.11801836822E+03 -0.10030531386E+04 -0.10521876097E+04  0.14584803016E+04  0.46999998093E+01 0.  1.
       -5    1    3    3    0  502  0.11801836822E+03  0.10030531386E+04  0.30536263202E+03  0.10551361813E+04  0.46999998093E+01 0. -1.
</event>
<event>
 5   0  0.1291468E-06  0.2400576E+04  0.7818609E-02  0.8439288E-01
       -2   -1    0    0    0  501  0.00000000000E+00  0.00000000000E+00  0.13495447777E+04  0.13495447777E+04  0.25500000920E-02 0.  1.
        2   -1    0    0  501    0  0.00000000000E+00  0.00000000000E+00 -0.10675389599E+04  0.10675389599E+04  0.25500000920E-02 0. -1.
    10030    2    1    2    0    0  0.00000000000E+00  0.00000000000E+00  0.28200581784E+03  0.24170837376E+04  0.24005762878E+04 0.  0.
        4    1    3    3  502    0 -0.54915095076E+03  0.89196705189E+03 -0.44913151782E+03  0.11396897479E+04  0.12699999809E+01 0. -1.
       -4    1    3    3    0  502  0.54915095076E+03 -0.89196705189E+03  0.73113733566E+03  0.12773939897E+04  0.12699999809E+01 0.  1.
</event>
<event>
 5   0  0.5527286E-07  0.2399224E+04  0.7818609E-02  0.8439794E-01
        1   -1    0    0  501    0  0.00000000000E+00  0.00000000000E+00  0.96786743356E+03  0.96786743357E+03  0.50400001928E-02 0.  1.
       -1   -1    0    0    0  501  0.00000000000E+00  0.00000000000E+00 -0.14868454917E+04  0.14868454917E+04  0.50400001928E-02 0. -1.
    10030    2    1    2    0    0  0.00000000000E+00  0.00000000000E+00 -0.51897805817E+03  0.24547129253E+04  0.23992243165E+04 0.  0.
        1    1    3    3  502    0  0.10007592604E+04  0.53080586196E+03 -0.66332697857E+03  0.13127363181E+04  0.50400001928E-02 0. -1.
       -1    1    3    3    0  502 -0.10007592604E+04 -0.53080586196E+03  0.14434892039E+03  0.11419766072E+04  0.50400001928E-02 0.  1.
</event>
<event>
 5   0  0.5452384E-07  0.2399621E+04  0.7818609E-02  0.8439645E-01
        1   -1    0    0  501    0  0.00000000000E+00  0.00000000000E+00  0.14985734609E+04  0.14985734609E+04  0.50400001928E-02 0. -1.
       -1   -1    0    0    0  501  0.00000000000E+00  0.00000000000E+00 -0.96061060362E+03  0.96061060364E+03  0.50400001928E-02 0.  1.
    10030    2    1    2    0    0  0.00000000000E+00  0.00000000000E+00  0.53796285724E+03  0.24591840645E+04  0.23996212675E+04 0.  0.
        5    1    3    3  502    0  0.21164641006E+03 -0.98575820361E+03  0.93551751177E+03  0.13754012301E+04  0.46999998093E+01 0. -1.
       -5    1    3    3    0  502 -0.21164641006E+03  0.98575820361E+03 -0.39755465453E+03  0.10837828344E+04  0.46999998093E+01 0.  1.
</event>
<event>
 5   0  0.5690124E-07  0.2401320E+04  0.7818609E-02  0.8439009E-01
        1   -1    0    0  501    0  0.00000000000E+00  0.00000000000E+00  0.17022982267E+04  0.17022982267E+04  0.50400001928E-02 0. -1.
       -1   -1    0    0    0  501  0.00000000000E+00  0.00000000000E+00 -0.84684630223E+03  0.84684630224E+03  0.50400001928E-02 0.  1.
    10030    2    1    2    0    0  0.00000000000E+00  0.00000000000E+00  0.85545192444E+03  0.25491445289E+04  0.24013204356E+04 0.  0.
        2    1    3    3  502    0  0.31182096038E+03  0.92464110776E+03 -0.31490412404E+03  0.10253575459E+04  0.25500000920E-02 0.  1.
       -2    1    3    3    0  502 -0.31182096038E+03 -0.92464110776E+03  0.11703560485E+04  0.15237869831E+04  0.25500000920E-02 0. -1.
</event>
<event>
 5   0  0.5690124E-07  0.2399255E+04  0.7818609E-02  0.8439783E-01
       -1   -1    0    0    0  501  0.00000000000E+00  0.00000000000E+00  0.12508548146E+04  0.12508548146E+04  0.50400001928E-02 0.  1.
        1   -1    0    0  501    0  0.00000000000E+00  0.00000000000E+00 -0.11504981027E+04  0.11504981027E+04  0.50400001928E-02 0. -1.
    10030    2    1    2    0    0  0.00000000000E+00  0.00000000000E+00  0.10035671182E+03  0.24013529173E+04  0.23992549602E+04 0.  0.
        2    1    3    3  502    0  0.10490953704E+04 -0.26247292792E+03  0.56987506853E+03  0.12223954875E+04  0.25500000920E-02 0.  1.
       -2    1    3    3    0  502 -0.10490953704E+04  0.26247292792E+03 -0.46951835670E+03  0.11789574298E+04  0.25500000920E-02 0. -1.
</event>
<event>
 5   0  0.5452384E-07  0.2401606E+04  0.7818609E-02  0.8438902E-01
       -1   -1    0    0    0  501  0.00000000000E+00  0.00000000000E+00  0.88524915000E+03  0.88524915002E+03  0.50400001928E-02 0.  1.
        1   -1    0    0  501    0  0.00000000000E+00  0.00000000000E+00 -0.16288390344E+04  0.16288390344E+04  0.50400001928E-02 0. -1.
    10030    2    1    2    0    0  0.00000000000E+00  0.00000000000E+00 -0.74358988442E+03  0.25140881844E+04  0.24016064380E+04 0.  0.
        5    1    3    3  502    0  0.71019863943E+03  0.93786119601E+03 -0.62377720744E+03  0.13315726886E+04  0.46999998093E+01 0.  1.
       -5    1    3    3    0  502 -0.71019863943E+03 -0.93786119601E+03 -0.11981267698E+03  0.11825154959E+04  0.46999998093E+01 0. -1.
</event>
<event>
 5   0  0.5452384E-07  0.2399698E+04  0.7818609E-02  0.8439616E-01
        1   -1    0    0  501    0  0.00000000000E+00  0.00000000000E+00  0.10873751241E+04  0.10873751241E+04  0.50400001928E-02 0.  1.
       -1   -1    0    0    0  501  0.00000000000E+00  0.00000000000E+00 -0.13239571667E+04  0.13239571667E+04  0.50400001928E-02 0. -1.
    10030    2    1    2    0    0  0.00000000000E+00  0.00000000000E+00 -0.23658204260E+03  0.24113322908E+04  0.23996983881E+04 0.  0.
        5    1    3    3  502    0  0.40257141897E+03  0.10309420517E+04 -0.58390636530E+03  0.12513488701E+04  0.46999998093E+01 0. -1.
       -5    1    3    3    0  502 -0.40257141897E+03 -0.10309420517E+04  0.34732432270E+03  0.11599834207E+04  0.46999998093E+01 0.  1.
</event>
<event>
 5   0  0.5690124E-07  0.2400337E+04  0.7818609E-02  0.8439377E-01
        1   -1    0    0  501    0  0.00000000000E+00  0.00000000000E+00  0.17817252594E+04  0.17817252594E+04  0.50400001928E-02 0. -1.
       -1   -1    0    0    0  501  0.00000000000E+00  0.00000000000E+00 -0.80843269511E+03  0.80843269512E+03  0.50400001928E-02 0.  1.
    10030    2    1    2    0    0  0.00000000000E+00  0.00000000000E+00  0.97329256430E+03  0.25901579545E+04  0.24003374375E+04 0.  0.
        2    1    3    3  502    0 -0.10454027081E+04 -0.56402150182E+03  0.67172633429E+03  0.13646257160E+04  0.25500000920E-02 0. -1.
       -2    1    3    3    0  502  0.10454027081E+04  0.56402150182E+03  0.30156623001E+03  0.12255322385E+04  0.25500000920E-02 0.  1.
</event>
<event>
 5   0  0.5690124E-07  0.2394076E+04  0.7818609E-02  0.8441725E-01
        1   -1    0    0  501    0  0.00000000000E+00  0.00000000000E+00  0.75819625619E+03  0.75819625620E+03  0.50400001928E-02 0.  1.
       -1   -1    0    0    0  501  0.00000000000E+00  0.00000000000E+00 -0.18898792914E+04  0.18898792914E+04  0.50400001928E-02 0. -1.
    10030    2    1    2    0    0  0.00000000000E+00  0.00000000000E+00 -0.11316830352E+04  0.26480755476E+04  0.23940755238E+04 0.  0.
        2    1    3    3  502    0  0.53833729695E+03 -0.80495313631E+03  0.21247771359E+03  0.99141483533E+03  0.25500000920E-02 0.  1.
       -2    1    3    3    0  502 -0.53833729695E+03  0.80495313631E+03 -0.13441607488E+04  0.16566607123E+04  0.25500000920E-02 0. -1.
</event>
<event>
 5   0  0.5690124E-07  0.2399996E+04  0.7818609E-02  0.8439505E-01
        1   -1    0    0  501    0  0.00000000000E+00  0.00000000000E+00  0.22764953386E+04  0.22764953386E+04  0.50400001928E-02 0.  1.
       -1   -1    0    0    0  501  0.00000000000E+00  0.00000000000E+00 -0.63254932353E+03  0.63254932355E+03  0.50400001928E-02 0. -1.
    10030    2    1    2    0    0  0.00000000000E+00  0.00000000000E+00  0.16439460150E+04  0.29090446621E+04  0.23999963220E+04 0.  0.
        2    1    3    3  502    0  0.25586315966E+03  0.41186039854E+02  0.22421704351E+04  0.22570978061E+04  0.25500000920E-02 0.  1.
       -2    1    3    3    0  502 -0.25586315966E+03 -0.41186039854E+02 -0.59822442004E+03  0.65194685603E+03  0.25500000920E-02 0. -1.
</event>
<event>
 5   0  0.1275948E-06  0.2401159E+04  0.7818609E-02  0.8439070E-01
       -2   -1    0    0    0  501  0.00000000000E+00  0.00000000000E+00  0.62805679408E+03  0.62805679408E+03  0.25500000920E-02 0.  1.
        2   -1    0    0  501    0  0.00000000000E+00  0.00000000000E+00 -0.22950019179E+04  0.22950019179E+04  0.25500000920E-02 0. -1.
    10030    2    1    2    0    0  0.00000000000E+00  0.00000000000E+00 -0.16669451239E+04  0.29230587120E+04  0.24011593425E+04 0.  0.
        1    1    3    3  502    0  0.11362876400E+04  0.15568030946E+03 -0.40134550566E+03  0.12150984217E+04  0.50400001928E-02 0. -1.
       -1    1    3    3    0  502 -0.11362876400E+04 -0.15568030946E+03 -0.12655996182E+04  0.17079602903E+04  0.50400001928E-02 0.  1.
</event>
<event>
 5   0  0.5452384E-07  0.2397509E+04  0.7818609E-02  0.8440437E-01
       -1   -1    0    0    0  501  0.00000000000E+00  0.00000000000E+00  0.75037700357E+03  0.75037700359E+03  0.50400001928E-02 0.  1.
        1   -1    0    0  501    0  0.00000000000E+00  0.00000000000E+00 -0.19150535303E+04  0.19150535303E+04  0.50400001928E-02 0. -1.
    10030    2    1    2    0    0  0.00000000000E+00  0.00000000000E+00 -0.11646765267E+04  0.26654305339E+04  0.23975088152E+04 0.  0.
        5    1    3    3  502    0 -0.11054425833E+04 -0.24701364017E+03 -0.14609712697E+03  0.11420969765E+04  0.46999998093E+01 0.  1.
       -5    1    3    3    0  502  0.11054425833E+04  0.24701364017E+03 -0.10185793998E+04  0.15233335574E+04  0.46999998093E+01 0. -1.
</event>
<event>
 5   0  0.5690124E-07  0.2400047E+04  0.7818609E-02  0.8439486E-01
       -1   -1    0    0    0  501  0.00000000000E+00  0.00000000000E+00  0.11292218251E+04  0.11292218251E+04  0.50400001928E-02 0.  1.
        1   -1    0    0  501    0  0.00000000000E+00  0.00000000000E+00 -0.12752641226E+04  0.12752641226E+04  0.50400001928E-02 0. -1.
    10030    2    1    2    0    0  0.00000000000E+00  0.00000000000E+00 -0.14604229742E+03  0.24044859477E+04  0.24000467329E+04 0.  0.
        2    1    3    3  502    0  0.65368622796E+03 -0.75518733714E+03  0.59337266180E+03  0.11617679263E+04  0.25500000920E-02 0.  1.
       -2    1    3    3    0  502 -0.65368622796E+03  0.75518733714E+03 -0.73941495922E+03  0.12427180214E+04  0.25500000920E-02 0. -1.
</event>
<event>
 5   0  0.5527286E-07  0.2401061E+04  0.7818609E-02  0.8439107E-01
       -1   -1    0    0    0  501  0.00000000000E+00  0.00000000000E+00  0.69608441894E+03  0.69608441896E+03  0.50400001928E-02 0.  1.
        1   -1    0    0  501    0  0.00000000000E+00  0.00000000000E+00 -0.20705435892E+04  0.20705435892E+04  0.50400001928E-02 0. -1.
    10030    2    1    2    0    0  0.00000000000E+00  0.00000000000E+00 -0.13744591702E+04  0.27666280081E+04  0.24010607083E+04 0.  0.
        1    1    3    3  502    0  0.10620643220E+04 -0.55311145459E+03 -0.78608334728E+03  0.14324244951E+04  0.50400001928E-02 0. -1.
       -1    1    3    3    0  502 -0.10620643220E+04  0.55311145459E+03 -0.58837582293E+03  0.13342035130E+04  0.50400001928E-02 0.  1.
</event>
<event>
 5   0  0.1307477E-06  0.2400416E+04  0.7818609E-02  0.8439348E-01
       -2   -1    0    0    0  501  0.00000000000E+00  0.00000000000E+00  0.63232811172E+03  0.63232811172E+03  0.25500000920E-02 0.  1.
        2   -1    0    0  501    0  0.00000000000E+00  0.00000000000E+00 -0.22780888874E+04  0.22780888874E+04  0.25500000920E-02 0. -1.
    10030    2    1    2    0    0  0.00000000000E+00  0.00000000000E+00 -0.16457607756E+04  0.29104169991E+04  0.24004163343E+04 0.  0.
        5    1    3    3  502    0 -0.91334673340E+03 -0.20906673382E+03  0.86520847524E+02  0.94096710976E+03  0.46999998093E+01 0.  1.
       -5    1    3    3    0  502  0.91334673340E+03  0.20906673382E+03 -0.17322816232E+04  0.19694498893E+04  0.46999998093E+01 0. -1.
</event>
<event>
 5   0  0.1307477E-06  0.2400157E+04  0.7818609E-02  0.8439445E-01
       -2   -1    0    0    0  501  0.00000000000E+00  0.00000000000E+00  0.90130629185E+03  0.90130629185E+03  0.25500000920E-02 0.  1.
        2   -1    0    0  501    0  0.00000000000E+00  0.00000000000E+00 -0.15978898981E+04  0.15978898981E+04  0.25500000920E-02 0. -1.
    10030    2    1    2    0    0  0.00000000000E+00  0.00000000000E+00 -0.69658360625E+03  0.24991961900E+04  0.24001568439E+04 0.  0.
        5    1    3    3  502    0  0.86965258747E+03  0.81770547750E+03 -0.21979691793E+03  0.12137836076E+04  0.46999998093E+01 0.  1.
       -5    1    3    3    0  502 -0.86965258747E+03 -0.81770547750E+03 -0.47678668832E+03  0.12854125824E+04  0.46999998093E+01 0. -1.
</event>
<event>
 5   0  0.1291468E-06  0.2400196E+04  0.7818609E-02  0.8439430E-01
       -2   -1    0    0    0  501  0.00000000000E+00  0.00000000000E+00  0.76027946596E+03  0.76027946597E+03  0.25500000920E-02 0. -1.
        2   -1    0    0  501    0  0.00000000000E+00  0.00000000000E+00 -0.18943492076E+04  0.18943492076E+04  0.25500000920E-02 0.  1.
    10030    2    1    2    0    0  0.00000000000E+00  0.00000000000E+00 -0.11340697416E+04  0.26546286736E+04  0.24001956619E+04 0.  0.
        4    1    3    3  502    0  0.94487256758E+03 -0.73567661639E+03 -0.65432480046E+03  0.13646050015E+04  0.12699999809E+01 0.  1.
       -4    1    3    3    0  502 -0.94487256758E+03  0.73567661639E+03 -0.47974494117E+03  0.12900236720E+04  0.12699999809E+01 0. -1.
</event>
<event>
 5   0  0.5452384E-07  0.2400123E+04  0.7818609E-02  0.8439458E-01
        1   -1    0    0  501    0  0.00000000000E+00  0.00000000000E+00  0.19773746683E+04  0.19773746683E+04  0.50400001928E-02 0.  1.
       -1   -1    0    0    0  501  0.00000000000E+00  0.00000000000E+00 -0.72831286079E+03  0.72831286081E+03  0.50400001928E-02 0. -1.
    10030    2    1    2    0    0  0.00000000000E+00  0.00000000000E+00  0.12490618075E+04  0.27056875291E+04  0.24001228315E+04 0.  0.
        5    1    3    3  502    0  0.42676545710E+03 -0.39217031496E+03  0.18091203156E+04  0.18997012180E+04  0.46999998093E+01 0.  1.
       -5    1    3    3    0  502 -0.42676545710E+03  0.39217031496E+03 -0.56005850806E+03  0.80598631115E+03  0.46999998093E+01 0. -1.
</event>
<event>
 5   0  0.1336057E-06  0.2400739E+04  0.7818609E-02  0.8439227E-01
        2   -1    0    0  501    0  0.00000000000E+00  0.00000000000E+00  0.22379472713E+04  0.22379472713E+04  0.25500000920E-02 0.  1.
       -2   -1    0    0    0  501  0.00000000000E+00  0.00000000000E+00 -0.64384284679E+03  0.64384284680E+03  0.25500000920E-02 0. -1.
    10030    2    1    2    0    0  0.00000000000E+00  0.00000000000E+00  0.15941044245E+04  0.28817901181E+04  0.24007385048E+04 0.  0.
        2    1    3    3  502    0 -0.70661452012E+02 -0.54888164778E+03  0.20756770466E+04  0.21481851191E+04  0.25500000920E-02 0.  1.
       -2    1    3    3    0  502  0.70661452012E+02  0.54888164778E+03 -0.48157262216E+03  0.73360499895E+03  0.25500000920E-02 0. -1.
</event>
<event>
 5   0  0.5690124E-07  0.2398283E+04  0.7818609E-02  0.8440147E-01
       -1   -1    0    0    0  501  0.00000000000E+00  0.00000000000E+00  0.13331218003E+04  0.13331218003E+04  0.50400001928E-02 0. -1.
        1   -1    0    0  501    0  0.00000000000E+00  0.00000000000E+00 -0.10786259752E+04  0.10786259752E+04  0.50400001928E-02 0.  1.
    10030    2    1    2    0    0  0.00000000000E+00  0.00000000000E+00  0.25449582511E+03  0.24117477755E+04  0.23982825538E+04 0.  0.
        2    1    3    3  502    0 -0.74809736525E+03 -0.78956175597E+02  0.10663303958E+04  0.13049690642E+04  0.25500000920E-02 0. -1.
       -2    1    3    3    0  502  0.74809736525E+03  0.78956175597E+02 -0.81183457071E+03  0.11067787113E+04  0.25500000920E-02 0.  1.
</event>
<event>
 5   0  0.1336057E-06  0.2405015E+04  0.7818609E-02  0.8437629E-01
        2   -1    0    0  501    0  0.00000000000E+00  0.00000000000E+00  0.14919479314E+04  0.14919479314E+04  0.25500000920E-02 0. -1.
       -2   -1    0    0    0  501  0.00000000000E+00  0.00000000000E+00 -0.96921875115E+03  0.96921875116E+03  0.25500000920E-02 0.  1.
    10030    2    1    2    0    0  0.00000000000E+00  0.00000000000E+00  0.52272918028E+03  0.24611666826E+04  0.24050146868E+04 0.  0.
        2    1    3    3  502    0  0.10424842730E+04 -0.31880390089E+02  0.87386551889E+03  0.13606729084E+04  0.25500000920E-02 0. -1.
       -2    1    3    3    0  502 -0.10424842730E+04  0.31880390089E+02 -0.35113633861E+03  0.11004937742E+04  0.25500000920E-02 0.  1.
</event>
<event>
 5   0  0.5452384E-07  0.2399883E+04  0.7818609E-02  0.8439547E-01
       -1   -1    0    0    0  501  0.00000000000E+00  0.00000000000E+00  0.81516156789E+03  0.81516156790E+03  0.50400001928E-02 0. -1.
        1   -1    0    0  501    0  0.00000000000E+00  0.00000000000E+00 -0.17663489851E+04  0.17663489852E+04  0.50400001928E-02 0.  1.
    10030    2    1    2    0    0  0.00000000000E+00  0.00000000000E+00 -0.95118741726E+03  0.25815105531E+04  0.23998831707E+04 0.  0.
        5    1    3    3  502    0 -0.31429280716E+03  0.11517013037E+04 -0.60575500891E+03  0.13387147129E+04  0.46999998093E+01 0. -1.
       -5    1    3    3    0  502  0.31429280716E+03 -0.11517013037E+04 -0.34543240835E+03  0.12427958402E+04  0.46999998093E+01 0.  1.
</event>
<event>
 5   0  0.1291468E-06  0.2400902E+04  0.7818609E-02  0.8439166E-01
        2   -1    0    0  501    0  0.00000000000E+00  0.00000000000E+00  0.21923191443E+04  0.21923191443E+04  0.25500000920E-02 0. -1.
       -2   -1    0    0    0  501  0.00000000000E+00  0.00000000000E+00 -0.65733256100E+03  0.65733256100E+03  0.25500000920E-02 0.  1.
    10030    2    1    2    0    0  0.00000000000E+00  0.00000000000E+00  0.15349865833E+04  0.28496517053E+04  0.24009021285E+04 0.  0.
        4    1    3    3  502    0 -0.84818508488E+02 -0.11783637069E+04  0.10202405935E+04  0.15609701108E+04  0.12699999809E+01 0. -1.
       -4    1    3    3    0  502  0.84818508488E+02  0.11783637069E+04  0.51474598980E+03  0.12886815945E+04  0.12699999809E+01 0.  1.
</event>
<event>
 5   0  0.5527286E-07  0.2399401E+04  0.7818609E-02  0.8439728E-01
       -1   -1    0    0    0  501  0.00000000000E+00  0.00000000000E+00  0.11785373605E+04  0.11785373605E+04  0.50400001928E-02 0. -1.
        1   -1    0    0  501    0  0.00000000000E+00  0.00000000000E+00 -0.12212441569E+04  0.12212441569E+04  0.50400001928E-02 0.  1.
    10030    2    1    2    0    0  0.00000000000E+00  0.00000000000E+00 -0.42706796467E+02  0.23997815174E+04  0.23994014797E+04 0.  0.
        1    1    3    3  502    0  0.17366855050E+03 -0.11234045233E+04 -0.40492864909E+03  0.12067169094E+04  0.50400001928E-02 0.  1.
       -1    1    3    3    0  502 -0.17366855050E+03  0.11234045233E+04  0.36222185262E+03  0.11930646081E+04  0.50400001928E-02 0. -1.
</event>
<event>
 5   0  0.5452384E-07  0.2401068E+04  0.7818609E-02  0.8439104E-01
        1   -1    0    0  501    0  0.00000000000E+00  0.00000000000E+00  0.92159136298E+03  0.92159136300E+03  0.50400001928E-02 0.  1.
       -1   -1    0    0    0  501  0.00000000000E+00  0.00000000000E+00 -0.15639053394E+04  0.15639053394E+04  0.50400001928E-02 0. -1.
    10030    2    1    2    0    0  0.00000000000E+00  0.00000000000E+00 -0.64231397637E+03  0.24854967024E+04  0.24010678069E+04 0.  0.
        5    1    3    3  502    0 -0.11512932102E+04 -0.27792260978E+03 -0.52438280503E+03  0.12952669413E+04  0.46999998093E+01 0. -1.
       -5    1    3    3    0  502  0.11512932102E+04  0.27792260978E+03 -0.11793117134E+03  0.11902297611E+04  0.46999998093E+01 0.  1.
</event>
<event>
 5   0  0.5527286E-07  0.2402805E+04  0.7818609E-02  0.8438454E-01
       -1   -1    0    0    0  501  0.00000000000E+00  0.00000000000E+00  0.10977452708E+04  0.10977452708E+04  0.50400001928E-02 0. -1.
        1   -1    0    0  501    0  0.00000000000E+00  0.00000000000E+00 -0.13148477063E+04  0.13148477063E+04  0.50400001928E-02 0.  1.
    10030    2    1    2    0    0  0.00000000000E+00  0.00000000000E+00 -0.21710243550E+03  0.24125929771E+04  0.24028049038E+04 0.  0.
        1    1    3    3  502    0  0.90966270933E+03  0.52530006277E+03 -0.69397129328E+03  0.12589767895E+04  0.50400001928E-02 0.  1.
       -1    1    3    3    0  502 -0.90966270933E+03 -0.52530006277E+03  0.47686885778E+03  0.11536161876E+04  0.50400001928E-02 0. -1.
</event>
<event>
 5   0  0.1336057E-06  0.2399626E+04  0.7818609E-02  0.8439643E-01
        2   -1    0    0  501    0  0.00000000000E+00  0.00000000000E+00  0.23197417033E+04  0.23197417033E+04  0.25500000920E-02 0.  1.
       -2   -1    0    0    0  501  0.00000000000E+00  0.00000000000E+00 -0.62056552172E+03  0.62056552173E+03  0.25500000920E-02 0. -1.
    10030    2    1    2    0    0  0.00000000000E+00  0.00000000000E+00  0.16991761816E+04  0.29403072251E+04  0.23996264046E+04 0.  0.
        2    1    3    3  502    0  0.52925910061E+03  0.94708763478E+03  0.14773311402E+04  0.18329204787E+04  0.25500000920E-02 0.  1.
       -2    1    3    3    0  502 -0.52925910061E+03 -0.94708763478E+03  0.22184504140E+03  0.11073867463E+04  0.25500000920E-02 0. -1.
</event>
<event>
 5   0  0.1308662E-06  0.2399775E+04  0.7818609E-02  0.8439588E-01
        2   -1    0    0  501    0  0.00000000000E+00  0.00000000000E+00  0.12732253712E+04  0.12732253712E+04  0.25500000920E-02 0.  1.
       -2   -1    0    0    0  501  0.00000000000E+00  0.00000000000E+00 -0.11307737315E+04  0.11307737315E+04  0.25500000920E-02 0. -1.
    10030    2    1    2    0    0  0.00000000000E+00  0.00000000000E+00  0.14245163970E+03  0.24039991027E+04  0.23997748262E+04 0.  0.
        3    1    3    3  502    0 -0.10756996471E+04  0.25249468625E+03 -0.39740797867E+03  0.11742301346E+04  0.10100000352E+00 0.  1.
       -3    1    3    3    0  502  0.10756996471E+04 -0.25249468625E+03  0.53985961837E+03  0.12297689681E+04  0.10100000352E+00 0. -1.
</event>
<event>
 5   0  0.5452384E-07  0.2399688E+04  0.7818609E-02  0.8439620E-01
        1   -1    0    0  501    0  0.00000000000E+00  0.00000000000E+00  0.78390359784E+03  0.78390359786E+03  0.50400001928E-02 0. -1.
       -1   -1    0    0    0  501  0.00000000000E+00  0.00000000000E+00 -0.18364834095E+04  0.18364834095E+04  0.50400001928E-02 0.  1.
    10030    2    1    2    0    0  0.00000000000E+00  0.00000000000E+00 -0.10525798117E+04  0.26203870074E+04  0.23996882732E+04 0.  0.
        5    1    3    3  502    0 -0.11315644360E+04  0.30774895518E+03 -0.80352201546E+03  0.14215545053E+04  0.46999998093E+01 0.  1.
       -5    1    3    3    0  502  0.11315644360E+04 -0.30774895518E+03 -0.24905779622E+03  0.11988325021E+04  0.46999998093E+01 0. -1.
</event>
<event>
 5   0  0.1307477E-06  0.2399914E+04  0.7818609E-02  0.8439536E-01
       -2   -1    0    0    0  501  0.00000000000E+00  0.00000000000E+00  0.10065387476E+04  0.10065387476E+04  0.25500000920E-02 0. -1.
        2   -1    0    0  501    0  0.00000000000E+00  0.00000000000E+00 -0.14305432161E+04  0.14305432161E+04  0.25500000920E-02 0.  1.
    10030    2    1    2    0    0  0.00000000000E+00  0.00000000000E+00 -0.42400446848E+03  0.24370819637E+04  0.23999143127E+04 0.  0.
        5    1    3    3  502    0 -0.60605931366E+03  0.51278665375E+03  0.70172005824E+03  0.10595712218E+04  0.46999998093E+01 0. -1.
       -5    1    3    3    0  502  0.60605931366E+03 -0.51278665375E+03 -0.11257245267E+04  0.13775107419E+04  0.46999998093E+01 0.  1.
</event>
<event>
 5   0  0.1307477E-06  0.2404168E+04  0.7818609E-02  0.8437945E-01
       -2   -1    0    0    0  501  0.00000000000E+00  0.00000000000E+00  0.92541831389E+03  0.92541831389E+03  0.25500000920E-02 0.  1.
        2   -1    0    0  501    0  0.00000000000E+00  0.00000000000E+00 -0.15614630266E+04  0.15614630266E+04  0.25500000920E-02 0. -1.
    10030    2    1    2    0    0  0.00000000000E+00  0.00000000000E+00 -0.63604471267E+03  0.24868813404E+04  0.24041684477E+04 0.  0.
        5    1    3    3  502    0 -0.52214803572E+03 -0.91580992526E+03  0.27946390797E+03  0.10906275974E+04  0.46999998093E+01 0.  1.
       -5    1    3    3    0  502  0.52214803572E+03  0.91580992526E+03 -0.91550862064E+03  0.13962537430E+04  0.46999998093E+01 0. -1.
</event>
<event>
 5   0  0.1307477E-06  0.2400435E+04  0.7818609E-02  0.8439341E-01
        2   -1    0    0  501    0  0.00000000000E+00  0.00000000000E+00  0.13036972862E+04  0.13036972862E+04  0.25500000920E-02 0. -1.
       -2   -1    0    0    0  501  0.00000000000E+00  0.00000000000E+00 -0.11049509067E+04  0.11049509067E+04  0.25500000920E-02 0.  1.
    10030    2    1    2    0    0  0.00000000000E+00  0.00000000000E+00  0.19874637952E+03  0.24086481930E+04  0.24004345428E+04 0.  0.
        5    1    3    3  502    0  0.34461195094E+02  0.60446562930E+02 -0.11029161841E+04  0.11051187991E+04  0.46999998093E+01 0.  1.
       -5    1    3    3    0  502 -0.34461195094E+02 -0.60446562930E+02  0.13016625637E+04  0.13035293938E+04  0.46999998093E+01 0. -1.
</event>
<event>
 5   0  0.5527286E-07  0.2400683E+04  0.7818609E-02  0.8439248E-01
       -1   -1    0    0    0  501  0.00000000000E+00  0.00000000000E+00  0.59533297740E+03  0.59533297742E+03  0.50400001928E-02 0.  1.
        1   -1    0    0  501    0  0.00000000000E+00  0.00000000000E+00 -0.24201905323E+04  0.24201905323E+04  0.50400001928E-02 0. -1.
    10030    2    1    2    0    0  0.00000000000E+00  0.00000000000E+00 -0.18248575549E+04  0.30155235098E+04  0.24006825992E+04 0.  0.
        1    1    3    3  502    0  0.48953569022E+03 -0.50704318451E+03 -0.21329143807E+04  0.22463440828E+04  0.50400001928E-02 0. -1.
       -1    1    3    3    0  502 -0.48953569022E+03  0.50704318451E+03  0.30805682574E+03  0.76917942697E+03  0.50400001928E-02 0.  1.
</event>
<event>
 5   0  0.1291468E-06  0.2399737E+04  0.7818609E-02  0.8439602E-01
        2   -1    0    0  501    0  0.00000000000E+00  0.00000000000E+00  0.13658006464E+04  0.13658006464E+04  0.25500000920E-02 0. -1.
       -2   -1    0    0    0  501  0.00000000000E+00  0.00000000000E+00 -0.10540954484E+04  0.10540954484E+04  0.25500000920E-02 0.  1.
    10030    2    1    2    0    0  0.00000000000E+00  0.00000000000E+00  0.31170519799E+03  0.24198960948E+04  0.23997368562E+04 0.  0.
        4    1    3    3  502    0  0.42681390606E+03  0.84173562630E+03 -0.59131281501E+03  0.11137061700E+04  0.12699999809E+01 0.  1.
       -4    1    3    3    0  502 -0.42681390606E+03 -0.84173562630E+03  0.90301801300E+03  0.13061899248E+04  0.12699999809E+01 0. -1.
</event>
<event>
 5   0  0.5527286E-07  0.2401202E+04  0.7818609E-02  0.8439054E-01
        1   -1    0    0  501    0  0.00000000000E+00  0.00000000000E+00  0.58933150447E+03  0.58933150449E+03  0.50400001928E-02 0. -1.
       -1   -1    0    0    0  501  0.00000000000E+00  0.00000000000E+00 -0.24458939183E+04  0.24458939183E+04  0.50400001928E-02 0.  1.
    10030    2    1    2    0    0  0.00000000000E+00  0.00000000000E+00 -0.18565624139E+04  0.30352254228E+04  0.24012016514E+04 0.  0.
        1    1    3    3  502    0  0.32364853258E+03 -0.54141332449E+03  0.36300404654E+03  0.72776967401E+03  0.50400001928E-02 0. -1.
       -1    1    3    3    0  502 -0.32364853258E+03  0.54141332449E+03 -0.22195664604E+04  0.23074557488E+04  0.50400001928E-02 0.  1.
</event>
<event>
 5   0  0.5510176E-07  0.2399905E+04  0.7818609E-02  0.8439539E-01
        1   -1    0    0  501    0  0.00000000000E+00  0.00000000000E+00  0.15120511283E+04  0.15120511283E+04  0.50400001928E-02 0. -1.
       -1   -1    0    0    0  501  0.00000000000E+00  0.00000000000E+00 -0.95227346803E+03  0.95227346804E+03  0.50400001928E-02 0.  1.
    10030    2    1    2    0    0  0.00000000000E+00  0.00000000000E+00  0.55977766023E+03  0.24643245963E+04  0.23999051413E+04 0.  0.
        3    1    3    3  502    0  0.98952482891E+03 -0.56135914837E+03 -0.11193290331E+03  0.11431589852E+04  0.10100000352E+00 0.  1.
       -3    1    3    3    0  502 -0.98952482891E+03  0.56135914837E+03  0.67171056354E+03  0.13211656111E+04  0.10100000352E+00 0. -1.
</event>
<event>
 5   0  0.5690124E-07  0.2399230E+04  0.7818609E-02  0.8439792E-01
       -1   -1    0    0    0  501  0.00000000000E+00  0.00000000000E+00  0.10003929412E+04  0.10003929412E+04  0.50400001928E-02 0. -1.
        1   -1    0    0  501    0  0.00000000000E+00  0.00000000000E+00 -0.14385103445E+04  0.14385103445E+04  0.50400001928E-02 0.  1.
    10030    2    1    2    0    0  0.00000000000E+00  0.00000000000E+00 -0.43811740331E+03  0.24389032857E+04  0.23992295384E+04 0.  0.
        2    1    3    3  502    0 -0.89594074881E+03  0.75161432457E+03  0.52646902951E+02  0.11706432482E+04  0.25500000920E-02 0. -1.
       -2    1    3    3    0  502  0.89594074881E+03 -0.75161432457E+03 -0.49076430626E+03  0.12682600374E+04  0.25500000920E-02 0.  1.
</event>
<event>
 5   0  0.1291468E-06  0.2414517E+04  0.7818609E-02  0.8434088E-01
        2   -1    0    0  501    0  0.00000000000E+00  0.00000000000E+00  0.16666911413E+04  0.16666911413E+04  0.25500000920E-02 0.  1.
       -2   -1    0    0    0  501  0.00000000000E+00  0.00000000000E+00 -0.87447116283E+03  0.87447116283E+03  0.25500000920E-02 0. -1.
    10030    2    1    2    0    0  0.00000000000E+00  0.00000000000E+00  0.79221997843E+03  0.25411623041E+04  0.24145172109E+04 0.  0.
        4    1    3    3  502    0 -0.36287792845E+03 -0.41753048521E+03  0.15254545308E+04  0.16226599260E+04  0.12699999809E+01 0.  1.
       -4    1    3    3    0  502  0.36287792845E+03  0.41753048521E+03 -0.73323455232E+03  0.91850237814E+03  0.12699999809E+01 0. -1.
</event>
<event>
 5   0  0.5363690E-07  0.2400737E+04  0.7818609E-02  0.8439228E-01
        1   -1    0    0  501    0  0.00000000000E+00  0.00000000000E+00  0.18297277954E+04  0.18297277954E+04  0.50400001928E-02 0. -1.
       -1   -1    0    0    0  501  0.00000000000E+00  0.00000000000E+00 -0.78748597307E+03  0.78748597308E+03  0.50400001928E-02 0.  1.
    10030    2    1    2    0    0  0.00000000000E+00  0.00000000000E+00  0.10422418223E+04  0.26172137685E+04  0.24007373646E+04 0.  0.
        4    1    3    3  502    0  0.50136353277E+03 -0.97972271824E+03 -0.13216073717E+01  0.11005568391E+04  0.12699999809E+01 0.  1.
       -4    1    3    3    0  502 -0.50136353277E+03  0.97972271824E+03  0.10435634297E+04  0.15166569293E+04  0.12699999809E+01 0. -1.
</event>
<event>
 5   0  0.5510176E-07  0.2399656E+04  0.7818609E-02  0.8439632E-01
       -1   -1    0    0    0  501  0.00000000000E+00  0.00000000000E+00  0.95848666952E+03  0.95848666953E+03  0.50400001928E-02 0.  1.
        1   -1    0    0  501    0  0.00000000000E+00  0.00000000000E+00 -0.15019372417E+04  0.15019372417E+04  0.50400001928E-02 0. -1.
    10030    2    1    2    0    0  0.00000000000E+00  0.00000000000E+00 -0.54345057216E+03  0.24604239112E+04  0.23996556625E+04 0.  0.
        3    1    3    3  502    0 -0.56823733691E+03 -0.97986595679E+03  0.13396598373E+03  0.11406041642E+04  0.10100000352E+00 0.  1.
       -3    1    3    3    0  502  0.56823733691E+03  0.97986595679E+03 -0.67741655589E+03  0.13198197471E+04  0.10100000352E+00 0. -1.
</event>
<event>
 5   0  0.1275948E-06  0.2400486E+04  0.7818609E-02  0.8439322E-01
        2   -1    0    0  501    0  0.00000000000E+00  0.00000000000E+00  0.19808851219E+04  0.19808851219E+04  0.25500000920E-02 0.  1.
       -2   -1    0    0    0  501  0.00000000000E+00  0.00000000000E+00 -0.72724191535E+03  0.72724191536E+03  0.25500000920E-02 0. -1.
    10030    2    1    2    0    0  0.00000000000E+00  0.00000000000E+00  0.12536432065E+04  0.27081270372E+04  0.24004855260E+04 0.  0.
        1    1    3    3  502    0  0.11092987573E+04 -0.31436225867E+03  0.10030505996E+04  0.15282270342E+04  0.50400001928E-02 0. -1.
       -1    1    3    3    0  502 -0.11092987573E+04  0.31436225867E+03  0.25059260687E+03  0.11799000030E+04  0.50400001928E-02 0.  1.
</event>
<event>
 5   0  0.1307477E-06  0.2401667E+04  0.7818609E-02  0.8438880E-01
        2   -1    0    0  501    0  0.00000000000E+00  0.00000000000E+00  0.25074802863E+04  0.25074802863E+04  0.25500000920E-02 0.  1.
       -2   -1    0    0    0  501  0.00000000000E+00  0.00000000000E+00 -0.57507965172E+03  0.57507965172E+03  0.25500000920E-02 0. -1.
    10030    2    1    2    0    0  0.00000000000E+00  0.00000000000E+00  0.19324006346E+04  0.30825599380E+04  0.24016668293E+04 0.  0.
        5    1    3    3  502    0 -0.49033205987E+03  0.49518635189E+03  0.22213796552E+04  0.23281290158E+04  0.46999998093E+01 0.  1.
       -5    1    3    3    0  502  0.49033205987E+03 -0.49518635189E+03 -0.28897902056E+03  0.75443092219E+03  0.46999998093E+01 0. -1.
</event>
<event>
 5   0  0.5363690E-07  0.2398086E+04  0.7818609E-02  0.8440221E-01
        1   -1    0    0  501    0  0.00000000000E+00  0.00000000000E+00  0.16395052185E+04  0.16395052185E+04  0.50400001928E-02 0.  1.
       -1   -1    0    0    0  501  0.00000000000E+00  0.00000000000E+00 -0.87691311555E+03  0.87691311556E+03  0.50400001928E-02 0. -1.
    10030    2    1    2    0    0  0.00000000000E+00  0.00000000000E+00  0.76259210291E+03  0.25164183340E+04  0.23980855941E+04 0.  0.
        4    1    3    3  502    0 -0.32412996301E+03 -0.53667376579E+03 -0.69120558437E+03  0.93319115757E+03  0.12699999809E+01 0. -1.
       -4    1    3    3    0  502  0.32412996301E+03  0.53667376579E+03  0.14537976873E+04  0.15832271765E+04  0.12699999809E+01 0.  1.
</event>
<event>
 5   0  0.1291468E-06  0.2400126E+04  0.7818609E-02  0.8439456E-01
       -2   -1    0    0    0  501  0.00000000000E+00  0.00000000000E+00  0.70583556492E+03  0.70583556492E+03  0.25500000920E-02 0.  1.
        2   -1    0    0  501    0  0.00000000000E+00  0.00000000000E+00 -0.20403496119E+04  0.20403496119E+04  0.25500000920E-02 0. -1.
    10030    2    1    2    0    0  0.00000000000E+00  0.00000000000E+00 -0.13345140470E+04  0.27461851768E+04  0.24001260975E+04 0.  0.
        4    1    3    3  502    0 -0.25809510497E+03  0.96160036862E+03  0.99313062894E+02  0.10005763587E+04  0.12699999809E+01 0.  1.
       -4    1    3    3    0  502  0.25809510497E+03 -0.96160036862E+03 -0.14338271099E+04  0.17456088182E+04  0.12699999809E+01 0. -1.
</event>
<event>
 5   0  0.1336057E-06  0.2402155E+04  0.7818609E-02  0.8438697E-01
       -2   -1    0    0    0  501  0.00000000000E+00  0.00000000000E+00  0.95194019957E+03  0.95194019958E+03  0.25500000920E-02 0. -1.
        2   -1    0    0  501    0  0.00000000000E+00  0.00000000000E+00 -0.15154180644E+04  0.15154180644E+04  0.25500000920E-02 0.  1.
    10030    2    1    2    0    0  0.00000000000E+00  0.00000000000E+00 -0.56347786486E+03  0.24673582640E+04  0.24021551779E+04 0.  0.
        2    1    3    3  502    0 -0.50478740981E+03 -0.52044605615E+03  0.70180827116E+03  0.10090635639E+04  0.25500000920E-02 0. -1.
       -2    1    3    3    0  502  0.50478740981E+03  0.52044605615E+03 -0.12652861360E+04  0.14582947001E+04  0.25500000920E-02 0.  1.
</event>
<event>
 5   0  0.5527286E-07  0.2398472E+04  0.7818609E-02  0.8440076E-01
        1   -1    0    0  501    0  0.00000000000E+00  0.00000000000E+00  0.13412381543E+04  0.13412381543E+04  0.50400001928E-02 0. -1.
       -1   -1    0    0    0  501  0.00000000000E+00  0.00000000000E+00 -0.10722680838E+04  0.10722680838E+04  0.50400001928E-02 0.  1.
    10030    2    1    2    0    0  0.00000000000E+00  0.00000000000E+00  0.26897007044E+03  0.24135062381E+04  0.23984719016E+04 0.  0.
        1    1    3    3  502    0 -0.76098980976E+03  0.62136160018E+01  0.10671295225E+04  0.13106904736E+04  0.50400001928E-02 0. -1.
       -1    1    3    3    0  502  0.76098980976E+03 -0.62136160018E+01 -0.79815945210E+03  0.11028157646E+04  0.50400001928E-02 0.  1.
</event>
<event>
 5   0  0.1336057E-06  0.2385733E+04  0.7818609E-02  0.8444864E-01
        2   -1    0    0  501    0  0.00000000000E+00  0.00000000000E+00  0.43334802375E+03  0.43334802376E+03  0.25500000920E-02 0. -1.
       -2   -1    0    0    0  501  0.00000000000E+00  0.00000000000E+00 -0.32835739310E+04  0.32835739310E+04  0.25500000920E-02 0.  1.
    10030    2    1    2    0    0  0.00000000000E+00  0.00000000000E+00 -0.28502259072E+04  0.37169219547E+04  0.23857328214E+04 0.  0.
        2    1    3    3  502    0 -0.88477449190E+02  0.88106661825E+03 -0.17987564929E+03  0.90358280972E+03  0.25500000920E-02 0. -1.
       -2    1    3    3    0  502  0.88477449190E+02 -0.88106661825E+03 -0.26703502579E+04  0.28133391450E+04  0.25500000920E-02 0.  1.
</event>
<event>
 5   0  0.5690124E-07  0.2399908E+04  0.7818609E-02  0.8439538E-01
       -1   -1    0    0    0  501  0.00000000000E+00  0.00000000000E+00  0.15644655922E+04  0.15644655922E+04  0.50400001928E-02 0. -1.
        1   -1    0    0  501    0  0.00000000000E+00  0.00000000000E+00 -0.92037160875E+03  0.92037160876E+03  0.50400001928E-02 0.  1.
    10030    2    1    2    0    0  0.00000000000E+00  0.00000000000E+00  0.64409398346E+03  0.24848372010E+04  0.23999080932E+04 0.  0.
        2    1    3    3  502    0  0.43428690623E+03 -0.11533341568E+03 -0.82997464397E+03  0.94380338172E+03  0.25500000920E-02 0.  1.
       -2    1    3    3    0  502 -0.43428690623E+03  0.11533341568E+03  0.14740686274E+04  0.15410338193E+04  0.25500000920E-02 0. -1.
</event>
<event>
 5   0  0.5363690E-07  0.2400158E+04  0.7818609E-02  0.8439444E-01
        1   -1    0    0  501    0  0.00000000000E+00  0.00000000000E+00  0.73663638444E+03  0.73663638446E+03  0.50400001928E-02 0.  1.
       -1   -1    0    0    0  501  0.00000000000E+00  0.00000000000E+00 -0.19550896497E+04  0.19550896497E+04  0.50400001928E-02 0. -1.
    10030    2    1    2    0    0  0.00000000000E+00  0.00000000000E+00 -0.12184532653E+04  0.26917260342E+04  0.24001584705E+04 0.  0.
        4    1    3    3  502    0 -0.98938125333E+03 -0.34326543902E+03  0.48042160936E+02  0.10483396817E+04  0.12699999809E+01 0. -1.
       -4    1    3    3    0  502  0.98938125333E+03  0.34326543902E+03 -0.12664954262E+04  0.16433863525E+04  0.12699999809E+01 0.  1.
</event>
<event>
 5   0  0.1275948E-06  0.2400611E+04  0.7818609E-02  0.8439275E-01
        2   -1    0    0  501    0  0.00000000000E+00  0.00000000000E+00  0.17068684437E+04  0.17068684437E+04  0.25500000920E-02 0.  1.
       -2   -1    0    0    0  501  0.00000000000E+00  0.00000000000E+00 -0.84407965432E+03  0.84407965433E+03  0.25500000920E-02 0. -1.
    10030    2    1    2    0    0  0.00000000000E+00  0.00000000000E+00  0.86278878938E+03  0.25509480980E+04  0.24006106939E+04 0.  0.
        1    1    3    3  502    0  0.46991989123E+03  0.11043112278E+04  0.45277755716E+03  0.12827063219E+04  0.50400001928E-02 0. -1.
       -1    1    3    3    0  502 -0.46991989123E+03 -0.11043112278E+04  0.41001123222E+03  0.12682417761E+04  0.50400001928E-02 0.  1.
</event>
<event>
 5   0  0.1336057E-06  0.2399726E+04  0.7818609E-02  0.8439606E-01
       -2   -1    0    0    0  501  0.00000000000E+00  0.00000000000E+00  0.13568197633E+04  0.13568197633E+04  0.25500000920E-02 0.  1.
        2   -1    0    0  501    0  0.00000000000E+00  0.00000000000E+00 -0.10610628428E+04  0.10610628428E+04  0.25500000920E-02 0. -1.
    10030    2    1    2    0    0  0.00000000000E+00  0.00000000000E+00  0.29575692054E+03  0.24178826061E+04  0.23997258470E+04 0.  0.
        2    1    3    3  502    0  0.93230424831E+03  0.60666706102E+02 -0.61067861403E+03  0.11161541248E+04  0.25500000920E-02 0. -1.
       -2    1    3    3    0  502 -0.93230424831E+03 -0.60666706102E+02  0.90643553457E+03  0.13017284813E+04  0.25500000920E-02 0.  1.
</event>
<event>
 5   0  0.5527286E-07  0.2400249E+04  0.7818609E-02  0.8439410E-01
       -1   -1    0    0    0  501  0.00000000000E+00  0.00000000000E+00  0.13426545019E+04  0.13426545019E+04  0.50400001928E-02 0.  1.
        1   -1    0    0  501    0  0.00000000000E+00  0.00000000000E+00 -0.10727252034E+04  0.10727252034E+04  0.50400001928E-02 0. -1.
    10030    2    1    2    0    0  0.00000000000E+00  0.00000000000E+00  0.26992929852E+03  0.24153797053E+04  0.24002494234E+04 0.  0.
        1    1    3    3  502    0  0.55571422183E+03 -0.10637094309E+04  0.13678545222E+03  0.12078933354E+04  0.50400001928E-02 0. -1.
       -1    1    3    3    0  502 -0.55571422183E+03  0.10637094309E+04  0.13314384631E+03  0.12074863699E+04  0.50400001928E-02 0.  1.
</event>
<event>
 5   0  0.5690124E-07  0.2400164E+04  0.7818609E-02  0.8439442E-01
        1   -1    0    0  501    0  0.00000000000E+00  0.00000000000E+00  0.18806121708E+04  0.18806121708E+04  0.50400001928E-02 0.  1.
       -1   -1    0    0    0  501  0.00000000000E+00  0.00000000000E+00 -0.76581308294E+03  0.76581308295E+03  0.50400001928E-02 0. -1.
    10030    2    1    2    0    0  0.00000000000E+00  0.00000000000E+00  0.11147990879E+04  0.26464252538E+04  0.24001644980E+04 0.  0.
        2    1    3    3  502    0  0.54459414796E+03  0.10639692914E+04  0.43872782095E+03  0.12732225021E+04  0.25500000920E-02 0. -1.
       -2    1    3    3    0  502 -0.54459414796E+03 -0.10639692914E+04  0.67607126691E+03  0.13732027516E+04  0.25500000920E-02 0.  1.
</event>
<event>
 5   0  0.1275948E-06  0.2399810E+04  0.7818609E-02  0.8439575E-01
       -2   -1    0    0    0  501  0.00000000000E+00  0.00000000000E+00  0.14793039143E+04  0.14793039143E+04  0.25500000920E-02 0. -1.
        2   -1    0    0  501    0  0.00000000000E+00  0.00000000000E+00 -0.97327644093E+03  0.97327644093E+03  0.25500000920E-02 0.  1.
    10030    2    1    2    0    0  0.00000000000E+00  0.00000000000E+00  0.50602747337E+03  0.24525803552E+04  0.23998096998E+04 0.  0.
        1    1    3    3  502    0  0.22806155901E+00 -0.11915375101E+04  0.10844661427E+03  0.11964624350E+04  0.50400001928E-02 0.  1.
       -1    1    3    3    0  502 -0.22806155901E+00  0.11915375101E+04  0.39758085910E+03  0.12561179203E+04  0.50400001928E-02 0. -1.
</event>
<event>
 5   0  0.5690124E-07  0.2388836E+04  0.7818609E-02  0.8443695E-01
       -1   -1    0    0    0  501  0.00000000000E+00  0.00000000000E+00  0.12781403604E+04  0.12781403604E+04  0.50400001928E-02 0. -1.
        1   -1    0    0  501    0  0.00000000000E+00  0.00000000000E+00 -0.11161797161E+04  0.11161797161E+04  0.50400001928E-02 0.  1.
    10030    2    1    2    0    0  0.00000000000E+00  0.00000000000E+00  0.16196064432E+03  0.23943200766E+04  0.23888359882E+04 0.  0.
        2    1    3    3  502    0 -0.10491550484E+04 -0.11030895019E+03 -0.48043051994E+03  0.11591841375E+04  0.25500000920E-02 0.  1.
       -2    1    3    3    0  502  0.10491550484E+04  0.11030895019E+03  0.64239116426E+03  0.12351359391E+04  0.25500000920E-02 0. -1.
</event>
<event>
 5   0  0.5510176E-07  0.2401959E+04  0.7818609E-02  0.8438771E-01
        1   -1    0    0  501    0  0.00000000000E+00  0.00000000000E+00  0.23420589852E+04  0.23420589852E+04  0.50400001928E-02 0.  1.
       -1   -1    0    0    0  501  0.00000000000E+00  0.00000000000E+00 -0.61584750499E+03  0.61584750502E+03  0.50400001928E-02 0. -1.
    10030    2    1    2    0    0  0.00000000000E+00  0.00000000000E+00  0.17262114802E+04  0.29579064902E+04  0.24019585197E+04 0.  0.
        3    1    3    3  502    0 -0.64492973790E+03  0.74858319123E+02  0.21073110236E+04  0.22050618801E+04  0.10100000352E+00 0.  1.
       -3    1    3    3    0  502  0.64492973790E+03 -0.74858319123E+02 -0.38109954340E+03  0.75284461010E+03  0.10100000352E+00 0. -1.
</event>
<event>
 5   0  0.1291468E-06  0.2391944E+04  0.7818609E-02  0.8442526E-01
       -2   -1    0    0    0  501  0.00000000000E+00  0.00000000000E+00  0.14582907242E+04  0.14582907243E+04  0.25500000920E-02 0.  1.
        2   -1    0    0  501    0  0.00000000000E+00  0.00000000000E+00 -0.98083931707E+03  0.98083931707E+03  0.25500000920E-02 0. -1.
    10030    2    1    2    0    0  0.00000000000E+00  0.00000000000E+00  0.47745140718E+03  0.24391300413E+04  0.23919438773E+04 0.  0.
        4    1    3    3  502    0 -0.93778786291E+03 -0.39835811903E+03  0.87734848554E+03  0.13445732575E+04  0.12699999809E+01 0.  1.
       -4    1    3    3    0  502  0.93778786291E+03  0.39835811903E+03 -0.39989707836E+03  0.10945567838E+04  0.12699999809E+01 0. -1.
</event>
<event>
 5   0  0.1291468E-06  0.2399794E+04  0.7818609E-02  0.8439581E-01
       -2   -1    0    0    0  501  0.00000000000E+00  0.00000000000E+00  0.58694971612E+03  0.58694971612E+03  0.25500000920E-02 0. -1.
        2   -1    0    0  501    0  0.00000000000E+00  0.00000000000E+00 -0.24529405583E+04  0.24529405583E+04  0.25500000920E-02 0.  1.
    10030    2    1    2    0    0  0.00000000000E+00  0.00000000000E+00 -0.18659908422E+04  0.30398902744E+04  0.23997939615E+04 0.  0.
        4    1    3    3  502    0  0.29582201673E+03  0.11592783147E+04 -0.81749165573E+03  0.14490448912E+04  0.12699999809E+01 0. -1.
       -4    1    3    3    0  502 -0.29582201673E+03 -0.11592783147E+04 -0.10484991865E+04  0.15908453833E+04  0.12699999809E+01 0.  1.
</event>
<event>
 5   0  0.1291468E-06  0.2399706E+04  0.7818609E-02  0.8439614E-01
       -2   -1    0    0    0  501  0.00000000000E+00  0.00000000000E+00  0.86075604646E+03  0.86075604647E+03  0.25500000920E-02 0.  1.
        2   -1    0    0  501    0  0.00000000000E+00  0.00000000000E+00 -0.16725383790E+04  0.16725383790E+04  0.25500000920E-02 0. -1.
    10030    2    1    2    0    0  0.00000000000E+00  0.00000000000E+00 -0.81178233252E+03  0.25332944254E+04  0.23997062509E+04 0.  0.
        4    1    3    3  502    0 -0.92810835004E+03 -0.24005269355E+03  0.35582728440E+03  0.10225581032E+04  0.12699999809E+01 0.  1.
       -4    1    3    3    0  502  0.92810835004E+03  0.24005269355E+03 -0.11676096169E+04  0.15107363223E+04  0.12699999809E+01 0. -1.
</event>
<event>
 5   0  0.1308662E-06  0.2400455E+04  0.7818609E-02  0.8439333E-01
       -2   -1    0    0    0  501  0.00000000000E+00  0.00000000000E+00  0.79783106155E+03  0.79783106155E+03  0.25500000920E-02 0.  1.
        2   -1    0    0  501    0  0.00000000000E+00  0.00000000000E+00 -0.18055775743E+04  0.18055775743E+04  0.25500000920E-02 0. -1.
    10030    2    1    2    0    0  0.00000000000E+00  0.00000000000E+00 -0.10077465127E+04  0.26034086358E+04  0.24004548509E+04 0.  0.
        3    1    3    3  502    0 -0.32460863201E+03  0.65599945304E+03 -0.15355286442E+04  0.17010450534E+04  0.10100000352E+00 0. -1.
       -3    1    3    3    0  502  0.32460863201E+03 -0.65599945304E+03  0.52778213148E+03  0.90236358242E+03  0.10100000352E+00 0.  1.
</event>
<event>
 5   0  0.5527286E-07  0.2398991E+04  0.7818609E-02  0.8439881E-01
        1   -1    0    0  501    0  0.00000000000E+00  0.00000000000E+00  0.15738958126E+04  0.15738958126E+04  0.50400001928E-02 0. -1.
       -1   -1    0    0    0  501  0.00000000000E+00  0.00000000000E+00 -0.91415832823E+03  0.91415832824E+03  0.50400001928E-02 0.  1.
    10030    2    1    2    0    0  0.00000000000E+00  0.00000000000E+00  0.65973748433E+03  0.24880541408E+04  0.23989914254E+04 0.  0.
        1    1    3    3  502    0  0.63785887929E+03  0.78526492775E+03 -0.33848172733E+03  0.10668059038E+04  0.50400001928E-02 0. -1.
       -1    1    3    3    0  502 -0.63785887929E+03 -0.78526492775E+03  0.99821921166E+03  0.14212482370E+04  0.50400001928E-02 0.  1.
</event>
<event>
 5   0  0.1336057E-06  0.2399768E+04  0.7818609E-02  0.8439590E-01
        2   -1    0    0  501    0  0.00000000000E+00  0.00000000000E+00  0.95579151707E+03  0.95579151708E+03  0.25500000920E-02 0. -1.
       -2   -1    0    0    0  501  0.00000000000E+00  0.00000000000E+00 -0.15063134408E+04  0.15063134408E+04  0.25500000920E-02 0.  1.
    10030    2    1    2    0    0  0.00000000000E+00  0.00000000000E+00 -0.55052192376E+03  0.24621049579E+04  0.23997679961E+04 0.  0.
        2    1    3    3  502    0 -0.58481584076E+02 -0.50915182265E+03 -0.13883699792E+04  0.14799415101E+04  0.25500000920E-02 0.  1.
       -2    1    3    3    0  502  0.58481584076E+02  0.50915182265E+03  0.83784805544E+03  0.98216344780E+03  0.25500000920E-02 0. -1.
</event>
<event>
 5   0  0.1275948E-06  0.2395565E+04  0.7818609E-02  0.8441166E-01
       -2   -1    0    0    0  501  0.00000000000E+00  0.00000000000E+00  0.79022379889E+03  0.79022379889E+03  0.25500000920E-02 0.  1.
        2   -1    0    0  501    0  0.00000000000E+00  0.00000000000E+00 -0.18155402862E+04  0.18155402862E+04  0.25500000920E-02 0. -1.
    10030    2    1    2    0    0  0.00000000000E+00  0.00000000000E+00 -0.10253164873E+04  0.26057640851E+04  0.23955651876E+04 0.  0.
        1    1    3    3  502    0  0.35027849502E+03 -0.72178302662E+00  0.73326694329E+03  0.81263519195E+03  0.50400001928E-02 0.  1.
       -1    1    3    3    0  502 -0.35027849502E+03  0.72178302662E+00 -0.17585834306E+04  0.17931288931E+04  0.50400001928E-02 0. -1.
</event>
<event>
 5   0  0.5690124E-07  0.2404262E+04  0.7818609E-02  0.8437910E-01
        1   -1    0    0  501    0  0.00000000000E+00  0.00000000000E+00  0.12610534577E+04  0.12610534577E+04  0.50400001928E-02 0. -1.
       -1   -1    0    0    0  501  0.00000000000E+00  0.00000000000E+00 -0.11459615835E+04  0.11459615835E+04  0.50400001928E-02 0.  1.
    10030    2    1    2    0    0  0.00000000000E+00  0.00000000000E+00  0.11509187426E+03  0.24070150412E+04  0.24042618969E+04 0.  0.
        2    1    3    3  502    0 -0.12870352021E+03 -0.24421816114E+03 -0.11137988519E+04  0.11474994505E+04  0.25500000920E-02 0.  1.
       -2    1    3    3    0  502  0.12870352021E+03  0.24421816114E+03  0.12288907262E+04  0.12595155907E+04  0.25500000920E-02 0. -1.
</event>
<event>
 5   0  0.5690124E-07  0.2398872E+04  0.7818609E-02  0.8439926E-01
        1   -1    0    0  501    0  0.00000000000E+00  0.00000000000E+00  0.21415767731E+04  0.21415767731E+04  0.50400001928E-02 0. -1.
       -1   -1    0    0    0  501  0.00000000000E+00  0.00000000000E+00 -0.67176967465E+03  0.67176967467E+03  0.50400001928E-02 0.  1.
    10030    2    1    2    0    0  0.00000000000E+00  0.00000000000E+00  0.14698070984E+04  0.28133464477E+04  0.23988716782E+04 0.  0.
        2    1    3    3  502    0 -0.18287792266E+03  0.10675529946E+04  0.13057219892E+03  0.10909458419E+04  0.25500000920E-02 0.  1.
       -2    1    3    3    0  502  0.18287792266E+03 -0.10675529946E+04  0.13392348995E+04  0.17224006058E+04  0.25500000920E-02 0. -1.
</event>
<event>
 5   0  0.1275948E-06  0.2406254E+04  0.7818609E-02  0.8437166E-01
       -2   -1    0    0    0  501  0.00000000000E+00  0.00000000000E+00  0.15237604575E+04  0.15237604575E+04  0.25500000920E-02 0.  1.
        2   -1    0    0  501    0  0.00000000000E+00  0.00000000000E+00 -0.94996183640E+03  0.94996183640E+03  0.25500000920E-02 0. -1.
    10030    2    1    2    0    0  0.00000000000E+00  0.00000000000E+00  0.57379862107E+03  0.24737222939E+04  0.24062537542E+04 0.  0.
        1    1    3    3  502    0 -0.25207506573E+03 -0.58890028726E+02  0.14947921800E+04  0.15170410461E+04  0.50400001928E-02 0.  1.
       -1    1    3    3    0  502  0.25207506573E+03  0.58890028726E+02 -0.92099355891E+03  0.95668124776E+03  0.50400001928E-02 0. -1.
</event>
<event>
 5   0  0.1291468E-06  0.2393691E+04  0.7818609E-02  0.8441869E-01
        2   -1    0    0  501    0  0.00000000000E+00  0.00000000000E+00  0.16833748997E+04  0.16833748997E+04  0.25500000920E-02 0. -1.
       -2   -1    0    0    0  501  0.00000000000E+00  0.00000000000E+00 -0.85093288426E+03  0.85093288426E+03  0.25500000920E-02 0.  1.
    10030    2    1    2    0    0  0.00000000000E+00  0.00000000000E+00  0.83244201544E+03  0.25343077840E+04  0.23936909230E+04 0.  0.
        4    1    3    3  502    0  0.30294680285E+03  0.10132222104E+04 -0.17709321558E+03  0.10722684519E+04  0.12699999809E+01 0.  1.
       -4    1    3    3    0  502 -0.30294680285E+03 -0.10132222104E+04  0.10095352310E+04  0.14620393321E+04  0.12699999809E+01 0. -1.
</event>
<event>
 5   0  0.1291468E-06  0.2398991E+04  0.7818609E-02  0.8439881E-01
       -2   -1    0    0    0  501  0.00000000000E+00  0.00000000000E+00  0.19674216382E+04  0.19674216382E+04  0.25500000920E-02 0.  1.
        2   -1    0    0  501    0  0.00000000000E+00  0.00000000000E+00 -0.73130730972E+03  0.73130730972E+03  0.25500000920E-02 0. -1.
    10030    2    1    2    0    0  0.00000000000E+00  0.00000000000E+00  0.12361143285E+04  0.26987289480E+04  0.23989913092E+04 0.  0.
        4    1    3    3  502    0 -0.70359892477E+03  0.38917331281E+03 -0.38325659861E+03  0.89072697703E+03  0.12699999809E+01 0.  1.
       -4    1    3    3    0  502  0.70359892477E+03 -0.38917331281E+03  0.16193709271E+04  0.18080019709E+04  0.12699999809E+01 0. -1.
</event>
<event>
 5   0  0.5510176E-07  0.2399851E+04  0.7818609E-02  0.8439559E-01
        1   -1    0    0  501    0  0.00000000000E+00  0.00000000000E+00  0.12467324244E+04  0.12467324244E+04  0.50400001928E-02 0.  1.
       -1   -1    0    0    0  501  0.00000000000E+00  0.00000000000E+00 -0.11548760004E+04  0.11548760004E+04  0.50400001928E-02 0. -1.
    10030    2    1    2    0    0  0.00000000000E+00  0.00000000000E+00  0.91856423971E+02  0.24016084248E+04  0.23998511252E+04 0.  0.
        3    1    3    3  502    0 -0.62042076954E+03  0.70638223642E+03  0.79207699238E+03  0.12293428193E+04  0.10100000352E+00 0. -1.
       -3    1    3    3    0  502  0.62042076954E+03 -0.70638223642E+03 -0.70022056841E+03  0.11722656055E+04  0.10100000352E+00 0.  1.
</event>
<event>
 5   0  0.5452384E-07  0.2399748E+04  0.7818609E-02  0.8439598E-01
       -1   -1    0    0    0  501  0.00000000000E+00  0.00000000000E+00  0.97517463130E+03  0.97517463131E+03  0.50400001928E-02 0.  1.
        1   -1    0    0  501    0  0.00000000000E+00  0.00000000000E+00 -0.14763482058E+04  0.14763482058E+04  0.50400001928E-02 0. -1.
    10030    2    1    2    0    0  0.00000000000E+00  0.00000000000E+00 -0.50117357446E+03  0.24515228371E+04  0.23997477511E+04 0.  0.
        5    1    3    3  502    0 -0.37663597367E+03  0.10581143383E+04  0.18067602591E+03  0.11375968205E+04  0.46999998093E+01 0. -1.
       -5    1    3    3    0  502  0.37663597367E+03 -0.10581143383E+04 -0.68184960037E+03  0.13139260166E+04  0.46999998093E+01 0.  1.
</event>
<event>
 5   0  0.1336057E-06  0.2397841E+04  0.7818609E-02  0.8440312E-01
        2   -1    0    0  501    0  0.00000000000E+00  0.00000000000E+00  0.23200181746E+04  0.23200181746E+04  0.25500000920E-02 0.  1.
       -2   -1    0    0    0  501  0.00000000000E+00  0.00000000000E+00 -0.61956880471E+03  0.61956880471E+03  0.25500000920E-02 0. -1.
    10030    2    1    2    0    0  0.00000000000E+00  0.00000000000E+00  0.17004493699E+04  0.29395869793E+04  0.23978414354E+04 0.  0.
        2    1    3    3  502    0  0.65775134612E+03 -0.23952901701E+03  0.20434776510E+04  0.21600490488E+04  0.25500000920E-02 0.  1.
       -2    1    3    3    0  502 -0.65775134612E+03  0.23952901701E+03 -0.34302828113E+03  0.77953793043E+03  0.25500000920E-02 0. -1.
</event>
<event>
 5   0  0.5690124E-07  0.2399350E+04  0.7818609E-02  0.8439747E-01
        1   -1    0    0  501    0  0.00000000000E+00  0.00000000000E+00  0.14419727134E+04  0.14419727134E+04  0.50400001928E-02 0. -1.
       -1   -1    0    0    0  501  0.00000000000E+00  0.00000000000E+00 -0.99809112431E+03  0.99809112432E+03  0.50400001928E-02 0.  1.
    10030    2    1    2    0    0  0.00000000000E+00  0.00000000000E+00  0.44388158911E+03  0.24400638378E+04  0.23993500510E+04 0.  0.
        2    1    3    3  502    0 -0.47544523143E+03 -0.68342302214E+03 -0.65648997941E+03  0.10602331293E+04  0.25500000920E-02 0.  1.
       -2    1    3    3    0  502  0.47544523143E+03  0.68342302214E+03  0.11003715685E+04  0.13798307085E+04  0.25500000920E-02 0. -1.
</event>
<event>
 5   0  0.5690124E-07  0.2401099E+04  0.7818609E-02  0.8439092E-01
        1   -1    0    0  501    0  0.00000000000E+00  0.00000000000E+00  0.14947330606E+04  0.14947330606E+04  0.50400001928E-02 0. -1.
       -1   -1    0    0    0  501  0.00000000000E+00  0.00000000000E+00 -0.96426499047E+03  0.96426499048E+03  0.50400001928E-02 0.  1.
    10030    2    1    2    0    0  0.00000000000E+00  0.00000000000E+00  0.53046807014E+03  0.24589980511E+04  0.24010987156E+04 0.  0.
        2    1    3    3  502    0  0.46647264205E+03 -0.10212219367E+04  0.70072661238E+03  0.13234457885E+04  0.25500000920E-02 0.  1.
       -2    1    3    3    0  502 -0.46647264205E+03  0.10212219367E+04 -0.17025854223E+03  0.11355522626E+04  0.25500000920E-02 0. -1.
</event>
<event>
 5   0  0.5527286E-07  0.2400085E+04  0.7818609E-02  0.8439472E-01
       -1   -1    0    0    0  501  0.00000000000E+00  0.00000000000E+00  0.10636863690E+04  0.10636863690E+04  0.50400001928E-02 0. -1.
        1   -1    0    0  501    0  0.00000000000E+00  0.00000000000E+00 -0.13538784311E+04  0.13538784311E+04  0.50400001928E-02 0.  1.
    10030    2    1    2    0    0  0.00000000000E+00  0.00000000000E+00 -0.29019206210E+03  0.24175648000E+04  0.24000850255E+04 0.  0.
        1    1    3    3  502    0 -0.66257351696E+03  0.62338157679E+03 -0.93341565279E+03  0.13034082386E+04  0.50400001928E-02 0.  1.
       -1    1    3    3    0  502  0.66257351696E+03 -0.62338157679E+03  0.64322359068E+03  0.11141565614E+04  0.50400001928E-02 0. -1.
</event>
<event>
 5   0  0.1336057E-06  0.2398587E+04  0.7818609E-02  0.8440033E-01
        2   -1    0    0  501    0  0.00000000000E+00  0.00000000000E+00  0.17145938856E+04  0.17145938856E+04  0.25500000920E-02 0. -1.
       -2   -1    0    0    0  501  0.00000000000E+00  0.00000000000E+00 -0.83886068325E+03  0.83886068326E+03  0.25500000920E-02 0.  1.
    10030    2    1    2    0    0  0.00000000000E+00  0.00000000000E+00  0.87573320237E+03  0.25534545689E+04  0.23985874163E+04 0.  0.
        2    1    3    3  502    0  0.39651911223E+03  0.40235776644E+03  0.15640879651E+04  0.16629763502E+04  0.25500000920E-02 0. -1.
       -2    1    3    3    0  502 -0.39651911223E+03 -0.40235776644E+03 -0.68835476276E+03  0.89047821871E+03  0.25500000920E-02 0.  1.
</event>
<event>
 5   0  0.1291468E-06  0.2400887E+04  0.7818609E-02  0.8439172E-01
        2   -1    0    0  501    0  0.00000000000E+00  0.00000000000E+00  0.18980081406E+04  0.18980081406E+04  0.25500000920E-02 0.  1.
       -2   -1    0    0    0  501  0.00000000000E+00  0.00000000000E+00 -0.75925091911E+03  0.75925091911E+03  0.25500000920E-02 0. -1.
    10030    2    1    2    0    0  0.00000000000E+00  0.00000000000E+00  0.11387572215E+04  0.26572590597E+04  0.24008868572E+04 0.  0.
        4    1    3    3  502    0 -0.31376658838E+03  0.11562848778E+04  0.65234020679E+03  0.13641823738E+04  0.12699999809E+01 0. -1.
       -4    1    3    3    0  502  0.31376658838E+03 -0.11562848778E+04  0.48641701468E+03  0.12930766859E+04  0.12699999809E+01 0.  1.
</event>
<event>
 5   0  0.5527286E-07  0.2401396E+04  0.7818609E-02  0.8438981E-01
        1   -1    0    0  501    0  0.00000000000E+00  0.00000000000E+00  0.68703618221E+03  0.68703618223E+03  0.50400001928E-02 0.  1.
       -1   -1    0    0    0  501  0.00000000000E+00  0.00000000000E+00 -0.20983985984E+04  0.20983985984E+04  0.50400001928E-02 0. -1.
    10030    2    1    2    0    0  0.00000000000E+00  0.00000000000E+00 -0.14113624162E+04  0.27854347807E+04  0.24013960622E+04 0.  0.
        1    1    3    3  502    0 -0.11572223248E+04 -0.30961082277E+03 -0.61106822678E+03  0.13447775833E+04  0.50400001928E-02 0. -1.
       -1    1    3    3    0  502  0.11572223248E+04  0.30961082277E+03 -0.80029418945E+03  0.14406571974E+04  0.50400001928E-02 0.  1.
</event>
<event>
 5   0  0.1275948E-06  0.2403562E+04  0.7818609E-02  0.8438171E-01
        2   -1    0    0  501    0  0.00000000000E+00  0.00000000000E+00  0.22478808037E+04  0.22478808037E+04  0.25500000920E-02 0.  1.
       -2   -1    0    0    0  501  0.00000000000E+00  0.00000000000E+00 -0.64250613187E+03  0.64250613188E+03  0.25500000920E-02 0. -1.
    10030    2    1    2    0    0  0.00000000000E+00  0.00000000000E+00  0.16053746719E+04  0.28903869356E+04  0.24035616906E+04 0.  0.
        1    1    3    3  502    0  0.11443069005E+04 -0.36716594328E+03  0.79631411916E+03  0.14416536647E+04  0.50400001928E-02 0. -1.
       -1    1    3    3    0  502 -0.11443069005E+04  0.36716594328E+03  0.80906055270E+03  0.14487332710E+04  0.50400001928E-02 0.  1.
</event>
<event>
 5   0  0.5690124E-07  0.2400258E+04  0.7818609E-02  0.8439407E-01
       -1   -1    0    0    0  501  0.00000000000E+00  0.00000000000E+00  0.17111639247E+04  0.17111639247E+04  0.50400001928E-02 0. -1.
        1   -1    0    0  501    0  0.00000000000E+00  0.00000000000E+00 -0.84171306511E+03  0.84171306513E+03  0.50400001928E-02 0.  1.
    10030    2    1    2    0    0  0.00000000000E+00  0.00000000000E+00  0.86945085956E+03  0.25528769898E+04  0.24002575128E+04 0.  0.
        2    1    3    3  502    0 -0.24789127853E+03 -0.10099025433E+04 -0.20249917712E+03  0.10594145316E+04  0.25500000920E-02 0.  1.
       -2    1    3    3    0  502  0.24789127853E+03  0.10099025433E+04  0.10719500367E+04  0.14934624582E+04  0.25500000920E-02 0. -1.
</event>
<event>
 5   0  0.5527286E-07  0.2396660E+04  0.7818609E-02  0.8440755E-01
       -1   -1    0    0    0  501  0.00000000000E+00  0.00000000000E+00  0.81841011061E+03  0.81841011062E+03  0.50400001928E-02 0.  1.
        1   -1    0    0  501    0  0.00000000000E+00  0.00000000000E+00 -0.17546158278E+04  0.17546158278E+04  0.50400001928E-02 0. -1.
    10030    2    1    2    0    0  0.00000000000E+00  0.00000000000E+00 -0.93620571723E+03  0.25730259385E+04  0.23966604547E+04 0.  0.
        1    1    3    3  502    0 -0.12333524007E+03 -0.11281103680E+04 -0.88133070635E+03  0.14368675645E+04  0.50400001928E-02 0. -1.
       -1    1    3    3    0  502  0.12333524007E+03  0.11281103680E+04 -0.54875010876E+02  0.11361583740E+04  0.50400001928E-02 0.  1.
</event>
<event>
 5   0  0.5510176E-07  0.2400491E+04  0.7818609E-02  0.8439320E-01
       -1   -1    0    0    0  501  0.00000000000E+00  0.00000000000E+00  0.98335180871E+03  0.98335180872E+03  0.50400001928E-02 0.  1.
        1   -1    0    0  501    0  0.00000000000E+00  0.00000000000E+00 -0.14649784484E+04  0.14649784484E+04  0.50400001928E-02 0. -1.
    10030    2    1    2    0    0  0.00000000000E+00  0.00000000000E+00 -0.48162663964E+03  0.24483302571E+04  0.24004909556E+04 0.  0.
        3    1    3    3  502    0 -0.69088904974E+03  0.13198239221E+02  0.76011449758E+03  0.10272662421E+04  0.10100000352E+00 0.  1.
       -3    1    3    3    0  502  0.69088904974E+03 -0.13198239221E+02 -0.12417411372E+04  0.14210640150E+04  0.10100000352E+00 0. -1.
</event>
<event>
 5   0  0.5527286E-07  0.2400239E+04  0.7818609E-02  0.8439414E-01
        1   -1    0    0  501    0  0.00000000000E+00  0.00000000000E+00  0.19610448615E+04  0.19610448615E+04  0.50400001928E-02 0. -1.
       -1   -1    0    0    0  501  0.00000000000E+00  0.00000000000E+00 -0.73444854428E+03  0.73444854429E+03  0.50400001928E-02 0.  1.
    10030    2    1    2    0    0  0.00000000000E+00  0.00000000000E+00  0.12265963172E+04  0.26954934058E+04  0.24002387746E+04 0.  0.
        1    1    3    3  502    0  0.78998424349E+03 -0.39270758233E+02 -0.40032024577E+03  0.88649511934E+03  0.50400001928E-02 0.  1.
       -1    1    3    3    0  502 -0.78998424349E+03  0.39270758233E+02  0.16269165630E+04  0.18089982865E+04  0.50400001928E-02 0. -1.
</event>
<event>
 5   0  0.5527286E-07  0.2399630E+04  0.7818609E-02  0.8439642E-01
        1   -1    0    0  501    0  0.00000000000E+00  0.00000000000E+00  0.81959539806E+03  0.81959539808E+03  0.50400001928E-02 0.  1.
       -1   -1    0    0    0  501  0.00000000000E+00  0.00000000000E+00 -0.17564222661E+04  0.17564222661E+04  0.50400001928E-02 0. -1.
    10030    2    1    2    0    0  0.00000000000E+00  0.00000000000E+00 -0.93682686805E+03  0.25760176642E+04  0.23996296434E+04 0.  0.
        1    1    3    3  502    0 -0.52316153910E+03  0.48982839397E+03  0.56456843920E+03  0.91234169810E+03  0.50400001928E-02 0.  1.
       -1    1    3    3    0  502  0.52316153910E+03 -0.48982839397E+03 -0.15013953072E+04  0.16636759661E+04  0.50400001928E-02 0. -1.
</event>
<event>
 5   0  0.5690124E-07  0.2400568E+04  0.7818609E-02  0.8439291E-01
        1   -1    0    0  501    0  0.00000000000E+00  0.00000000000E+00  0.22197945242E+04  0.22197945242E+04  0.50400001928E-02 0. -1.
       -1   -1    0    0    0  501  0.00000000000E+00  0.00000000000E+00 -0.64901574496E+03  0.64901574498E+03  0.50400001928E-02 0.  1.
    10030    2    1    2    0    0  0.00000000000E+00  0.00000000000E+00  0.15707787792E+04  0.28688102692E+04  0.24005679302E+04 0.  0.
        2    1    3    3  502    0  0.81984260987E+03  0.23706055208E+03 -0.22324111445E+03  0.88214296205E+03  0.25500000920E-02 0.  1.
       -2    1    3    3    0  502 -0.81984260987E+03 -0.23706055208E+03  0.17940198937E+04  0.19866673071E+04  0.25500000920E-02 0. -1.
</event>
<event>
 5   0  0.5527286E-07  0.2396318E+04  0.7818609E-02  0.8440883E-01
        1   -1    0    0  501    0  0.00000000000E+00  0.00000000000E+00  0.12803877719E+04  0.12803877719E+04  0.50400001928E-02 0.  1.
       -1   -1    0    0    0  501  0.00000000000E+00  0.00000000000E+00 -0.11212108690E+04  0.11212108690E+04  0.50400001928E-02 0. -1.
    10030    2    1    2    0    0  0.00000000000E+00  0.00000000000E+00  0.15917690284E+03  0.24015986409E+04  0.23963177472E+04 0.  0.
        1    1    3    3  502    0  0.81035080547E+02  0.11925951060E+04  0.16183583490E+03  0.12062506409E+04  0.50400001928E-02 0. -1.
       -1    1    3    3    0  502 -0.81035080547E+02 -0.11925951060E+04 -0.26589320652E+01  0.11953480000E+04  0.50400001928E-02 0.  1.
</event>
<event>
 5   0  0.1336057E-06  0.2399858E+04  0.7818609E-02  0.8439557E-01
        2   -1    0    0  501    0  0.00000000000E+00  0.00000000000E+00  0.16617314158E+04  0.16617314158E+04  0.25500000920E-02 0. -1.
       -2   -1    0    0    0  501  0.00000000000E+00  0.00000000000E+00 -0.86646329217E+03  0.86646329218E+03  0.25500000920E-02 0.  1.
    10030    2    1    2    0    0  0.00000000000E+00  0.00000000000E+00  0.79526812359E+03  0.25281947079E+04  0.23998577235E+04 0.  0.
        2    1    3    3  502    0 -0.19740980445E+03 -0.27531839776E+03  0.16103037893E+04  0.16455543579E+04  0.25500000920E-02 0. -1.
       -2    1    3    3    0  502  0.19740980445E+03  0.27531839776E+03 -0.81503566572E+03  0.88264035000E+03  0.25500000920E-02 0.  1.
</event>
<event>
 5   0  0.5690124E-07  0.2399519E+04  0.7818609E-02  0.8439684E-01
        1   -1    0    0  501    0  0.00000000000E+00  0.00000000000E+00  0.14091212332E+04  0.14091212332E+04  0.50400001928E-02 0. -1.
       -1   -1    0    0    0  501  0.00000000000E+00  0.00000000000E+00 -0.10215038719E+04  0.10215038719E+04  0.50400001928E-02 0.  1.
    10030    2    1    2    0    0  0.00000000000E+00  0.00000000000E+00  0.38761736126E+03  0.24306251051E+04  0.23995189482E+04 0.  0.
        2    1    3    3  502    0 -0.29646826437E+03 -0.86699553544E+03  0.97834750668E+03  0.13404247588E+04  0.25500000920E-02 0. -1.
       -2    1    3    3    0  502  0.29646826437E+03  0.86699553544E+03 -0.59073014542E+03  0.10902003463E+04  0.25500000920E-02 0.  1.
</event>
<event>
 5   0  0.5452384E-07  0.2401833E+04  0.7818609E-02  0.8438818E-01
        1   -1    0    0  501    0  0.00000000000E+00  0.00000000000E+00  0.11074829462E+04  0.11074829462E+04  0.50400001928E-02 0. -1.
       -1   -1    0    0    0  501  0.00000000000E+00  0.00000000000E+00 -0.13022325839E+04  0.13022325840E+04  0.50400001928E-02 0.  1.
    10030    2    1    2    0    0  0.00000000000E+00  0.00000000000E+00 -0.19474963774E+03  0.24097155302E+04  0.24018329490E+04 0.  0.
        5    1    3    3  502    0 -0.73564123688E+03 -0.85136090325E+03 -0.51850814485E+03  0.12388931363E+04  0.46999998093E+01 0.  1.
       -5    1    3    3    0  502  0.73564123688E+03  0.85136090325E+03  0.32375850711E+03  0.11708223938E+04  0.46999998093E+01 0. -1.
</event>
<event>
 5   0  0.1275948E-06  0.2399148E+04  0.7818609E-02  0.8439823E-01
        2   -1    0    0  501    0  0.00000000000E+00  0.00000000000E+00  0.10653001487E+04  0.10653001487E+04  0.25500000920E-02 0. -1.
       -2   -1    0    0    0  501  0.00000000000E+00  0.00000000000E+00 -0.13507717228E+04  0.13507717228E+04  0.25500000920E-02 0.  1.
    10030    2    1    2    0    0  0.00000000000E+00  0.00000000000E+00 -0.28547157411E+03  0.24160718715E+04  0.23991476130E+04 0.  0.
        1    1    3    3  502    0  0.93668758587E+03  0.55470933634E+03 -0.65016648165E+03  0.12679915359E+04  0.50400001928E-02 0.  1.
       -1    1    3    3    0  502 -0.93668758587E+03 -0.55470933634E+03  0.36469490755E+03  0.11480803356E+04  0.50400001928E-02 0. -1.
</event>
<event>
 5   0  0.1275948E-06  0.2399949E+04  0.7818609E-02  0.8439523E-01
       -2   -1    0    0    0  501  0.00000000000E+00  0.00000000000E+00  0.11631152976E+04  0.11631152976E+04  0.25500000920E-02 0. -1.
        2   -1    0    0  501    0  0.00000000000E+00  0.00000000000E+00 -0.12380013932E+04  0.12380013932E+04  0.25500000920E-02 0.  1.
    10030    2    1    2    0    0  0.00000000000E+00  0.00000000000E+00 -0.74886095622E+02  0.24011166909E+04  0.23999486319E+04 0.  0.
        1    1    3    3  502    0 -0.71589192105E+03 -0.16975927957E+03  0.91097344021E+03  0.11709791050E+04  0.50400001928E-02 0. -1.
       -1    1    3    3    0  502  0.71589192105E+03  0.16975927957E+03 -0.98585953584E+03  0.12301375858E+04  0.50400001928E-02 0.  1.
</event>
<event>
 5   0  0.1336057E-06  0.2400595E+04  0.7818609E-02  0.8439281E-01
       -2   -1    0    0    0  501  0.00000000000E+00  0.00000000000E+00  0.11370995714E+04  0.11370995714E+04  0.25500000920E-02 0. -1.
        2   -1    0    0  501    0  0.00000000000E+00  0.00000000000E+00 -0.12670075279E+04  0.12670075279E+04  0.25500000920E-02 0.  1.
    10030    2    1    2    0    0  0.00000000000E+00  0.00000000000E+00 -0.12990795646E+03  0.24041070993E+04  0.24005946904E+04 0.  0.
        2    1    3    3  502    0 -0.20834800458E+03 -0.33499165527E+03 -0.12002286986E+04  0.12633990775E+04  0.25500000920E-02 0.  1.
       -2    1    3    3    0  502  0.20834800458E+03  0.33499165527E+03  0.10703207421E+04  0.11407080218E+04  0.25500000920E-02 0. -1.
</event>
<event>
 5   0  0.1307477E-06  0.2400004E+04  0.7818609E-02  0.8439502E-01
        2   -1    0    0  501    0  0.00000000000E+00  0.00000000000E+00  0.15326730110E+04  0.15326730110E+04  0.25500000920E-02 0.  1.
       -2   -1    0    0    0  501  0.00000000000E+00  0.00000000000E+00 -0.93953839890E+03  0.93953839891E+03  0.25500000920E-02 0. -1.
    10030    2    1    2    0    0  0.00000000000E+00  0.00000000000E+00  0.59313461207E+03  0.24722114099E+04  0.24000042890E+04 0.  0.
        5    1    3    3  502    0  0.88289834536E+03  0.34494170237E+03  0.10545657672E+04  0.14179652018E+04  0.46999998093E+01 0.  1.
       -5    1    3    3    0  502 -0.88289834536E+03 -0.34494170237E+03 -0.46143115512E+03  0.10542462081E+04  0.46999998093E+01 0. -1.
</event>
<event>
 5   0  0.5363690E-07  0.2400407E+04  0.7818609E-02  0.8439351E-01
        1   -1    0    0  501    0  0.00000000000E+00  0.00000000000E+00  0.16461830410E+04  0.16461830410E+04  0.50400001928E-02 0. -1.
       -1   -1    0    0    0  501  0.00000000000E+00  0.00000000000E+00 -0.87504785743E+03  0.87504785744E+03  0.50400001928E-02 0.  1.
    10030    2    1    2    0    0  0.00000000000E+00  0.00000000000E+00  0.77113518359E+03  0.25212308985E+04  0.24004074179E+04 0.  0.
        4    1    3    3  502    0 -0.53494317001E+03  0.59741834136E+03 -0.55236086845E+03  0.97374381212E+03  0.12699999809E+01 0.  1.
       -4    1    3    3    0  502  0.53494317001E+03 -0.59741834136E+03  0.13234960520E+04  0.15474870864E+04  0.12699999809E+01 0. -1.
</event>
<event>
 5   0  0.1275948E-06  0.2399860E+04  0.7818609E-02  0.8439556E-01
        2   -1    0    0  501    0  0.00000000000E+00  0.00000000000E+00  0.18600564103E+04  0.18600564103E+04  0.25500000920E-02 0.  1.
       -2   -1    0    0    0  501  0.00000000000E+00  0.00000000000E+00 -0.77407956245E+03  0.77407956245E+03  0.25500000920E-02 0. -1.
    10030    2    1    2    0    0  0.00000000000E+00  0.00000000000E+00  0.10859768478E+04  0.26341359727E+04  0.23998597061E+04 0.  0.
        1    1    3    3  502    0 -0.34518388517E+03  0.91247585600E+03  0.13098064298E+04  0.16332045144E+04  0.50400001928E-02 0.  1.
       -1    1    3    3    0  502  0.34518388517E+03 -0.91247585600E+03 -0.22382958201E+03  0.10009314583E+04  0.50400001928E-02 0. -1.
</event>
<event>
 5   0  0.5527286E-07  0.2402988E+04  0.7818609E-02  0.8438386E-01
        1   -1    0    0  501    0  0.00000000000E+00  0.00000000000E+00  0.15340593384E+04  0.15340593384E+04  0.50400001928E-02 0. -1.
       -1   -1    0    0    0  501  0.00000000000E+00  0.00000000000E+00 -0.94102441899E+03  0.94102441901E+03  0.50400001928E-02 0.  1.
    10030    2    1    2    0    0  0.00000000000E+00  0.00000000000E+00  0.59303491943E+03  0.24750837574E+04  0.24029875552E+04 0.  0.
        1    1    3    3  502    0  0.81066563318E+03 -0.72545085746E+03 -0.22881380734E+03  0.11116714775E+04  0.50400001928E-02 0.  1.
       -1    1    3    3    0  502 -0.81066563318E+03  0.72545085746E+03  0.82184872676E+03  0.13634122799E+04  0.50400001928E-02 0. -1.
</event>
<event>
 5   0  0.5690124E-07  0.2400117E+04  0.7818609E-02  0.8439460E-01
       -1   -1    0    0    0  501  0.00000000000E+00  0.00000000000E+00  0.91273917679E+03  0.91273917681E+03  0.50400001928E-02 0. -1.
        1   -1    0    0  501    0  0.00000000000E+00  0.00000000000E+00 -0.15778218402E+04  0.15778218402E+04  0.50400001928E-02 0.  1.
    10030    2    1    2    0    0  0.00000000000E+00  0.00000000000E+00 -0.66508266342E+03  0.24905610170E+04  0.24001165035E+04 0.  0.
        2    1    3    3  502    0 -0.10943963661E+03  0.11547132068E+04 -0.13042369457E+02  0.11599610888E+04  0.25500000920E-02 0. -1.
       -2    1    3    3    0  502  0.10943963661E+03 -0.11547132068E+04 -0.65204029396E+03  0.13305999282E+04  0.25500000920E-02 0.  1.
</event>
<event>
 5   0  0.5527286E-07  0.2393809E+04  0.7818609E-02  0.8441825E-01
        1   -1    0    0  501    0  0.00000000000E+00  0.00000000000E+00  0.21742470973E+04  0.21742470973E+04  0.50400001928E-02 0.  1.
       -1   -1    0    0    0  501  0.00000000000E+00  0.00000000000E+00 -0.65888573941E+03  0.65888573943E+03  0.50400001928E-02 0. -1.
    10030    2    1    2    0    0  0.00000000000E+00  0.00000000000E+00  0.15153613579E+04  0.28331328367E+04  0.23938090203E+04 0.  0.
        1    1    3    3  502    0  0.91155857540E+02  0.41598917751E+03  0.20815495642E+04  0.21246658501E+04  0.50400001928E-02 0.  1.
       -1    1    3    3    0  502 -0.91155857540E+02 -0.41598917751E+03 -0.56618820633E+03  0.70846698666E+03  0.50400001928E-02 0. -1.
</event>
<event>
 5   0  0.5452384E-07  0.2399622E+04  0.7818609E-02  0.8439645E-01
       -1   -1    0    0    0  501  0.00000000000E+00  0.00000000000E+00  0.99835125021E+03  0.99835125022E+03  0.50400001928E-02 0. -1.
        1   -1    0    0  501    0  0.00000000000E+00  0.00000000000E+00 -0.14419235224E+04  0.14419235224E+04  0.50400001928E-02 0.  1.
    10030    2    1    2    0    0  0.00000000000E+00  0.00000000000E+00 -0.44357227215E+03  0.24402747726E+04  0.23996217629E+04 0.  0.
        5    1    3    3  502    0  0.60211466233E+03  0.83232315479E+03 -0.85214231294E+03  0.13347181396E+04  0.46999998093E+01 0.  1.
       -5    1    3    3    0  502 -0.60211466233E+03 -0.83232315479E+03  0.40857004079E+03  0.11055566330E+04  0.46999998093E+01 0. -1.
</event>
<event>
 5   0  0.5690124E-07  0.2399640E+04  0.7818609E-02  0.8439638E-01
       -1   -1    0    0    0  501  0.00000000000E+00  0.00000000000E+00  0.17684755827E+04  0.17684755827E+04  0.50400001928E-02 0. -1.
        1   -1    0    0  501    0  0.00000000000E+00  0.00000000000E+00 -0.81401651084E+03  0.81401651085E+03  0.50400001928E-02 0.  1.
    10030    2    1    2    0    0  0.00000000000E+00  0.00000000000E+00  0.95445907182E+03  0.25824920935E+04  0.23996402425E+04 0.  0.
        2    1    3    3  502    0  0.45898123433E+03 -0.11027881513E+04  0.35564829206E+03  0.12463110317E+04  0.25500000920E-02 0. -1.
       -2    1    3    3    0  502 -0.45898123433E+03  0.11027881513E+04  0.59881077976E+03  0.13361810618E+04  0.25500000920E-02 0.  1.
</event>
<event>
 5   0  0.1275948E-06  0.2400836E+04  0.7818609E-02  0.8439191E-01
       -2   -1    0    0    0  501  0.00000000000E+00  0.00000000000E+00  0.11941002928E+04  0.11941002928E+04  0.25500000920E-02 0.  1.
        2   -1    0    0  501    0  0.00000000000E+00  0.00000000000E+00 -0.12067693803E+04  0.12067693803E+04  0.25500000920E-02 0. -1.
    10030    2    1    2    0    0  0.00000000000E+00  0.00000000000E+00 -0.12669087542E+02  0.24008696731E+04  0.24008362463E+04 0.  0.
        1    1    3    3  502    0 -0.76388640818E+03 -0.13712788087E+03 -0.92214048608E+03  0.12052674294E+04  0.50400001928E-02 0. -1.
       -1    1    3    3    0  502  0.76388640818E+03  0.13712788087E+03  0.90947139854E+03  0.11956022437E+04  0.50400001928E-02 0.  1.
</event>
<event>
 5   0  0.1308662E-06  0.2400360E+04  0.7818609E-02  0.8439369E-01
       -2   -1    0    0    0  501  0.00000000000E+00  0.00000000000E+00  0.76684542117E+03  0.76684542118E+03  0.25500000920E-02 0. -1.
        2   -1    0    0  501    0  0.00000000000E+00  0.00000000000E+00 -0.18783860204E+04  0.18783860204E+04  0.25500000920E-02 0.  1.
    10030    2    1    2    0    0  0.00000000000E+00  0.00000000000E+00 -0.11115405993E+04  0.26452314416E+04  0.24003597389E+04 0.  0.
        3    1    3    3  502    0 -0.62948360756E+02  0.11886277432E+04 -0.72518439165E+03  0.13938044412E+04  0.10100000352E+00 0. -1.
       -3    1    3    3    0  502  0.62948360756E+02 -0.11886277432E+04 -0.38635620762E+03  0.12514270005E+04  0.10100000352E+00 0.  1.
</event>
<event>
 5   0  0.5527286E-07  0.2399270E+04  0.7818609E-02  0.8439777E-01
        1   -1    0    0  501    0  0.00000000000E+00  0.00000000000E+00  0.17931015350E+04  0.17931015350E+04  0.50400001928E-02 0.  1.
       -1   -1    0    0    0  501  0.00000000000E+00  0.00000000000E+00 -0.80258957427E+03  0.80258957429E+03  0.50400001928E-02 0. -1.
    10030    2    1    2    0    0  0.00000000000E+00  0.00000000000E+00  0.99051196075E+03  0.25956911093E+04  0.23992703871E+04 0.  0.
        1    1    3    3  502    0  0.13910895491E+03 -0.17335768834E+03 -0.78011794406E+03  0.81116471577E+03  0.50400001928E-02 0. -1.
       -1    1    3    3    0  502 -0.13910895491E+03  0.17335768834E+03  0.17706299048E+04  0.17845263936E+04  0.50400001928E-02 0.  1.
</event>
<event>
 5   0  0.5690124E-07  0.2401754E+04  0.7818609E-02  0.8438847E-01
        1   -1    0    0  501    0  0.00000000000E+00  0.00000000000E+00  0.16370930159E+04  0.16370930159E+04  0.50400001928E-02 0.  1.
       -1   -1    0    0    0  501  0.00000000000E+00  0.00000000000E+00 -0.88089428998E+03  0.88089428999E+03  0.50400001928E-02 0. -1.
    10030    2    1    2    0    0  0.00000000000E+00  0.00000000000E+00  0.75619872591E+03  0.25179873059E+04  0.24017542671E+04 0.  0.
        2    1    3    3  502    0 -0.62549233552E+03  0.71062101835E+03  0.11526944690E+04  0.14916190641E+04  0.25500000920E-02 0.  1.
       -2    1    3    3    0  502  0.62549233552E+03 -0.71062101835E+03 -0.39649574306E+03  0.10263682418E+04  0.25500000920E-02 0. -1.
</event>
<event>
 5   0  0.5527286E-07  0.2400518E+04  0.7818609E-02  0.8439310E-01
       -1   -1    0    0    0  501  0.00000000000E+00  0.00000000000E+00  0.13612997779E+04  0.13612997779E+04  0.50400001928E-02 0.  1.
        1   -1    0    0  501    0  0.00000000000E+00  0.00000000000E+00 -0.10582691628E+04  0.10582691628E+04  0.50400001928E-02 0. -1.
    10030    2    1    2    0    0  0.00000000000E+00  0.00000000000E+00  0.30303061511E+03  0.24195689408E+04  0.24005179244E+04 0.  0.
        1    1    3    3  502    0  0.11035622789E+04  0.25200964428E+03  0.55376017417E+03  0.12601622494E+04  0.50400001928E-02 0.  1.
       -1    1    3    3    0  502 -0.11035622789E+04 -0.25200964428E+03 -0.25072955907E+03  0.11594066914E+04  0.50400001928E-02 0. -1.
</event>
<event>
 5   0  0.5363690E-07  0.2400267E+04  0.7818609E-02  0.8439404E-01
        1   -1    0    0  501    0  0.00000000000E+00  0.00000000000E+00  0.12745187337E+04  0.12745187337E+04  0.50400001928E-02 0.  1.
       -1   -1    0    0    0  501  0.00000000000E+00  0.00000000000E+00 -0.11300895428E+04  0.11300895429E+04  0.50400001928E-02 0. -1.
    10030    2    1    2    0    0  0.00000000000E+00  0.00000000000E+00  0.14442919090E+03  0.24046082766E+04  0.24002668961E+04 0.  0.
        4    1    3    3  502    0  0.16046545761E+03  0.11845441992E+04  0.17929364127E+03  0.12087356806E+04  0.12699999809E+01 0.  1.
       -4    1    3    3    0  502 -0.16046545761E+03 -0.11845441992E+04 -0.34864450378E+02  0.11958725960E+04  0.12699999809E+01 0. -1.
</event>
<event>
 5   0  0.5510176E-07  0.2398853E+04  0.7818609E-02  0.8439933E-01
       -1   -1    0    0    0  501  0.00000000000E+00  0.00000000000E+00  0.96611293901E+03  0.96611293902E+03  0.50400001928E-02 0. -1.
        1   -1    0    0  501    0  0.00000000000E+00  0.00000000000E+00 -0.14890842583E+04  0.14890842583E+04  0.50400001928E-02 0.  1.
    10030    2    1    2    0    0  0.00000000000E+00  0.00000000000E+00 -0.52297131927E+03  0.24551971973E+04  0.23988527001E+04 0.  0.
        3    1    3    3  502    0  0.92937970569E+02 -0.77993443637E+03 -0.11892472056E+04  0.14252172177E+04  0.10100000352E+00 0. -1.
       -3    1    3    3    0  502 -0.92937970569E+02  0.77993443637E+03  0.66627588635E+03  0.10299799796E+04  0.10100000352E+00 0.  1.
</event>
<event>
 5   0  0.1275948E-06  0.2399764E+04  0.7818609E-02  0.8439592E-01
        2   -1    0    0  501    0  0.00000000000E+00  0.00000000000E+00  0.10249112564E+04  0.10249112564E+04  0.25500000920E-02 0.  1.
       -2   -1    0    0    0  501  0.00000000000E+00  0.00000000000E+00 -0.14047233988E+04  0.14047233988E+04  0.25500000920E-02 0. -1.
    10030    2    1    2    0    0  0.00000000000E+00  0.00000000000E+00 -0.37981214236E+03  0.24296346552E+04  0.23997640080E+04 0.  0.
        1    1    3    3  502    0  0.78953837647E+03 -0.65569886868E+03  0.43944617927E+03  0.11164339653E+04  0.50400001928E-02 0.  1.
       -1    1    3    3    0  502 -0.78953837647E+03  0.65569886868E+03 -0.81925832163E+03  0.13132006899E+04  0.50400001928E-02 0. -1.
</event>
<event>
 5   0  0.5452384E-07  0.2400470E+04  0.7818609E-02  0.8439328E-01
       -1   -1    0    0    0  501  0.00000000000E+00  0.00000000000E+00  0.10617203436E+04  0.10617203436E+04  0.50400001928E-02 0.  1.
        1   -1    0    0  501    0  0.00000000000E+00  0.00000000000E+00 -0.13568201535E+04  0.13568201535E+04  0.50400001928E-02 0. -1.
    10030    2    1    2    0    0  0.00000000000E+00  0.00000000000E+00 -0.29509980994E+03  0.24185404972E+04  0.24004695871E+04 0.  0.
        5    1    3    3  502    0  0.54596583363E+02  0.75891708440E+03 -0.10827647622E+04  0.13233811047E+04  0.46999998093E+01 0. -1.
       -5    1    3    3    0  502 -0.54596583363E+02 -0.75891708440E+03  0.78766495227E+03  0.10951593925E+04  0.46999998093E+01 0.  1.
</event>
<event>
 5   0  0.1336057E-06  0.2399670E+04  0.7818609E-02  0.8439627E-01
       -2   -1    0    0    0  501  0.00000000000E+00  0.00000000000E+00  0.54460310959E+03  0.54460310959E+03  0.25500000920E-02 0.  1.
        2   -1    0    0  501    0  0.00000000000E+00  0.00000000000E+00 -0.26434003775E+04  0.26434003775E+04  0.25500000920E-02 0. -1.
    10030    2    1    2    0    0  0.00000000000E+00  0.00000000000E+00 -0.20987972679E+04  0.31880034871E+04  0.23996700319E+04 0.  0.
        2    1    3    3  502    0 -0.94297951855E+03 -0.42458606632E+03 -0.24116159115E+03  0.10619051809E+04  0.25500000920E-02 0.  1.
       -2    1    3    3    0  502  0.94297951855E+03  0.42458606632E+03 -0.18576356768E+04  0.21260983062E+04  0.25500000920E-02 0. -1.
</event>
<event>
 5   0  0.5363690E-07  0.2399955E+04  0.7818609E-02  0.8439520E-01
       -1   -1    0    0    0  501  0.00000000000E+00  0.00000000000E+00  0.88542331517E+03  0.88542331518E+03  0.50400001928E-02 0. -1.
        1   -1    0    0  501    0  0.00000000000E+00  0.00000000000E+00 -0.16262799897E+04  0.16262799898E+04  0.50400001928E-02 0.  1.
    10030    2    1    2    0    0  0.00000000000E+00  0.00000000000E+00 -0.74085667458E+03  0.25117033049E+04  0.23999551829E+04 0.  0.
        4    1    3    3  502    0 -0.76151189319E+03  0.53073122682E+03 -0.11663449359E+04  0.14906166915E+04  0.12699999809E+01 0.  1.
       -4    1    3    3    0  502  0.76151189319E+03 -0.53073122682E+03  0.42548826137E+03  0.10210866134E+04  0.12699999809E+01 0. -1.
</event>
<event>
 5   0  0.1308662E-06  0.2400180E+04  0.7818609E-02  0.8439436E-01
        2   -1    0    0  501    0  0.00000000000E+00  0.00000000000E+00  0.16917578886E+04  0.16917578886E+04  0.25500000920E-02 0. -1.
       -2   -1    0    0    0  501  0.00000000000E+00  0.00000000000E+00 -0.85131366091E+03  0.85131366092E+03  0.25500000920E-02 0.  1.
    10030    2    1    2    0    0  0.00000000000E+00  0.00000000000E+00  0.84044422772E+03  0.25430715496E+04  0.24001804945E+04 0.  0.
        3    1    3    3  502    0  0.28050635054E+03 -0.36705116718E+03  0.15937749888E+04  0.16593761168E+04  0.10100000352E+00 0. -1.
       -3    1    3    3    0  502 -0.28050635054E+03  0.36705116718E+03 -0.75333076108E+03  0.88369543272E+03  0.10100000352E+00 0.  1.
</event>
<event>
 5   0  0.5527286E-07  0.2399618E+04  0.7818609E-02  0.8439647E-01
       -1   -1    0    0    0  501  0.00000000000E+00  0.00000000000E+00  0.69341127909E+03  0.69341127911E+03  0.50400001928E-02 0. -1.
        1   -1    0    0  501    0  0.00000000000E+00  0.00000000000E+00 -0.20760285634E+04  0.20760285634E+04  0.50400001928E-02 0.  1.
    10030    2    1    2    0    0  0.00000000000E+00  0.00000000000E+00 -0.13826172843E+04  0.27694398425E+04  0.23996179876E+04 0.  0.
        1    1    3    3  502    0  0.10784392792E+04  0.50188386540E+03 -0.51020813040E+03  0.12943071620E+04  0.50400001928E-02 0.  1.
       -1    1    3    3    0  502 -0.10784392792E+04 -0.50188386540E+03 -0.87240915390E+03  0.14751326805E+04  0.50400001928E-02 0. -1.
</event>
<event>
 5   0  0.1308662E-06  0.2404917E+04  0.7818609E-02  0.8437665E-01
        2   -1    0    0  501    0  0.00000000000E+00  0.00000000000E+00  0.27253870874E+04  0.27253870874E+04  0.25500000920E-02 0. -1.
       -2   -1    0    0    0  501  0.00000000000E+00  0.00000000000E+00 -0.53053235910E+03  0.53053235911E+03  0.25500000920E-02 0.  1.
    10030    2    1    2    0    0  0.00000000000E+00  0.00000000000E+00  0.21948547283E+04  0.32559194465E+04  0.24049166646E+04 0.  0.
        3    1    3    3  502    0  0.19556446006E+03  0.10583857975E+04  0.37152619526E+03  0.11386209546E+04  0.10100000352E+00 0.  1.
       -3    1    3    3    0  502 -0.19556446006E+03 -0.10583857975E+04  0.18233285331E+04  0.21172984919E+04  0.10100000352E+00 0. -1.
</event>
<event>
 5   0  0.5510176E-07  0.2392643E+04  0.7818609E-02  0.8442263E-01
       -1   -1    0    0    0  501  0.00000000000E+00  0.00000000000E+00  0.83126737517E+03  0.83126737519E+03  0.50400001928E-02 0. -1.
        1   -1    0    0  501    0  0.00000000000E+00  0.00000000000E+00 -0.17216905464E+04  0.17216905464E+04  0.50400001928E-02 0.  1.
    10030    2    1    2    0    0  0.00000000000E+00  0.00000000000E+00 -0.89042317122E+03  0.25529579216E+04  0.23926430418E+04 0.  0.
        3    1    3    3  502    0  0.34749148754E+03  0.97654052365E+03 -0.10825649224E+04  0.14987756836E+04  0.10100000352E+00 0.  1.
       -3    1    3    3    0  502 -0.34749148754E+03 -0.97654052365E+03  0.19214175116E+03  0.10541822380E+04  0.10100000352E+00 0. -1.
</event>
<event>
 5   0  0.5452384E-07  0.2402306E+04  0.7818609E-02  0.8438641E-01
        1   -1    0    0  501    0  0.00000000000E+00  0.00000000000E+00  0.16134900968E+04  0.16134900968E+04  0.50400001928E-02 0.  1.
       -1   -1    0    0    0  501  0.00000000000E+00  0.00000000000E+00 -0.89419112123E+03  0.89419112124E+03  0.50400001928E-02 0. -1.
    10030    2    1    2    0    0  0.00000000000E+00  0.00000000000E+00  0.71929897554E+03  0.25076812180E+04  0.24023059911E+04 0.  0.
        5    1    3    3  502    0 -0.20321656595E+03 -0.44108960438E+03  0.15064232353E+04  0.15827792221E+04  0.46999998093E+01 0.  1.
       -5    1    3    3    0  502  0.20321656595E+03  0.44108960438E+03 -0.78712425981E+03  0.92490199597E+03  0.46999998093E+01 0. -1.
</event>
<event>
 5   0  0.5510176E-07  0.2401222E+04  0.7818609E-02  0.8439046E-01
       -1   -1    0    0    0  501  0.00000000000E+00  0.00000000000E+00  0.69813760980E+03  0.69813760982E+03  0.50400001928E-02 0. -1.
        1   -1    0    0  501    0  0.00000000000E+00  0.00000000000E+00 -0.20647321731E+04  0.20647321731E+04  0.50400001928E-02 0.  1.
    10030    2    1    2    0    0  0.00000000000E+00  0.00000000000E+00 -0.13665945633E+04  0.27628697829E+04  0.24012223422E+04 0.  0.
        3    1    3    3  502    0  0.12425523359E+03  0.11697879168E+04 -0.95950123790E+03  0.15180532827E+04  0.10100000352E+00 0. -1.
       -3    1    3    3    0  502 -0.12425523359E+03 -0.11697879168E+04 -0.40709332536E+03  0.12448165002E+04  0.10100000352E+00 0.  1.
</event>
<event>
 5   0  0.1307477E-06  0.2398576E+04  0.7818609E-02  0.8440037E-01
       -2   -1    0    0    0  501  0.00000000000E+00  0.00000000000E+00  0.62730447975E+03  0.62730447976E+03  0.25500000920E-02 0. -1.
        2   -1    0    0  501    0  0.00000000000E+00  0.00000000000E+00 -0.22928134790E+04  0.22928134790E+04  0.25500000920E-02 0.  1.
    10030    2    1    2    0    0  0.00000000000E+00  0.00000000000E+00 -0.16655089992E+04  0.29201179588E+04  0.23985763833E+04 0.  0.
        5    1    3    3  502    0 -0.76930841783E+02 -0.50955171329E+03  0.48562951676E+03  0.70810975172E+03  0.46999998093E+01 0. -1.
       -5    1    3    3    0  502  0.76930841783E+02  0.50955171329E+03 -0.21511385160E+04  0.22120082070E+04  0.46999998093E+01 0.  1.
</event>
<event>
 5   0  0.1275948E-06  0.2400529E+04  0.7818609E-02  0.8439305E-01
        2   -1    0    0  501    0  0.00000000000E+00  0.00000000000E+00  0.54083000776E+03  0.54083000776E+03  0.25500000920E-02 0. -1.
       -2   -1    0    0    0  501  0.00000000000E+00  0.00000000000E+00 -0.26637486042E+04  0.26637486042E+04  0.25500000920E-02 0.  1.
    10030    2    1    2    0    0  0.00000000000E+00  0.00000000000E+00 -0.21229185965E+04  0.32045786120E+04  0.24005292569E+04 0.  0.
        1    1    3    3  502    0 -0.27340681684E+03  0.42761886969E+03 -0.25134407544E+04  0.25641750352E+04  0.50400001928E-02 0.  1.
       -1    1    3    3    0  502  0.27340681684E+03 -0.42761886969E+03  0.39052215798E+03  0.64040357674E+03  0.50400001928E-02 0. -1.
</event>
<event>
 5   0  0.1275948E-06  0.2401726E+04  0.7818609E-02  0.8438858E-01
        2   -1    0    0  501    0  0.00000000000E+00  0.00000000000E+00  0.17385958204E+04  0.17385958204E+04  0.25500000920E-02 0. -1.
       -2   -1    0    0    0  501  0.00000000000E+00  0.00000000000E+00 -0.82944618505E+03  0.82944618506E+03  0.25500000920E-02 0.  1.
    10030    2    1    2    0    0  0.00000000000E+00  0.00000000000E+00  0.90914963538E+03  0.25680420055E+04  0.24017257717E+04 0.  0.
        1    1    3    3  502    0 -0.19286060854E+03 -0.96354673176E+03  0.11926307288E+04  0.15453108341E+04  0.50400001928E-02 0. -1.
       -1    1    3    3    0  502  0.19286060854E+03  0.96354673176E+03 -0.28348109344E+03  0.10227311714E+04  0.50400001928E-02 0.  1.
</event>
<event>
 5   0  0.5690124E-07  0.2400703E+04  0.7818609E-02  0.8439240E-01
       -1   -1    0    0    0  501  0.00000000000E+00  0.00000000000E+00  0.10287589211E+04  0.10287589211E+04  0.50400001928E-02 0. -1.
        1   -1    0    0  501    0  0.00000000000E+00  0.00000000000E+00 -0.14005650527E+04  0.14005650527E+04  0.50400001928E-02 0.  1.
    10030    2    1    2    0    0  0.00000000000E+00  0.00000000000E+00 -0.37180613164E+03  0.24293239738E+04  0.24007030575E+04 0.  0.
        2    1    3    3  502    0 -0.35002041028E+03 -0.95323471974E+02 -0.13437658920E+04  0.13918719857E+04  0.25500000920E-02 0.  1.
       -2    1    3    3    0  502  0.35002041028E+03  0.95323471974E+02  0.97195976038E+03  0.10374519882E+04  0.25500000920E-02 0. -1.
</event>
<event>
 5   0  0.4483375E-07  0.2401952E+04  0.7818609E-02  0.8438773E-01
       -4   -1    0    0    0  501  0.00000000000E+00  0.00000000000E+00  0.11883728787E+04  0.11883735573E+04  0.12699999809E+01 0.  1.
        4   -1    0    0  501    0  0.00000000000E+00  0.00000000000E+00 -0.12137112776E+04  0.12137119421E+04  0.12699999809E+01 0. -1.
    10030    2    1    2    0    0  0.00000000000E+00  0.00000000000E+00 -0.25338398965E+02  0.24020854994E+04  0.24019518546E+04 0.  0.
        5    1    3    3  502    0  0.35606051559E+03  0.51194594026E+03  0.10137666646E+04  0.11902153909E+04  0.46999998093E+01 0.  1.
       -5    1    3    3    0  502 -0.35606051559E+03 -0.51194594026E+03 -0.10391050636E+04  0.12118701084E+04  0.46999998093E+01 0. -1.
</event>
<event>
 5   0  0.1336057E-06  0.2399748E+04  0.7818609E-02  0.8439598E-01
        2   -1    0    0  501    0  0.00000000000E+00  0.00000000000E+00  0.11198285797E+04  0.11198285797E+04  0.25500000920E-02 0. -1.
       -2   -1    0    0    0  501  0.00000000000E+00  0.00000000000E+00 -0.12856409993E+04  0.12856409993E+04  0.25500000920E-02 0.  1.
    10030    2    1    2    0    0  0.00000000000E+00  0.00000000000E+00 -0.16581241957E+03  0.24054695791E+04  0.23997479320E+04 0.  0.
        2    1    3    3  502    0 -0.23398432372E+03  0.81089297317E+03 -0.93781803839E+03  0.12616650708E+04  0.25500000920E-02 0.  1.
       -2    1    3    3    0  502  0.23398432372E+03 -0.81089297317E+03  0.77200561882E+03  0.11438045083E+04  0.25500000920E-02 0. -1.
</event>
<event>
 5   0  0.5452384E-07  0.2399393E+04  0.7818609E-02  0.8439731E-01
       -1   -1    0    0    0  501  0.00000000000E+00  0.00000000000E+00  0.61735587788E+03  0.61735587791E+03  0.50400001928E-02 0.  1.
        1   -1    0    0  501    0  0.00000000000E+00  0.00000000000E+00 -0.23313494244E+04  0.23313494244E+04  0.50400001928E-02 0. -1.
    10030    2    1    2    0    0  0.00000000000E+00  0.00000000000E+00 -0.17139935465E+04  0.29487053023E+04  0.23993934822E+04 0.  0.
        5    1    3    3  502    0 -0.70212447015E+03 -0.32800135770E+03 -0.19824558988E+04  0.21285481303E+04  0.46999998093E+01 0. -1.
       -5    1    3    3    0  502  0.70212447015E+03  0.32800135770E+03  0.26846235229E+03  0.82015717203E+03  0.46999998093E+01 0.  1.
</event>
<event>
 5   0  0.5363690E-07  0.2399661E+04  0.7818609E-02  0.8439631E-01
       -1   -1    0    0    0  501  0.00000000000E+00  0.00000000000E+00  0.66172833398E+03  0.66172833400E+03  0.50400001928E-02 0.  1.
        1   -1    0    0  501    0  0.00000000000E+00  0.00000000000E+00 -0.21755043739E+04  0.21755043739E+04  0.50400001928E-02 0. -1.
    10030    2    1    2    0    0  0.00000000000E+00  0.00000000000E+00 -0.15137760400E+04  0.28372327079E+04  0.23996607135E+04 0.  0.
        4    1    3    3  502    0 -0.77698106934E+03  0.57121621884E+03 -0.16009248772E+04  0.18689434518E+04  0.12699999809E+01 0. -1.
       -4    1    3    3    0  502  0.77698106934E+03 -0.57121621884E+03  0.87148837249E+02  0.96828925612E+03  0.12699999809E+01 0.  1.
</event>
<event>
 5   0  0.5510176E-07  0.2401153E+04  0.7818609E-02  0.8439072E-01
        1   -1    0    0  501    0  0.00000000000E+00  0.00000000000E+00  0.18821367362E+04  0.18821367362E+04  0.50400001928E-02 0.  1.
       -1   -1    0    0    0  501  0.00000000000E+00  0.00000000000E+00 -0.76582320349E+03  0.76582320351E+03  0.50400001928E-02 0. -1.
    10030    2    1    2    0    0  0.00000000000E+00  0.00000000000E+00  0.11163135327E+04  0.26479599397E+04  0.24011530436E+04 0.  0.
        3    1    3    3  502    0 -0.10638476264E+03  0.23845096139E+03 -0.73413219782E+03  0.77918333708E+03  0.10100000352E+00 0. -1.
       -3    1    3    3    0  502  0.10638476264E+03 -0.23845096139E+03  0.18504457305E+04  0.18687766026E+04  0.10100000352E+00 0.  1.
</event>
<event>
 5   0  0.5452384E-07  0.2400837E+04  0.7818609E-02  0.8439190E-01
        1   -1    0    0  501    0  0.00000000000E+00  0.00000000000E+00  0.29900177482E+04  0.29900177482E+04  0.50400001928E-02 0.  1.
       -1   -1    0    0    0  501  0.00000000000E+00  0.00000000000E+00 -0.48193854339E+03  0.48193854342E+03  0.50400001928E-02 0. -1.
    10030    2    1    2    0    0  0.00000000000E+00  0.00000000000E+00  0.25080792048E+04  0.34719562916E+04  0.24008371859E+04 0.  0.
        5    1    3    3  502    0 -0.16469221152E+03  0.41681167090E+03 -0.35640080630E+03  0.57262476218E+03  0.46999998093E+01 0. -1.
       -5    1    3    3    0  502  0.16469221152E+03 -0.41681167090E+03  0.28644800111E+04  0.28993315294E+04  0.46999998093E+01 0.  1.
</event>
<event>
 5   0  0.1336057E-06  0.2400507E+04  0.7818609E-02  0.8439314E-01
       -2   -1    0    0    0  501  0.00000000000E+00  0.00000000000E+00  0.17689793225E+04  0.17689793225E+04  0.25500000920E-02 0.  1.
        2   -1    0    0  501    0  0.00000000000E+00  0.00000000000E+00 -0.81437297554E+03  0.81437297555E+03  0.25500000920E-02 0. -1.
    10030    2    1    2    0    0  0.00000000000E+00  0.00000000000E+00  0.95460634700E+03  0.25833522981E+04  0.24005074085E+04 0.  0.
        2    1    3    3  502    0  0.73680179831E+03  0.22529914479E+02  0.14966715103E+04  0.16683555067E+04  0.25500000920E-02 0.  1.
       -2    1    3    3    0  502 -0.73680179831E+03 -0.22529914479E+02 -0.54206516328E+03  0.91499679140E+03  0.25500000920E-02 0. -1.
</event>
<event>
 5   0  0.1336057E-06  0.2399910E+04  0.7818609E-02  0.8439537E-01
       -2   -1    0    0    0  501  0.00000000000E+00  0.00000000000E+00  0.14762677390E+04  0.14762677390E+04  0.25500000920E-02 0.  1.
        2   -1    0    0  501    0  0.00000000000E+00  0.00000000000E+00 -0.97535968970E+03  0.97535968971E+03  0.25500000920E-02 0. -1.
    10030    2    1    2    0    0  0.00000000000E+00  0.00000000000E+00  0.50090804928E+03  0.24516274287E+04  0.23999100348E+04 0.  0.
        2    1    3    3  502    0  0.78897713213E+03  0.52228428342E+03  0.10043454386E+04  0.13798462044E+04  0.25500000920E-02 0. -1.
       -2    1    3    3    0  502 -0.78897713213E+03 -0.52228428342E+03 -0.50343738935E+03  0.10717812243E+04  0.25500000920E-02 0.  1.
</event>
<event>
 5   0  0.5363690E-07  0.2399067E+04  0.7818609E-02  0.8439853E-01
       -1   -1    0    0    0  501  0.00000000000E+00  0.00000000000E+00  0.80274120490E+03  0.80274120491E+03  0.50400001928E-02 0. -1.
        1   -1    0    0  501    0  0.00000000000E+00  0.00000000000E+00 -0.17924596413E+04  0.17924596413E+04  0.50400001928E-02 0.  1.
    10030    2    1    2    0    0  0.00000000000E+00  0.00000000000E+00 -0.98971843639E+03  0.25952008462E+04  0.23990674957E+04 0.  0.
        4    1    3    3  502    0 -0.44640217200E+03  0.53368853948E+03  0.56215406931E+03  0.89449268688E+03  0.12699999809E+01 0. -1.
       -4    1    3    3    0  502  0.44640217200E+03 -0.53368853948E+03 -0.15518725057E+04  0.17007081593E+04  0.12699999809E+01 0.  1.
</event>
<event>
 5   0  0.5527286E-07  0.2399421E+04  0.7818609E-02  0.8439721E-01
        1   -1    0    0  501    0  0.00000000000E+00  0.00000000000E+00  0.15300315648E+04  0.15300315648E+04  0.50400001928E-02 0. -1.
       -1   -1    0    0    0  501  0.00000000000E+00  0.00000000000E+00 -0.94070266898E+03  0.94070266899E+03  0.50400001928E-02 0.  1.
    10030    2    1    2    0    0  0.00000000000E+00  0.00000000000E+00  0.58932889579E+03  0.24707342338E+04  0.23994205772E+04 0.  0.
        1    1    3    3  502    0 -0.61885556778E+03 -0.33612302724E+03 -0.70546144314E+03  0.99681329796E+03  0.50400001928E-02 0.  1.
       -1    1    3    3    0  502  0.61885556778E+03  0.33612302724E+03  0.12947903389E+04  0.14739209358E+04  0.50400001928E-02 0. -1.
</event>
<event>
 5   0  0.5527286E-07  0.2401678E+04  0.7818609E-02  0.8438876E-01
        1   -1    0    0  501    0  0.00000000000E+00  0.00000000000E+00  0.11585066140E+04  0.11585066140E+04  0.50400001928E-02 0.  1.
       -1   -1    0    0    0  501  0.00000000000E+00  0.00000000000E+00 -0.12447179040E+04  0.12447179040E+04  0.50400001928E-02 0. -1.
    10030    2    1    2    0    0  0.00000000000E+00  0.00000000000E+00 -0.86211289934E+02  0.24032245180E+04  0.24016776839E+04 0.  0.
        1    1    3    3  502    0  0.59766535054E+03 -0.52298675474E+02 -0.10840039116E+04  0.12389525830E+04  0.50400001928E-02 0. -1.
       -1    1    3    3    0  502 -0.59766535054E+03  0.52298675474E+02  0.99779262164E+03  0.11642719350E+04  0.50400001928E-02 0.  1.
</event>
<event>
 5   0  0.5452384E-07  0.2397675E+04  0.7818609E-02  0.8440374E-01
       -1   -1    0    0    0  501  0.00000000000E+00  0.00000000000E+00  0.78996642347E+03  0.78996642348E+03  0.50400001928E-02 0. -1.
        1   -1    0    0  501    0  0.00000000000E+00  0.00000000000E+00 -0.18193329435E+04  0.18193329435E+04  0.50400001928E-02 0.  1.
    10030    2    1    2    0    0  0.00000000000E+00  0.00000000000E+00 -0.10293665200E+04  0.26092993670E+04  0.23976754897E+04 0.  0.
        5    1    3    3  502    0  0.48716595683E+03 -0.11158795291E+03 -0.17005431062E+04  0.17724704474E+04  0.46999998093E+01 0.  1.
       -5    1    3    3    0  502 -0.48716595683E+03  0.11158795291E+03  0.67117658623E+03  0.83682891957E+03  0.46999998093E+01 0. -1.
</event>
<event>
 5   0  0.1275948E-06  0.2399197E+04  0.7818609E-02  0.8439804E-01
        2   -1    0    0  501    0  0.00000000000E+00  0.00000000000E+00  0.14682842714E+04  0.14682842714E+04  0.25500000920E-02 0.  1.
       -2   -1    0    0    0  501  0.00000000000E+00  0.00000000000E+00 -0.98008011915E+03  0.98008011915E+03  0.25500000920E-02 0. -1.
    10030    2    1    2    0    0  0.00000000000E+00  0.00000000000E+00  0.48820415229E+03  0.24483643906E+04  0.23991967187E+04 0.  0.
        1    1    3    3  502    0 -0.83932728351E+03  0.71617540126E+03 -0.23635281108E+03  0.11283794333E+04  0.50400001928E-02 0. -1.
       -1    1    3    3    0  502  0.83932728351E+03 -0.71617540126E+03  0.72455696337E+03  0.13199849573E+04  0.50400001928E-02 0.  1.
</event>
<event>
 5   0  0.1308662E-06  0.2399341E+04  0.7818609E-02  0.8439750E-01
       -2   -1    0    0    0  501  0.00000000000E+00  0.00000000000E+00  0.72638488370E+03  0.72638488370E+03  0.25500000920E-02 0.  1.
        2   -1    0    0  501    0  0.00000000000E+00  0.00000000000E+00 -0.19813309359E+04  0.19813309359E+04  0.25500000920E-02 0. -1.
    10030    2    1    2    0    0  0.00000000000E+00  0.00000000000E+00 -0.12549460522E+04  0.27077158196E+04  0.23993406106E+04 0.  0.
        3    1    3    3  502    0  0.37703747408E+03  0.11378406465E+04 -0.68241536264E+03  0.13793220548E+04  0.10100000352E+00 0.  1.
       -3    1    3    3    0  502 -0.37703747408E+03 -0.11378406465E+04 -0.57253068957E+03  0.13283937648E+04  0.10100000352E+00 0. -1.
</event>
<event>
 5   0  0.1275948E-06  0.2400851E+04  0.7818609E-02  0.8439185E-01
        2   -1    0    0  501    0  0.00000000000E+00  0.00000000000E+00  0.17928058297E+04  0.17928058297E+04  0.25500000920E-02 0. -1.
       -2   -1    0    0    0  501  0.00000000000E+00  0.00000000000E+00 -0.80378003375E+03  0.80378003376E+03  0.25500000920E-02 0.  1.
    10030    2    1    2    0    0  0.00000000000E+00  0.00000000000E+00  0.98902579599E+03  0.25965858635E+04  0.24008511244E+04 0.  0.
        1    1    3    3  502    0  0.44125342898E+03  0.10262785216E+04  0.19293553028E+02  0.11172844015E+04  0.50400001928E-02 0. -1.
       -1    1    3    3    0  502 -0.44125342898E+03 -0.10262785216E+04  0.96973224296E+03  0.14793014620E+04  0.50400001928E-02 0.  1.
</event>
<event>
 5   0  0.1308662E-06  0.2400294E+04  0.7818609E-02  0.8439393E-01
        2   -1    0    0  501    0  0.00000000000E+00  0.00000000000E+00  0.75275318226E+03  0.75275318226E+03  0.25500000920E-02 0.  1.
       -2   -1    0    0    0  501  0.00000000000E+00  0.00000000000E+00 -0.19134463650E+04  0.19134463650E+04  0.25500000920E-02 0. -1.
    10030    2    1    2    0    0  0.00000000000E+00  0.00000000000E+00 -0.11606931828E+04  0.26661995473E+04  0.24002940156E+04 0.  0.
        3    1    3    3  502    0  0.87437934265E+02  0.41071083510E+03 -0.18291839331E+04  0.18767638780E+04  0.10100000352E+00 0. -1.
       -3    1    3    3    0  502 -0.87437934265E+02 -0.41071083510E+03  0.66849075035E+03  0.78943566928E+03  0.10100000352E+00 0.  1.
</event>
<event>
 5   0  0.1307477E-06  0.2395193E+04  0.7818609E-02  0.8441306E-01
        2   -1    0    0  501    0  0.00000000000E+00  0.00000000000E+00  0.20839110868E+04  0.20839110868E+04  0.25500000920E-02 0.  1.
       -2   -1    0    0    0  501  0.00000000000E+00  0.00000000000E+00 -0.68824288594E+03  0.68824288594E+03  0.25500000920E-02 0. -1.
    10030    2    1    2    0    0  0.00000000000E+00  0.00000000000E+00  0.13956682009E+04  0.27721539727E+04  0.23951926690E+04 0.  0.
        5    1    3    3  502    0 -0.22076285860E+03 -0.98864007413E+03  0.14371736498E+04  0.17583047590E+04  0.46999998093E+01 0. -1.
       -5    1    3    3    0  502  0.22076285860E+03  0.98864007413E+03 -0.41505448922E+02  0.10138492137E+04  0.46999998093E+01 0.  1.
</event>
<event>
 5   0  0.4483375E-07  0.2396868E+04  0.7818609E-02  0.8440677E-01
       -4   -1    0    0    0  501  0.00000000000E+00  0.00000000000E+00  0.22363365212E+04  0.22363368818E+04  0.12699999809E+01 0. -1.
        4   -1    0    0  501    0  0.00000000000E+00  0.00000000000E+00 -0.64222974163E+03  0.64223099734E+03  0.12699999809E+01 0.  1.
    10030    2    1    2    0    0  0.00000000000E+00  0.00000000000E+00  0.15941067796E+04  0.28785678792E+04  0.23968680836E+04 0.  0.
        3    1    3    3  502    0 -0.56571120210E+03 -0.44278197692E+03  0.19490834332E+04  0.20772605236E+04  0.10100000352E+00 0. -1.
       -3    1    3    3    0  502  0.56571120210E+03  0.44278197692E+03 -0.35497665360E+03  0.80130735555E+03  0.10100000352E+00 0.  1.
</event>
<event>
 5   0  0.5510176E-07  0.2400511E+04  0.7818609E-02  0.8439312E-01
       -1   -1    0    0    0  501  0.00000000000E+00  0.00000000000E+00  0.69288609548E+03  0.69288609550E+03  0.50400001928E-02 0. -1.
        1   -1    0    0  501    0  0.00000000000E+00  0.00000000000E+00 -0.20791496234E+04  0.20791496234E+04  0.50400001928E-02 0.  1.
    10030    2    1    2    0    0  0.00000000000E+00  0.00000000000E+00 -0.13862635279E+04  0.27720357189E+04  0.24005114993E+04 0.  0.
        3    1    3    3  502    0  0.91769371736E+02  0.75712567480E+03 -0.17633681669E+04  0.19212309094E+04  0.10100000352E+00 0.  1.
       -3    1    3    3    0  502 -0.91769371736E+02 -0.75712567480E+03  0.37710463894E+03  0.85080480954E+03  0.10100000352E+00 0. -1.
</event>
<event>
 5   0  0.1275948E-06  0.2402329E+04  0.7818609E-02  0.8438632E-01
        2   -1    0    0  501    0  0.00000000000E+00  0.00000000000E+00  0.18812648196E+04  0.18812648196E+04  0.25500000920E-02 0.  1.
       -2   -1    0    0    0  501  0.00000000000E+00  0.00000000000E+00 -0.76692868563E+03  0.76692868563E+03  0.25500000920E-02 0. -1.
    10030    2    1    2    0    0  0.00000000000E+00  0.00000000000E+00  0.11143361340E+04  0.26481935052E+04  0.24023288330E+04 0.  0.
        1    1    3    3  502    0  0.94435623876E+03  0.37582117306E+03  0.12627938844E+04  0.16210177834E+04  0.50400001928E-02 0.  1.
       -1    1    3    3    0  502 -0.94435623876E+03 -0.37582117306E+03 -0.14845775039E+03  0.10271757218E+04  0.50400001928E-02 0. -1.
</event>
<event>
 5   0  0.5510176E-07  0.2400071E+04  0.7818609E-02  0.8439477E-01
       -1   -1    0    0    0  501  0.00000000000E+00  0.00000000000E+00  0.85174389635E+03  0.85174389637E+03  0.50400001928E-02 0. -1.
        1   -1    0    0  501    0  0.00000000000E+00  0.00000000000E+00 -0.16907496088E+04  0.16907496088E+04  0.50400001928E-02 0.  1.
    10030    2    1    2    0    0  0.00000000000E+00  0.00000000000E+00 -0.83900571244E+03  0.25424935052E+04  0.24000713819E+04 0.  0.
        3    1    3    3  502    0 -0.39908263110E+03 -0.45476216083E+03  0.67833922182E+03  0.90896626968E+03  0.10100000352E+00 0. -1.
       -3    1    3    3    0  502  0.39908263110E+03  0.45476216083E+03 -0.15173449343E+04  0.16335272355E+04  0.10100000352E+00 0.  1.
</event>
<event>
 5   0  0.5690124E-07  0.2399811E+04  0.7818609E-02  0.8439574E-01
       -1   -1    0    0    0  501  0.00000000000E+00  0.00000000000E+00  0.14237694712E+04  0.14237694712E+04  0.50400001928E-02 0.  1.
        1   -1    0    0  501    0  0.00000000000E+00  0.00000000000E+00 -0.10112401562E+04  0.10112401562E+04  0.50400001928E-02 0. -1.
    10030    2    1    2    0    0  0.00000000000E+00  0.00000000000E+00  0.41252931507E+03  0.24350096274E+04  0.23998107113E+04 0.  0.
        2    1    3    3  502    0 -0.28591622751E+03  0.67313734122E+03  0.11714853046E+04  0.13810285255E+04  0.25500000920E-02 0.  1.
       -2    1    3    3    0  502  0.28591622751E+03 -0.67313734122E+03 -0.75895598950E+03  0.10539811020E+04  0.25500000920E-02 0. -1.
</event>
<event>
 5   0  0.5363690E-07  0.2400502E+04  0.7818609E-02  0.8439316E-01
        1   -1    0    0  501    0  0.00000000000E+00  0.00000000000E+00  0.13875793070E+04  0.13875793070E+04  0.50400001928E-02 0. -1.
       -1   -1    0    0    0  501  0.00000000000E+00  0.00000000000E+00 -0.10382128290E+04  0.10382128290E+04  0.50400001928E-02 0.  1.
    10030    2    1    2    0    0  0.00000000000E+00  0.00000000000E+00  0.34936647794E+03  0.24257921360E+04  0.24005021456E+04 0.  0.
        4    1    3    3  502    0 -0.73472668316E+03  0.87804011604E+03  0.53878918814E+03  0.12653351914E+04  0.12699999809E+01 0. -1.
       -4    1    3    3    0  502  0.73472668316E+03 -0.87804011604E+03 -0.18942271020E+03  0.11604569446E+04  0.12699999809E+01 0.  1.
</event>
<event>
 5   0  0.1291468E-06  0.2399153E+04  0.7818609E-02  0.8439821E-01
       -2   -1    0    0    0  501  0.00000000000E+00  0.00000000000E+00  0.54072241100E+03  0.54072241101E+03  0.25500000920E-02 0.  1.
        2   -1    0    0  501    0  0.00000000000E+00  0.00000000000E+00 -0.26612238880E+04  0.26612238880E+04  0.25500000920E-02 0. -1.
    10030    2    1    2    0    0  0.00000000000E+00  0.00000000000E+00 -0.21205014770E+04  0.32019462990E+04  0.23991526812E+04 0.  0.
        4    1    3    3  502    0 -0.57918122603E+03 -0.56798994006E+03 -0.22396448694E+04  0.23820315318E+04  0.12699999809E+01 0. -1.
       -4    1    3    3    0  502  0.57918122603E+03  0.56798994006E+03  0.11914339242E+03  0.81991476719E+03  0.12699999809E+01 0.  1.
</event>
<event>
 5   0  0.5452384E-07  0.2399561E+04  0.7818609E-02  0.8439668E-01
        1   -1    0    0  501    0  0.00000000000E+00  0.00000000000E+00  0.12804326884E+04  0.12804326884E+04  0.50400001928E-02 0. -1.
       -1   -1    0    0    0  501  0.00000000000E+00  0.00000000000E+00 -0.11242087201E+04  0.11242087201E+04  0.50400001928E-02 0.  1.
    10030    2    1    2    0    0  0.00000000000E+00  0.00000000000E+00  0.15622396825E+03  0.24046414085E+04  0.23995612881E+04 0.  0.
        5    1    3    3  502    0 -0.72288167471E+03 -0.75241810418E+03  0.67161628068E+03  0.12408793002E+04  0.46999998093E+01 0. -1.
       -5    1    3    3    0  502  0.72288167471E+03  0.75241810418E+03 -0.51539231243E+03  0.11637621084E+04  0.46999998093E+01 0.  1.
</event>
<event>
 5   0  0.5452384E-07  0.2399516E+04  0.7818609E-02  0.8439685E-01
       -1   -1    0    0    0  501  0.00000000000E+00  0.00000000000E+00  0.57663161065E+03  0.57663161068E+03  0.50400001928E-02 0. -1.
        1   -1    0    0  501    0  0.00000000000E+00  0.00000000000E+00 -0.24962539622E+04  0.24962539622E+04  0.50400001928E-02 0.  1.
    10030    2    1    2    0    0  0.00000000000E+00  0.00000000000E+00 -0.19196223515E+04  0.30728855729E+04  0.23995157369E+04 0.  0.
        5    1    3    3  502    0  0.29972857551E+03  0.84936340666E+03  0.55154856169E+02  0.90239656677E+03  0.46999998093E+01 0. -1.
       -5    1    3    3    0  502 -0.29972857551E+03 -0.84936340666E+03 -0.19747772077E+04  0.21704890061E+04  0.46999998093E+01 0.  1.
</event>
<event>
 5   0  0.5452384E-07  0.2398732E+04  0.7818609E-02  0.8439978E-01
        1   -1    0    0  501    0  0.00000000000E+00  0.00000000000E+00  0.22911605987E+04  0.22911605987E+04  0.50400001928E-02 0. -1.
       -1   -1    0    0    0  501  0.00000000000E+00  0.00000000000E+00 -0.62783841178E+03  0.62783841180E+03  0.50400001928E-02 0.  1.
    10030    2    1    2    0    0  0.00000000000E+00  0.00000000000E+00  0.16633221869E+04  0.29189990105E+04  0.23987318578E+04 0.  0.
        5    1    3    3  502    0  0.32503757510E+03  0.95992623049E+03  0.16121331072E+04  0.19042329266E+04  0.46999998093E+01 0. -1.
       -5    1    3    3    0  502 -0.32503757510E+03 -0.95992623049E+03  0.51189079671E+02  0.10147660839E+04  0.46999998093E+01 0.  1.
</event>
<event>
 5   0  0.1307477E-06  0.2399697E+04  0.7818609E-02  0.8439617E-01
        2   -1    0    0  501    0  0.00000000000E+00  0.00000000000E+00  0.13472244567E+04  0.13472244567E+04  0.25500000920E-02 0.  1.
       -2   -1    0    0    0  501  0.00000000000E+00  0.00000000000E+00 -0.10685942814E+04  0.10685942814E+04  0.25500000920E-02 0. -1.
    10030    2    1    2    0    0  0.00000000000E+00  0.00000000000E+00  0.27863017530E+03  0.24158187381E+04  0.23996969394E+04 0.  0.
        5    1    3    3  502    0 -0.43220345076E+03 -0.36113856519E+03 -0.92723313186E+03  0.10848982703E+04  0.46999998093E+01 0. -1.
       -5    1    3    3    0  502  0.43220345076E+03  0.36113856519E+03  0.12058633072E+04  0.13309204678E+04  0.46999998093E+01 0.  1.
</event>
<event>
 5   0  0.1275948E-06  0.2399774E+04  0.7818609E-02  0.8439588E-01
       -2   -1    0    0    0  501  0.00000000000E+00  0.00000000000E+00  0.11413851656E+04  0.11413851656E+04  0.25500000920E-02 0.  1.
        2   -1    0    0  501    0  0.00000000000E+00  0.00000000000E+00 -0.12613875968E+04  0.12613875968E+04  0.25500000920E-02 0. -1.
    10030    2    1    2    0    0  0.00000000000E+00  0.00000000000E+00 -0.12000243126E+03  0.24027727624E+04  0.23997742319E+04 0.  0.
        1    1    3    3  502    0  0.84642307517E+03  0.34196419013E+03 -0.83966383631E+03  0.12403253152E+04  0.50400001928E-02 0. -1.
       -1    1    3    3    0  502 -0.84642307517E+03 -0.34196419013E+03  0.71966140504E+03  0.11624474472E+04  0.50400001928E-02 0.  1.
</event>
<event>
 5   0  0.5690124E-07  0.2399692E+04  0.7818609E-02  0.8439619E-01
        1   -1    0    0  501    0  0.00000000000E+00  0.00000000000E+00  0.12403538941E+04  0.12403538941E+04  0.50400001928E-02 0. -1.
       -1   -1    0    0    0  501  0.00000000000E+00  0.00000000000E+00 -0.11606606097E+04  0.11606606097E+04  0.50400001928E-02 0.  1.
    10030    2    1    2    0    0  0.00000000000E+00  0.00000000000E+00  0.79693284343E+02  0.24010145038E+04  0.23996915693E+04 0.  0.
        2    1    3    3  502    0  0.77842945937E+03 -0.17974113780E+03 -0.85583992777E+03  0.11707780668E+04  0.25500000920E-02 0.  1.
       -2    1    3    3    0  502 -0.77842945937E+03  0.17974113780E+03  0.93553321211E+03  0.12302364369E+04  0.25500000920E-02 0. -1.
</event>
<event>
 5   0  0.4483375E-07  0.2400173E+04  0.7818609E-02  0.8439439E-01
       -4   -1    0    0    0  501  0.00000000000E+00  0.00000000000E+00  0.26032703223E+04  0.26032706321E+04  0.12699999809E+01 0.  1.
        4   -1    0    0  501    0  0.00000000000E+00  0.00000000000E+00 -0.55322885837E+03  0.55323031609E+03  0.12699999809E+01 0. -1.
    10030    2    1    2    0    0  0.00000000000E+00  0.00000000000E+00  0.20500414639E+04  0.31565009482E+04  0.24001725421E+04 0.  0.
        4    1    3    3  502    0 -0.53088418385E+03  0.57356741420E+03  0.22227048632E+04  0.23561061345E+04  0.12699999809E+01 0.  1.
       -4    1    3    3    0  502  0.53088418385E+03 -0.57356741420E+03 -0.17266339932E+03  0.80039481361E+03  0.12699999809E+01 0. -1.
</event>
<event>
 5   0  0.1275948E-06  0.2401124E+04  0.7818609E-02  0.8439083E-01
        2   -1    0    0  501    0  0.00000000000E+00  0.00000000000E+00  0.22320513342E+04  0.22320513342E+04  0.25500000920E-02 0. -1.
       -2   -1    0    0    0  501  0.00000000000E+00  0.00000000000E+00 -0.64575078737E+03  0.64575078738E+03  0.25500000920E-02 0.  1.
    10030    2    1    2    0    0  0.00000000000E+00  0.00000000000E+00  0.15863005468E+04  0.28778021216E+04  0.24011238256E+04 0.  0.
        1    1    3    3  502    0  0.92577316330E+03 -0.61824695511E+03  0.13319042365E+04  0.17358727323E+04  0.50400001928E-02 0. -1.
       -1    1    3    3    0  502 -0.92577316330E+03  0.61824695511E+03  0.25439631028E+03  0.11419293893E+04  0.50400001928E-02 0.  1.
</event>
<event>
 5   0  0.1275948E-06  0.2400266E+04  0.7818609E-02  0.8439404E-01
       -2   -1    0    0    0  501  0.00000000000E+00  0.00000000000E+00  0.59069935635E+03  0.59069935635E+03  0.25500000920E-02 0.  1.
        2   -1    0    0  501    0  0.00000000000E+00  0.00000000000E+00 -0.24383289991E+04  0.24383289991E+04  0.25500000920E-02 0. -1.
    10030    2    1    2    0    0  0.00000000000E+00  0.00000000000E+00 -0.18476296427E+04  0.30290283554E+04  0.24002661272E+04 0.  0.
        1    1    3    3  502    0 -0.11131515168E+04  0.20312062475E+03 -0.41910359504E+03  0.12066532687E+04  0.50400001928E-02 0. -1.
       -1    1    3    3    0  502  0.11131515168E+04 -0.20312062475E+03 -0.14285260477E+04  0.18223750867E+04  0.50400001928E-02 0.  1.
</event>
<event>
 5   0  0.1308662E-06  0.2399038E+04  0.7818609E-02  0.8439864E-01
        2   -1    0    0  501    0  0.00000000000E+00  0.00000000000E+00  0.93029413215E+03  0.93029413215E+03  0.25500000920E-02 0. -1.
       -2   -1    0    0    0  501  0.00000000000E+00  0.00000000000E+00 -0.15466568757E+04  0.15466568757E+04  0.25500000920E-02 0.  1.
    10030    2    1    2    0    0  0.00000000000E+00  0.00000000000E+00 -0.61636274351E+03  0.24769510078E+04  0.23990379871E+04 0.  0.
        3    1    3    3  502    0  0.47761939451E+03 -0.89310583071E+03 -0.97177363791E+03  0.14036033358E+04  0.10100000352E+00 0.  1.
       -3    1    3    3    0  502 -0.47761939451E+03  0.89310583071E+03  0.35541089440E+03  0.10733476720E+04  0.10100000352E+00 0. -1.
</event>
<event>
 5   0  0.5363690E-07  0.2398534E+04  0.7818609E-02  0.8440052E-01
       -1   -1    0    0    0  501  0.00000000000E+00  0.00000000000E+00  0.17382988488E+04  0.17382988488E+04  0.50400001928E-02 0.  1.
        1   -1    0    0  501    0  0.00000000000E+00  0.00000000000E+00 -0.82738464212E+03  0.82738464214E+03  0.50400001928E-02 0. -1.
    10030    2    1    2    0    0  0.00000000000E+00  0.00000000000E+00  0.91091420664E+03  0.25656834909E+04  0.23985343616E+04 0.  0.
        4    1    3    3  502    0  0.11287054090E+04 -0.33697174377E+03  0.21456511308E+03  0.11973160222E+04  0.12699999809E+01 0.  1.
       -4    1    3    3    0  502 -0.11287054090E+04  0.33697174377E+03  0.69634909356E+03  0.13683674687E+04  0.12699999809E+01 0. -1.
</event>
<event>
 5   0  0.5363690E-07  0.2397704E+04  0.7818609E-02  0.8440364E-01
       -1   -1    0    0    0  501  0.00000000000E+00  0.00000000000E+00  0.23688838513E+04  0.23688838513E+04  0.50400001928E-02 0.  1.
        1   -1    0    0  501    0  0.00000000000E+00  0.00000000000E+00 -0.60671853750E+03  0.60671853752E+03  0.50400001928E-02 0. -1.
    10030    2    1    2    0    0  0.00000000000E+00  0.00000000000E+00  0.17621653138E+04  0.29756023888E+04  0.23977036896E+04 0.  0.
        4    1    3    3  502    0 -0.23870322200E+03 -0.11680321904E+04  0.10378925513E+04  0.15806647294E+04  0.12699999809E+01 0. -1.
       -4    1    3    3    0  502  0.23870322200E+03  0.11680321904E+04  0.72427276250E+03  0.13949376593E+04  0.12699999809E+01 0.  1.
</event>
<event>
 5   0  0.5527286E-07  0.2399663E+04  0.7818609E-02  0.8439630E-01
        1   -1    0    0  501    0  0.00000000000E+00  0.00000000000E+00  0.83751352427E+03  0.83751352428E+03  0.50400001928E-02 0. -1.
       -1   -1    0    0    0  501  0.00000000000E+00  0.00000000000E+00 -0.17188920835E+04  0.17188920835E+04  0.50400001928E-02 0.  1.
    10030    2    1    2    0    0  0.00000000000E+00  0.00000000000E+00 -0.88137855923E+03  0.25564056078E+04  0.23996627819E+04 0.  0.
        1    1    3    3  502    0 -0.68506918338E+03  0.27868958401E+03  0.56580163597E+03  0.93119233327E+03  0.50400001928E-02 0. -1.
       -1    1    3    3    0  502  0.68506918338E+03 -0.27868958401E+03 -0.14471801952E+04  0.16252132745E+04  0.50400001928E-02 0.  1.
</event>
<event>
 5   0  0.1307477E-06  0.2399260E+04  0.7818609E-02  0.8439781E-01
       -2   -1    0    0    0  501  0.00000000000E+00  0.00000000000E+00  0.12367279862E+04  0.12367279862E+04  0.25500000920E-02 0.  1.
        2   -1    0    0  501    0  0.00000000000E+00  0.00000000000E+00 -0.11636449596E+04  0.11636449596E+04  0.25500000920E-02 0. -1.
    10030    2    1    2    0    0  0.00000000000E+00  0.00000000000E+00  0.73083026570E+02  0.24003729458E+04  0.23992601256E+04 0.  0.
        5    1    3    3  502    0  0.86936456767E+03 -0.37790045524E+03  0.77206050233E+03  0.12225804738E+04  0.46999998093E+01 0.  1.
       -5    1    3    3    0  502 -0.86936456767E+03  0.37790045524E+03 -0.69897747576E+03  0.11777924720E+04  0.46999998093E+01 0. -1.
</event>
<event>
 5   0  0.5527286E-07  0.2399357E+04  0.7818609E-02  0.8439744E-01
        1   -1    0    0  501    0  0.00000000000E+00  0.00000000000E+00  0.15191202262E+04  0.15191202262E+04  0.50400001928E-02 0. -1.
       -1   -1    0    0    0  501  0.00000000000E+00  0.00000000000E+00 -0.94740900351E+03  0.94740900353E+03  0.50400001928E-02 0.  1.
    10030    2    1    2    0    0  0.00000000000E+00  0.00000000000E+00  0.57171122265E+03  0.24665292297E+04  0.23993567302E+04 0.  0.
        1    1    3    3  502    0  0.79469808233E+03  0.21990762874E+03 -0.60993177385E+03  0.10256320861E+04  0.50400001928E-02 0.  1.
       -1    1    3    3    0  502 -0.79469808233E+03 -0.21990762874E+03  0.11816429965E+04  0.14408971436E+04  0.50400001928E-02 0. -1.
</event>
<event>
 5   0  0.1307477E-06  0.2399454E+04  0.7818609E-02  0.8439708E-01
        2   -1    0    0  501    0  0.00000000000E+00  0.00000000000E+00  0.21917426260E+04  0.21917426260E+04  0.25500000920E-02 0.  1.
       -2   -1    0    0    0  501  0.00000000000E+00  0.00000000000E+00 -0.65671268515E+03  0.65671268516E+03  0.25500000920E-02 0. -1.
    10030    2    1    2    0    0  0.00000000000E+00  0.00000000000E+00  0.15350299409E+04  0.28484553112E+04  0.23994542589E+04 0.  0.
        5    1    3    3  502    0 -0.92813057016E+03 -0.75595643594E+03  0.67234765907E+03  0.13729420792E+04  0.46999998093E+01 0.  1.
       -5    1    3    3    0  502  0.92813057016E+03  0.75595643594E+03  0.86268228182E+03  0.14755132320E+04  0.46999998093E+01 0. -1.
</event>
<event>
 5   0  0.1275948E-06  0.2399534E+04  0.7818609E-02  0.8439678E-01
       -2   -1    0    0    0  501  0.00000000000E+00  0.00000000000E+00  0.87668852037E+03  0.87668852037E+03  0.25500000920E-02 0. -1.
        2   -1    0    0  501    0  0.00000000000E+00  0.00000000000E+00 -0.16419072741E+04  0.16419072741E+04  0.25500000920E-02 0.  1.
    10030    2    1    2    0    0  0.00000000000E+00  0.00000000000E+00 -0.76521875377E+03  0.25185957945E+04  0.23995343371E+04 0.  0.
        1    1    3    3  502    0  0.44694301803E+03  0.33621118077E+03  0.73149299230E+03  0.92080291987E+03  0.50400001928E-02 0. -1.
       -1    1    3    3    0  502 -0.44694301803E+03 -0.33621118077E+03 -0.14967117461E+04  0.15977928746E+04  0.50400001928E-02 0.  1.
</event>
<event>
 5   0  0.1291468E-06  0.2398839E+04  0.7818609E-02  0.8439938E-01
        2   -1    0    0  501    0  0.00000000000E+00  0.00000000000E+00  0.11131288633E+04  0.11131288633E+04  0.25500000920E-02 0. -1.
       -2   -1    0    0    0  501  0.00000000000E+00  0.00000000000E+00 -0.12923994723E+04  0.12923994723E+04  0.25500000920E-02 0.  1.
    10030    2    1    2    0    0  0.00000000000E+00  0.00000000000E+00 -0.17927060898E+03  0.24055283357E+04  0.23988390155E+04 0.  0.
        4    1    3    3  502    0  0.59293308792E+03 -0.92193499256E+03  0.39862260824E+03  0.11663770291E+04  0.12699999809E+01 0. -1.
       -4    1    3    3    0  502 -0.59293308792E+03  0.92193499256E+03 -0.57789321722E+03  0.12391513066E+04  0.12699999809E+01 0.  1.
</event>
<event>
 5   0  0.1307477E-06  0.2394698E+04  0.7818609E-02  0.8441491E-01
        2   -1    0    0  501    0  0.00000000000E+00  0.00000000000E+00  0.16747811147E+04  0.16747811147E+04  0.25500000920E-02 0.  1.
       -2   -1    0    0    0  501  0.00000000000E+00  0.00000000000E+00 -0.85601942418E+03  0.85601942418E+03  0.25500000920E-02 0. -1.
    10030    2    1    2    0    0  0.00000000000E+00  0.00000000000E+00  0.81876169049E+03  0.25308005389E+04  0.23946984490E+04 0.  0.
        5    1    3    3  502    0 -0.54515660384E+03 -0.86607916411E+03  0.10662648431E+04  0.14779146278E+04  0.46999998093E+01 0.  1.
       -5    1    3    3    0  502  0.54515660384E+03  0.86607916411E+03 -0.24750315265E+03  0.10528859111E+04  0.46999998093E+01 0. -1.
</event>
<event>
 5   0  0.5363690E-07  0.2400204E+04  0.7818609E-02  0.8439427E-01
       -1   -1    0    0    0  501  0.00000000000E+00  0.00000000000E+00  0.58555849652E+03  0.58555849654E+03  0.50400001928E-02 0.  1.
        1   -1    0    0  501    0  0.00000000000E+00  0.00000000000E+00 -0.24596091958E+04  0.24596091958E+04  0.50400001928E-02 0. -1.
    10030    2    1    2    0    0  0.00000000000E+00  0.00000000000E+00 -0.18740506993E+04  0.30451676923E+04  0.24002042103E+04 0.  0.
        4    1    3    3  502    0  0.12784295316E+03 -0.53551082233E+03  0.41588075558E+03  0.68998121516E+03  0.12699999809E+01 0.  1.
       -4    1    3    3    0  502 -0.12784295316E+03  0.53551082233E+03 -0.22899314548E+04  0.23551864772E+04  0.12699999809E+01 0. -1.
</event>
<event>
 5   0  0.1275948E-06  0.2400871E+04  0.7818609E-02  0.8439177E-01
        2   -1    0    0  501    0  0.00000000000E+00  0.00000000000E+00  0.14355292231E+04  0.14355292231E+04  0.25500000920E-02 0. -1.
       -2   -1    0    0    0  501  0.00000000000E+00  0.00000000000E+00 -0.10038429751E+04  0.10038429751E+04  0.25500000920E-02 0.  1.
    10030    2    1    2    0    0  0.00000000000E+00  0.00000000000E+00  0.43168624801E+03  0.24393721982E+04  0.24008714469E+04 0.  0.
        1    1    3    3  502    0 -0.67307375060E+03  0.60987946003E+03 -0.58164151099E+03  0.10785583326E+04  0.50400001928E-02 0.  1.
       -1    1    3    3    0  502  0.67307375060E+03 -0.60987946003E+03  0.10133277590E+04  0.13608138656E+04  0.50400001928E-02 0. -1.
</event>
<event>
 5   0  0.5363690E-07  0.2400603E+04  0.7818609E-02  0.8439278E-01
       -1   -1    0    0    0  501  0.00000000000E+00  0.00000000000E+00  0.15107986159E+04  0.15107986159E+04  0.50400001928E-02 0. -1.
        1   -1    0    0  501    0  0.00000000000E+00  0.00000000000E+00 -0.95361696122E+03  0.95361696124E+03  0.50400001928E-02 0.  1.
    10030    2    1    2    0    0  0.00000000000E+00  0.00000000000E+00  0.55718165465E+03  0.24644155771E+04  0.24006025786E+04 0.  0.
        4    1    3    3  502    0  0.92798578482E+03  0.71319103430E+03  0.55198276755E+03  0.12940191872E+04  0.12699999809E+01 0. -1.
       -4    1    3    3    0  502 -0.92798578482E+03 -0.71319103430E+03  0.51988871048E+01  0.11703963899E+04  0.12699999809E+01 0.  1.
</event>
<event>
 5   0  0.5690124E-07  0.2400226E+04  0.7818609E-02  0.8439419E-01
       -1   -1    0    0    0  501  0.00000000000E+00  0.00000000000E+00  0.71029079408E+03  0.71029079409E+03  0.50400001928E-02 0. -1.
        1   -1    0    0  501    0  0.00000000000E+00  0.00000000000E+00 -0.20277209868E+04  0.20277209869E+04  0.50400001928E-02 0.  1.
    10030    2    1    2    0    0  0.00000000000E+00  0.00000000000E+00 -0.13174301928E+04  0.27380117809E+04  0.24002262810E+04 0.  0.
        2    1    3    3  502    0  0.78720024147E+03  0.49061366492E+03 -0.15273839970E+04  0.17869772977E+04  0.25500000920E-02 0. -1.
       -2    1    3    3    0  502 -0.78720024147E+03 -0.49061366492E+03  0.20995380419E+03  0.95103448323E+03  0.25500000920E-02 0.  1.
</event>
<event>
 5   0  0.5690124E-07  0.2400841E+04  0.7818609E-02  0.8439189E-01
        1   -1    0    0  501    0  0.00000000000E+00  0.00000000000E+00  0.14959349314E+04  0.14959349314E+04  0.50400001928E-02 0. -1.
       -1   -1    0    0    0  501  0.00000000000E+00  0.00000000000E+00 -0.96328381570E+03  0.96328381571E+03  0.50400001928E-02 0.  1.
    10030    2    1    2    0    0  0.00000000000E+00  0.00000000000E+00  0.53265111567E+03  0.24592187471E+04  0.24008414431E+04 0.  0.
        2    1    3    3  502    0  0.31602015863E+02 -0.93482778598E+03 -0.50437099536E+03  0.10626814094E+04  0.25500000920E-02 0.  1.
       -2    1    3    3    0  502 -0.31602015863E+02  0.93482778598E+03  0.10370221110E+04  0.13965373377E+04  0.25500000920E-02 0. -1.
</event>
<event>
 5   0  0.5527286E-07  0.2399677E+04  0.7818609E-02  0.8439625E-01
       -1   -1    0    0    0  501  0.00000000000E+00  0.00000000000E+00  0.65330915325E+03  0.65330915327E+03  0.50400001928E-02 0.  1.
        1   -1    0    0  501    0  0.00000000000E+00  0.00000000000E+00 -0.22035693470E+04  0.22035693470E+04  0.50400001928E-02 0. -1.
    10030    2    1    2    0    0  0.00000000000E+00  0.00000000000E+00 -0.15502601938E+04  0.28568785003E+04  0.23996766651E+04 0.  0.
        1    1    3    3  502    0 -0.85765656125E+03 -0.54000487611E+01 -0.17740435594E+04  0.19704909257E+04  0.50400001928E-02 0. -1.
       -1    1    3    3    0  502  0.85765656125E+03  0.54000487611E+01  0.22378336565E+03  0.88638757457E+03  0.50400001928E-02 0.  1.
</event>
<event>
 5   0  0.5363690E-07  0.2400602E+04  0.7818609E-02  0.8439278E-01
       -1   -1    0    0    0  501  0.00000000000E+00  0.00000000000E+00  0.46763599766E+03  0.46763599768E+03  0.50400001928E-02 0. -1.
        1   -1    0    0  501    0  0.00000000000E+00  0.00000000000E+00 -0.30808640871E+04  0.30808640871E+04  0.50400001928E-02 0.  1.
    10030    2    1    2    0    0  0.00000000000E+00  0.00000000000E+00 -0.26132280894E+04  0.35485000848E+04  0.24006023836E+04 0.  0.
        4    1    3    3  502    0  0.37043794825E+03  0.11207499309E+04 -0.16284911246E+04  0.20112905402E+04  0.12699999809E+01 0. -1.
       -4    1    3    3    0  502 -0.37043794825E+03 -0.11207499309E+04 -0.98473696479E+03  0.15372095446E+04  0.12699999809E+01 0.  1.
</event>
<event>
 5   0  0.1291468E-06  0.2400799E+04  0.7818609E-02  0.8439205E-01
        2   -1    0    0  501    0  0.00000000000E+00  0.00000000000E+00  0.20001287468E+04  0.20001287468E+04  0.25500000920E-02 0. -1.
       -2   -1    0    0    0  501  0.00000000000E+00  0.00000000000E+00 -0.72043291534E+03  0.72043291534E+03  0.25500000920E-02 0.  1.
    10030    2    1    2    0    0  0.00000000000E+00  0.00000000000E+00  0.12796958314E+04  0.27205616621E+04  0.24007986872E+04 0.  0.
        4    1    3    3  502    0 -0.13563680876E+03 -0.38319794668E+03  0.19197605734E+04  0.19623252234E+04  0.12699999809E+01 0. -1.
       -4    1    3    3    0  502  0.13563680876E+03  0.38319794668E+03 -0.64006474196E+03  0.75823643874E+03  0.12699999809E+01 0.  1.
</event>
<event>
 5   0  0.1291468E-06  0.2401801E+04  0.7818609E-02  0.8438830E-01
       -2   -1    0    0    0  501  0.00000000000E+00  0.00000000000E+00  0.79581575828E+03  0.79581575828E+03  0.25500000920E-02 0. -1.
        2   -1    0    0  501    0  0.00000000000E+00  0.00000000000E+00 -0.18121802352E+04  0.18121802352E+04  0.25500000920E-02 0.  1.
    10030    2    1    2    0    0  0.00000000000E+00  0.00000000000E+00 -0.10163644769E+04  0.26079959935E+04  0.24018006478E+04 0.  0.
        4    1    3    3  502    0 -0.33657982512E+03 -0.81147627187E+03  0.38087673542E+03  0.95752202009E+03  0.12699999809E+01 0. -1.
       -4    1    3    3    0  502  0.33657982512E+03  0.81147627187E+03 -0.13972412123E+04  0.16504739734E+04  0.12699999809E+01 0.  1.
</event>
<event>
 5   0  0.5452384E-07  0.2400452E+04  0.7818609E-02  0.8439334E-01
        1   -1    0    0  501    0  0.00000000000E+00  0.00000000000E+00  0.54414712634E+03  0.54414712637E+03  0.50400001928E-02 0. -1.
       -1   -1    0    0    0  501  0.00000000000E+00  0.00000000000E+00 -0.26473403357E+04  0.26473403357E+04  0.50400001928E-02 0.  1.
    10030    2    1    2    0    0  0.00000000000E+00  0.00000000000E+00 -0.21031932093E+04  0.31914874621E+04  0.24004521542E+04 0.  0.
        5    1    3    3  502    0 -0.93907670895E+03 -0.74167679709E+03 -0.92850850190E+03  0.15146285567E+04  0.46999998093E+01 0. -1.
       -5    1    3    3    0  502  0.93907670895E+03  0.74167679709E+03 -0.11746847074E+04  0.16768589054E+04  0.46999998093E+01 0.  1.
</event>
<event>
 5   0  0.1336057E-06  0.2392794E+04  0.7818609E-02  0.8442206E-01
        2   -1    0    0  501    0  0.00000000000E+00  0.00000000000E+00  0.19708108180E+04  0.19708108180E+04  0.25500000920E-02 0. -1.
       -2   -1    0    0    0  501  0.00000000000E+00  0.00000000000E+00 -0.72628268403E+03  0.72628268404E+03  0.25500000920E-02 0.  1.
    10030    2    1    2    0    0  0.00000000000E+00  0.00000000000E+00  0.12445281340E+04  0.26970935020E+04  0.23927939908E+04 0.  0.
        2    1    3    3  502    0 -0.52010099581E+03  0.43568711271E+03 -0.48846640476E+03  0.83601897982E+03  0.25500000920E-02 0.  1.
       -2    1    3    3    0  502  0.52010099581E+03 -0.43568711271E+03  0.17329945387E+04  0.18610745222E+04  0.25500000920E-02 0. -1.
</event>
<event>
 5   0  0.5452384E-07  0.2402990E+04  0.7818609E-02  0.8438385E-01
       -1   -1    0    0    0  501  0.00000000000E+00  0.00000000000E+00  0.11032873538E+04  0.11032873538E+04  0.50400001928E-02 0. -1.
        1   -1    0    0  501    0  0.00000000000E+00  0.00000000000E+00 -0.13084450103E+04  0.13084450103E+04  0.50400001928E-02 0.  1.
    10030    2    1    2    0    0  0.00000000000E+00  0.00000000000E+00 -0.20515765650E+03  0.24117323641E+04  0.24029904977E+04 0.  0.
        5    1    3    3  502    0  0.10414556532E+04 -0.46125467335E+03 -0.48630858714E+03  0.12385087336E+04  0.46999998093E+01 0.  1.
       -5    1    3    3    0  502 -0.10414556532E+04  0.46125467335E+03  0.28115093064E+03  0.11732236305E+04  0.46999998093E+01 0. -1.
</event>
<event>
 5   0  0.1275948E-06  0.2385255E+04  0.7818609E-02  0.8445045E-01
        2   -1    0    0  501    0  0.00000000000E+00  0.00000000000E+00  0.16997333846E+04  0.16997333846E+04  0.25500000920E-02 0. -1.
       -2   -1    0    0    0  501  0.00000000000E+00  0.00000000000E+00 -0.83681368602E+03  0.83681368602E+03  0.25500000920E-02 0.  1.
    10030    2    1    2    0    0  0.00000000000E+00  0.00000000000E+00  0.86291969854E+03  0.25365470706E+04  0.23852548365E+04 0.  0.
        1    1    3    3  502    0  0.23841121719E+03 -0.44227133532E+03 -0.71877239975E+03  0.87697069802E+03  0.50400001928E-02 0.  1.
       -1    1    3    3    0  502 -0.23841121719E+03  0.44227133532E+03  0.15816920983E+04  0.16595763726E+04  0.50400001928E-02 0. -1.
</event>
<event>
 5   0  0.1291468E-06  0.2399238E+04  0.7818609E-02  0.8439789E-01
       -2   -1    0    0    0  501  0.00000000000E+00  0.00000000000E+00  0.11368208271E+04  0.11368208271E+04  0.25500000920E-02 0. -1.
        2   -1    0    0  501    0  0.00000000000E+00  0.00000000000E+00 -0.12658859849E+04  0.12658859849E+04  0.25500000920E-02 0.  1.
    10030    2    1    2    0    0  0.00000000000E+00  0.00000000000E+00 -0.12906515782E+03  0.24027068120E+04  0.23992378393E+04 0.  0.
        4    1    3    3  502    0  0.86468171959E+02 -0.98492185783E+03  0.61581419360E+03  0.11648075140E+04  0.12699999809E+01 0. -1.
       -4    1    3    3    0  502 -0.86468171959E+02  0.98492185783E+03 -0.74487935142E+03  0.12378992979E+04  0.12699999809E+01 0.  1.
</event>
<event>
 5   0  0.5452384E-07  0.2399551E+04  0.7818609E-02  0.8439672E-01
       -1   -1    0    0    0  501  0.00000000000E+00  0.00000000000E+00  0.80173298976E+03  0.80173298977E+03  0.50400001928E-02 0.  1.
        1   -1    0    0  501    0  0.00000000000E+00  0.00000000000E+00 -0.17954369116E+04  0.17954369116E+04  0.50400001928E-02 0. -1.
    10030    2    1    2    0    0  0.00000000000E+00  0.00000000000E+00 -0.99370392188E+03  0.25971699014E+04  0.23995507939E+04 0.  0.
        5    1    3    3  502    0  0.10472334780E+04 -0.58497277490E+03 -0.47151907206E+03  0.12888923268E+04  0.46999998093E+01 0. -1.
       -5    1    3    3    0  502 -0.10472334780E+04  0.58497277490E+03 -0.52218484981E+03  0.13082775746E+04  0.46999998093E+01 0.  1.
</event>
<event>
 5   0  0.1291468E-06  0.2400355E+04  0.7818609E-02  0.8439371E-01
       -2   -1    0    0    0  501  0.00000000000E+00  0.00000000000E+00  0.99035514621E+03  0.99035514621E+03  0.25500000920E-02 0. -1.
        2   -1    0    0  501    0  0.00000000000E+00  0.00000000000E+00 -0.14544540184E+04  0.14544540184E+04  0.25500000920E-02 0.  1.
    10030    2    1    2    0    0  0.00000000000E+00  0.00000000000E+00 -0.46409887217E+03  0.24448091646E+04  0.24003549921E+04 0.  0.
        4    1    3    3  502    0  0.40714072309E+03  0.26418825679E+03  0.88594272248E+03  0.10101757886E+04  0.12699999809E+01 0. -1.
       -4    1    3    3    0  502 -0.40714072309E+03 -0.26418825679E+03 -0.13500415946E+04  0.14346333760E+04  0.12699999809E+01 0.  1.
</event>
<event>
 5   0  0.1307477E-06  0.2399531E+04  0.7818609E-02  0.8439679E-01
       -2   -1    0    0    0  501  0.00000000000E+00  0.00000000000E+00  0.52237394175E+03  0.52237394175E+03  0.25500000920E-02 0.  1.
        2   -1    0    0  501    0  0.00000000000E+00  0.00000000000E+00 -0.27555679965E+04  0.27555679966E+04  0.25500000920E-02 0. -1.
    10030    2    1    2    0    0  0.00000000000E+00  0.00000000000E+00 -0.22331940548E+04  0.32779419383E+04  0.23995307176E+04 0.  0.
        5    1    3    3  502    0 -0.48825934007E+03 -0.14524946081E+03  0.36729146792E+03  0.62802842407E+03  0.46999998093E+01 0.  1.
       -5    1    3    3    0  502  0.48825934007E+03  0.14524946081E+03 -0.26004855227E+04  0.26499135142E+04  0.46999998093E+01 0. -1.
</event>
<event>
 5   0  0.1275948E-06  0.2401789E+04  0.7818609E-02  0.8438834E-01
       -2   -1    0    0    0  501  0.00000000000E+00  0.00000000000E+00  0.11046799608E+04  0.11046799608E+04  0.25500000920E-02 0.  1.
        2   -1    0    0  501    0  0.00000000000E+00  0.00000000000E+00 -0.13054886444E+04  0.13054886444E+04  0.25500000920E-02 0. -1.
    10030    2    1    2    0    0  0.00000000000E+00  0.00000000000E+00 -0.20080868357E+03  0.24101686052E+04  0.24017886206E+04 0.  0.
        1    1    3    3  502    0 -0.34105408881E+03  0.34437175930E+03  0.10021727701E+04  0.11132205807E+04  0.50400001928E-02 0.  1.
       -1    1    3    3    0  502  0.34105408881E+03 -0.34437175930E+03 -0.12029814537E+04  0.12969480244E+04  0.50400001928E-02 0. -1.
</event>
<event>
 5   0  0.5363690E-07  0.2401176E+04  0.7818609E-02  0.8439064E-01
       -1   -1    0    0    0  501  0.00000000000E+00  0.00000000000E+00  0.10082778809E+04  0.10082778810E+04  0.50400001928E-02 0.  1.
        1   -1    0    0  501    0  0.00000000000E+00  0.00000000000E+00 -0.14295773283E+04  0.14295773283E+04  0.50400001928E-02 0. -1.
    10030    2    1    2    0    0  0.00000000000E+00  0.00000000000E+00 -0.42129944737E+03  0.24378552093E+04  0.24011757114E+04 0.  0.
        4    1    3    3  502    0  0.10152833871E+04  0.27466429701E+02  0.43932877860E+03  0.11066011700E+04  0.12699999809E+01 0.  1.
       -4    1    3    3    0  502 -0.10152833871E+04 -0.27466429701E+02 -0.86062822597E+03  0.13312540393E+04  0.12699999809E+01 0. -1.
</event>
<event>
 5   0  0.1275948E-06  0.2402534E+04  0.7818609E-02  0.8438556E-01
       -2   -1    0    0    0  501  0.00000000000E+00  0.00000000000E+00  0.91689190621E+03  0.91689190622E+03  0.25500000920E-02 0.  1.
        2   -1    0    0  501    0  0.00000000000E+00  0.00000000000E+00 -0.15738408692E+04  0.15738408692E+04  0.25500000920E-02 0. -1.
    10030    2    1    2    0    0  0.00000000000E+00  0.00000000000E+00 -0.65694896294E+03  0.24907327754E+04  0.24025336248E+04 0.  0.
        1    1    3    3  502    0  0.18093307886E+03 -0.61876276836E+03  0.72236270607E+03  0.96820040368E+03  0.50400001928E-02 0.  1.
       -1    1    3    3    0  502 -0.18093307886E+03  0.61876276836E+03 -0.13793116690E+04  0.15225323717E+04  0.50400001928E-02 0. -1.
</event>
<event>
 5   0  0.5690124E-07  0.2399690E+04  0.7818609E-02  0.8439620E-01
       -1   -1    0    0    0  501  0.00000000000E+00  0.00000000000E+00  0.12360671184E+04  0.12360671184E+04  0.50400001928E-02 0. -1.
        1   -1    0    0  501    0  0.00000000000E+00  0.00000000000E+00 -0.11646841809E+04  0.11646841809E+04  0.50400001928E-02 0.  1.
    10030    2    1    2    0    0  0.00000000000E+00  0.00000000000E+00  0.71382937521E+02  0.24007512994E+04  0.23996898295E+04 0.  0.
        2    1    3    3  502    0 -0.24163028862E+03  0.28596210066E+03 -0.11047550044E+04  0.11664660900E+04  0.25500000920E-02 0.  1.
       -2    1    3    3    0  502  0.24163028862E+03 -0.28596210066E+03  0.11761379420E+04  0.12342852093E+04  0.25500000920E-02 0. -1.
</event>
<event>
 5   0  0.1308662E-06  0.2401764E+04  0.7818609E-02  0.8438843E-01
        2   -1    0    0  501    0  0.00000000000E+00  0.00000000000E+00  0.17230742809E+04  0.17230742809E+04  0.25500000920E-02 0. -1.
       -2   -1    0    0    0  501  0.00000000000E+00  0.00000000000E+00 -0.83694453347E+03  0.83694453347E+03  0.25500000920E-02 0.  1.
    10030    2    1    2    0    0  0.00000000000E+00  0.00000000000E+00  0.88612974740E+03  0.25600188143E+04  0.24017640185E+04 0.  0.
        3    1    3    3  502    0 -0.67477313088E+03 -0.72214555517E+03 -0.28401395681E+03  0.10283369676E+04  0.10100000352E+00 0.  1.
       -3    1    3    3    0  502  0.67477313088E+03  0.72214555517E+03  0.11701437042E+04  0.15316818468E+04  0.10100000352E+00 0. -1.
</event>
<event>
 5   0  0.5363690E-07  0.2397993E+04  0.7818609E-02  0.8440255E-01
       -1   -1    0    0    0  501  0.00000000000E+00  0.00000000000E+00  0.89631210079E+03  0.89631210081E+03  0.50400001928E-02 0.  1.
        1   -1    0    0  501    0  0.00000000000E+00  0.00000000000E+00 -0.16038974429E+04  0.16038974429E+04  0.50400001928E-02 0. -1.
    10030    2    1    2    0    0  0.00000000000E+00  0.00000000000E+00 -0.70758534215E+03  0.25002095438E+04  0.23979930664E+04 0.  0.
        4    1    3    3  502    0 -0.99438662532E+03 -0.47080147250E+03  0.14310609935E+03  0.11094772443E+04  0.12699999809E+01 0.  1.
       -4    1    3    3    0  502  0.99438662532E+03  0.47080147250E+03 -0.85069144149E+03  0.13907322994E+04  0.12699999809E+01 0. -1.
</event>
<event>
 5   0  0.5527286E-07  0.2399536E+04  0.7818609E-02  0.8439677E-01
       -1   -1    0    0    0  501  0.00000000000E+00  0.00000000000E+00  0.14105490780E+04  0.14105490780E+04  0.50400001928E-02 0. -1.
        1   -1    0    0  501    0  0.00000000000E+00  0.00000000000E+00 -0.10204840038E+04  0.10204840038E+04  0.50400001928E-02 0.  1.
    10030    2    1    2    0    0  0.00000000000E+00  0.00000000000E+00  0.39006507412E+03  0.24310330818E+04  0.23995355973E+04 0.  0.
        1    1    3    3  502    0  0.50222956394E+03 -0.25783008013E+03 -0.87751002572E+03  0.10434245207E+04  0.50400001928E-02 0.  1.
       -1    1    3    3    0  502 -0.50222956394E+03  0.25783008013E+03  0.12675750998E+04  0.13876085611E+04  0.50400001928E-02 0. -1.
</event>
<event>
 5   0  0.1275948E-06  0.2399270E+04  0.7818609E-02  0.8439777E-01
        2   -1    0    0  501    0  0.00000000000E+00  0.00000000000E+00  0.29139822912E+04  0.29139822912E+04  0.25500000920E-02 0.  1.
       -2   -1    0    0    0  501  0.00000000000E+00  0.00000000000E+00 -0.49386851997E+03  0.49386851998E+03  0.25500000920E-02 0. -1.
    10030    2    1    2    0    0  0.00000000000E+00  0.00000000000E+00  0.24201137712E+04  0.34078508112E+04  0.23992699901E+04 0.  0.
        1    1    3    3  502    0  0.14843537897E+03  0.11851269491E+04  0.10508412523E+04  0.15908570913E+04  0.50400001928E-02 0.  1.
       -1    1    3    3    0  502 -0.14843537897E+03 -0.11851269491E+04  0.13692725189E+04  0.18169937199E+04  0.50400001928E-02 0. -1.
</event>
<event>
 5   0  0.1291468E-06  0.2400635E+04  0.7818609E-02  0.8439266E-01
        2   -1    0    0  501    0  0.00000000000E+00  0.00000000000E+00  0.14185472767E+04  0.14185472767E+04  0.25500000920E-02 0. -1.
       -2   -1    0    0    0  501  0.00000000000E+00  0.00000000000E+00 -0.10156599590E+04  0.10156599590E+04  0.25500000920E-02 0.  1.
    10030    2    1    2    0    0  0.00000000000E+00  0.00000000000E+00  0.40288731772E+03  0.24342072357E+04  0.24006346401E+04 0.  0.
        4    1    3    3  502    0  0.13899474040E+03 -0.41635479007E+03 -0.93135909028E+03  0.10296126539E+04  0.12699999809E+01 0.  1.
       -4    1    3    3    0  502 -0.13899474040E+03  0.41635479007E+03  0.13342464080E+04  0.14045945818E+04  0.12699999809E+01 0. -1.
</event>
<event>
 5   0  0.5452384E-07  0.2398078E+04  0.7818609E-02  0.8440224E-01
        1   -1    0    0  501    0  0.00000000000E+00  0.00000000000E+00  0.83349262807E+03  0.83349262809E+03  0.50400001928E-02 0.  1.
       -1   -1    0    0    0  501  0.00000000000E+00  0.00000000000E+00 -0.17249030924E+04  0.17249030924E+04  0.50400001928E-02 0. -1.
    10030    2    1    2    0    0  0.00000000000E+00  0.00000000000E+00 -0.89141046428E+03  0.25583957205E+04  0.23980775731E+04 0.  0.
        5    1    3    3  502    0  0.84747264162E+03  0.28458500044E+03  0.40675848547E+03  0.98217771115E+03  0.46999998093E+01 0.  1.
       -5    1    3    3    0  502 -0.84747264162E+03 -0.28458500044E+03 -0.12981689498E+04  0.15762180093E+04  0.46999998093E+01 0. -1.
</event>
<event>
 5   0  0.1275948E-06  0.2399208E+04  0.7818609E-02  0.8439800E-01
       -2   -1    0    0    0  501  0.00000000000E+00  0.00000000000E+00  0.94001249803E+03  0.94001249803E+03  0.25500000920E-02 0. -1.
        2   -1    0    0  501    0  0.00000000000E+00  0.00000000000E+00 -0.15308840133E+04  0.15308840133E+04  0.25500000920E-02 0.  1.
    10030    2    1    2    0    0  0.00000000000E+00  0.00000000000E+00 -0.59087151529E+03  0.24708965113E+04  0.23992082907E+04 0.  0.
        1    1    3    3  502    0  0.65622647778E+03 -0.87470100065E+03 -0.80344441231E+03  0.13569296055E+04  0.50400001928E-02 0.  1.
       -1    1    3    3    0  502 -0.65622647778E+03  0.87470100065E+03  0.21257289702E+03  0.11139669058E+04  0.50400001928E-02 0. -1.
</event>
<event>
 5   0  0.1308662E-06  0.2400877E+04  0.7818609E-02  0.8439175E-01
       -2   -1    0    0    0  501  0.00000000000E+00  0.00000000000E+00  0.11058981765E+04  0.11058981765E+04  0.25500000920E-02 0.  1.
        2   -1    0    0  501    0  0.00000000000E+00  0.00000000000E+00 -0.13030612516E+04  0.13030612516E+04  0.25500000920E-02 0. -1.
    10030    2    1    2    0    0  0.00000000000E+00  0.00000000000E+00 -0.19716307509E+03  0.24089594281E+04  0.24008773913E+04 0.  0.
        3    1    3    3  502    0 -0.10549879877E+04 -0.53696768784E+03 -0.29854893902E+03  0.12208461947E+04  0.10100000352E+00 0.  1.
       -3    1    3    3    0  502  0.10549879877E+04  0.53696768784E+03  0.10138586394E+03  0.11881132334E+04  0.10100000352E+00 0. -1.
</event>
<event>
 5   0  0.5527286E-07  0.2400885E+04  0.7818609E-02  0.8439172E-01
        1   -1    0    0  501    0  0.00000000000E+00  0.00000000000E+00  0.12975418418E+04  0.12975418418E+04  0.50400001928E-02 0. -1.
       -1   -1    0    0    0  501  0.00000000000E+00  0.00000000000E+00 -0.11106095934E+04  0.11106095934E+04  0.50400001928E-02 0.  1.
    10030    2    1    2    0    0  0.00000000000E+00  0.00000000000E+00  0.18693224835E+03  0.24081514352E+04  0.24008851845E+04 0.  0.
        1    1    3    3  502    0 -0.18981710891E+03  0.47626713817E+03 -0.99526888182E+03  0.11195628919E+04  0.50400001928E-02 0.  1.
       -1    1    3    3    0  502  0.18981710891E+03 -0.47626713817E+03  0.11822011302E+04  0.12885885433E+04  0.50400001928E-02 0. -1.
</event>
<event>
 5   0  0.5527286E-07  0.2399225E+04  0.7818609E-02  0.8439794E-01
        1   -1    0    0  501    0  0.00000000000E+00  0.00000000000E+00  0.84611235829E+03  0.84611235830E+03  0.50400001928E-02 0.  1.
       -1   -1    0    0    0  501  0.00000000000E+00  0.00000000000E+00 -0.17008032993E+04  0.17008032993E+04  0.50400001928E-02 0. -1.
    10030    2    1    2    0    0  0.00000000000E+00  0.00000000000E+00 -0.85469094099E+03  0.25469156576E+04  0.23992254505E+04 0.  0.
        1    1    3    3  502    0 -0.23124351842E+03 -0.95237564891E+03  0.30703269339E+03  0.10270160740E+04  0.50400001928E-02 0.  1.
       -1    1    3    3    0  502  0.23124351842E+03  0.95237564891E+03 -0.11617236344E+04  0.15198995836E+04  0.50400001928E-02 0. -1.
</event>
<event>
 5   0  0.5510176E-07  0.2400468E+04  0.7818609E-02  0.8439329E-01
        1   -1    0    0  501    0  0.00000000000E+00  0.00000000000E+00  0.16375381211E+04  0.16375381211E+04  0.50400001928E-02 0.  1.
       -1   -1    0    0    0  501  0.00000000000E+00  0.00000000000E+00 -0.87971156824E+03  0.87971156826E+03  0.50400001928E-02 0. -1.
    10030    2    1    2    0    0  0.00000000000E+00  0.00000000000E+00  0.75782655282E+03  0.25172496893E+04  0.24004676449E+04 0.  0.
        3    1    3    3  502    0 -0.81330493997E+03  0.30833379385E+03 -0.48838188472E+03  0.99752269615E+03  0.10100000352E+00 0. -1.
       -3    1    3    3    0  502  0.81330493997E+03 -0.30833379385E+03  0.12462084375E+04  0.15197269932E+04  0.10100000352E+00 0.  1.
</event>
<event>
 5   0  0.5452384E-07  0.2401566E+04  0.7818609E-02  0.8438918E-01
        1   -1    0    0  501    0  0.00000000000E+00  0.00000000000E+00  0.12874394192E+04  0.12874394192E+04  0.50400001928E-02 0.  1.
       -1   -1    0    0    0  501  0.00000000000E+00  0.00000000000E+00 -0.11199591242E+04  0.11199591242E+04  0.50400001928E-02 0. -1.
    10030    2    1    2    0    0  0.00000000000E+00  0.00000000000E+00  0.16748029494E+03  0.24073985434E+04  0.24015657596E+04 0.  0.
        5    1    3    3  502    0  0.30603030990E+03  0.99175485852E+03 -0.52156844847E+03  0.11615885616E+04  0.46999998093E+01 0. -1.
       -5    1    3    3    0  502 -0.30603030990E+03 -0.99175485852E+03  0.68904874341E+03  0.12458099818E+04  0.46999998093E+01 0.  1.
</event>
<event>
 5   0  0.5510176E-07  0.2400891E+04  0.7818609E-02  0.8439170E-01
        1   -1    0    0  501    0  0.00000000000E+00  0.00000000000E+00  0.20410722678E+04  0.20410722678E+04  0.50400001928E-02 0. -1.
       -1   -1    0    0    0  501  0.00000000000E+00  0.00000000000E+00 -0.70603557240E+03  0.70603557242E+03  0.50400001928E-02 0.  1.
    10030    2    1    2    0    0  0.00000000000E+00  0.00000000000E+00  0.13350366954E+04  0.27471078402E+04  0.24008911903E+04 0.  0.
        3    1    3    3  502    0 -0.59412290124E+03 -0.29752274579E+03 -0.47643775987E+03  0.81761528561E+03  0.10100000352E+00 0.  1.
       -3    1    3    3    0  502  0.59412290124E+03  0.29752274579E+03  0.18114744553E+04  0.19294925546E+04  0.10100000352E+00 0. -1.
</event>
<event>
 5   0  0.1291468E-06  0.2400513E+04  0.7818609E-02  0.8439312E-01
        2   -1    0    0  501    0  0.00000000000E+00  0.00000000000E+00  0.65615040646E+03  0.65615040647E+03  0.25500000920E-02 0. -1.
       -2   -1    0    0    0  501  0.00000000000E+00  0.00000000000E+00 -0.21955562837E+04  0.21955562837E+04  0.25500000920E-02 0.  1.
    10030    2    1    2    0    0  0.00000000000E+00  0.00000000000E+00 -0.15394058772E+04  0.28517066901E+04  0.24005125686E+04 0.  0.
        4    1    3    3  502    0  0.89114355820E+03 -0.80356884224E+03 -0.73708686504E+03  0.14082465640E+04  0.12699999809E+01 0. -1.
       -4    1    3    3    0  502 -0.89114355820E+03  0.80356884224E+03 -0.80231901216E+03  0.14434601261E+04  0.12699999809E+01 0.  1.
</event>
<event>
 5   0  0.1275948E-06  0.2400209E+04  0.7818609E-02  0.8439425E-01
       -2   -1    0    0    0  501  0.00000000000E+00  0.00000000000E+00  0.79624553748E+03  0.79624553748E+03  0.25500000920E-02 0.  1.
        2   -1    0    0  501    0  0.00000000000E+00  0.00000000000E+00 -0.18088021905E+04  0.18088021905E+04  0.25500000920E-02 0. -1.
    10030    2    1    2    0    0  0.00000000000E+00  0.00000000000E+00 -0.10125566531E+04  0.26050477280E+04  0.24002088846E+04 0.  0.
        1    1    3    3  502    0  0.10429106221E+04  0.27594107789E+03  0.64372858100E+02  0.10807173123E+04  0.50400001928E-02 0. -1.
       -1    1    3    3    0  502 -0.10429106221E+04 -0.27594107789E+03 -0.10769295112E+04  0.15243304157E+04  0.50400001928E-02 0.  1.
</event>
<event>
 5   0  0.5690124E-07  0.2401910E+04  0.7818609E-02  0.8438789E-01
       -1   -1    0    0    0  501  0.00000000000E+00  0.00000000000E+00  0.14486247112E+04  0.14486247112E+04  0.50400001928E-02 0.  1.
        1   -1    0    0  501    0  0.00000000000E+00  0.00000000000E+00 -0.99562941313E+03  0.99562941315E+03  0.50400001928E-02 0. -1.
    10030    2    1    2    0    0  0.00000000000E+00  0.00000000000E+00  0.45299529803E+03  0.24442541243E+04  0.24019103822E+04 0.  0.
        2    1    3    3  502    0 -0.12324063715E+03 -0.79132052732E+02 -0.98650748535E+03  0.99731998630E+03  0.25500000920E-02 0. -1.
       -2    1    3    3    0  502  0.12324063715E+03  0.79132052732E+02  0.14395027834E+04  0.14469341380E+04  0.25500000920E-02 0.  1.
</event>
<event>
 5   0  0.1307477E-06  0.2400494E+04  0.7818609E-02  0.8439319E-01
       -2   -1    0    0    0  501  0.00000000000E+00  0.00000000000E+00  0.12605246235E+04  0.12605246235E+04  0.25500000920E-02 0.  1.
        2   -1    0    0  501    0  0.00000000000E+00  0.00000000000E+00 -0.11428514028E+04  0.11428514028E+04  0.25500000920E-02 0. -1.
    10030    2    1    2    0    0  0.00000000000E+00  0.00000000000E+00  0.11767322069E+03  0.24033760264E+04  0.24004935612E+04 0.  0.
        5    1    3    3  502    0  0.56164882502E+02 -0.36716970147E+03  0.12015230575E+04  0.12576358104E+04  0.46999998093E+01 0.  1.
       -5    1    3    3    0  502 -0.56164882502E+02  0.36716970147E+03 -0.10838498369E+04  0.11457402160E+04  0.46999998093E+01 0. -1.
</event>
<event>
 5   0  0.5690124E-07  0.2399933E+04  0.7818609E-02  0.8439528E-01
        1   -1    0    0  501    0  0.00000000000E+00  0.00000000000E+00  0.16147593152E+04  0.16147593152E+04  0.50400001928E-02 0.  1.
       -1   -1    0    0    0  501  0.00000000000E+00  0.00000000000E+00 -0.89172426696E+03  0.89172426697E+03  0.50400001928E-02 0. -1.
    10030    2    1    2    0    0  0.00000000000E+00  0.00000000000E+00  0.72303504819E+03  0.25064835821E+04  0.23999333879E+04 0.  0.
        2    1    3    3  502    0 -0.42454229186E+03  0.32822546158E+03  0.14824587960E+04  0.15765951265E+04  0.25500000920E-02 0.  1.
       -2    1    3    3    0  502  0.42454229186E+03 -0.32822546158E+03 -0.75942374777E+03  0.92988845562E+03  0.25500000920E-02 0. -1.
</event>
<event>
 5   0  0.1336057E-06  0.2400006E+04  0.7818609E-02  0.8439501E-01
       -2   -1    0    0    0  501  0.00000000000E+00  0.00000000000E+00  0.75443397178E+03  0.75443397178E+03  0.25500000920E-02 0. -1.
        2   -1    0    0  501    0  0.00000000000E+00  0.00000000000E+00 -0.19087257460E+04  0.19087257460E+04  0.25500000920E-02 0.  1.
    10030    2    1    2    0    0  0.00000000000E+00  0.00000000000E+00 -0.11542917742E+04  0.26631597178E+04  0.24000062880E+04 0.  0.
        2    1    3    3  502    0 -0.21683272372E+03 -0.39205404693E+03  0.65814826251E+03  0.79616703099E+03  0.25500000920E-02 0. -1.
       -2    1    3    3    0  502  0.21683272372E+03  0.39205404693E+03 -0.18124400368E+04  0.18669926868E+04  0.25500000920E-02 0.  1.
</event>
<event>
 5   0  0.1308662E-06  0.2402619E+04  0.7818609E-02  0.8438524E-01
       -2   -1    0    0    0  501  0.00000000000E+00  0.00000000000E+00  0.54764617091E+03  0.54764617092E+03  0.25500000920E-02 0.  1.
        2   -1    0    0  501    0  0.00000000000E+00  0.00000000000E+00 -0.26351765761E+04  0.26351765761E+04  0.25500000920E-02 0. -1.
    10030    2    1    2    0    0  0.00000000000E+00  0.00000000000E+00 -0.20875304052E+04  0.31828227470E+04  0.24026188725E+04 0.  0.
        3    1    3    3  502    0 -0.39685656303E+03  0.65596592931E+03  0.18141934139E+03  0.78784479415E+03  0.10100000352E+00 0.  1.
       -3    1    3    3    0  502  0.39685656303E+03 -0.65596592931E+03 -0.22689497466E+04  0.23949779528E+04  0.10100000352E+00 0. -1.
</event>
<event>
 5   0  0.1275948E-06  0.2393610E+04  0.7818609E-02  0.8441900E-01
       -2   -1    0    0    0  501  0.00000000000E+00  0.00000000000E+00  0.10430960697E+04  0.10430960697E+04  0.25500000920E-02 0.  1.
        2   -1    0    0  501    0  0.00000000000E+00  0.00000000000E+00 -0.13731646903E+04  0.13731646903E+04  0.25500000920E-02 0. -1.
    10030    2    1    2    0    0  0.00000000000E+00  0.00000000000E+00 -0.33006862057E+03  0.24162607600E+04  0.23936104040E+04 0.  0.
        1    1    3    3  502    0  0.10772364740E+04  0.52106948938E+03 -0.18499151520E+03  0.12108565953E+04  0.50400001928E-02 0. -1.
       -1    1    3    3    0  502 -0.10772364740E+04 -0.52106948938E+03 -0.14507710537E+03  0.12054041647E+04  0.50400001928E-02 0.  1.
</event>
<event>
 5   0  0.1291468E-06  0.2399183E+04  0.7818609E-02  0.8439810E-01
       -2   -1    0    0    0  501  0.00000000000E+00  0.00000000000E+00  0.10592556998E+04  0.10592556998E+04  0.25500000920E-02 0.  1.
        2   -1    0    0  501    0  0.00000000000E+00  0.00000000000E+00 -0.13585195956E+04  0.13585195956E+04  0.25500000920E-02 0. -1.
    10030    2    1    2    0    0  0.00000000000E+00  0.00000000000E+00 -0.29926389588E+03  0.24177752954E+04  0.23991828817E+04 0.  0.
        4    1    3    3  502    0  0.65999161441E+03 -0.73473147355E+03 -0.83578927677E+03  0.12938178378E+04  0.12699999809E+01 0. -1.
       -4    1    3    3    0  502 -0.65999161441E+03  0.73473147355E+03  0.53652538088E+03  0.11239574576E+04  0.12699999809E+01 0.  1.
</event>
<event>
 5   0  0.5452384E-07  0.2401526E+04  0.7818609E-02  0.8438933E-01
        1   -1    0    0  501    0  0.00000000000E+00  0.00000000000E+00  0.82697094944E+03  0.82697094946E+03  0.50400001928E-02 0. -1.
       -1   -1    0    0    0  501  0.00000000000E+00  0.00000000000E+00 -0.17435088895E+04  0.17435088895E+04  0.50400001928E-02 0.  1.
    10030    2    1    2    0    0  0.00000000000E+00  0.00000000000E+00 -0.91653794006E+03  0.25704798390E+04  0.24015255166E+04 0.  0.
        5    1    3    3  502    0 -0.50384304629E+03  0.10670816305E+04 -0.69589717760E+03  0.13699693403E+04  0.46999998093E+01 0.  1.
       -5    1    3    3    0  502  0.50384304629E+03 -0.10670816305E+04 -0.22064076246E+03  0.12005104987E+04  0.46999998093E+01 0. -1.
</event>
<event>
 5   0  0.5363690E-07  0.2399548E+04  0.7818609E-02  0.8439673E-01
        1   -1    0    0  501    0  0.00000000000E+00  0.00000000000E+00  0.28005567409E+04  0.28005567409E+04  0.50400001928E-02 0. -1.
       -1   -1    0    0    0  501  0.00000000000E+00  0.00000000000E+00 -0.51398962977E+03  0.51398962980E+03  0.50400001928E-02 0.  1.
    10030    2    1    2    0    0  0.00000000000E+00  0.00000000000E+00  0.22865671111E+04  0.33145463707E+04  0.23995475594E+04 0.  0.
        4    1    3    3  502    0 -0.36193759638E+03  0.97924879676E+03  0.19599336586E+04  0.22206459846E+04  0.12699999809E+01 0. -1.
       -4    1    3    3    0  502  0.36193759638E+03 -0.97924879676E+03  0.32663345250E+03  0.10939003861E+04  0.12699999809E+01 0.  1.
</event>
<event>
 5   0  0.5452384E-07  0.2398781E+04  0.7818609E-02  0.8439960E-01
        1   -1    0    0  501    0  0.00000000000E+00  0.00000000000E+00  0.10027566678E+04  0.10027566678E+04  0.50400001928E-02 0.  1.
       -1   -1    0    0    0  501  0.00000000000E+00  0.00000000000E+00 -0.14345834268E+04  0.14345834268E+04  0.50400001928E-02 0. -1.
    10030    2    1    2    0    0  0.00000000000E+00  0.00000000000E+00 -0.43182675906E+03  0.24373400946E+04  0.23987814380E+04 0.  0.
        5    1    3    3  502    0 -0.11010614366E+04  0.46708585877E+03 -0.30685355963E+03  0.12347820390E+04  0.46999998093E+01 0. -1.
       -5    1    3    3    0  502  0.11010614366E+04 -0.46708585877E+03 -0.12497319942E+03  0.12025580557E+04  0.46999998093E+01 0.  1.
</event>
<event>
 5   0  0.1308662E-06  0.2399488E+04  0.7818609E-02  0.8439695E-01
       -2   -1    0    0    0  501  0.00000000000E+00  0.00000000000E+00  0.90318621429E+03  0.90318621429E+03  0.25500000920E-02 0. -1.
        2   -1    0    0  501    0  0.00000000000E+00  0.00000000000E+00 -0.15936757955E+04  0.15936757955E+04  0.25500000920E-02 0.  1.
    10030    2    1    2    0    0  0.00000000000E+00  0.00000000000E+00 -0.69048958124E+03  0.24968620098E+04  0.23994882859E+04 0.  0.
        3    1    3    3  502    0 -0.45412013664E+03  0.11104654646E+04 -0.33980265707E+03  0.12469260213E+04  0.10100000352E+00 0. -1.
       -3    1    3    3    0  502  0.45412013664E+03 -0.11104654646E+04 -0.35068692417E+03  0.12499359886E+04  0.10100000352E+00 0.  1.
</event>
<event>
 5   0  0.1336057E-06  0.2400067E+04  0.7818609E-02  0.8439478E-01
       -2   -1    0    0    0  501  0.00000000000E+00  0.00000000000E+00  0.10017199433E+04  0.10017199433E+04  0.25500000920E-02 0. -1.
        2   -1    0    0  501    0  0.00000000000E+00  0.00000000000E+00 -0.14376078152E+04  0.14376078152E+04  0.25500000920E-02 0.  1.
    10030    2    1    2    0    0  0.00000000000E+00  0.00000000000E+00 -0.43588787186E+03  0.24393277585E+04  0.24000670150E+04 0.  0.
        2    1    3    3  502    0  0.96006644621E+03 -0.43035705701E+03 -0.80457338030E+03  0.13244897516E+04  0.25500000920E-02 0.  1.
       -2    1    3    3    0  502 -0.96006644621E+03  0.43035705701E+03  0.36868550844E+03  0.11148380070E+04  0.25500000920E-02 0. -1.
</event>
<event>
 5   0  0.1307477E-06  0.2404238E+04  0.7818609E-02  0.8437919E-01
        2   -1    0    0  501    0  0.00000000000E+00  0.00000000000E+00  0.16473686737E+04  0.16473686737E+04  0.25500000920E-02 0. -1.
       -2   -1    0    0    0  501  0.00000000000E+00  0.00000000000E+00 -0.87721127174E+03  0.87721127175E+03  0.25500000920E-02 0.  1.
    10030    2    1    2    0    0  0.00000000000E+00  0.00000000000E+00  0.77015740198E+03  0.25245799455E+04  0.24042382322E+04 0.  0.
        5    1    3    3  502    0  0.16006182706E+03  0.12766963928E+03  0.16289158325E+04  0.16417393839E+04  0.46999998093E+01 0. -1.
       -5    1    3    3    0  502 -0.16006182706E+03 -0.12766963928E+03 -0.85875843049E+03  0.88284056160E+03  0.46999998093E+01 0.  1.
</event>
<event>
 5   0  0.5363690E-07  0.2400604E+04  0.7818609E-02  0.8439277E-01
       -1   -1    0    0    0  501  0.00000000000E+00  0.00000000000E+00  0.11349121538E+04  0.11349121538E+04  0.50400001928E-02 0. -1.
        1   -1    0    0  501    0  0.00000000000E+00  0.00000000000E+00 -0.12694593406E+04  0.12694593406E+04  0.50400001928E-02 0.  1.
    10030    2    1    2    0    0  0.00000000000E+00  0.00000000000E+00 -0.13454718680E+03  0.24043714945E+04  0.24006039528E+04 0.  0.
        4    1    3    3  502    0  0.32912635904E+03 -0.57978378338E+03  0.93241602684E+03  0.11462437157E+04  0.12699999809E+01 0. -1.
       -4    1    3    3    0  502 -0.32912635904E+03  0.57978378338E+03 -0.10669632136E+04  0.12581277788E+04  0.12699999809E+01 0.  1.
</event>
<event>
 5   0  0.5527286E-07  0.2399942E+04  0.7818609E-02  0.8439525E-01
       -1   -1    0    0    0  501  0.00000000000E+00  0.00000000000E+00  0.94311003697E+03  0.94311003698E+03  0.50400001928E-02 0.  1.
        1   -1    0    0  501    0  0.00000000000E+00  0.00000000000E+00 -0.15267891499E+04  0.15267891499E+04  0.50400001928E-02 0. -1.
    10030    2    1    2    0    0  0.00000000000E+00  0.00000000000E+00 -0.58367911292E+03  0.24698991869E+04  0.23999418090E+04 0.  0.
        1    1    3    3  502    0  0.48469393816E+03  0.10266927410E+04 -0.69162672701E+03  0.13294260896E+04  0.50400001928E-02 0. -1.
       -1    1    3    3    0  502 -0.48469393816E+03 -0.10266927410E+04  0.10794761409E+03  0.11404730973E+04  0.50400001928E-02 0.  1.
</event>
<event>
 5   0  0.1336057E-06  0.2399195E+04  0.7818609E-02  0.8439805E-01
       -2   -1    0    0    0  501  0.00000000000E+00  0.00000000000E+00  0.56161711928E+03  0.56161711928E+03  0.25500000920E-02 0. -1.
        2   -1    0    0  501    0  0.00000000000E+00  0.00000000000E+00 -0.25623039509E+04  0.25623039509E+04  0.25500000920E-02 0.  1.
    10030    2    1    2    0    0  0.00000000000E+00  0.00000000000E+00 -0.20006868316E+04  0.31239210702E+04  0.23991946679E+04 0.  0.
        2    1    3    3  502    0 -0.93393855842E+03  0.66389503146E+03 -0.53808829321E+03  0.12659134469E+04  0.25500000920E-02 0.  1.
       -2    1    3    3    0  502  0.93393855842E+03 -0.66389503146E+03 -0.14625985384E+04  0.18580076233E+04  0.25500000920E-02 0. -1.
</event>
<event>
 5   0  0.4483375E-07  0.2399390E+04  0.7818609E-02  0.8439732E-01
        3   -1    0    0  501    0  0.00000000000E+00  0.00000000000E+00  0.15406281913E+04  0.15406281946E+04  0.10100000352E+00 0.  1.
       -3   -1    0    0    0  501  0.00000000000E+00  0.00000000000E+00 -0.93420837426E+03  0.93420837972E+03  0.10100000352E+00 0. -1.
    10030    2    1    2    0    0  0.00000000000E+00  0.00000000000E+00  0.60641981699E+03  0.24748365743E+04  0.23993897297E+04 0.  0.
        3    1    3    3  502    0  0.38868248508E+03  0.79132507723E+03 -0.53600689145E+03  0.10317813964E+04  0.10100000352E+00 0. -1.
       -3    1    3    3    0  502 -0.38868248508E+03 -0.79132507723E+03  0.11424267084E+04  0.14430551779E+04  0.10100000352E+00 0.  1.
</event>
<event>
 5   0  0.5363690E-07  0.2398371E+04  0.7818609E-02  0.8440114E-01
       -1   -1    0    0    0  501  0.00000000000E+00  0.00000000000E+00  0.11617717969E+04  0.11617717969E+04  0.50400001928E-02 0.  1.
        1   -1    0    0  501    0  0.00000000000E+00  0.00000000000E+00 -0.12378042851E+04  0.12378042851E+04  0.50400001928E-02 0. -1.
    10030    2    1    2    0    0  0.00000000000E+00  0.00000000000E+00 -0.76032488206E+02  0.23995760820E+04  0.23983712044E+04 0.  0.
        4    1    3    3  502    0  0.60822051485E+03  0.29865041014E+03  0.95188478493E+03  0.11684222348E+04  0.12699999809E+01 0.  1.
       -4    1    3    3    0  502 -0.60822051485E+03 -0.29865041014E+03 -0.10279172731E+04  0.12311538472E+04  0.12699999809E+01 0. -1.
</event>
<event>
 5   0  0.1291468E-06  0.2399489E+04  0.7818609E-02  0.8439695E-01
       -2   -1    0    0    0  501  0.00000000000E+00  0.00000000000E+00  0.11213972012E+04  0.11213972012E+04  0.25500000920E-02 0. -1.
        2   -1    0    0  501    0  0.00000000000E+00  0.00000000000E+00 -0.12835660984E+04  0.12835660984E+04  0.25500000920E-02 0.  1.
    10030    2    1    2    0    0  0.00000000000E+00  0.00000000000E+00 -0.16216889715E+03  0.24049632996E+04  0.23994894709E+04 0.  0.
        4    1    3    3  502    0  0.87933478212E+03 -0.17023036215E+03 -0.88113958300E+03  0.12564301066E+04  0.12699999809E+01 0.  1.
       -4    1    3    3    0  502 -0.87933478212E+03  0.17023036215E+03  0.71897068585E+03  0.11485331929E+04  0.12699999809E+01 0. -1.
</event>
<event>
 5   0  0.5452384E-07  0.2399792E+04  0.7818609E-02  0.8439582E-01
       -1   -1    0    0    0  501  0.00000000000E+00  0.00000000000E+00  0.16942137418E+04  0.16942137418E+04  0.50400001928E-02 0. -1.
        1   -1    0    0  501    0  0.00000000000E+00  0.00000000000E+00 -0.84980433842E+03  0.84980433843E+03  0.50400001928E-02 0.  1.
    10030    2    1    2    0    0  0.00000000000E+00  0.00000000000E+00  0.84440940337E+03  0.25440180802E+04  0.23997918143E+04 0.  0.
        5    1    3    3  502    0  0.45296314240E+03  0.70964933870E+03  0.13285434590E+04  0.15728406165E+04  0.46999998093E+01 0. -1.
       -5    1    3    3    0  502 -0.45296314240E+03 -0.70964933870E+03 -0.48413405565E+03  0.97117746377E+03  0.46999998093E+01 0.  1.
</event>
<event>
 5   0  0.1307477E-06  0.2398341E+04  0.7818609E-02  0.8440125E-01
        2   -1    0    0  501    0  0.00000000000E+00  0.00000000000E+00  0.18582412780E+04  0.18582412780E+04  0.25500000920E-02 0. -1.
       -2   -1    0    0    0  501  0.00000000000E+00  0.00000000000E+00 -0.77385512183E+03  0.77385512183E+03  0.25500000920E-02 0.  1.
    10030    2    1    2    0    0  0.00000000000E+00  0.00000000000E+00  0.10843861561E+04  0.26320963998E+04  0.23983407019E+04 0.  0.
        5    1    3    3  502    0  0.77189018568E+03  0.64432341328E+03  0.12593516349E+04  0.16115072913E+04  0.46999998093E+01 0. -1.
       -5    1    3    3    0  502 -0.77189018568E+03 -0.64432341328E+03 -0.17496547873E+03  0.10205891085E+04  0.46999998093E+01 0.  1.
</event>
<event>
 5   0  0.1275948E-06  0.2400204E+04  0.7818609E-02  0.8439427E-01
        2   -1    0    0  501    0  0.00000000000E+00  0.00000000000E+00  0.13558121362E+04  0.13558121362E+04  0.25500000920E-02 0. -1.
       -2   -1    0    0    0  501  0.00000000000E+00  0.00000000000E+00 -0.10622743109E+04  0.10622743109E+04  0.25500000920E-02 0.  1.
    10030    2    1    2    0    0  0.00000000000E+00  0.00000000000E+00  0.29353782533E+03  0.24180864471E+04  0.24002036603E+04 0.  0.
        1    1    3    3  502    0 -0.41132479837E+03 -0.10426192863E+04 -0.28538078969E+03  0.11565834432E+04  0.50400001928E-02 0.  1.
       -1    1    3    3    0  502  0.41132479837E+03  0.10426192863E+04  0.57891861502E+03  0.12615030039E+04  0.50400001928E-02 0. -1.
</event>
<event>
 5   0  0.5510176E-07  0.2400947E+04  0.7818609E-02  0.8439149E-01
        1   -1    0    0  501    0  0.00000000000E+00  0.00000000000E+00  0.10322815645E+04  0.10322815645E+04  0.50400001928E-02 0.  1.
       -1   -1    0    0    0  501  0.00000000000E+00  0.00000000000E+00 -0.13960696657E+04  0.13960696657E+04  0.50400001928E-02 0. -1.
    10030    2    1    2    0    0  0.00000000000E+00  0.00000000000E+00 -0.36378810120E+03  0.24283512303E+04  0.24009472954E+04 0.  0.
        3    1    3    3  502    0  0.86406470228E+03 -0.55292662911E+03  0.44876223786E+03  0.11196978268E+04  0.10100000352E+00 0.  1.
       -3    1    3    3    0  502 -0.86406470228E+03  0.55292662911E+03 -0.81255033906E+03  0.13086534035E+04  0.10100000352E+00 0. -1.
</event>
<event>
 5   0  0.5363690E-07  0.2400424E+04  0.7818609E-02  0.8439345E-01
        1   -1    0    0  501    0  0.00000000000E+00  0.00000000000E+00  0.23831740704E+04  0.23831740704E+04  0.50400001928E-02 0. -1.
       -1   -1    0    0    0  501  0.00000000000E+00  0.00000000000E+00 -0.60444988401E+03  0.60444988403E+03  0.50400001928E-02 0.  1.
    10030    2    1    2    0    0  0.00000000000E+00  0.00000000000E+00  0.17787241864E+04  0.29876239545E+04  0.24004243712E+04 0.  0.
        4    1    3    3  502    0  0.91974640632E+02 -0.11942335055E+04  0.79412867028E+03  0.14371134117E+04  0.12699999809E+01 0.  1.
       -4    1    3    3    0  502 -0.91974640632E+02  0.11942335055E+04  0.98459551613E+03  0.15505105428E+04  0.12699999809E+01 0. -1.
</event>
<event>
 5   0  0.5363690E-07  0.2393925E+04  0.7818609E-02  0.8441781E-01
        1   -1    0    0  501    0  0.00000000000E+00  0.00000000000E+00  0.19670418790E+04  0.19670418790E+04  0.50400001928E-02 0. -1.
       -1   -1    0    0    0  501  0.00000000000E+00  0.00000000000E+00 -0.72836248769E+03  0.72836248771E+03  0.50400001928E-02 0.  1.
    10030    2    1    2    0    0  0.00000000000E+00  0.00000000000E+00  0.12386793913E+04  0.26954043667E+04  0.23939252423E+04 0.  0.
        4    1    3    3  502    0  0.57275767012E+03 -0.67237186651E+03  0.15288991611E+04  0.17656923665E+04  0.12699999809E+01 0. -1.
       -4    1    3    3    0  502 -0.57275767012E+03  0.67237186651E+03 -0.29021976980E+03  0.92971200016E+03  0.12699999809E+01 0.  1.
</event>
<event>
 5   0  0.5363690E-07  0.2400414E+04  0.7818609E-02  0.8439349E-01
       -1   -1    0    0    0  501  0.00000000000E+00  0.00000000000E+00  0.75980490389E+03  0.75980490390E+03  0.50400001928E-02 0. -1.
        1   -1    0    0  501    0  0.00000000000E+00  0.00000000000E+00 -0.18958774829E+04  0.18958774829E+04  0.50400001928E-02 0.  1.
    10030    2    1    2    0    0  0.00000000000E+00  0.00000000000E+00 -0.11360725790E+04  0.26556823868E+04  0.24004141382E+04 0.  0.
        4    1    3    3  502    0 -0.37182222242E+03 -0.75420072046E+03  0.37943876281E+03  0.92252147913E+03  0.12699999809E+01 0. -1.
       -4    1    3    3    0  502  0.37182222242E+03  0.75420072046E+03 -0.15155113418E+04  0.17331609077E+04  0.12699999809E+01 0.  1.
</event>
<event>
 5   0  0.5510176E-07  0.2400226E+04  0.7818609E-02  0.8439419E-01
       -1   -1    0    0    0  501  0.00000000000E+00  0.00000000000E+00  0.12504339591E+04  0.12504339591E+04  0.50400001928E-02 0.  1.
        1   -1    0    0  501    0  0.00000000000E+00  0.00000000000E+00 -0.11518170270E+04  0.11518170270E+04  0.50400001928E-02 0. -1.
    10030    2    1    2    0    0  0.00000000000E+00  0.00000000000E+00  0.98616932049E+02  0.24022509861E+04  0.24002259271E+04 0.  0.
        3    1    3    3  502    0  0.10997523157E+04  0.16918199332E+03 -0.40073012725E+03  0.11826505603E+04  0.10100000352E+00 0. -1.
       -3    1    3    3    0  502 -0.10997523157E+04 -0.16918199332E+03  0.49934705930E+03  0.12196004258E+04  0.10100000352E+00 0.  1.
</event>
<event>
 5   0  0.1307477E-06  0.2399015E+04  0.7818609E-02  0.8439873E-01
        2   -1    0    0  501    0  0.00000000000E+00  0.00000000000E+00  0.97777776069E+03  0.97777776069E+03  0.25500000920E-02 0.  1.
       -2   -1    0    0    0  501  0.00000000000E+00  0.00000000000E+00 -0.14715182960E+04  0.14715182960E+04  0.25500000920E-02 0. -1.
    10030    2    1    2    0    0  0.00000000000E+00  0.00000000000E+00 -0.49374053535E+03  0.24492960567E+04  0.23990146847E+04 0.  0.
        5    1    3    3  502    0  0.66875075553E+03  0.95738393681E+03  0.32701462878E+02  0.11682906535E+04  0.46999998093E+01 0. -1.
       -5    1    3    3    0  502 -0.66875075553E+03 -0.95738393681E+03 -0.52644199822E+03  0.12810054032E+04  0.46999998093E+01 0.  1.
</event>
<event>
 5   0  0.1336057E-06  0.2401071E+04  0.7818609E-02  0.8439103E-01
       -2   -1    0    0    0  501  0.00000000000E+00  0.00000000000E+00  0.11161908419E+04  0.11161908419E+04  0.25500000920E-02 0.  1.
        2   -1    0    0  501    0  0.00000000000E+00  0.00000000000E+00 -0.12912533379E+04  0.12912533379E+04  0.25500000920E-02 0. -1.
    10030    2    1    2    0    0  0.00000000000E+00  0.00000000000E+00 -0.17506249599E+03  0.24074441799E+04  0.24010707198E+04 0.  0.
        2    1    3    3  502    0 -0.80481947750E+03  0.17910919778E+02  0.80546745556E+03  0.11387857632E+04  0.25500000920E-02 0.  1.
       -2    1    3    3    0  502  0.80481947750E+03 -0.17910919778E+02 -0.98052995154E+03  0.12686584167E+04  0.25500000920E-02 0. -1.
</event>
<event>
 5   0  0.5690124E-07  0.2400144E+04  0.7818609E-02  0.8439450E-01
       -1   -1    0    0    0  501  0.00000000000E+00  0.00000000000E+00  0.11566534225E+04  0.11566534225E+04  0.50400001928E-02 0. -1.
        1   -1    0    0  501    0  0.00000000000E+00  0.00000000000E+00 -0.12451200153E+04  0.12451200153E+04  0.50400001928E-02 0.  1.
    10030    2    1    2    0    0  0.00000000000E+00  0.00000000000E+00 -0.88466592789E+02  0.24017734378E+04  0.24001436017E+04 0.  0.
        2    1    3    3  502    0 -0.34109185169E+03 -0.98679099841E+03 -0.63630407026E+03  0.12226949725E+04  0.25500000920E-02 0.  1.
       -2    1    3    3    0  502  0.34109185169E+03  0.98679099841E+03  0.54783747747E+03  0.11790784654E+04  0.25500000920E-02 0. -1.
</event>
<event>
 5   0  0.5527286E-07  0.2412606E+04  0.7818609E-02  0.8434799E-01
        1   -1    0    0  501    0  0.00000000000E+00  0.00000000000E+00  0.16139521685E+04  0.16139521686E+04  0.50400001928E-02 0.  1.
       -1   -1    0    0    0  501  0.00000000000E+00  0.00000000000E+00 -0.90161691426E+03  0.90161691427E+03  0.50400001928E-02 0. -1.
    10030    2    1    2    0    0  0.00000000000E+00  0.00000000000E+00  0.71233525429E+03  0.25155690828E+04  0.24126057067E+04 0.  0.
        1    1    3    3  502    0 -0.78727481262E+03 -0.38501056973E+03 -0.50814313968E+03  0.10130371266E+04  0.50400001928E-02 0. -1.
       -1    1    3    3    0  502  0.78727481262E+03  0.38501056973E+03  0.12204783940E+04  0.15025319563E+04  0.50400001928E-02 0.  1.
</event>
<event>
 5   0  0.5510176E-07  0.2400268E+04  0.7818609E-02  0.8439403E-01
       -1   -1    0    0    0  501  0.00000000000E+00  0.00000000000E+00  0.98658708109E+03  0.98658708110E+03  0.50400001928E-02 0.  1.
        1   -1    0    0  501    0  0.00000000000E+00  0.00000000000E+00 -0.14599029060E+04  0.14599029060E+04  0.50400001928E-02 0. -1.
    10030    2    1    2    0    0  0.00000000000E+00  0.00000000000E+00 -0.47331582492E+03  0.24464899871E+04  0.24002677740E+04 0.  0.
        3    1    3    3  502    0  0.51702003948E+03  0.10454873801E+04 -0.52488924919E+03  0.12790083335E+04  0.10100000352E+00 0.  1.
       -3    1    3    3    0  502 -0.51702003948E+03 -0.10454873801E+04  0.51573424270E+02  0.11674816536E+04  0.10100000352E+00 0. -1.
</event>
<event>
 5   0  0.5527286E-07  0.2403647E+04  0.7818609E-02  0.8438140E-01
        1   -1    0    0  501    0  0.00000000000E+00  0.00000000000E+00  0.15025475083E+04  0.15025475083E+04  0.50400001928E-02 0.  1.
       -1   -1    0    0    0  501  0.00000000000E+00  0.00000000000E+00 -0.96128693242E+03  0.96128693243E+03  0.50400001928E-02 0. -1.
    10030    2    1    2    0    0  0.00000000000E+00  0.00000000000E+00  0.54126057584E+03  0.24638344407E+04  0.24036466338E+04 0.  0.
        1    1    3    3  502    0 -0.17679116740E+03  0.11551337800E+04 -0.17094167607E+02  0.11687092783E+04  0.50400001928E-02 0. -1.
       -1    1    3    3    0  502  0.17679116740E+03 -0.11551337800E+04  0.55835474345E+03  0.12951251624E+04  0.50400001928E-02 0.  1.
</event>
<event>
 5   0  0.5363690E-07  0.2399888E+04  0.7818609E-02  0.8439546E-01
       -1   -1    0    0    0  501  0.00000000000E+00  0.00000000000E+00  0.85174842211E+03  0.85174842213E+03  0.50400001928E-02 0.  1.
        1   -1    0    0  501    0  0.00000000000E+00  0.00000000000E+00 -0.16904820417E+04  0.16904820418E+04  0.50400001928E-02 0. -1.
    10030    2    1    2    0    0  0.00000000000E+00  0.00000000000E+00 -0.83873361963E+03  0.25422304639E+04  0.23998878405E+04 0.  0.
        4    1    3    3  502    0  0.10217354970E+04 -0.12799741730E+03  0.23323917626E+03  0.10558072224E+04  0.12699999809E+01 0.  1.
       -4    1    3    3    0  502 -0.10217354970E+04  0.12799741730E+03 -0.10719727959E+04  0.14864232415E+04  0.12699999809E+01 0. -1.
</event>
<event>
 5   0  0.5363690E-07  0.2397451E+04  0.7818609E-02  0.8440458E-01
       -1   -1    0    0    0  501  0.00000000000E+00  0.00000000000E+00  0.75834194110E+03  0.75834194112E+03  0.50400001928E-02 0. -1.
        1   -1    0    0  501    0  0.00000000000E+00  0.00000000000E+00 -0.18948482996E+04  0.18948482996E+04  0.50400001928E-02 0.  1.
    10030    2    1    2    0    0  0.00000000000E+00  0.00000000000E+00 -0.11365063585E+04  0.26531902408E+04  0.23974510945E+04 0.  0.
        4    1    3    3  502    0  0.50850930072E+03 -0.10652860126E+04 -0.33737140237E+03  0.12276958392E+04  0.12699999809E+01 0. -1.
       -4    1    3    3    0  502 -0.50850930072E+03  0.10652860126E+04 -0.79913495617E+03  0.14254944015E+04  0.12699999809E+01 0.  1.
</event>
<event>
 5   0  0.5510176E-07  0.2400169E+04  0.7818609E-02  0.8439440E-01
       -1   -1    0    0    0  501  0.00000000000E+00  0.00000000000E+00  0.14996405554E+04  0.14996405554E+04  0.50400001928E-02 0.  1.
        1   -1    0    0  501    0  0.00000000000E+00  0.00000000000E+00 -0.96036549912E+03  0.96036549913E+03  0.50400001928E-02 0. -1.
    10030    2    1    2    0    0  0.00000000000E+00  0.00000000000E+00  0.53927505623E+03  0.24600060545E+04  0.24001692028E+04 0.  0.
        3    1    3    3  502    0 -0.25815316510E+03  0.61661953585E+01  0.14708286705E+04  0.14933245015E+04  0.10100000352E+00 0.  1.
       -3    1    3    3    0  502  0.25815316510E+03 -0.61661953585E+01 -0.93155361422E+03  0.96668155304E+03  0.10100000352E+00 0. -1.
</event>
<event>
 5   0  0.1336057E-06  0.2400846E+04  0.7818609E-02  0.8439187E-01
        2   -1    0    0  501    0  0.00000000000E+00  0.00000000000E+00  0.16678503650E+04  0.16678503650E+04  0.25500000920E-02 0.  1.
       -2   -1    0    0    0  501  0.00000000000E+00  0.00000000000E+00 -0.86399537792E+03  0.86399537793E+03  0.25500000920E-02 0. -1.
    10030    2    1    2    0    0  0.00000000000E+00  0.00000000000E+00  0.80385498704E+03  0.25318457429E+04  0.24008456897E+04 0.  0.
        2    1    3    3  502    0  0.52889134774E+01  0.47778096714E+03  0.15632474800E+04  0.16346391984E+04  0.25500000920E-02 0.  1.
       -2    1    3    3    0  502 -0.52889134774E+01 -0.47778096714E+03 -0.75939249295E+03  0.89720654452E+03  0.25500000920E-02 0. -1.
</event>
<event>
 5   0  0.5452384E-07  0.2399367E+04  0.7818609E-02  0.8439741E-01
       -1   -1    0    0    0  501  0.00000000000E+00  0.00000000000E+00  0.87193411026E+03  0.87193411028E+03  0.50400001928E-02 0. -1.
        1   -1    0    0  501    0  0.00000000000E+00  0.00000000000E+00 -0.16506298421E+04  0.16506298421E+04  0.50400001928E-02 0.  1.
    10030    2    1    2    0    0  0.00000000000E+00  0.00000000000E+00 -0.77869573187E+03  0.25225639524E+04  0.23993669689E+04 0.  0.
        5    1    3    3  502    0  0.81341800135E+03 -0.26711441269E+03  0.49417000210E+03  0.98854693129E+03  0.46999998093E+01 0. -1.
       -5    1    3    3    0  502 -0.81341800135E+03  0.26711441269E+03 -0.12728657340E+04  0.15340170211E+04  0.46999998093E+01 0.  1.
</event>
<event>
 5   0  0.1275948E-06  0.2399728E+04  0.7818609E-02  0.8439606E-01
       -2   -1    0    0    0  501  0.00000000000E+00  0.00000000000E+00  0.68404756616E+03  0.68404756617E+03  0.25500000920E-02 0. -1.
        2   -1    0    0  501    0  0.00000000000E+00  0.00000000000E+00 -0.21046389801E+04  0.21046389801E+04  0.25500000920E-02 0.  1.
    10030    2    1    2    0    0  0.00000000000E+00  0.00000000000E+00 -0.14205914140E+04  0.27886865463E+04  0.23997276279E+04 0.  0.
        1    1    3    3  502    0 -0.11844467106E+04 -0.16478897863E+01 -0.93309022885E+03  0.15078375579E+04  0.50400001928E-02 0.  1.
       -1    1    3    3    0  502  0.11844467106E+04  0.16478897863E+01 -0.48750118513E+03  0.12808489885E+04  0.50400001928E-02 0. -1.
</event>
<event>
 5   0  0.5510176E-07  0.2399891E+04  0.7818609E-02  0.8439544E-01
        1   -1    0    0  501    0  0.00000000000E+00  0.00000000000E+00  0.13399877477E+04  0.13399877477E+04  0.50400001928E-02 0.  1.
       -1   -1    0    0    0  501  0.00000000000E+00  0.00000000000E+00 -0.10745392398E+04  0.10745392398E+04  0.50400001928E-02 0. -1.
    10030    2    1    2    0    0  0.00000000000E+00  0.00000000000E+00  0.26544850793E+03  0.24145269875E+04  0.23998911773E+04 0.  0.
        3    1    3    3  502    0  0.44041362151E+03 -0.10709255454E+04  0.44932369357E+03  0.12420698344E+04  0.10100000352E+00 0.  1.
       -3    1    3    3    0  502 -0.44041362151E+03  0.10709255454E+04 -0.18387518564E+03  0.11724571531E+04  0.10100000352E+00 0. -1.
</event>
<event>
 5   0  0.1275948E-06  0.2400442E+04  0.7818609E-02  0.8439338E-01
       -2   -1    0    0    0  501  0.00000000000E+00  0.00000000000E+00  0.93100449525E+03  0.93100449525E+03  0.25500000920E-02 0.  1.
        2   -1    0    0  501    0  0.00000000000E+00  0.00000000000E+00 -0.15472858260E+04  0.15472858260E+04  0.25500000920E-02 0. -1.
    10030    2    1    2    0    0  0.00000000000E+00  0.00000000000E+00 -0.61628133077E+03  0.24782903213E+04  0.24004416756E+04 0.  0.
        1    1    3    3  502    0 -0.11554264262E+04 -0.20799108164E+03 -0.56575141829E+03  0.13032057335E+04  0.50400001928E-02 0. -1.
       -1    1    3    3    0  502  0.11554264262E+04  0.20799108164E+03 -0.50529912472E+02  0.11750845878E+04  0.50400001928E-02 0.  1.
</event>
<event>
 5   0  0.5527286E-07  0.2400651E+04  0.7818609E-02  0.8439260E-01
       -1   -1    0    0    0  501  0.00000000000E+00  0.00000000000E+00  0.86250113173E+03  0.86250113174E+03  0.50400001928E-02 0. -1.
        1   -1    0    0  501    0  0.00000000000E+00  0.00000000000E+00 -0.16704682838E+04  0.16704682839E+04  0.50400001928E-02 0.  1.
    10030    2    1    2    0    0  0.00000000000E+00  0.00000000000E+00 -0.80796715212E+03  0.25329694156E+04  0.24006505663E+04 0.  0.
        1    1    3    3  502    0 -0.11785058647E+04  0.10142752168E+03 -0.18873649575E+03  0.11978251459E+04  0.50400001928E-02 0.  1.
       -1    1    3    3    0  502  0.11785058647E+04 -0.10142752168E+03 -0.61923065637E+03  0.13351442697E+04  0.50400001928E-02 0. -1.
</event>
<event>
 5   0  0.1307477E-06  0.2399885E+04  0.7818609E-02  0.8439546E-01
       -2   -1    0    0    0  501  0.00000000000E+00  0.00000000000E+00  0.11972539584E+04  0.11972539584E+04  0.25500000920E-02 0. -1.
        2   -1    0    0  501    0  0.00000000000E+00  0.00000000000E+00 -0.12026375602E+04  0.12026375602E+04  0.25500000920E-02 0.  1.
    10030    2    1    2    0    0  0.00000000000E+00  0.00000000000E+00 -0.53836017735E+01  0.23998915186E+04  0.23998854801E+04 0.  0.
        5    1    3    3  502    0 -0.28464028282E+01  0.48009153956E+03 -0.11023965735E+04  0.12024126927E+04  0.46999998093E+01 0.  1.
       -5    1    3    3    0  502  0.28464028282E+01 -0.48009153956E+03  0.10970129717E+04  0.11974788259E+04  0.46999998093E+01 0. -1.
</event>
<event>
 5   0  0.5690124E-07  0.2400028E+04  0.7818609E-02  0.8439493E-01
        1   -1    0    0  501    0  0.00000000000E+00  0.00000000000E+00  0.12098049281E+04  0.12098049281E+04  0.50400001928E-02 0.  1.
       -1   -1    0    0    0  501  0.00000000000E+00  0.00000000000E+00 -0.11903026755E+04  0.11903026755E+04  0.50400001928E-02 0. -1.
    10030    2    1    2    0    0  0.00000000000E+00  0.00000000000E+00  0.19502252592E+02  0.24001076037E+04  0.24000283689E+04 0.  0.
        2    1    3    3  502    0  0.31470852369E+03 -0.89120277001E+03 -0.72969888027E+03  0.11940453459E+04  0.25500000920E-02 0. -1.
       -2    1    3    3    0  502 -0.31470852369E+03  0.89120277001E+03  0.74920113286E+03  0.12060622578E+04  0.25500000920E-02 0.  1.
</event>
<event>
 5   0  0.1308662E-06  0.2400324E+04  0.7818609E-02  0.8439382E-01
       -2   -1    0    0    0  501  0.00000000000E+00  0.00000000000E+00  0.98866981561E+03  0.98866981562E+03  0.25500000920E-02 0. -1.
        2   -1    0    0  501    0  0.00000000000E+00  0.00000000000E+00 -0.14568957036E+04  0.14568957036E+04  0.25500000920E-02 0.  1.
    10030    2    1    2    0    0  0.00000000000E+00  0.00000000000E+00 -0.46822588794E+03  0.24455655192E+04  0.24003239836E+04 0.  0.
        3    1    3    3  502    0 -0.72413225366E+03  0.26509714889E+03  0.70286442248E+03  0.10433898724E+04  0.10100000352E+00 0. -1.
       -3    1    3    3    0  502  0.72413225366E+03 -0.26509714889E+03 -0.11710903104E+04  0.14021756468E+04  0.10100000352E+00 0.  1.
</event>
<event>
 5   0  0.1336057E-06  0.2399609E+04  0.7818609E-02  0.8439650E-01
        2   -1    0    0  501    0  0.00000000000E+00  0.00000000000E+00  0.13408825349E+04  0.13408825349E+04  0.25500000920E-02 0. -1.
       -2   -1    0    0    0  501  0.00000000000E+00  0.00000000000E+00 -0.10735695914E+04  0.10735695914E+04  0.25500000920E-02 0.  1.
    10030    2    1    2    0    0  0.00000000000E+00  0.00000000000E+00  0.26731294357E+03  0.24144521263E+04  0.23996088974E+04 0.  0.
        2    1    3    3  502    0  0.74178952291E+03  0.85323536977E+03  0.53772293291E+03  0.12519617586E+04  0.25500000920E-02 0. -1.
       -2    1    3    3    0  502 -0.74178952291E+03 -0.85323536977E+03 -0.27040998934E+03  0.11624903676E+04  0.25500000920E-02 0.  1.
</event>
<event>
 5   0  0.5690124E-07  0.2403678E+04  0.7818609E-02  0.8438128E-01
        1   -1    0    0  501    0  0.00000000000E+00  0.00000000000E+00  0.20021299556E+04  0.20021299556E+04  0.50400001928E-02 0. -1.
       -1   -1    0    0    0  501  0.00000000000E+00  0.00000000000E+00 -0.72143989157E+03  0.72143989159E+03  0.50400001928E-02 0.  1.
    10030    2    1    2    0    0  0.00000000000E+00  0.00000000000E+00  0.12806900640E+04  0.27235698472E+04  0.24036775309E+04 0.  0.
        2    1    3    3  502    0 -0.47073131144E+03 -0.56805711957E+03  0.17153667495E+04  0.18672867867E+04  0.25500000920E-02 0. -1.
       -2    1    3    3    0  502  0.47073131144E+03  0.56805711957E+03 -0.43467668549E+03  0.85628306043E+03  0.25500000920E-02 0.  1.
</event>
<event>
 5   0  0.1307477E-06  0.2399937E+04  0.7818609E-02  0.8439527E-01
        2   -1    0    0  501    0  0.00000000000E+00  0.00000000000E+00  0.16347261612E+04  0.16347261612E+04  0.25500000920E-02 0.  1.
       -2   -1    0    0    0  501  0.00000000000E+00  0.00000000000E+00 -0.88083547779E+03  0.88083547779E+03  0.25500000920E-02 0. -1.
    10030    2    1    2    0    0  0.00000000000E+00  0.00000000000E+00  0.75389068337E+03  0.25155616390E+04  0.23999373319E+04 0.  0.
        5    1    3    3  502    0 -0.23689993308E+03  0.11447197491E+04  0.92972594246E+02  0.11726767992E+04  0.46999998093E+01 0.  1.
       -5    1    3    3    0  502  0.23689993308E+03 -0.11447197491E+04  0.66091808913E+03  0.13428848397E+04  0.46999998093E+01 0. -1.
</event>
<event>
 5   0  0.1307477E-06  0.2399501E+04  0.7818609E-02  0.8439690E-01
       -2   -1    0    0    0  501  0.00000000000E+00  0.00000000000E+00  0.10508599907E+04  0.10508599907E+04  0.25500000920E-02 0. -1.
        2   -1    0    0  501    0  0.00000000000E+00  0.00000000000E+00 -0.13697370171E+04  0.13697370171E+04  0.25500000920E-02 0.  1.
    10030    2    1    2    0    0  0.00000000000E+00  0.00000000000E+00 -0.31887702638E+03  0.24205970078E+04  0.23995014725E+04 0.  0.
        5    1    3    3  502    0  0.10911065917E+04 -0.38283975219E+03  0.16321694000E+03  0.11677935305E+04  0.46999998093E+01 0.  1.
       -5    1    3    3    0  502 -0.10911065917E+04  0.38283975219E+03 -0.48209396638E+03  0.12528034773E+04  0.46999998093E+01 0. -1.
</event>
<event>
 5   0  0.1308662E-06  0.2399998E+04  0.7818609E-02  0.8439504E-01
       -2   -1    0    0    0  501  0.00000000000E+00  0.00000000000E+00  0.85418457908E+03  0.85418457909E+03  0.25500000920E-02 0. -1.
        2   -1    0    0  501    0  0.00000000000E+00  0.00000000000E+00 -0.16858152884E+04  0.16858152884E+04  0.25500000920E-02 0.  1.
    10030    2    1    2    0    0  0.00000000000E+00  0.00000000000E+00 -0.83163070930E+03  0.25399998675E+04  0.23999978521E+04 0.  0.
        3    1    3    3  502    0  0.30885558935E+03 -0.79710471660E+02 -0.16401264115E+04  0.16708561250E+04  0.10100000352E+00 0.  1.
       -3    1    3    3    0  502 -0.30885558935E+03  0.79710471660E+02  0.80849570224E+03  0.86914374249E+03  0.10100000352E+00 0. -1.
</event>
<event>
 5   0  0.1275948E-06  0.2400823E+04  0.7818609E-02  0.8439195E-01
       -2   -1    0    0    0  501  0.00000000000E+00  0.00000000000E+00  0.10166068415E+04  0.10166068415E+04  0.25500000920E-02 0. -1.
        2   -1    0    0  501    0  0.00000000000E+00  0.00000000000E+00 -0.14174488888E+04  0.14174488888E+04  0.25500000920E-02 0.  1.
    10030    2    1    2    0    0  0.00000000000E+00  0.00000000000E+00 -0.40084204721E+03  0.24340557303E+04  0.24008233903E+04 0.  0.
        1    1    3    3  502    0  0.79662696217E+03 -0.82750791246E+03  0.15312414393E+03  0.11588057928E+04  0.50400001928E-02 0. -1.
       -1    1    3    3    0  502 -0.79662696217E+03  0.82750791246E+03 -0.55396619115E+03  0.12752499375E+04  0.50400001928E-02 0.  1.
</event>
<event>
 5   0  0.5452384E-07  0.2381397E+04  0.7818609E-02  0.8446501E-01
        1   -1    0    0  501    0  0.00000000000E+00  0.00000000000E+00  0.26187751682E+04  0.26187751682E+04  0.50400001928E-02 0.  1.
       -1   -1    0    0    0  501  0.00000000000E+00  0.00000000000E+00 -0.54138379462E+03  0.54138379464E+03  0.50400001928E-02 0. -1.
    10030    2    1    2    0    0  0.00000000000E+00  0.00000000000E+00  0.20773913736E+04  0.31601589628E+04  0.23813965968E+04 0.  0.
        5    1    3    3  502    0  0.22023889621E+03 -0.41703769933E+03  0.24895317320E+04  0.25338145056E+04  0.46999998093E+01 0.  1.
       -5    1    3    3    0  502 -0.22023889621E+03  0.41703769933E+03 -0.41214035844E+03  0.62634445725E+03  0.46999998093E+01 0. -1.
</event>
<event>
 5   0  0.5527286E-07  0.2396997E+04  0.7818609E-02  0.8440629E-01
       -1   -1    0    0    0  501  0.00000000000E+00  0.00000000000E+00  0.18970320216E+04  0.18970320216E+04  0.50400001928E-02 0.  1.
        1   -1    0    0  501    0  0.00000000000E+00  0.00000000000E+00 -0.75718182228E+03  0.75718182229E+03  0.50400001928E-02 0. -1.
    10030    2    1    2    0    0  0.00000000000E+00  0.00000000000E+00  0.11398501993E+04  0.26542138439E+04  0.23969965899E+04 0.  0.
        1    1    3    3  502    0 -0.27973808192E+03 -0.19852881426E+03  0.18415136667E+04  0.18731897046E+04  0.50400001928E-02 0.  1.
       -1    1    3    3    0  502  0.27973808192E+03  0.19852881426E+03 -0.70166346745E+03  0.78102413928E+03  0.50400001928E-02 0. -1.
</event>
<event>
 5   0  0.1336057E-06  0.2400192E+04  0.7818609E-02  0.8439432E-01
        2   -1    0    0  501    0  0.00000000000E+00  0.00000000000E+00  0.10299094072E+04  0.10299094072E+04  0.25500000920E-02 0.  1.
       -2   -1    0    0    0  501  0.00000000000E+00  0.00000000000E+00 -0.13984054828E+04  0.13984054828E+04  0.25500000920E-02 0. -1.
    10030    2    1    2    0    0  0.00000000000E+00  0.00000000000E+00 -0.36849607560E+03  0.24283148900E+04  0.24001924605E+04 0.  0.
        2    1    3    3  502    0 -0.78236386229E+03 -0.39572675421E+03  0.64482780211E+03  0.10883454283E+04  0.25500000920E-02 0.  1.
       -2    1    3    3    0  502  0.78236386229E+03  0.39572675421E+03 -0.10133238777E+04  0.13399694617E+04  0.25500000920E-02 0. -1.
</event>
<event>
 5   0  0.5690124E-07  0.2399909E+04  0.7818609E-02  0.8439538E-01
       -1   -1    0    0    0  501  0.00000000000E+00  0.00000000000E+00  0.12263633064E+04  0.12263633064E+04  0.50400001928E-02 0. -1.
        1   -1    0    0  501    0  0.00000000000E+00  0.00000000000E+00 -0.11741139407E+04  0.11741139407E+04  0.50400001928E-02 0.  1.
    10030    2    1    2    0    0  0.00000000000E+00  0.00000000000E+00  0.52249365649E+02  0.24004772471E+04  0.23999085436E+04 0.  0.
        2    1    3    3  502    0 -0.29874407596E+03  0.11578861976E+04  0.12585681026E+03  0.12024094171E+04  0.25500000920E-02 0.  1.
       -2    1    3    3    0  502  0.29874407596E+03 -0.11578861976E+04 -0.73607444612E+02  0.11980678301E+04  0.25500000920E-02 0. -1.
</event>
<event>
 5   0  0.1275948E-06  0.2400002E+04  0.7818609E-02  0.8439503E-01
       -2   -1    0    0    0  501  0.00000000000E+00  0.00000000000E+00  0.12207739536E+04  0.12207739536E+04  0.25500000920E-02 0. -1.
        2   -1    0    0  501    0  0.00000000000E+00  0.00000000000E+00 -0.11795810486E+04  0.11795810486E+04  0.25500000920E-02 0.  1.
    10030    2    1    2    0    0  0.00000000000E+00  0.00000000000E+00  0.41192904984E+02  0.24003550022E+04  0.24000015170E+04 0.  0.
        1    1    3    3  502    0  0.10896767588E+04  0.46596479790E+03  0.20899401586E+03  0.12034106241E+04  0.50400001928E-02 0. -1.
       -1    1    3    3    0  502 -0.10896767588E+04 -0.46596479790E+03 -0.16780111088E+03  0.11969443781E+04  0.50400001928E-02 0.  1.
</event>
<event>
 5   0  0.1307477E-06  0.2400226E+04  0.7818609E-02  0.8439419E-01
       -2   -1    0    0    0  501  0.00000000000E+00  0.00000000000E+00  0.66528630749E+03  0.66528630749E+03  0.25500000920E-02 0. -1.
        2   -1    0    0  501    0  0.00000000000E+00  0.00000000000E+00 -0.21648901929E+04  0.21648901929E+04  0.25500000920E-02 0.  1.
    10030    2    1    2    0    0  0.00000000000E+00  0.00000000000E+00 -0.14996038854E+04  0.28301765004E+04  0.24002264915E+04 0.  0.
        5    1    3    3  502    0 -0.10002810297E+04  0.56925872308E+03 -0.11507614037E+04  0.16275415603E+04  0.46999998093E+01 0.  1.
       -5    1    3    3    0  502  0.10002810297E+04 -0.56925872308E+03 -0.34884248177E+03  0.12026349402E+04  0.46999998093E+01 0. -1.
</event>
<event>
 5   0  0.5510176E-07  0.2400185E+04  0.7818609E-02  0.8439434E-01
       -1   -1    0    0    0  501  0.00000000000E+00  0.00000000000E+00  0.57992047377E+03  0.57992047379E+03  0.50400001928E-02 0. -1.
        1   -1    0    0  501    0  0.00000000000E+00  0.00000000000E+00 -0.24834820729E+04  0.24834820729E+04  0.50400001928E-02 0.  1.
    10030    2    1    2    0    0  0.00000000000E+00  0.00000000000E+00 -0.19035615991E+04  0.30634025467E+04  0.24001850765E+04 0.  0.
        3    1    3    3  502    0  0.56173738512E+03 -0.77364924259E+03 -0.18775655413E+04  0.21069728077E+04  0.10100000352E+00 0. -1.
       -3    1    3    3    0  502 -0.56173738512E+03  0.77364924259E+03 -0.25996057845E+02  0.95642973899E+03  0.10100000352E+00 0.  1.
</event>
<event>
 5   0  0.5452384E-07  0.2400406E+04  0.7818609E-02  0.8439352E-01
        1   -1    0    0  501    0  0.00000000000E+00  0.00000000000E+00  0.25619947618E+04  0.25619947618E+04  0.50400001928E-02 0. -1.
       -1   -1    0    0    0  501  0.00000000000E+00  0.00000000000E+00 -0.56225209125E+03  0.56225209127E+03  0.50400001928E-02 0.  1.
    10030    2    1    2    0    0  0.00000000000E+00  0.00000000000E+00  0.19997426705E+04  0.31242468531E+04  0.24004057262E+04 0.  0.
        5    1    3    3  502    0  0.26729485328E+03  0.98308347288E+03  0.17406390705E+03  0.10335472834E+04  0.46999998093E+01 0.  1.
       -5    1    3    3    0  502 -0.26729485328E+03 -0.98308347288E+03  0.18256787635E+04  0.20906995697E+04  0.46999998093E+01 0. -1.
</event>
<event>
 5   0  0.1275948E-06  0.2396456E+04  0.7818609E-02  0.8440832E-01
       -2   -1    0    0    0  501  0.00000000000E+00  0.00000000000E+00  0.11151620390E+04  0.11151620390E+04  0.25500000920E-02 0.  1.
        2   -1    0    0  501    0  0.00000000000E+00  0.00000000000E+00 -0.12874814382E+04  0.12874814382E+04  0.25500000920E-02 0. -1.
    10030    2    1    2    0    0  0.00000000000E+00  0.00000000000E+00 -0.17231939918E+03  0.24026434772E+04  0.23964560717E+04 0.  0.
        1    1    3    3  502    0 -0.27344602847E+03 -0.53436653103E+03 -0.11258666665E+04  0.12758903051E+04  0.50400001928E-02 0. -1.
       -1    1    3    3    0  502  0.27344602847E+03  0.53436653103E+03  0.95354726728E+03  0.11267531721E+04  0.50400001928E-02 0.  1.
</event>
<event>
 5   0  0.1291468E-06  0.2400110E+04  0.7818609E-02  0.8439462E-01
       -2   -1    0    0    0  501  0.00000000000E+00  0.00000000000E+00  0.15350375131E+04  0.15350375131E+04  0.25500000920E-02 0.  1.
        2   -1    0    0  501    0  0.00000000000E+00  0.00000000000E+00 -0.93817395520E+03  0.93817395521E+03  0.25500000920E-02 0. -1.
    10030    2    1    2    0    0  0.00000000000E+00  0.00000000000E+00  0.59686355788E+03  0.24732114683E+04  0.24001101767E+04 0.  0.
        4    1    3    3  502    0 -0.44758797313E+03 -0.26268084321E+03 -0.81655672180E+03  0.96752401102E+03  0.12699999809E+01 0. -1.
       -4    1    3    3    0  502  0.44758797313E+03  0.26268084321E+03  0.14134202797E+04  0.15056874573E+04  0.12699999809E+01 0.  1.
</event>
<event>
 5   0  0.5690124E-07  0.2400339E+04  0.7818609E-02  0.8439377E-01
       -1   -1    0    0    0  501  0.00000000000E+00  0.00000000000E+00  0.69659212051E+03  0.69659212052E+03  0.50400001928E-02 0.  1.
        1   -1    0    0  501    0  0.00000000000E+00  0.00000000000E+00 -0.20677901500E+04  0.20677901500E+04  0.50400001928E-02 0. -1.
    10030    2    1    2    0    0  0.00000000000E+00  0.00000000000E+00 -0.13711980295E+04  0.27643822705E+04  0.24003385806E+04 0.  0.
        2    1    3    3  502    0 -0.35917697535E+03 -0.76379965877E+02 -0.20015046016E+04  0.20349109732E+04  0.25500000920E-02 0. -1.
       -2    1    3    3    0  502  0.35917697535E+03  0.76379965877E+02  0.63030657207E+03  0.72947129732E+03  0.25500000920E-02 0.  1.
</event>
<event>
 5   0  0.5363690E-07  0.2398878E+04  0.7818609E-02  0.8439924E-01
        1   -1    0    0  501    0  0.00000000000E+00  0.00000000000E+00  0.11833554482E+04  0.11833554482E+04  0.50400001928E-02 0.  1.
       -1   -1    0    0    0  501  0.00000000000E+00  0.00000000000E+00 -0.12157409801E+04  0.12157409801E+04  0.50400001928E-02 0. -1.
    10030    2    1    2    0    0  0.00000000000E+00  0.00000000000E+00 -0.32385531893E+02  0.23990964284E+04  0.23988778314E+04 0.  0.
        4    1    3    3  502    0 -0.52575649215E+03 -0.44976807783E+02 -0.10934210400E+04  0.12140897767E+04  0.12699999809E+01 0. -1.
       -4    1    3    3    0  502  0.52575649215E+03  0.44976807783E+02  0.10610355081E+04  0.11850066517E+04  0.12699999809E+01 0.  1.
</event>
<event>
 5   0  0.1308662E-06  0.2403171E+04  0.7818609E-02  0.8438317E-01
        2   -1    0    0  501    0  0.00000000000E+00  0.00000000000E+00  0.22207564646E+04  0.22207564646E+04  0.25500000920E-02 0. -1.
       -2   -1    0    0    0  501  0.00000000000E+00  0.00000000000E+00 -0.65014239984E+03  0.65014239984E+03  0.25500000920E-02 0.  1.
    10030    2    1    2    0    0  0.00000000000E+00  0.00000000000E+00  0.15706140648E+04  0.28708988644E+04  0.24031711860E+04 0.  0.
        3    1    3    3  502    0 -0.11660247949E+04  0.15149737388E+03  0.48966908729E+03  0.12737115457E+04  0.10100000352E+00 0.  1.
       -3    1    3    3    0  502  0.11660247949E+04 -0.15149737388E+03  0.10809449775E+04  0.15971873187E+04  0.10100000352E+00 0. -1.
</event>
<event>
 5   0  0.5527286E-07  0.2404063E+04  0.7818609E-02  0.8437984E-01
       -1   -1    0    0    0  501  0.00000000000E+00  0.00000000000E+00  0.10375640628E+04  0.10375640628E+04  0.50400001928E-02 0.  1.
        1   -1    0    0  501    0  0.00000000000E+00  0.00000000000E+00 -0.13925695045E+04  0.13925695045E+04  0.50400001928E-02 0. -1.
    10030    2    1    2    0    0  0.00000000000E+00  0.00000000000E+00 -0.35500544175E+03  0.24301335673E+04  0.24040632877E+04 0.  0.
        1    1    3    3  502    0  0.88165194488E+03 -0.66895156598E+03  0.29670469721E+03  0.11457923140E+04  0.50400001928E-02 0. -1.
       -1    1    3    3    0  502 -0.88165194488E+03  0.66895156598E+03 -0.65171013896E+03  0.12843412532E+04  0.50400001928E-02 0.  1.
</event>
<event>
 5   0  0.1307477E-06  0.2400492E+04  0.7818609E-02  0.8439319E-01
       -2   -1    0    0    0  501  0.00000000000E+00  0.00000000000E+00  0.10015791449E+04  0.10015791449E+04  0.25500000920E-02 0.  1.
        2   -1    0    0  501    0  0.00000000000E+00  0.00000000000E+00 -0.14383194989E+04  0.14383194989E+04  0.25500000920E-02 0. -1.
    10030    2    1    2    0    0  0.00000000000E+00  0.00000000000E+00 -0.43674035405E+03  0.24398986438E+04  0.24004922943E+04 0.  0.
        5    1    3    3  502    0 -0.49045161243E+03 -0.91592137456E+01 -0.13317711731E+04  0.14192474142E+04  0.46999998093E+01 0. -1.
       -5    1    3    3    0  502  0.49045161243E+03  0.91592137456E+01  0.89503081905E+03  0.10206512295E+04  0.46999998093E+01 0.  1.
</event>
<event>
 5   0  0.5690124E-07  0.2398141E+04  0.7818609E-02  0.8440200E-01
       -1   -1    0    0    0  501  0.00000000000E+00  0.00000000000E+00  0.88547801291E+03  0.88547801292E+03  0.50400001928E-02 0. -1.
        1   -1    0    0  501    0  0.00000000000E+00  0.00000000000E+00 -0.16237219324E+04  0.16237219324E+04  0.50400001928E-02 0.  1.
    10030    2    1    2    0    0  0.00000000000E+00  0.00000000000E+00 -0.73824391947E+03  0.25091999453E+04  0.23981410052E+04 0.  0.
        2    1    3    3  502    0  0.10765596768E+04  0.50704333761E+03 -0.21500364308E+03  0.12092560732E+04  0.25500000920E-02 0. -1.
       -2    1    3    3    0  502 -0.10765596768E+04 -0.50704333761E+03 -0.52324027639E+03  0.12999438722E+04  0.25500000920E-02 0.  1.
</event>
<event>
 5   0  0.1275948E-06  0.2398742E+04  0.7818609E-02  0.8439975E-01
        2   -1    0    0  501    0  0.00000000000E+00  0.00000000000E+00  0.72080856854E+03  0.72080856855E+03  0.25500000920E-02 0. -1.
       -2   -1    0    0    0  501  0.00000000000E+00  0.00000000000E+00 -0.19956629162E+04  0.19956629162E+04  0.25500000920E-02 0.  1.
    10030    2    1    2    0    0  0.00000000000E+00  0.00000000000E+00 -0.12748543477E+04  0.27164714848E+04  0.23987421120E+04 0.  0.
        1    1    3    3  502    0 -0.68086615029E+03 -0.51193525727E+02  0.47922990053E+03  0.83418270737E+03  0.50400001928E-02 0. -1.
       -1    1    3    3    0  502  0.68086615029E+03  0.51193525727E+02 -0.17540842482E+04  0.18822887774E+04  0.50400001928E-02 0.  1.
</event>
<event>
 5   0  0.1336057E-06  0.2399429E+04  0.7818609E-02  0.8439717E-01
        2   -1    0    0  501    0  0.00000000000E+00  0.00000000000E+00  0.15623227459E+04  0.15623227459E+04  0.25500000920E-02 0.  1.
       -2   -1    0    0    0  501  0.00000000000E+00  0.00000000000E+00 -0.92126635231E+03  0.92126635231E+03  0.25500000920E-02 0. -1.
    10030    2    1    2    0    0  0.00000000000E+00  0.00000000000E+00  0.64105639360E+03  0.24835890982E+04  0.23994294132E+04 0.  0.
        2    1    3    3  502    0 -0.24960769965E+02 -0.86034108911E+03 -0.54455264934E+03  0.10185025368E+04  0.25500000920E-02 0. -1.
       -2    1    3    3    0  502  0.24960769965E+02  0.86034108911E+03  0.11856090429E+04  0.14650865614E+04  0.25500000920E-02 0.  1.
</event>
<event>
 5   0  0.4483375E-07  0.2396552E+04  0.7818609E-02  0.8440796E-01
        3   -1    0    0  501    0  0.00000000000E+00  0.00000000000E+00  0.97610837153E+03  0.97610837675E+03  0.10100000352E+00 0.  1.
       -3   -1    0    0    0  501  0.00000000000E+00  0.00000000000E+00 -0.14710102833E+04  0.14710102868E+04  0.10100000352E+00 0. -1.
    10030    2    1    2    0    0  0.00000000000E+00  0.00000000000E+00 -0.49490191180E+03  0.24471186636E+04  0.23965520756E+04 0.  0.
        4    1    3    3  502    0  0.79727013490E+02  0.11906820639E+04 -0.35829402806E+03  0.12459760822E+04  0.12699999809E+01 0.  1.
       -4    1    3    3    0  502 -0.79727013490E+02 -0.11906820639E+04 -0.13660788375E+03  0.12011425814E+04  0.12699999809E+01 0. -1.
</event>
<event>
 5   0  0.5363690E-07  0.2399974E+04  0.7818609E-02  0.8439513E-01
       -1   -1    0    0    0  501  0.00000000000E+00  0.00000000000E+00  0.13578278687E+04  0.13578278687E+04  0.50400001928E-02 0. -1.
        1   -1    0    0  501    0  0.00000000000E+00  0.00000000000E+00 -0.10604944659E+04  0.10604944659E+04  0.50400001928E-02 0.  1.
    10030    2    1    2    0    0  0.00000000000E+00  0.00000000000E+00  0.29733340286E+03  0.24183223346E+04  0.23999741168E+04 0.  0.
        4    1    3    3  502    0  0.11617323644E+04 -0.22501223135E+03  0.34947583983E+03  0.12338507066E+04  0.12699999809E+01 0. -1.
       -4    1    3    3    0  502 -0.11617323644E+04  0.22501223135E+03 -0.52142436966E+02  0.11844716279E+04  0.12699999809E+01 0.  1.
</event>
<event>
 5   0  0.1291468E-06  0.2403343E+04  0.7818609E-02  0.8438253E-01
        2   -1    0    0  501    0  0.00000000000E+00  0.00000000000E+00  0.14444580131E+04  0.14444580131E+04  0.25500000920E-02 0.  1.
       -2   -1    0    0    0  501  0.00000000000E+00  0.00000000000E+00 -0.99969271847E+03  0.99969271847E+03  0.25500000920E-02 0. -1.
    10030    2    1    2    0    0  0.00000000000E+00  0.00000000000E+00  0.44476529464E+03  0.24441507316E+04  0.24033428036E+04 0.  0.
        4    1    3    3  502    0  0.63409206619E+03  0.11187835173E+02  0.12604068743E+04  0.14109659875E+04  0.12699999809E+01 0.  1.
       -4    1    3    3    0  502 -0.63409206619E+03 -0.11187835173E+02 -0.81564157968E+03  0.10331847441E+04  0.12699999809E+01 0. -1.
</event>
<event>
 5   0  0.1307477E-06  0.2400169E+04  0.7818609E-02  0.8439440E-01
       -2   -1    0    0    0  501  0.00000000000E+00  0.00000000000E+00  0.69966086817E+03  0.69966086817E+03  0.25500000920E-02 0. -1.
        2   -1    0    0  501    0  0.00000000000E+00  0.00000000000E+00 -0.20584302666E+04  0.20584302666E+04  0.25500000920E-02 0.  1.
    10030    2    1    2    0    0  0.00000000000E+00  0.00000000000E+00 -0.13587693984E+04  0.27580911347E+04  0.24001692502E+04 0.  0.
        5    1    3    3  502    0  0.46032623980E+03 -0.99749120480E+02  0.58899526014E+03  0.75418011148E+03  0.46999998093E+01 0. -1.
       -5    1    3    3    0  502 -0.46032623980E+03  0.99749120480E+02 -0.19477646585E+04  0.20039110233E+04  0.46999998093E+01 0.  1.
</event>
<event>
 5   0  0.5527286E-07  0.2400491E+04  0.7818609E-02  0.8439320E-01
       -1   -1    0    0    0  501  0.00000000000E+00  0.00000000000E+00  0.60321673873E+03  0.60321673875E+03  0.50400001928E-02 0.  1.
        1   -1    0    0  501    0  0.00000000000E+00  0.00000000000E+00 -0.23881783092E+04  0.23881783092E+04  0.50400001928E-02 0. -1.
    10030    2    1    2    0    0  0.00000000000E+00  0.00000000000E+00 -0.17849615705E+04  0.29913950479E+04  0.24004908925E+04 0.  0.
        1    1    3    3  502    0 -0.61613827710E+03 -0.80647804348E+03 -0.16909531086E+04  0.19721449304E+04  0.50400001928E-02 0. -1.
       -1    1    3    3    0  502  0.61613827710E+03  0.80647804348E+03 -0.94008461865E+02  0.10192501175E+04  0.50400001928E-02 0.  1.
</event>
<event>
 5   0  0.1291468E-06  0.2399285E+04  0.7818609E-02  0.8439771E-01
        2   -1    0    0  501    0  0.00000000000E+00  0.00000000000E+00  0.12575479443E+04  0.12575479443E+04  0.25500000920E-02 0. -1.
       -2   -1    0    0    0  501  0.00000000000E+00  0.00000000000E+00 -0.11444032846E+04  0.11444032846E+04  0.25500000920E-02 0.  1.
    10030    2    1    2    0    0  0.00000000000E+00  0.00000000000E+00  0.11314465964E+03  0.24019512289E+04  0.23992848918E+04 0.  0.
        4    1    3    3  502    0  0.16589020686E+03  0.41437433146E+03 -0.10581797125E+04  0.11484648728E+04  0.12699999809E+01 0.  1.
       -4    1    3    3    0  502 -0.16589020686E+03 -0.41437433146E+03  0.11713243721E+04  0.12534863561E+04  0.12699999809E+01 0. -1.
</event>
<event>
 5   0  0.5510176E-07  0.2400385E+04  0.7818609E-02  0.8439360E-01
        1   -1    0    0  501    0  0.00000000000E+00  0.00000000000E+00  0.10798519899E+04  0.10798519899E+04  0.50400001928E-02 0. -1.
       -1   -1    0    0    0  501  0.00000000000E+00  0.00000000000E+00 -0.13339435386E+04  0.13339435386E+04  0.50400001928E-02 0.  1.
    10030    2    1    2    0    0  0.00000000000E+00  0.00000000000E+00 -0.25409154866E+03  0.24137955285E+04  0.24003846230E+04 0.  0.
        3    1    3    3  502    0 -0.76473162485E+03 -0.15659408672E+02 -0.10570924559E+04  0.13048004237E+04  0.10100000352E+00 0.  1.
       -3    1    3    3    0  502  0.76473162485E+03  0.15659408672E+02  0.80300090728E+03  0.11089951048E+04  0.10100000352E+00 0. -1.
</event>
<event>
 5   0  0.5690124E-07  0.2399497E+04  0.7818609E-02  0.8439692E-01
       -1   -1    0    0    0  501  0.00000000000E+00  0.00000000000E+00  0.12950915217E+04  0.12950915217E+04  0.50400001928E-02 0.  1.
        1   -1    0    0  501    0  0.00000000000E+00  0.00000000000E+00 -0.11114244718E+04  0.11114244718E+04  0.50400001928E-02 0. -1.
    10030    2    1    2    0    0  0.00000000000E+00  0.00000000000E+00  0.18366704993E+03  0.24065159935E+04  0.23994969560E+04 0.  0.
        2    1    3    3  502    0  0.90261373452E+03  0.63723479403E+02 -0.69826798758E+03  0.11429568750E+04  0.25500000920E-02 0. -1.
       -2    1    3    3    0  502 -0.90261373452E+03 -0.63723479403E+02  0.88193503751E+03  0.12635591185E+04  0.25500000920E-02 0.  1.
</event>
<event>
 5   0  0.5690124E-07  0.2410480E+04  0.7818609E-02  0.8435590E-01
       -1   -1    0    0    0  501  0.00000000000E+00  0.00000000000E+00  0.16143868069E+04  0.16143868069E+04  0.50400001928E-02 0. -1.
        1   -1    0    0  501    0  0.00000000000E+00  0.00000000000E+00 -0.89978675199E+03  0.89978675200E+03  0.50400001928E-02 0.  1.
    10030    2    1    2    0    0  0.00000000000E+00  0.00000000000E+00  0.71460005495E+03  0.25141735590E+04  0.24104803351E+04 0.  0.
        2    1    3    3  502    0 -0.70577234019E+02  0.78751336166E+03 -0.59147083847E+03  0.98741895542E+03  0.25500000920E-02 0.  1.
       -2    1    3    3    0  502  0.70577234019E+02 -0.78751336166E+03  0.13060708934E+04  0.15267546035E+04  0.25500000920E-02 0. -1.
</event>
<event>
 5   0  0.5527286E-07  0.2401385E+04  0.7818609E-02  0.8438985E-01
        1   -1    0    0  501    0  0.00000000000E+00  0.00000000000E+00  0.10381245248E+04  0.10381245249E+04  0.50400001928E-02 0. -1.
       -1   -1    0    0    0  501  0.00000000000E+00  0.00000000000E+00 -0.13887179740E+04  0.13887179740E+04  0.50400001928E-02 0.  1.
    10030    2    1    2    0    0  0.00000000000E+00  0.00000000000E+00 -0.35059344917E+03  0.24268424989E+04  0.24013847563E+04 0.  0.
        1    1    3    3  502    0  0.28551829077E+03 -0.32561388454E+03  0.95644905964E+03  0.10499237591E+04  0.50400001928E-02 0. -1.
       -1    1    3    3    0  502 -0.28551829077E+03  0.32561388454E+03 -0.13070425088E+04  0.13769187398E+04  0.50400001928E-02 0.  1.
</event>
<event>
 5   0  0.5452384E-07  0.2399617E+04  0.7818609E-02  0.8439647E-01
        1   -1    0    0  501    0  0.00000000000E+00  0.00000000000E+00  0.14674341915E+04  0.14674341915E+04  0.50400001928E-02 0.  1.
       -1   -1    0    0    0  501  0.00000000000E+00  0.00000000000E+00 -0.98099180614E+03  0.98099180615E+03  0.50400001928E-02 0. -1.
    10030    2    1    2    0    0  0.00000000000E+00  0.00000000000E+00  0.48644238532E+03  0.24484259976E+04  0.23996174011E+04 0.  0.
        5    1    3    3  502    0 -0.11506190166E+03  0.14327046518E+03  0.14529820094E+04  0.14645628962E+04  0.46999998093E+01 0.  1.
       -5    1    3    3    0  502  0.11506190166E+03 -0.14327046518E+03 -0.96653962406E+03  0.98386310139E+03  0.46999998093E+01 0. -1.
</event>
<event>
 5   0  0.5690124E-07  0.2399754E+04  0.7818609E-02  0.8439596E-01
        1   -1    0    0  501    0  0.00000000000E+00  0.00000000000E+00  0.13597767992E+04  0.13597767993E+04  0.50400001928E-02 0. -1.
       -1   -1    0    0    0  501  0.00000000000E+00  0.00000000000E+00 -0.10587801733E+04  0.10587801733E+04  0.50400001928E-02 0.  1.
    10030    2    1    2    0    0  0.00000000000E+00  0.00000000000E+00  0.30099662596E+03  0.24185569726E+04  0.23997539167E+04 0.  0.
        2    1    3    3  502    0 -0.30832380216E+03  0.10443790820E+04  0.65834484729E+03  0.12724815016E+04  0.25500000920E-02 0. -1.
       -2    1    3    3    0  502  0.30832380216E+03 -0.10443790820E+04 -0.35734822133E+03  0.11460754710E+04  0.25500000920E-02 0.  1.
</event>
<event>
 5   0  0.1291468E-06  0.2395472E+04  0.7818609E-02  0.8441201E-01
       -2   -1    0    0    0  501  0.00000000000E+00  0.00000000000E+00  0.88321922953E+03  0.88321922953E+03  0.25500000920E-02 0. -1.
        2   -1    0    0  501    0  0.00000000000E+00  0.00000000000E+00 -0.16242530641E+04  0.16242530641E+04  0.25500000920E-02 0.  1.
    10030    2    1    2    0    0  0.00000000000E+00  0.00000000000E+00 -0.74103383460E+03  0.25074722937E+04  0.23954720118E+04 0.  0.
        4    1    3    3  502    0  0.81185473135E+03 -0.73434957016E+03  0.13820227440E+03  0.11033942530E+04  0.12699999809E+01 0. -1.
       -4    1    3    3    0  502 -0.81185473135E+03  0.73434957016E+03 -0.87923610899E+03  0.14040780407E+04  0.12699999809E+01 0.  1.
</event>
<event>
 5   0  0.1291468E-06  0.2398484E+04  0.7818609E-02  0.8440071E-01
       -2   -1    0    0    0  501  0.00000000000E+00  0.00000000000E+00  0.10388757689E+04  0.10388757689E+04  0.25500000920E-02 0.  1.
        2   -1    0    0  501    0  0.00000000000E+00  0.00000000000E+00 -0.13843629680E+04  0.13843629680E+04  0.25500000920E-02 0. -1.
    10030    2    1    2    0    0  0.00000000000E+00  0.00000000000E+00 -0.34548719904E+03  0.24232387369E+04  0.23984838068E+04 0.  0.
        4    1    3    3  502    0 -0.94179192094E+03 -0.61354191343E+03 -0.59511802248E+03  0.12718383449E+04  0.12699999809E+01 0. -1.
       -4    1    3    3    0  502  0.94179192094E+03  0.61354191343E+03  0.24963082345E+03  0.11514003920E+04  0.12699999809E+01 0.  1.
</event>
<event>
 5   0  0.1275948E-06  0.2400269E+04  0.7818609E-02  0.8439403E-01
        2   -1    0    0  501    0  0.00000000000E+00  0.00000000000E+00  0.11363125454E+04  0.11363125454E+04  0.25500000920E-02 0. -1.
       -2   -1    0    0    0  501  0.00000000000E+00  0.00000000000E+00 -0.12675406020E+04  0.12675406020E+04  0.25500000920E-02 0.  1.
    10030    2    1    2    0    0  0.00000000000E+00  0.00000000000E+00 -0.13122805655E+03  0.24038531474E+04  0.24002685582E+04 0.  0.
        1    1    3    3  502    0 -0.20484603425E+03 -0.99684307507E+03  0.57146825610E+03  0.11671477978E+04  0.50400001928E-02 0. -1.
       -1    1    3    3    0  502  0.20484603425E+03  0.99684307507E+03 -0.70269631266E+03  0.12367053497E+04  0.50400001928E-02 0.  1.
</event>
<event>
 5   0  0.5363690E-07  0.2398762E+04  0.7818609E-02  0.8439967E-01
        1   -1    0    0  501    0  0.00000000000E+00  0.00000000000E+00  0.19598543423E+04  0.19598543423E+04  0.50400001928E-02 0.  1.
       -1   -1    0    0    0  501  0.00000000000E+00  0.00000000000E+00 -0.73399089079E+03  0.73399089081E+03  0.50400001928E-02 0. -1.
    10030    2    1    2    0    0  0.00000000000E+00  0.00000000000E+00  0.12258634515E+04  0.26938452331E+04  0.23987623764E+04 0.  0.
        4    1    3    3  502    0  0.68421296637E+03  0.45891957803E+02  0.17179804954E+04  0.18497870284E+04  0.12699999809E+01 0.  1.
       -4    1    3    3    0  502 -0.68421296637E+03 -0.45891957803E+02 -0.49211704387E+03  0.84405820469E+03  0.12699999809E+01 0. -1.
</event>
<event>
 5   0  0.5363690E-07  0.2399792E+04  0.7818609E-02  0.8439582E-01
       -1   -1    0    0    0  501  0.00000000000E+00  0.00000000000E+00  0.15805874833E+04  0.15805874833E+04  0.50400001928E-02 0.  1.
        1   -1    0    0  501    0  0.00000000000E+00  0.00000000000E+00 -0.91089540838E+03  0.91089540839E+03  0.50400001928E-02 0. -1.
    10030    2    1    2    0    0  0.00000000000E+00  0.00000000000E+00  0.66969207493E+03  0.24914828917E+04  0.23997915585E+04 0.  0.
        4    1    3    3  502    0  0.11708961051E+04  0.63556881194E+02  0.70742762706E+02  0.11747524494E+04  0.12699999809E+01 0.  1.
       -4    1    3    3    0  502 -0.11708961051E+04 -0.63556881194E+02  0.59894931223E+03  0.13167304423E+04  0.12699999809E+01 0. -1.
</event>
<event>
 5   0  0.1307477E-06  0.2399632E+04  0.7818609E-02  0.8439641E-01
        2   -1    0    0  501    0  0.00000000000E+00  0.00000000000E+00  0.11052829975E+04  0.11052829975E+04  0.25500000920E-02 0. -1.
       -2   -1    0    0    0  501  0.00000000000E+00  0.00000000000E+00 -0.13024340179E+04  0.13024340179E+04  0.25500000920E-02 0.  1.
    10030    2    1    2    0    0  0.00000000000E+00  0.00000000000E+00 -0.19715102042E+03  0.24077170154E+04  0.23996317845E+04 0.  0.
        5    1    3    3  502    0 -0.42059140943E+03 -0.91583522175E+03  0.55468251999E+03  0.11503677999E+04  0.46999998093E+01 0. -1.
       -5    1    3    3    0  502  0.42059140943E+03  0.91583522175E+03 -0.75183354041E+03  0.12573492154E+04  0.46999998093E+01 0.  1.
</event>
<event>
 5   0  0.5452384E-07  0.2399777E+04  0.7818609E-02  0.8439587E-01
       -1   -1    0    0    0  501  0.00000000000E+00  0.00000000000E+00  0.60763084325E+03  0.60763084327E+03  0.50400001928E-02 0.  1.
        1   -1    0    0  501    0  0.00000000000E+00  0.00000000000E+00 -0.23694188462E+04  0.23694188462E+04  0.50400001928E-02 0. -1.
    10030    2    1    2    0    0  0.00000000000E+00  0.00000000000E+00 -0.17617880030E+04  0.29770496895E+04  0.23997766326E+04 0.  0.
        5    1    3    3  502    0 -0.70679346099E+02 -0.52352130914E+03  0.45559067460E+03  0.69760668279E+03  0.46999998093E+01 0.  1.
       -5    1    3    3    0  502  0.70679346099E+02  0.52352130914E+03 -0.22173786776E+04  0.22794430067E+04  0.46999998093E+01 0. -1.
</event>
<event>
 5   0  0.5452384E-07  0.2400121E+04  0.7818609E-02  0.8439458E-01
        1   -1    0    0  501    0  0.00000000000E+00  0.00000000000E+00  0.29641111327E+04  0.29641111327E+04  0.50400001928E-02 0.  1.
       -1   -1    0    0    0  501  0.00000000000E+00  0.00000000000E+00 -0.48586079211E+03  0.48586079213E+03  0.50400001928E-02 0. -1.
    10030    2    1    2    0    0  0.00000000000E+00  0.00000000000E+00  0.24782503406E+04  0.34499719248E+04  0.24001211493E+04 0.  0.
        5    1    3    3  502    0  0.23512352137E+03  0.11001179179E+04  0.18397186644E+04  0.21564158592E+04  0.46999998093E+01 0.  1.
       -5    1    3    3    0  502 -0.23512352137E+03 -0.11001179179E+04  0.63853167616E+03  0.12935560656E+04  0.46999998093E+01 0. -1.
</event>
<event>
 5   0  0.1336057E-06  0.2400052E+04  0.7818609E-02  0.8439484E-01
        2   -1    0    0  501    0  0.00000000000E+00  0.00000000000E+00  0.25845078446E+04  0.25845078446E+04  0.25500000920E-02 0. -1.
       -2   -1    0    0    0  501  0.00000000000E+00  0.00000000000E+00 -0.55719001983E+03  0.55719001983E+03  0.25500000920E-02 0.  1.
    10030    2    1    2    0    0  0.00000000000E+00  0.00000000000E+00  0.20273178248E+04  0.31416978645E+04  0.24000516471E+04 0.  0.
        2    1    3    3  502    0  0.10447941298E+04 -0.28682552947E+03  0.33828157455E+03  0.11350321941E+04  0.25500000920E-02 0. -1.
       -2    1    3    3    0  502 -0.10447941298E+04  0.28682552947E+03  0.16890362503E+04  0.20066656704E+04  0.25500000920E-02 0.  1.
</event>
<event>
 5   0  0.5510176E-07  0.2400049E+04  0.7818609E-02  0.8439485E-01
       -1   -1    0    0    0  501  0.00000000000E+00  0.00000000000E+00  0.89374510592E+03  0.89374510594E+03  0.50400001928E-02 0.  1.
        1   -1    0    0  501    0  0.00000000000E+00  0.00000000000E+00 -0.16112634971E+04  0.16112634971E+04  0.50400001928E-02 0. -1.
    10030    2    1    2    0    0  0.00000000000E+00  0.00000000000E+00 -0.71751839121E+03  0.25050086031E+04  0.24000490536E+04 0.  0.
        3    1    3    3  502    0 -0.10806549710E+04 -0.26358241993E+03  0.11123101086E+03  0.11178833600E+04  0.10100000352E+00 0.  1.
       -3    1    3    3    0  502  0.10806549710E+04  0.26358241993E+03 -0.82874940208E+03  0.13871252431E+04  0.10100000352E+00 0. -1.
</event>
<event>
 5   0  0.1308662E-06  0.2399203E+04  0.7818609E-02  0.8439802E-01
       -2   -1    0    0    0  501  0.00000000000E+00  0.00000000000E+00  0.78587414035E+03  0.78587414036E+03  0.25500000920E-02 0. -1.
        2   -1    0    0  501    0  0.00000000000E+00  0.00000000000E+00 -0.18311381152E+04  0.18311381152E+04  0.25500000920E-02 0.  1.
    10030    2    1    2    0    0  0.00000000000E+00  0.00000000000E+00 -0.10452639748E+04  0.26170122555E+04  0.23992032779E+04 0.  0.
        3    1    3    3  502    0 -0.67741836252E+03  0.32464884873E+03  0.49755804365E+03  0.90103081516E+03  0.10100000352E+00 0. -1.
       -3    1    3    3    0  502  0.67741836252E+03 -0.32464884873E+03 -0.15428220185E+04  0.17159814404E+04  0.10100000352E+00 0.  1.
</event>
<event>
 5   0  0.1291468E-06  0.2394236E+04  0.7818609E-02  0.8441665E-01
        2   -1    0    0  501    0  0.00000000000E+00  0.00000000000E+00  0.14882676285E+04  0.14882676285E+04  0.25500000920E-02 0. -1.
       -2   -1    0    0    0  501  0.00000000000E+00  0.00000000000E+00 -0.96292598984E+03  0.96292598985E+03  0.25500000920E-02 0.  1.
    10030    2    1    2    0    0  0.00000000000E+00  0.00000000000E+00  0.52534163863E+03  0.24511936183E+04  0.23942360613E+04 0.  0.
        4    1    3    3  502    0  0.68414800680E+03 -0.41707303589E+03  0.11732574685E+04  0.14207544168E+04  0.12699999809E+01 0.  1.
       -4    1    3    3    0  502 -0.68414800680E+03  0.41707303589E+03 -0.64791582991E+03  0.10304392015E+04  0.12699999809E+01 0. -1.
</event>
<event>
 5   0  0.1291468E-06  0.2399582E+04  0.7818609E-02  0.8439660E-01
       -2   -1    0    0    0  501  0.00000000000E+00  0.00000000000E+00  0.20190579298E+04  0.20190579298E+04  0.25500000920E-02 0.  1.
        2   -1    0    0  501    0  0.00000000000E+00  0.00000000000E+00 -0.71295565758E+03  0.71295565759E+03  0.25500000920E-02 0. -1.
    10030    2    1    2    0    0  0.00000000000E+00  0.00000000000E+00  0.13061022722E+04  0.27320135874E+04  0.23995822753E+04 0.  0.
        4    1    3    3  502    0 -0.33877085967E+03 -0.67874818667E+03 -0.40525719482E+03  0.86005802312E+03  0.12699999809E+01 0. -1.
       -4    1    3    3    0  502  0.33877085967E+03  0.67874818667E+03  0.17113594670E+04  0.18719555642E+04  0.12699999809E+01 0.  1.
</event>
<event>
 5   0  0.5690124E-07  0.2400110E+04  0.7818609E-02  0.8439462E-01
        1   -1    0    0  501    0  0.00000000000E+00  0.00000000000E+00  0.19535109569E+04  0.19535109569E+04  0.50400001928E-02 0.  1.
       -1   -1    0    0    0  501  0.00000000000E+00  0.00000000000E+00 -0.73720188928E+03  0.73720188930E+03  0.50400001928E-02 0. -1.
    10030    2    1    2    0    0  0.00000000000E+00  0.00000000000E+00  0.12163090676E+04  0.26907128462E+04  0.24001099710E+04 0.  0.
        2    1    3    3  502    0 -0.67468695652E+03 -0.60648100396E+03  0.14888334480E+04  0.17434582683E+04  0.25500000920E-02 0.  1.
       -2    1    3    3    0  502  0.67468695652E+03  0.60648100396E+03 -0.27252438037E+03  0.94725457790E+03  0.25500000920E-02 0. -1.
</event>
<event>
 5   0  0.1275948E-06  0.2400919E+04  0.7818609E-02  0.8439160E-01
       -2   -1    0    0    0  501  0.00000000000E+00  0.00000000000E+00  0.71116995312E+03  0.71116995312E+03  0.25500000920E-02 0.  1.
        2   -1    0    0  501    0  0.00000000000E+00  0.00000000000E+00 -0.20263829548E+04  0.20263829548E+04  0.25500000920E-02 0. -1.
    10030    2    1    2    0    0  0.00000000000E+00  0.00000000000E+00 -0.13152130017E+04  0.27375529080E+04  0.24009187167E+04 0.  0.
        1    1    3    3  502    0  0.89264383088E+03  0.38646132133E+03 -0.14597649470E+04  0.17541605007E+04  0.50400001928E-02 0. -1.
       -1    1    3    3    0  502 -0.89264383088E+03 -0.38646132133E+03  0.14455194532E+03  0.98339240724E+03  0.50400001928E-02 0.  1.
</event>
<event>
 5   0  0.5527286E-07  0.2401460E+04  0.7818609E-02  0.8438957E-01
        1   -1    0    0  501    0  0.00000000000E+00  0.00000000000E+00  0.11230610722E+04  0.11230610722E+04  0.50400001928E-02 0. -1.
       -1   -1    0    0    0  501  0.00000000000E+00  0.00000000000E+00 -0.12837698956E+04  0.12837698956E+04  0.50400001928E-02 0.  1.
    10030    2    1    2    0    0  0.00000000000E+00  0.00000000000E+00 -0.16070882342E+03  0.24068309679E+04  0.24014595524E+04 0.  0.
        1    1    3    3  502    0 -0.41939875058E+03  0.30017861310E+03  0.10063907438E+04  0.11308513788E+04  0.50400001928E-02 0. -1.
       -1    1    3    3    0  502  0.41939875058E+03 -0.30017861310E+03 -0.11670995672E+04  0.12759795890E+04  0.50400001928E-02 0.  1.
</event>
<event>
 5   0  0.5452384E-07  0.2399597E+04  0.7818609E-02  0.8439655E-01
       -1   -1    0    0    0  501  0.00000000000E+00  0.00000000000E+00  0.74860341715E+03  0.74860341717E+03  0.50400001928E-02 0.  1.
        1   -1    0    0  501    0  0.00000000000E+00  0.00000000000E+00 -0.19229352610E+04  0.19229352610E+04  0.50400001928E-02 0. -1.
    10030    2    1    2    0    0  0.00000000000E+00  0.00000000000E+00 -0.11743318438E+04  0.26715386782E+04  0.23995965556E+04 0.  0.
        5    1    3    3  502    0  0.82741202714E+03 -0.79595402651E+03 -0.19934981319E+03  0.11652964914E+04  0.46999998093E+01 0.  1.
       -5    1    3    3    0  502 -0.82741202714E+03  0.79595402651E+03 -0.97498203066E+03  0.15062421867E+04  0.46999998093E+01 0. -1.
</event>
<event>
 5   0  0.1275948E-06  0.2395441E+04  0.7818609E-02  0.8441212E-01
       -2   -1    0    0    0  501  0.00000000000E+00  0.00000000000E+00  0.13825271667E+04  0.13825271667E+04  0.25500000920E-02 0. -1.
        2   -1    0    0  501    0  0.00000000000E+00  0.00000000000E+00 -0.10376172446E+04  0.10376172446E+04  0.25500000920E-02 0.  1.
    10030    2    1    2    0    0  0.00000000000E+00  0.00000000000E+00  0.34490992217E+03  0.24201444113E+04  0.23954406937E+04 0.  0.
        1    1    3    3  502    0 -0.10069401875E+04 -0.63626345789E+03  0.45563934730E+02  0.11919881716E+04  0.50400001928E-02 0. -1.
       -1    1    3    3    0  502  0.10069401875E+04  0.63626345789E+03  0.29934598743E+03  0.12281562397E+04  0.50400001928E-02 0.  1.
</event>
<event>
 5   0  0.5452384E-07  0.2399647E+04  0.7818609E-02  0.8439636E-01
        1   -1    0    0  501    0  0.00000000000E+00  0.00000000000E+00  0.31603799121E+04  0.31603799121E+04  0.50400001928E-02 0.  1.
       -1   -1    0    0    0  501  0.00000000000E+00  0.00000000000E+00 -0.45550735761E+03  0.45550735764E+03  0.50400001928E-02 0. -1.
    10030    2    1    2    0    0  0.00000000000E+00  0.00000000000E+00  0.27048725545E+04  0.36158872697E+04  0.23996468931E+04 0.  0.
        5    1    3    3  502    0  0.83117752387E+02  0.17085517477E+03  0.31375531643E+04  0.31433043124E+04  0.46999998093E+01 0.  1.
       -5    1    3    3    0  502 -0.83117752387E+02 -0.17085517477E+03 -0.43268060979E+03  0.47258295737E+03  0.46999998093E+01 0. -1.
</event>
<event>
 5   0  0.5510176E-07  0.2399750E+04  0.7818609E-02  0.8439597E-01
       -1   -1    0    0    0  501  0.00000000000E+00  0.00000000000E+00  0.12399762999E+04  0.12399762999E+04  0.50400001928E-02 0. -1.
        1   -1    0    0  501    0  0.00000000000E+00  0.00000000000E+00 -0.11610703518E+04  0.11610703518E+04  0.50400001928E-02 0.  1.
    10030    2    1    2    0    0  0.00000000000E+00  0.00000000000E+00  0.78905948173E+02  0.24010466517E+04  0.23997497526E+04 0.  0.
        3    1    3    3  502    0  0.48668891502E+03 -0.63531758915E+03  0.93391886689E+03  0.12299182896E+04  0.10100000352E+00 0. -1.
       -3    1    3    3    0  502 -0.48668891502E+03  0.63531758915E+03 -0.85501291871E+03  0.11711283621E+04  0.10100000352E+00 0.  1.
</event>
<event>
 5   0  0.5363690E-07  0.2400099E+04  0.7818609E-02  0.8439466E-01
        1   -1    0    0  501    0  0.00000000000E+00  0.00000000000E+00  0.13223402735E+04  0.13223402735E+04  0.50400001928E-02 0.  1.
       -1   -1    0    0    0  501  0.00000000000E+00  0.00000000000E+00 -0.10890683459E+04  0.10890683459E+04  0.50400001928E-02 0. -1.
    10030    2    1    2    0    0  0.00000000000E+00  0.00000000000E+00  0.23327192761E+03  0.24114086194E+04  0.24000991099E+04 0.  0.
        4    1    3    3  502    0 -0.30488462219E+03 -0.11532854797E+04  0.24800102714E+03  0.12184121441E+04  0.12699999809E+01 0.  1.
       -4    1    3    3    0  502  0.30488462219E+03  0.11532854797E+04 -0.14729099531E+02  0.11929964752E+04  0.12699999809E+01 0. -1.
</event>
<event>
 5   0  0.1307477E-06  0.2400422E+04  0.7818609E-02  0.8439346E-01
        2   -1    0    0  501    0  0.00000000000E+00  0.00000000000E+00  0.12156855810E+04  0.12156855810E+04  0.25500000920E-02 0.  1.
       -2   -1    0    0    0  501  0.00000000000E+00  0.00000000000E+00 -0.11849335346E+04  0.11849335346E+04  0.25500000920E-02 0. -1.
    10030    2    1    2    0    0  0.00000000000E+00  0.00000000000E+00  0.30752046343E+02  0.24006191156E+04  0.24004221399E+04 0.  0.
        5    1    3    3  502    0 -0.10396256919E+04 -0.10779727355E+03  0.60537586492E+03  0.12078674842E+04  0.46999998093E+01 0.  1.
       -5    1    3    3    0  502  0.10396256919E+04  0.10779727355E+03 -0.57462381857E+03  0.11927516314E+04  0.46999998093E+01 0. -1.
</event>
<event>
 5   0  0.1275948E-06  0.2398790E+04  0.7818609E-02  0.8439957E-01
        2   -1    0    0  501    0  0.00000000000E+00  0.00000000000E+00  0.17645674687E+04  0.17645674687E+04  0.25500000920E-02 0.  1.
       -2   -1    0    0    0  501  0.00000000000E+00  0.00000000000E+00 -0.81524157634E+03  0.81524157635E+03  0.25500000920E-02 0. -1.
    10030    2    1    2    0    0  0.00000000000E+00  0.00000000000E+00  0.94932589234E+03  0.25798090450E+04  0.23987903324E+04 0.  0.
        1    1    3    3  502    0  0.11787058363E+04  0.81739409503E+01  0.71305323209E+03  0.13776280970E+04  0.50400001928E-02 0.  1.
       -1    1    3    3    0  502 -0.11787058363E+04 -0.81739409503E+01  0.23627266024E+03  0.12021809480E+04  0.50400001928E-02 0. -1.
</event>
<event>
 5   0  0.5690124E-07  0.2399719E+04  0.7818609E-02  0.8439609E-01
       -1   -1    0    0    0  501  0.00000000000E+00  0.00000000000E+00  0.59723457461E+03  0.59723457464E+03  0.50400001928E-02 0.  1.
        1   -1    0    0  501    0  0.00000000000E+00  0.00000000000E+00 -0.24105477741E+04  0.24105477741E+04  0.50400001928E-02 0. -1.
    10030    2    1    2    0    0  0.00000000000E+00  0.00000000000E+00 -0.18133131995E+04  0.30077823488E+04  0.23997187123E+04 0.  0.
        2    1    3    3  502    0 -0.69396177769E+03 -0.85470937163E+03 -0.30876033648E+03  0.11434351771E+04  0.25500000920E-02 0.  1.
       -2    1    3    3    0  502  0.69396177769E+03  0.85470937163E+03 -0.15045528630E+04  0.18643471717E+04  0.25500000920E-02 0. -1.
</event>
<event>
 5   0  0.5452384E-07  0.2399781E+04  0.7818609E-02  0.8439585E-01
       -1   -1    0    0    0  501  0.00000000000E+00  0.00000000000E+00  0.68491868154E+03  0.68491868156E+03  0.50400001928E-02 0. -1.
        1   -1    0    0  501    0  0.00000000000E+00  0.00000000000E+00 -0.21020560309E+04  0.21020560309E+04  0.50400001928E-02 0.  1.
    10030    2    1    2    0    0  0.00000000000E+00  0.00000000000E+00 -0.14171373493E+04  0.27869747124E+04  0.23997811944E+04 0.  0.
        5    1    3    3  502    0  0.56483772200E+03 -0.54991313560E+03  0.34196383596E+03  0.85930638541E+03  0.46999998093E+01 0. -1.
       -5    1    3    3    0  502 -0.56483772200E+03  0.54991313560E+03 -0.17591011853E+04  0.19276683270E+04  0.46999998093E+01 0.  1.
</event>
<event>
 5   0  0.1308662E-06  0.2400562E+04  0.7818609E-02  0.8439293E-01
        2   -1    0    0  501    0  0.00000000000E+00  0.00000000000E+00  0.92461293956E+03  0.92461293956E+03  0.25500000920E-02 0. -1.
       -2   -1    0    0    0  501  0.00000000000E+00  0.00000000000E+00 -0.15581378013E+04  0.15581378013E+04  0.25500000920E-02 0.  1.
    10030    2    1    2    0    0  0.00000000000E+00  0.00000000000E+00 -0.63352486179E+03  0.24827507409E+04  0.24005619115E+04 0.  0.
        3    1    3    3  502    0 -0.96184114036E+03  0.33388817285E+03 -0.97417843918E+03  0.14091285721E+04  0.10100000352E+00 0.  1.
       -3    1    3    3    0  502  0.96184114036E+03 -0.33388817285E+03  0.34065357739E+03  0.10736221688E+04  0.10100000352E+00 0. -1.
</event>
<event>
 5   0  0.1275948E-06  0.2390172E+04  0.7818609E-02  0.8443192E-01
        2   -1    0    0  501    0  0.00000000000E+00  0.00000000000E+00  0.15013106708E+04  0.15013106708E+04  0.25500000920E-02 0.  1.
       -2   -1    0    0    0  501  0.00000000000E+00  0.00000000000E+00 -0.95132277909E+03  0.95132277910E+03  0.25500000920E-02 0. -1.
    10030    2    1    2    0    0  0.00000000000E+00  0.00000000000E+00  0.54998789173E+03  0.24526334499E+04  0.23901724119E+04 0.  0.
        1    1    3    3  502    0  0.47413417303E+03  0.10887689324E+04  0.41270243847E+03  0.12571970033E+04  0.50400001928E-02 0. -1.
       -1    1    3    3    0  502 -0.47413417303E+03 -0.10887689324E+04  0.13728545326E+03  0.11954364467E+04  0.50400001928E-02 0.  1.
</event>
<event>
 5   0  0.4483375E-07  0.2400190E+04  0.7818609E-02  0.8439432E-01
       -3   -1    0    0    0  501  0.00000000000E+00  0.00000000000E+00  0.13839425005E+04  0.13839425042E+04  0.10100000352E+00 0.  1.
        3   -1    0    0  501    0  0.00000000000E+00  0.00000000000E+00 -0.10406703050E+04  0.10406703099E+04  0.10100000352E+00 0. -1.
    10030    2    1    2    0    0  0.00000000000E+00  0.00000000000E+00  0.34327219553E+03  0.24246128141E+04  0.24001898879E+04 0.  0.
        2    1    3    3  502    0 -0.25588722232E+03  0.95478234142E+03 -0.51583282956E+03  0.11149758285E+04  0.25500000920E-02 0.  1.
       -2    1    3    3    0  502  0.25588722232E+03 -0.95478234142E+03  0.85910502508E+03  0.13096369856E+04  0.25500000920E-02 0. -1.
</event>
<event>
 5   0  0.5690124E-07  0.2400013E+04  0.7818609E-02  0.8439499E-01
       -1   -1    0    0    0  501  0.00000000000E+00  0.00000000000E+00  0.11004829365E+04  0.11004829365E+04  0.50400001928E-02 0. -1.
        1   -1    0    0  501    0  0.00000000000E+00  0.00000000000E+00 -0.13085302769E+04  0.13085302769E+04  0.50400001928E-02 0.  1.
    10030    2    1    2    0    0  0.00000000000E+00  0.00000000000E+00 -0.20804734034E+03  0.24090132134E+04  0.24000127014E+04 0.  0.
        2    1    3    3  502    0  0.31314158593E+03  0.23667177894E+03  0.10342237640E+04  0.11062052151E+04  0.25500000920E-02 0. -1.
       -2    1    3    3    0  502 -0.31314158593E+03 -0.23667177894E+03 -0.12422711044E+04  0.13028079984E+04  0.25500000920E-02 0.  1.
</event>
<event>
 5   0  0.5452384E-07  0.2396852E+04  0.7818609E-02  0.8440683E-01
       -1   -1    0    0    0  501  0.00000000000E+00  0.00000000000E+00  0.94665005920E+03  0.94665005922E+03  0.50400001928E-02 0.  1.
        1   -1    0    0  501    0  0.00000000000E+00  0.00000000000E+00 -0.15171658683E+04  0.15171658683E+04  0.50400001928E-02 0. -1.
    10030    2    1    2    0    0  0.00000000000E+00  0.00000000000E+00 -0.57051580911E+03  0.24638159275E+04  0.23968522350E+04 0.  0.
        5    1    3    3  502    0 -0.97983908480E+03  0.19178134791E+03 -0.96660209271E+03  0.13896785287E+04  0.46999998093E+01 0. -1.
       -5    1    3    3    0  502  0.97983908480E+03 -0.19178134791E+03  0.39608628360E+03  0.10741373988E+04  0.46999998093E+01 0.  1.
</event>
<event>
 5   0  0.5690124E-07  0.2400104E+04  0.7818609E-02  0.8439465E-01
       -1   -1    0    0    0  501  0.00000000000E+00  0.00000000000E+00  0.11373817860E+04  0.11373817860E+04  0.50400001928E-02 0. -1.
        1   -1    0    0  501    0  0.00000000000E+00  0.00000000000E+00 -0.12661748528E+04  0.12661748528E+04  0.50400001928E-02 0.  1.
    10030    2    1    2    0    0  0.00000000000E+00  0.00000000000E+00 -0.12879306676E+03  0.24035566388E+04  0.24001035107E+04 0.  0.
        2    1    3    3  502    0 -0.41812131638E+03 -0.32083606908E+03 -0.11440770799E+04  0.12596323206E+04  0.25500000920E-02 0.  1.
       -2    1    3    3    0  502  0.41812131638E+03  0.32083606908E+03  0.10152840131E+04  0.11439243182E+04  0.25500000920E-02 0. -1.
</event>
<event>
 5   0  0.5452384E-07  0.2397694E+04  0.7818609E-02  0.8440368E-01
       -1   -1    0    0    0  501  0.00000000000E+00  0.00000000000E+00  0.14072306081E+04  0.14072306081E+04  0.50400001928E-02 0.  1.
        1   -1    0    0  501    0  0.00000000000E+00  0.00000000000E+00 -0.10213206841E+04  0.10213206841E+04  0.50400001928E-02 0. -1.
    10030    2    1    2    0    0  0.00000000000E+00  0.00000000000E+00  0.38590992394E+03  0.24285512922E+04  0.23976936646E+04 0.  0.
        5    1    3    3  502    0 -0.79155519255E+03 -0.39627141487E+03 -0.62591808501E+03  0.10841522938E+04  0.46999998093E+01 0. -1.
       -5    1    3    3    0  502  0.79155519255E+03  0.39627141487E+03  0.10118280089E+04  0.13443989984E+04  0.46999998093E+01 0.  1.
</event>
<event>
 5   0  0.5690124E-07  0.2400128E+04  0.7818609E-02  0.8439456E-01
       -1   -1    0    0    0  501  0.00000000000E+00  0.00000000000E+00  0.16124601672E+04  0.16124601672E+04  0.50400001928E-02 0.  1.
        1   -1    0    0  501    0  0.00000000000E+00  0.00000000000E+00 -0.89314039717E+03  0.89314039719E+03  0.50400001928E-02 0. -1.
    10030    2    1    2    0    0  0.00000000000E+00  0.00000000000E+00  0.71931977000E+03  0.25056005644E+04  0.24001277584E+04 0.  0.
        2    1    3    3  502    0 -0.19000266239E+03 -0.93855307652E+03 -0.39543072753E+03  0.10360252649E+04  0.25500000920E-02 0. -1.
       -2    1    3    3    0  502  0.19000266239E+03  0.93855307652E+03  0.11147504975E+04  0.14695752995E+04  0.25500000920E-02 0.  1.
</event>
<event>
 5   0  0.1308662E-06  0.2400006E+04  0.7818609E-02  0.8439501E-01
       -2   -1    0    0    0  501  0.00000000000E+00  0.00000000000E+00  0.11186455908E+04  0.11186455908E+04  0.25500000920E-02 0. -1.
        2   -1    0    0  501    0  0.00000000000E+00  0.00000000000E+00 -0.12872772394E+04  0.12872772394E+04  0.25500000920E-02 0.  1.
    10030    2    1    2    0    0  0.00000000000E+00  0.00000000000E+00 -0.16863164855E+03  0.24059228302E+04  0.24000058400E+04 0.  0.
        3    1    3    3  502    0  0.29204023193E+03 -0.89641389207E+03  0.65991710969E+03  0.11507979687E+04  0.10100000352E+00 0. -1.
       -3    1    3    3    0  502 -0.29204023193E+03  0.89641389207E+03 -0.82854875825E+03  0.12551248615E+04  0.10100000352E+00 0.  1.
</event>
<event>
 5   0  0.1336057E-06  0.2400001E+04  0.7818609E-02  0.8439503E-01
        2   -1    0    0  501    0  0.00000000000E+00  0.00000000000E+00  0.13065761730E+04  0.13065761730E+04  0.25500000920E-02 0.  1.
       -2   -1    0    0    0  501  0.00000000000E+00  0.00000000000E+00 -0.11021178234E+04  0.11021178235E+04  0.25500000920E-02 0. -1.
    10030    2    1    2    0    0  0.00000000000E+00  0.00000000000E+00  0.20445834952E+03  0.24086939964E+04  0.24000007399E+04 0.  0.
        2    1    3    3  502    0  0.11084842071E+04 -0.13134657062E+03 -0.33983390748E+03  0.11668231416E+04  0.25500000920E-02 0. -1.
       -2    1    3    3    0  502 -0.11084842071E+04  0.13134657062E+03  0.54429225700E+03  0.12418708548E+04  0.25500000920E-02 0.  1.
</event>
<event>
 5   0  0.1275948E-06  0.2397169E+04  0.7818609E-02  0.8440564E-01
        2   -1    0    0  501    0  0.00000000000E+00  0.00000000000E+00  0.59092466113E+03  0.59092466113E+03  0.25500000920E-02 0. -1.
       -2   -1    0    0    0  501  0.00000000000E+00  0.00000000000E+00 -0.24311133864E+04  0.24311133864E+04  0.25500000920E-02 0.  1.
    10030    2    1    2    0    0  0.00000000000E+00  0.00000000000E+00 -0.18401887253E+04  0.30220380476E+04  0.23971690421E+04 0.  0.
        1    1    3    3  502    0 -0.22685792988E+03 -0.67690405929E+02  0.56115661420E+03  0.60905111205E+03  0.50400001928E-02 0. -1.
       -1    1    3    3    0  502  0.22685792988E+03  0.67690405929E+02 -0.24013453395E+04  0.24129869355E+04  0.50400001928E-02 0.  1.
</event>
<event>
 5   0  0.5690124E-07  0.2396004E+04  0.7818609E-02  0.8441001E-01
        1   -1    0    0  501    0  0.00000000000E+00  0.00000000000E+00  0.13256228394E+04  0.13256228394E+04  0.50400001928E-02 0.  1.
       -1   -1    0    0    0  501  0.00000000000E+00  0.00000000000E+00 -0.10826672615E+04  0.10826672615E+04  0.50400001928E-02 0. -1.
    10030    2    1    2    0    0  0.00000000000E+00  0.00000000000E+00  0.24295557784E+03  0.24082901009E+04  0.23960037140E+04 0.  0.
        2    1    3    3  502    0  0.65284717870E+03 -0.90351425361E+02  0.11270255254E+04  0.13055877426E+04  0.25500000920E-02 0.  1.
       -2    1    3    3    0  502 -0.65284717870E+03  0.90351425361E+02 -0.88406994755E+03  0.11027023583E+04  0.25500000920E-02 0. -1.
</event>
<event>
 5   0  0.1291468E-06  0.2400155E+04  0.7818609E-02  0.8439446E-01
       -2   -1    0    0    0  501  0.00000000000E+00  0.00000000000E+00  0.96167473346E+03  0.96167473346E+03  0.25500000920E-02 0.  1.
        2   -1    0    0  501    0  0.00000000000E+00  0.00000000000E+00 -0.14975809565E+04  0.14975809565E+04  0.25500000920E-02 0. -1.
    10030    2    1    2    0    0  0.00000000000E+00  0.00000000000E+00 -0.53590622308E+03  0.24592556900E+04  0.24001548010E+04 0.  0.
        4    1    3    3  502    0  0.11049439539E+04 -0.16005855414E+03 -0.71886240455E+03  0.13278872888E+04  0.12699999809E+01 0. -1.
       -4    1    3    3    0  502 -0.11049439539E+04  0.16005855414E+03  0.18295618146E+03  0.11313684012E+04  0.12699999809E+01 0.  1.
</event>
<event>
 5   0  0.5527286E-07  0.2398685E+04  0.7818609E-02  0.8439996E-01
       -1   -1    0    0    0  501  0.00000000000E+00  0.00000000000E+00  0.62684198275E+03  0.62684198277E+03  0.50400001928E-02 0.  1.
        1   -1    0    0  501    0  0.00000000000E+00  0.00000000000E+00 -0.22947128260E+04  0.22947128260E+04  0.50400001928E-02 0. -1.
    10030    2    1    2    0    0  0.00000000000E+00  0.00000000000E+00 -0.16678708432E+04  0.29215548087E+04  0.23986849211E+04 0.  0.
        1    1    3    3  502    0 -0.17719955414E+03  0.10369116756E+04 -0.15355573079E+04  0.18613225811E+04  0.50400001928E-02 0.  1.
       -1    1    3    3    0  502  0.17719955414E+03 -0.10369116756E+04 -0.13231353530E+03  0.10602322277E+04  0.50400001928E-02 0. -1.
</event>
<event>
 5   0  0.5363690E-07  0.2398871E+04  0.7818609E-02  0.8439926E-01
       -1   -1    0    0    0  501  0.00000000000E+00  0.00000000000E+00  0.16621558921E+04  0.16621558921E+04  0.50400001928E-02 0.  1.
        1   -1    0    0  501    0  0.00000000000E+00  0.00000000000E+00 -0.86553003933E+03  0.86553003934E+03  0.50400001928E-02 0. -1.
    10030    2    1    2    0    0  0.00000000000E+00  0.00000000000E+00  0.79662585274E+03  0.25276859314E+04  0.23988712801E+04 0.  0.
        4    1    3    3  502    0  0.73710612529E+03 -0.30641321814E+03  0.13416108836E+04  0.15611328822E+04  0.12699999809E+01 0.  1.
       -4    1    3    3    0  502 -0.73710612529E+03  0.30641321814E+03 -0.54498503082E+03  0.96655304919E+03  0.12699999809E+01 0. -1.
</event>
<event>
 5   0  0.1308662E-06  0.2399398E+04  0.7818609E-02  0.8439729E-01
        2   -1    0    0  501    0  0.00000000000E+00  0.00000000000E+00  0.16064738720E+04  0.16064738720E+04  0.25500000920E-02 0. -1.
       -2   -1    0    0    0  501  0.00000000000E+00  0.00000000000E+00 -0.89592383837E+03  0.89592383837E+03  0.25500000920E-02 0.  1.
    10030    2    1    2    0    0  0.00000000000E+00  0.00000000000E+00  0.71055003367E+03  0.25023977104E+04  0.23993984560E+04 0.  0.
        3    1    3    3  502    0  0.60361841371E+03 -0.98026337113E+03  0.70741818178E+03  0.13511890912E+04  0.10100000352E+00 0. -1.
       -3    1    3    3    0  502 -0.60361841371E+03  0.98026337113E+03  0.31318518836E+01  0.11512086192E+04  0.10100000352E+00 0.  1.
</event>
<event>
 5   0  0.5452384E-07  0.2399753E+04  0.7818609E-02  0.8439596E-01
        1   -1    0    0  501    0  0.00000000000E+00  0.00000000000E+00  0.19992644840E+04  0.19992644840E+04  0.50400001928E-02 0.  1.
       -1   -1    0    0    0  501  0.00000000000E+00  0.00000000000E+00 -0.72011646109E+03  0.72011646111E+03  0.50400001928E-02 0. -1.
    10030    2    1    2    0    0  0.00000000000E+00  0.00000000000E+00  0.12791480229E+04  0.27193809451E+04  0.23997527081E+04 0.  0.
        5    1    3    3  502    0  0.11621783600E+04  0.10436830398E+02  0.97747379918E+03  0.15186324723E+04  0.46999998093E+01 0.  1.
       -5    1    3    3    0  502 -0.11621783600E+04 -0.10436830398E+02  0.30167422372E+03  0.12007484728E+04  0.46999998093E+01 0. -1.
</event>
<event>
 5   0  0.1308662E-06  0.2399850E+04  0.7818609E-02  0.8439560E-01
       -2   -1    0    0    0  501  0.00000000000E+00  0.00000000000E+00  0.71029932843E+03  0.71029932844E+03  0.25500000920E-02 0. -1.
        2   -1    0    0  501    0  0.00000000000E+00  0.00000000000E+00 -0.20270608616E+04  0.20270608616E+04  0.25500000920E-02 0.  1.
    10030    2    1    2    0    0  0.00000000000E+00  0.00000000000E+00 -0.13167615332E+04  0.27373601901E+04  0.23998499692E+04 0.  0.
        3    1    3    3  502    0 -0.74272172303E+03  0.38512500144E+03  0.32274244153E+03  0.89672711476E+03  0.10100000352E+00 0. -1.
       -3    1    3    3    0  502  0.74272172303E+03 -0.38512500144E+03 -0.16395039747E+04  0.18406330753E+04  0.10100000352E+00 0.  1.
</event>
<event>
 5   0  0.5363690E-07  0.2399737E+04  0.7818609E-02  0.8439602E-01
       -1   -1    0    0    0  501  0.00000000000E+00  0.00000000000E+00  0.12948628899E+04  0.12948628899E+04  0.50400001928E-02 0.  1.
        1   -1    0    0  501    0  0.00000000000E+00  0.00000000000E+00 -0.11118432449E+04  0.11118432449E+04  0.50400001928E-02 0. -1.
    10030    2    1    2    0    0  0.00000000000E+00  0.00000000000E+00  0.18301964497E+03  0.24067061348E+04  0.23997371166E+04 0.  0.
        4    1    3    3  502    0 -0.10094282718E+03 -0.11598318189E+04 -0.19964972944E+03  0.11812116364E+04  0.12699999809E+01 0. -1.
       -4    1    3    3    0  502  0.10094282718E+03  0.11598318189E+04  0.38266937442E+03  0.12254944984E+04  0.12699999809E+01 0.  1.
</event>
<event>
 5   0  0.5452384E-07  0.2399941E+04  0.7818609E-02  0.8439526E-01
        1   -1    0    0  501    0  0.00000000000E+00  0.00000000000E+00  0.20812454289E+04  0.20812454289E+04  0.50400001928E-02 0. -1.
       -1   -1    0    0    0  501  0.00000000000E+00  0.00000000000E+00 -0.69185930553E+03  0.69185930555E+03  0.50400001928E-02 0.  1.
    10030    2    1    2    0    0  0.00000000000E+00  0.00000000000E+00  0.13893861234E+04  0.27731047345E+04  0.23999408469E+04 0.  0.
        5    1    3    3  502    0 -0.65721308488E+03 -0.80209866248E+03  0.13924165959E+04  0.17361271180E+04  0.46999998093E+01 0. -1.
       -5    1    3    3    0  502  0.65721308488E+03  0.80209866248E+03 -0.30304725440E+01  0.10369776165E+04  0.46999998093E+01 0.  1.
</event>
<event>
 5   0  0.1307477E-06  0.2401155E+04  0.7818609E-02  0.8439071E-01
       -2   -1    0    0    0  501  0.00000000000E+00  0.00000000000E+00  0.12104686789E+04  0.12104686789E+04  0.25500000920E-02 0. -1.
        2   -1    0    0  501    0  0.00000000000E+00  0.00000000000E+00 -0.11907674998E+04  0.11907674998E+04  0.25500000920E-02 0.  1.
    10030    2    1    2    0    0  0.00000000000E+00  0.00000000000E+00  0.19701179148E+02  0.24012361787E+04  0.24011553573E+04 0.  0.
        5    1    3    3  502    0 -0.77781781580E+03 -0.91173731955E+03 -0.61560342776E+02  0.12000321913E+04  0.46999998093E+01 0. -1.
       -5    1    3    3    0  502  0.77781781580E+03  0.91173731955E+03  0.81261521924E+02  0.12012039874E+04  0.46999998093E+01 0.  1.
</event>
<event>
 5   0  0.5527286E-07  0.2400784E+04  0.7818609E-02  0.8439210E-01
       -1   -1    0    0    0  501  0.00000000000E+00  0.00000000000E+00  0.72943148107E+03  0.72943148109E+03  0.50400001928E-02 0. -1.
        1   -1    0    0  501    0  0.00000000000E+00  0.00000000000E+00 -0.19754301709E+04  0.19754301709E+04  0.50400001928E-02 0.  1.
    10030    2    1    2    0    0  0.00000000000E+00  0.00000000000E+00 -0.12459986898E+04  0.27048616520E+04  0.24007840014E+04 0.  0.
        1    1    3    3  502    0  0.81581299851E+03  0.19468076523E+03  0.34454279914E+03  0.90673104577E+03  0.50400001928E-02 0. -1.
       -1    1    3    3    0  502 -0.81581299851E+03 -0.19468076523E+03 -0.15905414889E+04  0.17981306062E+04  0.50400001928E-02 0.  1.
</event>
<event>
 5   0  0.1307477E-06  0.2397951E+04  0.7818609E-02  0.8440271E-01
        2   -1    0    0  501    0  0.00000000000E+00  0.00000000000E+00  0.12380719013E+04  0.12380719013E+04  0.25500000920E-02 0.  1.
       -2   -1    0    0    0  501  0.00000000000E+00  0.00000000000E+00 -0.11611135374E+04  0.11611135374E+04  0.25500000920E-02 0. -1.
    10030    2    1    2    0    0  0.00000000000E+00  0.00000000000E+00  0.76958363964E+02  0.23991854387E+04  0.23979508292E+04 0.  0.
        5    1    3    3  502    0 -0.29023061072E+03  0.81858372201E+03  0.86546801543E+03  0.12261199342E+04  0.46999998093E+01 0.  1.
       -5    1    3    3    0  502  0.29023061072E+03 -0.81858372201E+03 -0.78850965146E+03  0.11730655045E+04  0.46999998093E+01 0. -1.
</event>
<event>
 5   0  0.5690124E-07  0.2400669E+04  0.7818609E-02  0.8439253E-01
        1   -1    0    0  501    0  0.00000000000E+00  0.00000000000E+00  0.98157842836E+03  0.98157842837E+03  0.50400001928E-02 0. -1.
       -1   -1    0    0    0  501  0.00000000000E+00  0.00000000000E+00 -0.14678434870E+04  0.14678434870E+04  0.50400001928E-02 0.  1.
    10030    2    1    2    0    0  0.00000000000E+00  0.00000000000E+00 -0.48626505861E+03  0.24494219154E+04  0.24006694925E+04 0.  0.
        2    1    3    3  502    0  0.50562622156E+03 -0.16961480711E+03  0.85405495239E+03  0.10068946918E+04  0.25500000920E-02 0. -1.
       -2    1    3    3    0  502 -0.50562622156E+03  0.16961480711E+03 -0.13403200110E+04  0.14425272235E+04  0.25500000920E-02 0.  1.
</event>
<event>
 5   0  0.5510176E-07  0.2399634E+04  0.7818609E-02  0.8439641E-01
       -1   -1    0    0    0  501  0.00000000000E+00  0.00000000000E+00  0.83231307041E+03  0.83231307042E+03  0.50400001928E-02 0. -1.
        1   -1    0    0  501    0  0.00000000000E+00  0.00000000000E+00 -0.17295903927E+04  0.17295903927E+04  0.50400001928E-02 0.  1.
    10030    2    1    2    0    0  0.00000000000E+00  0.00000000000E+00 -0.89727732224E+03  0.25619034631E+04  0.23996338806E+04 0.  0.
        3    1    3    3  502    0 -0.23161284268E+03 -0.11242901626E+04 -0.75905616086E+02  0.11504062550E+04  0.10100000352E+00 0. -1.
       -3    1    3    3    0  502  0.23161284268E+03  0.11242901626E+04 -0.82137170616E+03  0.14114972081E+04  0.10100000352E+00 0.  1.
</event>
<event>
 5   0  0.5452384E-07  0.2399808E+04  0.7818609E-02  0.8439576E-01
        1   -1    0    0  501    0  0.00000000000E+00  0.00000000000E+00  0.25606173182E+04  0.25606173182E+04  0.50400001928E-02 0.  1.
       -1   -1    0    0    0  501  0.00000000000E+00  0.00000000000E+00 -0.56227419741E+03  0.56227419743E+03  0.50400001928E-02 0. -1.
    10030    2    1    2    0    0  0.00000000000E+00  0.00000000000E+00  0.19983431208E+04  0.31228915157E+04  0.23998075319E+04 0.  0.
        5    1    3    3  502    0 -0.44937768254E+03  0.11478132007E+03  0.24392404577E+04  0.24829480770E+04  0.46999998093E+01 0.  1.
       -5    1    3    3    0  502  0.44937768254E+03 -0.11478132007E+03 -0.44089733684E+03  0.63994343862E+03  0.46999998093E+01 0. -1.
</event>
<event>
 5   0  0.1336057E-06  0.2400113E+04  0.7818609E-02  0.8439461E-01
       -2   -1    0    0    0  501  0.00000000000E+00  0.00000000000E+00  0.11241245409E+04  0.11241245409E+04  0.25500000920E-02 0. -1.
        2   -1    0    0  501    0  0.00000000000E+00  0.00000000000E+00 -0.12811174417E+04  0.12811174417E+04  0.25500000920E-02 0.  1.
    10030    2    1    2    0    0  0.00000000000E+00  0.00000000000E+00 -0.15699290081E+03  0.24052419827E+04  0.24001129607E+04 0.  0.
        2    1    3    3  502    0 -0.88152494760E+03 -0.22502252469E+02  0.73721041791E+03  0.11493788692E+04  0.25500000920E-02 0. -1.
       -2    1    3    3    0  502  0.88152494760E+03  0.22502252469E+02 -0.89420331872E+03  0.12558631135E+04  0.25500000920E-02 0.  1.
</event>
<event>
 5   0  0.1275948E-06  0.2398429E+04  0.7818609E-02  0.8440092E-01
       -2   -1    0    0    0  501  0.00000000000E+00  0.00000000000E+00  0.10622421325E+04  0.10622421325E+04  0.25500000920E-02 0.  1.
        2   -1    0    0  501    0  0.00000000000E+00  0.00000000000E+00 -0.13538487490E+04  0.13538487490E+04  0.25500000920E-02 0. -1.
    10030    2    1    2    0    0  0.00000000000E+00  0.00000000000E+00 -0.29160661654E+03  0.24160908815E+04  0.23984288042E+04 0.  0.
        1    1    3    3  502    0 -0.70058047781E+03  0.14020590106E+03 -0.11160389350E+04  0.13251466353E+04  0.50400001928E-02 0. -1.
       -1    1    3    3    0  502  0.70058047781E+03 -0.14020590106E+03  0.82443231848E+03  0.10909442462E+04  0.50400001928E-02 0.  1.
</event>
<event>
 5   0  0.5527286E-07  0.2399081E+04  0.7818609E-02  0.8439848E-01
       -1   -1    0    0    0  501  0.00000000000E+00  0.00000000000E+00  0.91765645398E+03  0.91765645399E+03  0.50400001928E-02 0.  1.
        1   -1    0    0  501    0  0.00000000000E+00  0.00000000000E+00 -0.15680133177E+04  0.15680133177E+04  0.50400001928E-02 0. -1.
    10030    2    1    2    0    0  0.00000000000E+00  0.00000000000E+00 -0.65035686369E+03  0.24856697717E+04  0.23990811082E+04 0.  0.
        1    1    3    3  502    0  0.86710091494E+03 -0.73862153033E+03 -0.71488112544E+03  0.13447976745E+04  0.50400001928E-02 0.  1.
       -1    1    3    3    0  502 -0.86710091494E+03  0.73862153033E+03  0.64524261751E+02  0.11408720972E+04  0.50400001928E-02 0. -1.
</event>
<event>
 5   0  0.5510176E-07  0.2401080E+04  0.7818609E-02  0.8439099E-01
        1   -1    0    0  501    0  0.00000000000E+00  0.00000000000E+00  0.85645402723E+03  0.85645402725E+03  0.50400001928E-02 0. -1.
       -1   -1    0    0    0  501  0.00000000000E+00  0.00000000000E+00 -0.16828649268E+04  0.16828649268E+04  0.50400001928E-02 0.  1.
    10030    2    1    2    0    0  0.00000000000E+00  0.00000000000E+00 -0.82641089953E+03  0.25393189540E+04  0.24010801268E+04 0.  0.
        3    1    3    3  502    0 -0.11718852994E+04 -0.54797333003E+01 -0.68888803344E+03  0.13593792389E+04  0.10100000352E+00 0.  1.
       -3    1    3    3    0  502  0.11718852994E+04  0.54797333003E+01 -0.13752286609E+03  0.11799397151E+04  0.10100000352E+00 0. -1.
</event>
<event>
 5   0  0.5510176E-07  0.2400401E+04  0.7818609E-02  0.8439354E-01
       -1   -1    0    0    0  501  0.00000000000E+00  0.00000000000E+00  0.13310372014E+04  0.13310372014E+04  0.50400001928E-02 0.  1.
        1   -1    0    0  501    0  0.00000000000E+00  0.00000000000E+00 -0.10822243184E+04  0.10822243184E+04  0.50400001928E-02 0. -1.
    10030    2    1    2    0    0  0.00000000000E+00  0.00000000000E+00  0.24881288306E+03  0.24132615198E+04  0.24004006566E+04 0.  0.
        3    1    3    3  502    0 -0.99442858893E+03  0.64861781879E+03 -0.52283652822E+02  0.11884135997E+04  0.10100000352E+00 0. -1.
       -3    1    3    3    0  502  0.99442858893E+03 -0.64861781879E+03  0.30109653588E+03  0.12248479201E+04  0.10100000352E+00 0.  1.
</event>
<event>
 5   0  0.5363690E-07  0.2398837E+04  0.7818609E-02  0.8439939E-01
        1   -1    0    0  501    0  0.00000000000E+00  0.00000000000E+00  0.10362497119E+04  0.10362497119E+04  0.50400001928E-02 0. -1.
       -1   -1    0    0    0  501  0.00000000000E+00  0.00000000000E+00 -0.13882805630E+04  0.13882805630E+04  0.50400001928E-02 0.  1.
    10030    2    1    2    0    0  0.00000000000E+00  0.00000000000E+00 -0.35203085110E+03  0.24245302749E+04  0.23988374963E+04 0.  0.
        4    1    3    3  502    0 -0.15163821680E+03 -0.18902062338E+03 -0.13632801513E+04  0.13846506161E+04  0.12699999809E+01 0.  1.
       -4    1    3    3    0  502  0.15163821680E+03  0.18902062338E+03  0.10112493002E+04  0.10398796588E+04  0.12699999809E+01 0. -1.
</event>
<event>
 5   0  0.1275948E-06  0.2400492E+04  0.7818609E-02  0.8439319E-01
        2   -1    0    0  501    0  0.00000000000E+00  0.00000000000E+00  0.26992913177E+04  0.26992913177E+04  0.25500000920E-02 0.  1.
       -2   -1    0    0    0  501  0.00000000000E+00  0.00000000000E+00 -0.53369218575E+03  0.53369218575E+03  0.25500000920E-02 0. -1.
    10030    2    1    2    0    0  0.00000000000E+00  0.00000000000E+00  0.21655991319E+04  0.32329835034E+04  0.24004921856E+04 0.  0.
        1    1    3    3  502    0 -0.75698525403E+03 -0.79374599631E+03  0.42640705629E+03  0.11768102477E+04  0.50400001928E-02 0.  1.
       -1    1    3    3    0  502  0.75698525403E+03  0.79374599631E+03  0.17391920756E+04  0.20561732557E+04  0.50400001928E-02 0. -1.
</event>
<event>
 5   0  0.1308662E-06  0.2398258E+04  0.7818609E-02  0.8440156E-01
        2   -1    0    0  501    0  0.00000000000E+00  0.00000000000E+00  0.18231757708E+04  0.18231757708E+04  0.25500000920E-02 0.  1.
       -2   -1    0    0    0  501  0.00000000000E+00  0.00000000000E+00 -0.78868440612E+03  0.78868440612E+03  0.25500000920E-02 0. -1.
    10030    2    1    2    0    0  0.00000000000E+00  0.00000000000E+00  0.10344913647E+04  0.26118601769E+04  0.23982579511E+04 0.  0.
        3    1    3    3  502    0  0.89371784683E+03 -0.57725560966E+03 -0.85150995055E+02  0.10673360908E+04  0.10100000352E+00 0. -1.
       -3    1    3    3    0  502 -0.89371784683E+03  0.57725560966E+03  0.11196423598E+04  0.15445240861E+04  0.10100000352E+00 0.  1.
</event>
<event>
 5   0  0.5510176E-07  0.2399015E+04  0.7818609E-02  0.8439872E-01
       -1   -1    0    0    0  501  0.00000000000E+00  0.00000000000E+00  0.90279396658E+03  0.90279396660E+03  0.50400001928E-02 0.  1.
        1   -1    0    0  501    0  0.00000000000E+00  0.00000000000E+00 -0.15937393341E+04  0.15937393341E+04  0.50400001928E-02 0. -1.
    10030    2    1    2    0    0  0.00000000000E+00  0.00000000000E+00 -0.69094536751E+03  0.24965333007E+04  0.23990150105E+04 0.  0.
        3    1    3    3  502    0  0.14188579042E+02  0.64291693235E+02  0.90091221307E+03  0.90331476433E+03  0.10100000352E+00 0.  1.
       -3    1    3    3    0  502 -0.14188579042E+02 -0.64291693235E+02 -0.15918575806E+04  0.15932185364E+04  0.10100000352E+00 0. -1.
</event>
<event>
 5   0  0.1291468E-06  0.2400022E+04  0.7818609E-02  0.8439495E-01
       -2   -1    0    0    0  501  0.00000000000E+00  0.00000000000E+00  0.67842191453E+03  0.67842191453E+03  0.25500000920E-02 0. -1.
        2   -1    0    0  501    0  0.00000000000E+00  0.00000000000E+00 -0.21226122447E+04  0.21226122447E+04  0.25500000920E-02 0.  1.
    10030    2    1    2    0    0  0.00000000000E+00  0.00000000000E+00 -0.14441903302E+04  0.28010341593E+04  0.24000222190E+04 0.  0.
        4    1    3    3  502    0 -0.91761941990E+03 -0.76522086452E+03 -0.59194181523E+03  0.13334110757E+04  0.12699999809E+01 0. -1.
       -4    1    3    3    0  502  0.91761941990E+03  0.76522086452E+03 -0.85224851498E+03  0.14676230836E+04  0.12699999809E+01 0.  1.
</event>
<event>
 5   0  0.5510176E-07  0.2404388E+04  0.7818609E-02  0.8437862E-01
       -1   -1    0    0    0  501  0.00000000000E+00  0.00000000000E+00  0.10555941878E+04  0.10555941878E+04  0.50400001928E-02 0.  1.
        1   -1    0    0  501    0  0.00000000000E+00  0.00000000000E+00 -0.13691539876E+04  0.13691539877E+04  0.50400001928E-02 0. -1.
    10030    2    1    2    0    0  0.00000000000E+00  0.00000000000E+00 -0.31355979986E+03  0.24247481755E+04  0.24043884807E+04 0.  0.
        3    1    3    3  502    0 -0.47945781956E+03 -0.98408650753E+03 -0.65794364091E+03  0.12771827981E+04  0.10100000352E+00 0.  1.
       -3    1    3    3    0  502  0.47945781956E+03  0.98408650753E+03  0.34438384105E+03  0.11475653773E+04  0.10100000352E+00 0. -1.
</event>
<event>
 5   0  0.5510176E-07  0.2397908E+04  0.7818609E-02  0.8440287E-01
        1   -1    0    0  501    0  0.00000000000E+00  0.00000000000E+00  0.32653914457E+04  0.32653914457E+04  0.50400001928E-02 0.  1.
       -1   -1    0    0    0  501  0.00000000000E+00  0.00000000000E+00 -0.44021987251E+03  0.44021987254E+03  0.50400001928E-02 0. -1.
    10030    2    1    2    0    0  0.00000000000E+00  0.00000000000E+00  0.28251715732E+04  0.37056113182E+04  0.23979075928E+04 0.  0.
        3    1    3    3  502    0 -0.11249603742E+04  0.22809258760E+03  0.87742049292E+03  0.14447936889E+04  0.10100000352E+00 0. -1.
       -3    1    3    3    0  502  0.11249603742E+04 -0.22809258760E+03  0.19477510802E+04  0.22608176293E+04  0.10100000352E+00 0.  1.
</event>
<event>
 5   0  0.1307477E-06  0.2402804E+04  0.7818609E-02  0.8438455E-01
       -2   -1    0    0    0  501  0.00000000000E+00  0.00000000000E+00  0.45266406637E+03  0.45266406638E+03  0.25500000920E-02 0. -1.
        2   -1    0    0  501    0  0.00000000000E+00  0.00000000000E+00 -0.31886037470E+04  0.31886037470E+04  0.25500000920E-02 0.  1.
    10030    2    1    2    0    0  0.00000000000E+00  0.00000000000E+00 -0.27359396806E+04  0.36412678134E+04  0.24028036442E+04 0.  0.
        5    1    3    3  502    0  0.75645196448E+03 -0.90571063419E+03 -0.17095726388E+04  0.20773040280E+04  0.46999998093E+01 0. -1.
       -5    1    3    3    0  502 -0.75645196448E+03  0.90571063419E+03 -0.10263670419E+04  0.15639637854E+04  0.46999998093E+01 0.  1.
</event>
<event>
 5   0  0.5363690E-07  0.2395307E+04  0.7818609E-02  0.8441263E-01
       -1   -1    0    0    0  501  0.00000000000E+00  0.00000000000E+00  0.79497492443E+03  0.79497492444E+03  0.50400001928E-02 0.  1.
        1   -1    0    0  501    0  0.00000000000E+00  0.00000000000E+00 -0.18043002949E+04  0.18043002949E+04  0.50400001928E-02 0. -1.
    10030    2    1    2    0    0  0.00000000000E+00  0.00000000000E+00 -0.10093253705E+04  0.25992752193E+04  0.23953066531E+04 0.  0.
        4    1    3    3  502    0  0.74389163001E+03  0.18315506574E+03 -0.15036236810E+04  0.16875444652E+04  0.12699999809E+01 0. -1.
       -4    1    3    3    0  502 -0.74389163001E+03 -0.18315506574E+03  0.49429831050E+03  0.91173075410E+03  0.12699999809E+01 0.  1.
</event>
<event>
 5   0  0.5510176E-07  0.2399109E+04  0.7818609E-02  0.8439837E-01
       -1   -1    0    0    0  501  0.00000000000E+00  0.00000000000E+00  0.21202435329E+04  0.21202435329E+04  0.50400001928E-02 0.  1.
        1   -1    0    0  501    0  0.00000000000E+00  0.00000000000E+00 -0.67866305242E+03  0.67866305244E+03  0.50400001928E-02 0. -1.
    10030    2    1    2    0    0  0.00000000000E+00  0.00000000000E+00  0.14415804804E+04  0.27989065853E+04  0.23991089579E+04 0.  0.
        3    1    3    3  502    0 -0.53218274902E+03 -0.53109784634E+03 -0.36966177658E+03  0.83781456183E+03  0.10100000352E+00 0. -1.
       -3    1    3    3    0  502  0.53218274902E+03  0.53109784634E+03  0.18112422570E+04  0.19610920235E+04  0.10100000352E+00 0.  1.
</event>
<event>
 5   0  0.1336057E-06  0.2402837E+04  0.7818609E-02  0.8438442E-01
        2   -1    0    0  501    0  0.00000000000E+00  0.00000000000E+00  0.16137460191E+04  0.16137460191E+04  0.25500000920E-02 0.  1.
       -2   -1    0    0    0  501  0.00000000000E+00  0.00000000000E+00 -0.89444469411E+03  0.89444469411E+03  0.25500000920E-02 0. -1.
    10030    2    1    2    0    0  0.00000000000E+00  0.00000000000E+00  0.71930132503E+03  0.25081907132E+04  0.24028371268E+04 0.  0.
        2    1    3    3  502    0  0.53228716366E+01  0.72680631211E+03  0.13582190470E+04  0.15404657504E+04  0.25500000920E-02 0.  1.
       -2    1    3    3    0  502 -0.53228716366E+01 -0.72680631211E+03 -0.63891772201E+03  0.96772496289E+03  0.25500000920E-02 0. -1.
</event>
<event>
 5   0  0.5363690E-07  0.2399470E+04  0.7818609E-02  0.8439702E-01
        1   -1    0    0  501    0  0.00000000000E+00  0.00000000000E+00  0.16098049198E+04  0.16098049198E+04  0.50400001928E-02 0.  1.
       -1   -1    0    0    0  501  0.00000000000E+00  0.00000000000E+00 -0.89412296216E+03  0.89412296218E+03  0.50400001928E-02 0. -1.
    10030    2    1    2    0    0  0.00000000000E+00  0.00000000000E+00  0.71568195765E+03  0.25039278820E+04  0.23994695609E+04 0.  0.
        4    1    3    3  502    0  0.55009468400E+03  0.98852703741E+03  0.77469596870E+03  0.13711109809E+04  0.12699999809E+01 0.  1.
       -4    1    3    3    0  502 -0.55009468400E+03 -0.98852703741E+03 -0.59014011042E+02  0.11328169011E+04  0.12699999809E+01 0. -1.
</event>
<event>
 5   0  0.1275948E-06  0.2385696E+04  0.7818609E-02  0.8444878E-01
       -2   -1    0    0    0  501  0.00000000000E+00  0.00000000000E+00  0.62605254009E+03  0.62605254009E+03  0.25500000920E-02 0. -1.
        2   -1    0    0  501    0  0.00000000000E+00  0.00000000000E+00 -0.22727908661E+04  0.22727908661E+04  0.25500000920E-02 0.  1.
    10030    2    1    2    0    0  0.00000000000E+00  0.00000000000E+00 -0.16467383260E+04  0.28988434062E+04  0.23856961205E+04 0.  0.
        1    1    3    3  502    0  0.15208098141E+03  0.95176086875E+03  0.30582234200E+02  0.96431978579E+03  0.50400001928E-02 0. -1.
       -1    1    3    3    0  502 -0.15208098141E+03 -0.95176086875E+03 -0.16773205602E+04  0.19345236204E+04  0.50400001928E-02 0.  1.
</event>
<event>
 5   0  0.5690124E-07  0.2400405E+04  0.7818609E-02  0.8439352E-01
        1   -1    0    0  501    0  0.00000000000E+00  0.00000000000E+00  0.18852391159E+04  0.18852391159E+04  0.50400001928E-02 0. -1.
       -1   -1    0    0    0  501  0.00000000000E+00  0.00000000000E+00 -0.76408665506E+03  0.76408665508E+03  0.50400001928E-02 0.  1.
    10030    2    1    2    0    0  0.00000000000E+00  0.00000000000E+00  0.11211524608E+04  0.26493257710E+04  0.24004050076E+04 0.  0.
        2    1    3    3  502    0 -0.61680731697E+03 -0.55360470337E+02 -0.57412668537E+03  0.84447468807E+03  0.25500000920E-02 0.  1.
       -2    1    3    3    0  502  0.61680731697E+03  0.55360470337E+02  0.16952791462E+04  0.18048510829E+04  0.25500000920E-02 0. -1.
</event>
<event>
 5   0  0.5363690E-07  0.2400810E+04  0.7818609E-02  0.8439200E-01
       -1   -1    0    0    0  501  0.00000000000E+00  0.00000000000E+00  0.10089094702E+04  0.10089094702E+04  0.50400001928E-02 0.  1.
        1   -1    0    0  501    0  0.00000000000E+00  0.00000000000E+00 -0.14282473359E+04  0.14282473360E+04  0.50400001928E-02 0. -1.
    10030    2    1    2    0    0  0.00000000000E+00  0.00000000000E+00 -0.41933786577E+03  0.24371568061E+04  0.24008100825E+04 0.  0.
        4    1    3    3  502    0  0.10498675946E+04 -0.11378210426E+03 -0.78910129874E+03  0.13182756942E+04  0.12699999809E+01 0. -1.
       -4    1    3    3    0  502 -0.10498675946E+04  0.11378210426E+03  0.36976343297E+03  0.11188811119E+04  0.12699999809E+01 0.  1.
</event>
<event>
 5   0  0.1308662E-06  0.2399675E+04  0.7818609E-02  0.8439625E-01
        2   -1    0    0  501    0  0.00000000000E+00  0.00000000000E+00  0.14947250996E+04  0.14947250996E+04  0.25500000920E-02 0. -1.
       -2   -1    0    0    0  501  0.00000000000E+00  0.00000000000E+00 -0.96312724999E+03  0.96312725000E+03  0.25500000920E-02 0.  1.
    10030    2    1    2    0    0  0.00000000000E+00  0.00000000000E+00  0.53159784957E+03  0.24578523496E+04  0.23996753736E+04 0.  0.
        3    1    3    3  502    0  0.21642186854E+03  0.74067709828E+03 -0.67526281626E+03  0.10253881559E+04  0.10100000352E+00 0.  1.
       -3    1    3    3    0  502 -0.21642186854E+03 -0.74067709828E+03  0.12068606658E+04  0.14324641936E+04  0.10100000352E+00 0. -1.
</event>
<event>
 5   0  0.5510176E-07  0.2399712E+04  0.7818609E-02  0.8439612E-01
       -1   -1    0    0    0  501  0.00000000000E+00  0.00000000000E+00  0.11220533887E+04  0.11220533887E+04  0.50400001928E-02 0.  1.
        1   -1    0    0  501    0  0.00000000000E+00  0.00000000000E+00 -0.12830530032E+04  0.12830530032E+04  0.50400001928E-02 0. -1.
    10030    2    1    2    0    0  0.00000000000E+00  0.00000000000E+00 -0.16099961452E+03  0.24051063919E+04  0.23997116244E+04 0.  0.
        3    1    3    3  502    0 -0.96922435030E+03  0.38828484778E+03  0.51200854318E+03  0.11628902453E+04  0.10100000352E+00 0. -1.
       -3    1    3    3    0  502  0.96922435030E+03 -0.38828484778E+03 -0.67300815769E+03  0.12422161466E+04  0.10100000352E+00 0.  1.
</event>
<event>
 5   0  0.1336057E-06  0.2401344E+04  0.7818609E-02  0.8439001E-01
        2   -1    0    0  501    0  0.00000000000E+00  0.00000000000E+00  0.16660849791E+04  0.16660849791E+04  0.25500000920E-02 0.  1.
       -2   -1    0    0    0  501  0.00000000000E+00  0.00000000000E+00 -0.86526990693E+03  0.86526990693E+03  0.25500000920E-02 0. -1.
    10030    2    1    2    0    0  0.00000000000E+00  0.00000000000E+00  0.80081507217E+03  0.25313548860E+04  0.24013439527E+04 0.  0.
        2    1    3    3  502    0 -0.11817901646E+04 -0.13582377923E+03  0.57212933066E+03  0.13200030542E+04  0.25500000920E-02 0.  1.
       -2    1    3    3    0  502  0.11817901646E+04  0.13582377923E+03  0.22868574151E+03  0.12113518318E+04  0.25500000920E-02 0. -1.
</event>
<event>
 5   0  0.1308662E-06  0.2401032E+04  0.7818609E-02  0.8439117E-01
        2   -1    0    0  501    0  0.00000000000E+00  0.00000000000E+00  0.13880430489E+04  0.13880430489E+04  0.25500000920E-02 0.  1.
       -2   -1    0    0    0  501  0.00000000000E+00  0.00000000000E+00 -0.10383242527E+04  0.10383242527E+04  0.25500000920E-02 0. -1.
    10030    2    1    2    0    0  0.00000000000E+00  0.00000000000E+00  0.34971879621E+03  0.24263673016E+04  0.24010320793E+04 0.  0.
        3    1    3    3  502    0 -0.11590799022E+04  0.24822170530E+03 -0.17300997520E+02  0.11854870600E+04  0.10100000352E+00 0. -1.
       -3    1    3    3    0  502  0.11590799022E+04 -0.24822170530E+03  0.36701979373E+03  0.12408802416E+04  0.10100000352E+00 0.  1.
</event>
<event>
 5   0  0.1336057E-06  0.2400065E+04  0.7818609E-02  0.8439479E-01
       -2   -1    0    0    0  501  0.00000000000E+00  0.00000000000E+00  0.65635112260E+03  0.65635112261E+03  0.25500000920E-02 0.  1.
        2   -1    0    0  501    0  0.00000000000E+00  0.00000000000E+00 -0.21940663615E+04  0.21940663615E+04  0.25500000920E-02 0. -1.
    10030    2    1    2    0    0  0.00000000000E+00  0.00000000000E+00 -0.15377152389E+04  0.28504174841E+04  0.24000649320E+04 0.  0.
        2    1    3    3  502    0 -0.10725773130E+04  0.26373456835E+03 -0.13260374781E+04  0.17257906618E+04  0.25500000920E-02 0. -1.
       -2    1    3    3    0  502  0.10725773130E+04 -0.26373456835E+03 -0.21167776073E+03  0.11246268223E+04  0.25500000920E-02 0.  1.
</event>
<event>
 5   0  0.1336057E-06  0.2398489E+04  0.7818609E-02  0.8440069E-01
        2   -1    0    0  501    0  0.00000000000E+00  0.00000000000E+00  0.16350209430E+04  0.16350209430E+04  0.25500000920E-02 0. -1.
       -2   -1    0    0    0  501  0.00000000000E+00  0.00000000000E+00 -0.87961423419E+03  0.87961423419E+03  0.25500000920E-02 0.  1.
    10030    2    1    2    0    0  0.00000000000E+00  0.00000000000E+00  0.75540670885E+03  0.25146351772E+04  0.23984892701E+04 0.  0.
        2    1    3    3  502    0 -0.23508254227E+03 -0.74597649403E+03  0.13308147230E+04  0.15436361483E+04  0.25500000920E-02 0.  1.
       -2    1    3    3    0  502  0.23508254227E+03  0.74597649403E+03 -0.57540801420E+03  0.97099902891E+03  0.25500000920E-02 0. -1.
</event>
<event>
 5   0  0.5452384E-07  0.2400303E+04  0.7818609E-02  0.8439390E-01
        1   -1    0    0  501    0  0.00000000000E+00  0.00000000000E+00  0.19385377080E+04  0.19385377080E+04  0.50400001928E-02 0.  1.
       -1   -1    0    0    0  501  0.00000000000E+00  0.00000000000E+00 -0.74301556616E+03  0.74301556618E+03  0.50400001928E-02 0. -1.
    10030    2    1    2    0    0  0.00000000000E+00  0.00000000000E+00  0.11955221418E+04  0.26815532741E+04  0.24003030581E+04 0.  0.
        5    1    3    3  502    0 -0.38266275921E+03  0.14664113534E+03  0.18579434677E+04  0.19026062202E+04  0.46999998093E+01 0.  1.
       -5    1    3    3    0  502  0.38266275921E+03 -0.14664113534E+03 -0.66242132591E+03  0.77894705397E+03  0.46999998093E+01 0. -1.
</event>
<event>
 5   0  0.5363690E-07  0.2405113E+04  0.7818609E-02  0.8437592E-01
       -1   -1    0    0    0  501  0.00000000000E+00  0.00000000000E+00  0.10529144278E+04  0.10529144278E+04  0.50400001928E-02 0.  1.
        1   -1    0    0  501    0  0.00000000000E+00  0.00000000000E+00 -0.13734663805E+04  0.13734663805E+04  0.50400001928E-02 0. -1.
    10030    2    1    2    0    0  0.00000000000E+00  0.00000000000E+00 -0.32055195268E+03  0.24263808083E+04  0.24051133596E+04 0.  0.
        4    1    3    3  502    0 -0.32490902862E+03  0.24771771148E+03  0.98074730681E+03  0.10624485090E+04  0.12699999809E+01 0.  1.
       -4    1    3    3    0  502  0.32490902862E+03 -0.24771771148E+03 -0.13012992595E+04  0.13639322993E+04  0.12699999809E+01 0. -1.
</event>
<event>
 5   0  0.1336057E-06  0.2399102E+04  0.7818609E-02  0.8439840E-01
        2   -1    0    0  501    0  0.00000000000E+00  0.00000000000E+00  0.16249114713E+04  0.16249114713E+04  0.25500000920E-02 0.  1.
       -2   -1    0    0    0  501  0.00000000000E+00  0.00000000000E+00 -0.88553920932E+03  0.88553920932E+03  0.25500000920E-02 0. -1.
    10030    2    1    2    0    0  0.00000000000E+00  0.00000000000E+00  0.73937226197E+03  0.25104506806E+04  0.23991021817E+04 0.  0.
        2    1    3    3  502    0 -0.54608135879E+03  0.26620823627E+02 -0.74758131650E+03  0.92617025619E+03  0.25500000920E-02 0. -1.
       -2    1    3    3    0  502  0.54608135879E+03 -0.26620823627E+02  0.14869535785E+04  0.15842804244E+04  0.25500000920E-02 0.  1.
</event>
<event>
 5   0  0.1336057E-06  0.2399775E+04  0.7818609E-02  0.8439588E-01
       -2   -1    0    0    0  501  0.00000000000E+00  0.00000000000E+00  0.98130072030E+03  0.98130072030E+03  0.25500000920E-02 0.  1.
        2   -1    0    0  501    0  0.00000000000E+00  0.00000000000E+00 -0.14671647901E+04  0.14671647901E+04  0.25500000920E-02 0. -1.
    10030    2    1    2    0    0  0.00000000000E+00  0.00000000000E+00 -0.48586406977E+03  0.24484655104E+04  0.23997748772E+04 0.  0.
        2    1    3    3  502    0  0.41063773079E+03 -0.88827986330E+03  0.46546456942E+03  0.10836612602E+04  0.25500000920E-02 0.  1.
       -2    1    3    3    0  502 -0.41063773079E+03  0.88827986330E+03 -0.95132863920E+03  0.13648042502E+04  0.25500000920E-02 0. -1.
</event>
<event>
 5   0  0.4483375E-07  0.2399416E+04  0.7818609E-02  0.8439722E-01
       -3   -1    0    0    0  501  0.00000000000E+00  0.00000000000E+00  0.81257690729E+03  0.81257691356E+03  0.10100000352E+00 0.  1.
        3   -1    0    0  501    0  0.00000000000E+00  0.00000000000E+00 -0.17712778193E+04  0.17712778222E+04  0.10100000352E+00 0. -1.
    10030    2    1    2    0    0  0.00000000000E+00  0.00000000000E+00 -0.95870091205E+03  0.25838547358E+04  0.23994161492E+04 0.  0.
        5    1    3    3  502    0 -0.47679497404E+03  0.86615006779E+03 -0.12110884681E+04  0.15634278860E+04  0.46999998093E+01 0. -1.
       -5    1    3    3    0  502  0.47679497404E+03 -0.86615006779E+03  0.25238755609E+03  0.10204268497E+04  0.46999998093E+01 0.  1.
</event>
<event>
 5   0  0.1308662E-06  0.2400167E+04  0.7818609E-02  0.8439441E-01
       -2   -1    0    0    0  501  0.00000000000E+00  0.00000000000E+00  0.18525511360E+04  0.18525511360E+04  0.25500000920E-02 0. -1.
        2   -1    0    0  501    0  0.00000000000E+00  0.00000000000E+00 -0.77741490391E+03  0.77741490392E+03  0.25500000920E-02 0.  1.
    10030    2    1    2    0    0  0.00000000000E+00  0.00000000000E+00  0.10751362321E+04  0.26299660400E+04  0.24001673804E+04 0.  0.
        3    1    3    3  502    0 -0.89973670691E+03 -0.78876552541E+03  0.63873109371E+03  0.13563386805E+04  0.10100000352E+00 0. -1.
       -3    1    3    3    0  502  0.89973670691E+03  0.78876552541E+03  0.43640513842E+03  0.12736273595E+04  0.10100000352E+00 0.  1.
</event>
<event>
 5   0  0.5690124E-07  0.2397349E+04  0.7818609E-02  0.8440497E-01
        1   -1    0    0  501    0  0.00000000000E+00  0.00000000000E+00  0.27325974439E+04  0.27325974439E+04  0.50400001928E-02 0. -1.
       -1   -1    0    0    0  501  0.00000000000E+00  0.00000000000E+00 -0.52580779919E+03  0.52580779921E+03  0.50400001928E-02 0.  1.
    10030    2    1    2    0    0  0.00000000000E+00  0.00000000000E+00  0.22067896447E+04  0.32584052431E+04  0.23973494097E+04 0.  0.
        2    1    3    3  502    0  0.85969588389E+03 -0.51174913249E+03  0.20607822093E+03  0.10214853991E+04  0.25500000920E-02 0.  1.
       -2    1    3    3    0  502 -0.85969588389E+03  0.51174913249E+03  0.20007114238E+04  0.22369198440E+04  0.25500000920E-02 0. -1.
</event>
<event>
 5   0  0.5527286E-07  0.2401175E+04  0.7818609E-02  0.8439064E-01
       -1   -1    0    0    0  501  0.00000000000E+00  0.00000000000E+00  0.82258647436E+03  0.82258647437E+03  0.50400001928E-02 0.  1.
        1   -1    0    0  501    0  0.00000000000E+00  0.00000000000E+00 -0.17522896789E+04  0.17522896790E+04  0.50400001928E-02 0. -1.
    10030    2    1    2    0    0  0.00000000000E+00  0.00000000000E+00 -0.92970320459E+03  0.25748761533E+04  0.24011745368E+04 0.  0.
        1    1    3    3  502    0 -0.20135079437E+03  0.11834583021E+04 -0.44646185888E+03  0.12807981443E+04  0.50400001928E-02 0.  1.
       -1    1    3    3    0  502  0.20135079437E+03 -0.11834583021E+04 -0.48324134571E+03  0.12940780090E+04  0.50400001928E-02 0. -1.
</event>
<event>
 5   0  0.1336057E-06  0.2400269E+04  0.7818609E-02  0.8439403E-01
       -2   -1    0    0    0  501  0.00000000000E+00  0.00000000000E+00  0.59675679489E+03  0.59675679490E+03  0.25500000920E-02 0.  1.
        2   -1    0    0  501    0  0.00000000000E+00  0.00000000000E+00 -0.24135838479E+04  0.24135838479E+04  0.25500000920E-02 0. -1.
    10030    2    1    2    0    0  0.00000000000E+00  0.00000000000E+00 -0.18168270530E+04  0.30103406428E+04  0.24002687860E+04 0.  0.
        2    1    3    3  502    0  0.11137069220E+04 -0.43857772391E+03 -0.79886904106E+03  0.14390570777E+04  0.25500000920E-02 0.  1.
       -2    1    3    3    0  502 -0.11137069220E+04  0.43857772391E+03 -0.10179580119E+04  0.15712835651E+04  0.25500000920E-02 0. -1.
</event>
<event>
 5   0  0.1307477E-06  0.2399537E+04  0.7818609E-02  0.8439677E-01
       -2   -1    0    0    0  501  0.00000000000E+00  0.00000000000E+00  0.10802829953E+04  0.10802829953E+04  0.25500000920E-02 0. -1.
        2   -1    0    0  501    0  0.00000000000E+00  0.00000000000E+00 -0.13324698599E+04  0.13324698599E+04  0.25500000920E-02 0.  1.
    10030    2    1    2    0    0  0.00000000000E+00  0.00000000000E+00 -0.25218686457E+03  0.24127528552E+04  0.23995370649E+04 0.  0.
        5    1    3    3  502    0  0.36886193801E+03  0.40074158549E+03  0.94879823132E+03  0.10940261064E+04  0.46999998093E+01 0. -1.
       -5    1    3    3    0  502 -0.36886193801E+03 -0.40074158549E+03 -0.12009850959E+04  0.13187267489E+04  0.46999998093E+01 0.  1.
</event>
<event>
 5   0  0.5690124E-07  0.2399537E+04  0.7818609E-02  0.8439677E-01
        1   -1    0    0  501    0  0.00000000000E+00  0.00000000000E+00  0.15372729825E+04  0.15372729825E+04  0.50400001928E-02 0.  1.
       -1   -1    0    0    0  501  0.00000000000E+00  0.00000000000E+00 -0.93636249701E+03  0.93636249702E+03  0.50400001928E-02 0. -1.
    10030    2    1    2    0    0  0.00000000000E+00  0.00000000000E+00  0.60091048549E+03  0.24736354795E+04  0.23995372625E+04 0.  0.
        2    1    3    3  502    0  0.24790411685E+02  0.86069814427E+02 -0.93291105156E+03  0.93720094302E+03  0.25500000920E-02 0. -1.
       -2    1    3    3    0  502 -0.24790411685E+02 -0.86069814427E+02  0.15338215371E+04  0.15364345365E+04  0.25500000920E-02 0.  1.
</event>
<event>
 5   0  0.5452384E-07  0.2399928E+04  0.7818609E-02  0.8439530E-01
        1   -1    0    0  501    0  0.00000000000E+00  0.00000000000E+00  0.27471794974E+04  0.27471794974E+04  0.50400001928E-02 0. -1.
       -1   -1    0    0    0  501  0.00000000000E+00  0.00000000000E+00 -0.52414272099E+03  0.52414272101E+03  0.50400001928E-02 0.  1.
    10030    2    1    2    0    0  0.00000000000E+00  0.00000000000E+00  0.22230367764E+04  0.32713222185E+04  0.23999284463E+04 0.  0.
        5    1    3    3  502    0 -0.87214543144E+03 -0.64339029890E+03  0.18136141792E+04  0.21127723993E+04  0.46999998093E+01 0.  1.
       -5    1    3    3    0  502  0.87214543144E+03  0.64339029890E+03  0.40942259725E+03  0.11585498191E+04  0.46999998093E+01 0. -1.
</event>
<event>
 5   0  0.1291468E-06  0.2400666E+04  0.7818609E-02  0.8439254E-01
       -2   -1    0    0    0  501  0.00000000000E+00  0.00000000000E+00  0.11518996019E+04  0.11518996019E+04  0.25500000920E-02 0. -1.
        2   -1    0    0  501    0  0.00000000000E+00  0.00000000000E+00 -0.12508033028E+04  0.12508033028E+04  0.25500000920E-02 0.  1.
    10030    2    1    2    0    0  0.00000000000E+00  0.00000000000E+00 -0.98903700913E+02  0.24027029047E+04  0.24006664296E+04 0.  0.
        4    1    3    3  502    0 -0.30538351124E+03 -0.23604747847E+03  0.10880952186E+04  0.11545260147E+04  0.12699999809E+01 0. -1.
       -4    1    3    3    0  502  0.30538351124E+03  0.23604747847E+03 -0.11869989195E+04  0.12481768900E+04  0.12699999809E+01 0.  1.
</event>
<event>
 5   0  0.5510176E-07  0.2400255E+04  0.7818609E-02  0.8439408E-01
       -1   -1    0    0    0  501  0.00000000000E+00  0.00000000000E+00  0.84225857042E+03  0.84225857043E+03  0.50400001928E-02 0. -1.
        1   -1    0    0  501    0  0.00000000000E+00  0.00000000000E+00 -0.17100516675E+04  0.17100516676E+04  0.50400001928E-02 0.  1.
    10030    2    1    2    0    0  0.00000000000E+00  0.00000000000E+00 -0.86779309713E+03  0.25523102380E+04  0.24002547139E+04 0.  0.
        3    1    3    3  502    0  0.10396089405E+04  0.46069089546E+03 -0.84198298988E+03  0.14149057268E+04  0.10100000352E+00 0.  1.
       -3    1    3    3    0  502 -0.10396089405E+04 -0.46069089546E+03 -0.25810107254E+02  0.11374045112E+04  0.10100000352E+00 0. -1.
</event>
<event>
 5   0  0.5690124E-07  0.2399422E+04  0.7818609E-02  0.8439720E-01
       -1   -1    0    0    0  501  0.00000000000E+00  0.00000000000E+00  0.59517656941E+03  0.59517656943E+03  0.50400001928E-02 0.  1.
        1   -1    0    0  501    0  0.00000000000E+00  0.00000000000E+00 -0.24182844232E+04  0.24182844232E+04  0.50400001928E-02 0. -1.
    10030    2    1    2    0    0  0.00000000000E+00  0.00000000000E+00 -0.18231078538E+04  0.30134609926E+04  0.23994217861E+04 0.  0.
        2    1    3    3  502    0  0.87183248021E+03  0.54865813647E+03 -0.16839022262E+04  0.19739919786E+04  0.25500000920E-02 0.  1.
       -2    1    3    3    0  502 -0.87183248021E+03 -0.54865813647E+03 -0.13920562754E+03  0.10394690140E+04  0.25500000920E-02 0. -1.
</event>
<event>
 5   0  0.1336057E-06  0.2394895E+04  0.7818609E-02  0.8441417E-01
       -2   -1    0    0    0  501  0.00000000000E+00  0.00000000000E+00  0.62811977925E+03  0.62811977926E+03  0.25500000920E-02 0.  1.
        2   -1    0    0  501    0  0.00000000000E+00  0.00000000000E+00 -0.22828132029E+04  0.22828132029E+04  0.25500000920E-02 0. -1.
    10030    2    1    2    0    0  0.00000000000E+00  0.00000000000E+00 -0.16546934237E+04  0.29109329822E+04  0.23948946742E+04 0.  0.
        2    1    3    3  502    0 -0.93082934024E+03 -0.74171541181E+03 -0.98719481316E+03  0.15463306929E+04  0.25500000920E-02 0.  1.
       -2    1    3    3    0  502  0.93082934024E+03  0.74171541181E+03 -0.66749861051E+03  0.13646022892E+04  0.25500000920E-02 0. -1.
</event>
<event>
 5   0  0.1307477E-06  0.2392636E+04  0.7818609E-02  0.8442266E-01
       -2   -1    0    0    0  501  0.00000000000E+00  0.00000000000E+00  0.12480616018E+04  0.12480616018E+04  0.25500000920E-02 0. -1.
        2   -1    0    0  501    0  0.00000000000E+00  0.00000000000E+00 -0.11467197396E+04  0.11467197396E+04  0.25500000920E-02 0.  1.
    10030    2    1    2    0    0  0.00000000000E+00  0.00000000000E+00  0.10134186217E+03  0.23947813415E+04  0.23926360986E+04 0.  0.
        5    1    3    3  502    0 -0.28026058581E+03  0.46957816829E+02  0.12137815828E+04  0.12466109470E+04  0.46999998093E+01 0. -1.
       -5    1    3    3    0  502  0.28026058581E+03 -0.46957816829E+02 -0.11124397206E+04  0.11481703944E+04  0.46999998093E+01 0.  1.
</event>
<event>
 5   0  0.5363690E-07  0.2400134E+04  0.7818609E-02  0.8439453E-01
        1   -1    0    0  501    0  0.00000000000E+00  0.00000000000E+00  0.18998316008E+04  0.18998316008E+04  0.50400001928E-02 0.  1.
       -1   -1    0    0    0  501  0.00000000000E+00  0.00000000000E+00 -0.75804646054E+03  0.75804646055E+03  0.50400001928E-02 0. -1.
    10030    2    1    2    0    0  0.00000000000E+00  0.00000000000E+00  0.11417851403E+04  0.26578780614E+04  0.24001338468E+04 0.  0.
        4    1    3    3  502    0 -0.64492934604E+03  0.43812957708E+03 -0.43936261982E+03  0.89494832940E+03  0.12699999809E+01 0. -1.
       -4    1    3    3    0  502  0.64492934604E+03 -0.43812957708E+03  0.15811477601E+04  0.17629297320E+04  0.12699999809E+01 0.  1.
</event>
<event>
 5   0  0.1307477E-06  0.2381043E+04  0.7818609E-02  0.8446635E-01
       -2   -1    0    0    0  501  0.00000000000E+00  0.00000000000E+00  0.16745809443E+04  0.16745809444E+04  0.25500000920E-02 0. -1.
        2   -1    0    0  501    0  0.00000000000E+00  0.00000000000E+00 -0.84638548908E+03  0.84638548908E+03  0.25500000920E-02 0.  1.
    10030    2    1    2    0    0  0.00000000000E+00  0.00000000000E+00  0.82819545527E+03  0.25209664334E+04  0.23810426385E+04 0.  0.
        5    1    3    3  502    0 -0.95031194466E+03 -0.88735125460E+02  0.11674988175E+04  0.15079928029E+04  0.46999998093E+01 0. -1.
       -5    1    3    3    0  502  0.95031194466E+03  0.88735125460E+02 -0.33930336221E+03  0.10129736306E+04  0.46999998093E+01 0.  1.
</event>
<event>
 5   0  0.5510176E-07  0.2400367E+04  0.7818609E-02  0.8439366E-01
       -1   -1    0    0    0  501  0.00000000000E+00  0.00000000000E+00  0.11437844541E+04  0.11437844541E+04  0.50400001928E-02 0.  1.
        1   -1    0    0  501    0  0.00000000000E+00  0.00000000000E+00 -0.12593639676E+04  0.12593639676E+04  0.50400001928E-02 0. -1.
    10030    2    1    2    0    0  0.00000000000E+00  0.00000000000E+00 -0.11557951353E+03  0.24031484217E+04  0.24003674120E+04 0.  0.
        3    1    3    3  502    0 -0.43986293139E+02  0.11248692876E+04  0.35883563342E+03  0.11815365971E+04  0.10100000352E+00 0.  1.
       -3    1    3    3    0  502  0.43986293139E+02 -0.11248692876E+04 -0.47441514695E+03  0.12216118246E+04  0.10100000352E+00 0. -1.
</event>
<event>
 5   0  0.1336057E-06  0.2399328E+04  0.7818609E-02  0.8439755E-01
       -2   -1    0    0    0  501  0.00000000000E+00  0.00000000000E+00  0.12533541860E+04  0.12533541860E+04  0.25500000920E-02 0.  1.
        2   -1    0    0  501    0  0.00000000000E+00  0.00000000000E+00 -0.11482735642E+04  0.11482735642E+04  0.25500000920E-02 0. -1.
    10030    2    1    2    0    0  0.00000000000E+00  0.00000000000E+00  0.10508062178E+03  0.24016277502E+04  0.23993278045E+04 0.  0.
        2    1    3    3  502    0  0.11328995546E+04 -0.39119526615E+03  0.10453566483E+03  0.12030888755E+04  0.25500000920E-02 0.  1.
       -2    1    3    3    0  502 -0.11328995546E+04  0.39119526615E+03  0.54495694543E+00  0.11985388747E+04  0.25500000920E-02 0. -1.
</event>
<event>
 5   0  0.1308662E-06  0.2399796E+04  0.7818609E-02  0.8439580E-01
        2   -1    0    0  501    0  0.00000000000E+00  0.00000000000E+00  0.13238666064E+04  0.13238666064E+04  0.25500000920E-02 0.  1.
       -2   -1    0    0    0  501  0.00000000000E+00  0.00000000000E+00 -0.10875382703E+04  0.10875382703E+04  0.25500000920E-02 0. -1.
    10030    2    1    2    0    0  0.00000000000E+00  0.00000000000E+00  0.23632833613E+03  0.24114048767E+04  0.23997963240E+04 0.  0.
        3    1    3    3  502    0 -0.71780696154E+02 -0.46611942564E+02  0.13207955242E+04  0.13235656268E+04  0.10100000352E+00 0.  1.
       -3    1    3    3    0  502  0.71780696154E+02  0.46611942564E+02 -0.10844671880E+04  0.10878392499E+04  0.10100000352E+00 0. -1.
</event>
<event>
 5   0  0.1275948E-06  0.2401235E+04  0.7818609E-02  0.8439041E-01
        2   -1    0    0  501    0  0.00000000000E+00  0.00000000000E+00  0.10171344080E+04  0.10171344080E+04  0.25500000920E-02 0. -1.
       -2   -1    0    0    0  501  0.00000000000E+00  0.00000000000E+00 -0.14171994535E+04  0.14171994535E+04  0.25500000920E-02 0.  1.
    10030    2    1    2    0    0  0.00000000000E+00  0.00000000000E+00 -0.40006504548E+03  0.24343338615E+04  0.24012349549E+04 0.  0.
        1    1    3    3  502    0  0.18129308799E+03  0.93009385451E+03 -0.94744692844E+03  0.13399990463E+04  0.50400001928E-02 0.  1.
       -1    1    3    3    0  502 -0.18129308799E+03 -0.93009385451E+03  0.54738188296E+03  0.10943348152E+04  0.50400001928E-02 0. -1.
</event>
<event>
 5   0  0.5527286E-07  0.2403141E+04  0.7818609E-02  0.8438329E-01
       -1   -1    0    0    0  501  0.00000000000E+00  0.00000000000E+00  0.21202527115E+04  0.21202527116E+04  0.50400001928E-02 0. -1.
        1   -1    0    0  501    0  0.00000000000E+00  0.00000000000E+00 -0.68094316426E+03  0.68094316428E+03  0.50400001928E-02 0.  1.
    10030    2    1    2    0    0  0.00000000000E+00  0.00000000000E+00  0.14393095473E+04  0.28011958758E+04  0.24031409367E+04 0.  0.
        1    1    3    3  502    0  0.12853341279E+03 -0.11365374752E+04  0.29052635647E+03  0.11801033152E+04  0.50400001928E-02 0.  1.
       -1    1    3    3    0  502 -0.12853341279E+03  0.11365374752E+04  0.11487831908E+04  0.16210925607E+04  0.50400001928E-02 0. -1.
</event>
<event>
 5   0  0.1308662E-06  0.2399826E+04  0.7818609E-02  0.8439569E-01
        2   -1    0    0  501    0  0.00000000000E+00  0.00000000000E+00  0.14110717761E+04  0.14110717761E+04  0.25500000920E-02 0. -1.
       -2   -1    0    0    0  501  0.00000000000E+00  0.00000000000E+00 -0.10203529646E+04  0.10203529646E+04  0.25500000920E-02 0.  1.
    10030    2    1    2    0    0  0.00000000000E+00  0.00000000000E+00  0.39071881156E+03  0.24314247407E+04  0.23998260520E+04 0.  0.
        3    1    3    3  502    0  0.63231658842E+03  0.32283562427E+03 -0.78471631032E+03  0.10582186949E+04  0.10100000352E+00 0.  1.
       -3    1    3    3    0  502 -0.63231658842E+03 -0.32283562427E+03  0.11754351219E+04  0.13732060458E+04  0.10100000352E+00 0. -1.
</event>
<event>
 5   0  0.5363690E-07  0.2397319E+04  0.7818609E-02  0.8440508E-01
       -1   -1    0    0    0  501  0.00000000000E+00  0.00000000000E+00  0.10081273315E+04  0.10081273315E+04  0.50400001928E-02 0.  1.
        1   -1    0    0  501    0  0.00000000000E+00  0.00000000000E+00 -0.14252017788E+04  0.14252017788E+04  0.50400001928E-02 0. -1.
    10030    2    1    2    0    0  0.00000000000E+00  0.00000000000E+00 -0.41707444726E+03  0.24333291103E+04  0.23973192246E+04 0.  0.
        4    1    3    3  502    0 -0.56185842443E+03 -0.47697293460E+03  0.75096369152E+03  0.10522053736E+04  0.12699999809E+01 0.  1.
       -4    1    3    3    0  502  0.56185842443E+03  0.47697293460E+03 -0.11680381388E+04  0.13811237367E+04  0.12699999809E+01 0. -1.
</event>
<event>
 5   0  0.1307477E-06  0.2399465E+04  0.7818609E-02  0.8439704E-01
       -2   -1    0    0    0  501  0.00000000000E+00  0.00000000000E+00  0.99919063160E+03  0.99919063160E+03  0.25500000920E-02 0.  1.
        2   -1    0    0  501    0  0.00000000000E+00  0.00000000000E+00 -0.14405240244E+04  0.14405240244E+04  0.25500000920E-02 0. -1.
    10030    2    1    2    0    0  0.00000000000E+00  0.00000000000E+00 -0.44133339283E+03  0.24397146560E+04  0.23994650319E+04 0.  0.
        5    1    3    3  502    0 -0.10368343472E+04 -0.37472587425E+03  0.26044177164E+03  0.11328269731E+04  0.46999998093E+01 0.  1.
       -5    1    3    3    0  502  0.10368343472E+04  0.37472587425E+03 -0.70177516447E+03  0.13068876830E+04  0.46999998093E+01 0. -1.
</event>
<event>
 5   0  0.5363690E-07  0.2399782E+04  0.7818609E-02  0.8439585E-01
        1   -1    0    0  501    0  0.00000000000E+00  0.00000000000E+00  0.11640579431E+04  0.11640579431E+04  0.50400001928E-02 0.  1.
       -1   -1    0    0    0  501  0.00000000000E+00  0.00000000000E+00 -0.12368271961E+04  0.12368271961E+04  0.50400001928E-02 0. -1.
    10030    2    1    2    0    0  0.00000000000E+00  0.00000000000E+00 -0.72769252974E+02  0.24008851392E+04  0.23997820917E+04 0.  0.
        4    1    3    3  502    0 -0.15888992483E+03  0.37191530444E+03  0.10938115276E+04  0.11661870659E+04  0.12699999809E+01 0.  1.
       -4    1    3    3    0  502  0.15888992483E+03 -0.37191530444E+03 -0.11665807805E+04  0.12346980733E+04  0.12699999809E+01 0. -1.
</event>
<event>
 5   0  0.5510176E-07  0.2392538E+04  0.7818609E-02  0.8442302E-01
       -1   -1    0    0    0  501  0.00000000000E+00  0.00000000000E+00  0.10363786436E+04  0.10363786436E+04  0.50400001928E-02 0. -1.
        1   -1    0    0  501    0  0.00000000000E+00  0.00000000000E+00 -0.13808272150E+04  0.13808272150E+04  0.50400001928E-02 0.  1.
    10030    2    1    2    0    0  0.00000000000E+00  0.00000000000E+00 -0.34444857134E+03  0.24172058586E+04  0.23925382640E+04 0.  0.
        3    1    3    3  502    0 -0.48474927710E+03 -0.75402591701E+03 -0.97255508234E+03  0.13226489873E+04  0.10100000352E+00 0.  1.
       -3    1    3    3    0  502  0.48474927710E+03  0.75402591701E+03  0.62810651100E+03  0.10945568713E+04  0.10100000352E+00 0. -1.
</event>
<event>
 5   0  0.1275948E-06  0.2400744E+04  0.7818609E-02  0.8439225E-01
        2   -1    0    0  501    0  0.00000000000E+00  0.00000000000E+00  0.72798845261E+03  0.72798845261E+03  0.25500000920E-02 0. -1.
       -2   -1    0    0    0  501  0.00000000000E+00  0.00000000000E+00 -0.19792800931E+04  0.19792800931E+04  0.25500000920E-02 0.  1.
    10030    2    1    2    0    0  0.00000000000E+00  0.00000000000E+00 -0.12512916405E+04  0.27072685457E+04  0.24007440949E+04 0.  0.
        1    1    3    3  502    0 -0.33357572827E+03 -0.11510004551E+04 -0.54736964516E+03  0.13174552526E+04  0.50400001928E-02 0.  1.
       -1    1    3    3    0  502  0.33357572827E+03  0.11510004551E+04 -0.70392199530E+03  0.13898132931E+04  0.50400001928E-02 0. -1.
</event>
<event>
 5   0  0.1291468E-06  0.2398967E+04  0.7818609E-02  0.8439890E-01
       -2   -1    0    0    0  501  0.00000000000E+00  0.00000000000E+00  0.10983758550E+04  0.10983758550E+04  0.25500000920E-02 0.  1.
        2   -1    0    0  501    0  0.00000000000E+00  0.00000000000E+00 -0.13098984038E+04  0.13098984038E+04  0.25500000920E-02 0. -1.
    10030    2    1    2    0    0  0.00000000000E+00  0.00000000000E+00 -0.21152254883E+03  0.24082742587E+04  0.23989670937E+04 0.  0.
        4    1    3    3  502    0  0.83881149695E+03 -0.34437407488E+03  0.68249902734E+03  0.11349029765E+04  0.12699999809E+01 0.  1.
       -4    1    3    3    0  502 -0.83881149695E+03  0.34437407488E+03 -0.89402157617E+03  0.12733712822E+04  0.12699999809E+01 0. -1.
</event>
<event>
 5   0  0.1308662E-06  0.2398011E+04  0.7818609E-02  0.8440249E-01
        2   -1    0    0  501    0  0.00000000000E+00  0.00000000000E+00  0.23635779058E+04  0.23635779058E+04  0.25500000920E-02 0. -1.
       -2   -1    0    0    0  501  0.00000000000E+00  0.00000000000E+00 -0.60823642311E+03  0.60823642312E+03  0.25500000920E-02 0.  1.
    10030    2    1    2    0    0  0.00000000000E+00  0.00000000000E+00  0.17553414827E+04  0.29718143289E+04  0.23980109851E+04 0.  0.
        3    1    3    3  502    0 -0.27719486839E+03 -0.16668583043E+03  0.23084888846E+04  0.23310388460E+04  0.10100000352E+00 0. -1.
       -3    1    3    3    0  502  0.27719486839E+03  0.16668583043E+03 -0.55314740188E+03  0.64077548293E+03  0.10100000352E+00 0.  1.
</event>
<event>
 5   0  0.5363690E-07  0.2402923E+04  0.7818609E-02  0.8438410E-01
        1   -1    0    0  501    0  0.00000000000E+00  0.00000000000E+00  0.19622657579E+04  0.19622657579E+04  0.50400001928E-02 0. -1.
       -1   -1    0    0    0  501  0.00000000000E+00  0.00000000000E+00 -0.73563388643E+03  0.73563388645E+03  0.50400001928E-02 0.  1.
    10030    2    1    2    0    0  0.00000000000E+00  0.00000000000E+00  0.12266318714E+04  0.26978996443E+04  0.24029225420E+04 0.  0.
        4    1    3    3  502    0  0.16092725231E+03  0.46149128031E+03  0.18456087056E+04  0.19092262541E+04  0.12699999809E+01 0. -1.
       -4    1    3    3    0  502 -0.16092725231E+03 -0.46149128031E+03 -0.61897683415E+03  0.78867339022E+03  0.12699999809E+01 0.  1.
</event>
<event>
 5   0  0.5690124E-07  0.2399112E+04  0.7818609E-02  0.8439836E-01
       -1   -1    0    0    0  501  0.00000000000E+00  0.00000000000E+00  0.10060862055E+04  0.10060862055E+04  0.50400001928E-02 0.  1.
        1   -1    0    0  501    0  0.00000000000E+00  0.00000000000E+00 -0.14302303857E+04  0.14302303857E+04  0.50400001928E-02 0. -1.
    10030    2    1    2    0    0  0.00000000000E+00  0.00000000000E+00 -0.42414418023E+03  0.24363165912E+04  0.23991123873E+04 0.  0.
        2    1    3    3  502    0 -0.78564246951E+03  0.84435479108E+03  0.12283907453E+03  0.11598528102E+04  0.25500000920E-02 0.  1.
       -2    1    3    3    0  502  0.78564246951E+03 -0.84435479108E+03 -0.54698325476E+03  0.12764637810E+04  0.25500000920E-02 0. -1.
</event>
<event>
 5   0  0.1307477E-06  0.2397668E+04  0.7818609E-02  0.8440377E-01
       -2   -1    0    0    0  501  0.00000000000E+00  0.00000000000E+00  0.82363454506E+03  0.82363454507E+03  0.25500000920E-02 0.  1.
        2   -1    0    0  501    0  0.00000000000E+00  0.00000000000E+00 -0.17449517349E+04  0.17449517349E+04  0.25500000920E-02 0. -1.
    10030    2    1    2    0    0  0.00000000000E+00  0.00000000000E+00 -0.92131718988E+03  0.25685862800E+04  0.23976676403E+04 0.  0.
        5    1    3    3  502    0 -0.10372902793E+04 -0.35231560950E+03 -0.98228000339E+03  0.14713916907E+04  0.46999998093E+01 0. -1.
       -5    1    3    3    0  502  0.10372902793E+04  0.35231560950E+03  0.60962813512E+02  0.10971945894E+04  0.46999998093E+01 0.  1.
</event>
<event>
 5   0  0.5527286E-07  0.2399324E+04  0.7818609E-02  0.8439757E-01
       -1   -1    0    0    0  501  0.00000000000E+00  0.00000000000E+00  0.10330762499E+04  0.10330762499E+04  0.50400001928E-02 0.  1.
        1   -1    0    0  501    0  0.00000000000E+00  0.00000000000E+00 -0.13931100619E+04  0.13931100619E+04  0.50400001928E-02 0. -1.
    10030    2    1    2    0    0  0.00000000000E+00  0.00000000000E+00 -0.36003381199E+03  0.24261863118E+04  0.23993240035E+04 0.  0.
        1    1    3    3  502    0  0.49312021548E+03 -0.87374703044E+02  0.92231962880E+03  0.10495119739E+04  0.50400001928E-02 0.  1.
       -1    1    3    3    0  502 -0.49312021548E+03  0.87374703044E+02 -0.12823534408E+04  0.13766743380E+04  0.50400001928E-02 0. -1.
</event>
<event>
 5   0  0.1308662E-06  0.2399525E+04  0.7818609E-02  0.8439681E-01
        2   -1    0    0  501    0  0.00000000000E+00  0.00000000000E+00  0.14697119682E+04  0.14697119682E+04  0.25500000920E-02 0.  1.
       -2   -1    0    0    0  501  0.00000000000E+00  0.00000000000E+00 -0.97939639716E+03  0.97939639716E+03  0.25500000920E-02 0. -1.
    10030    2    1    2    0    0  0.00000000000E+00  0.00000000000E+00  0.49031557100E+03  0.24491083653E+04  0.23995254585E+04 0.  0.
        3    1    3    3  502    0  0.11426028480E+04 -0.22734835969E+03  0.53779123532E+03  0.12831398864E+04  0.10100000352E+00 0. -1.
       -3    1    3    3    0  502 -0.11426028480E+04  0.22734835969E+03 -0.47475664315E+02  0.11659684790E+04  0.10100000352E+00 0.  1.
</event>
<event>
 5   0  0.5690124E-07  0.2400064E+04  0.7818609E-02  0.8439480E-01
       -1   -1    0    0    0  501  0.00000000000E+00  0.00000000000E+00  0.10120235714E+04  0.10120235714E+04  0.50400001928E-02 0.  1.
        1   -1    0    0  501    0  0.00000000000E+00  0.00000000000E+00 -0.14229679545E+04  0.14229679545E+04  0.50400001928E-02 0. -1.
    10030    2    1    2    0    0  0.00000000000E+00  0.00000000000E+00 -0.41094438313E+03  0.24349915259E+04  0.24000642585E+04 0.  0.
        2    1    3    3  502    0 -0.46251606305E+03  0.59471024858E+03 -0.11531293778E+04  0.13774283104E+04  0.25500000920E-02 0. -1.
       -2    1    3    3    0  502  0.46251606305E+03 -0.59471024858E+03  0.74218499469E+03  0.10575632155E+04  0.25500000920E-02 0.  1.
</event>
<event>
 5   0  0.5363690E-07  0.2399752E+04  0.7818609E-02  0.8439596E-01
       -1   -1    0    0    0  501  0.00000000000E+00  0.00000000000E+00  0.11136638636E+04  0.11136638636E+04  0.50400001928E-02 0. -1.
        1   -1    0    0  501    0  0.00000000000E+00  0.00000000000E+00 -0.12927621367E+04  0.12927621367E+04  0.50400001928E-02 0.  1.
    10030    2    1    2    0    0  0.00000000000E+00  0.00000000000E+00 -0.17909827308E+03  0.24064260003E+04  0.23997520504E+04 0.  0.
        4    1    3    3  502    0  0.17244176454E+03 -0.42361894876E+03  0.10228202068E+04  0.11204249034E+04  0.12699999809E+01 0. -1.
       -4    1    3    3    0  502 -0.17244176454E+03  0.42361894876E+03 -0.12019184799E+04  0.12860010968E+04  0.12699999809E+01 0.  1.
</event>
<event>
 5   0  0.4483375E-07  0.2400266E+04  0.7818609E-02  0.8439404E-01
        3   -1    0    0  501    0  0.00000000000E+00  0.00000000000E+00  0.28664216121E+04  0.28664216139E+04  0.10100000352E+00 0.  1.
       -3   -1    0    0    0  501  0.00000000000E+00  0.00000000000E+00 -0.50247990119E+03  0.50247991135E+03  0.10100000352E+00 0. -1.
    10030    2    1    2    0    0  0.00000000000E+00  0.00000000000E+00  0.23639417109E+04  0.33689015252E+04  0.24002660424E+04 0.  0.
        2    1    3    3  502    0  0.81964122733E+03 -0.18287764321E+02 -0.48180299248E+02  0.82125971843E+03  0.25500000920E-02 0. -1.
       -2    1    3    3    0  502 -0.81964122733E+03  0.18287764321E+02  0.24121220101E+04  0.25476418068E+04  0.25500000920E-02 0.  1.
</event>
<event>
 5   0  0.1291468E-06  0.2400128E+04  0.7818609E-02  0.8439456E-01
       -2   -1    0    0    0  501  0.00000000000E+00  0.00000000000E+00  0.10722036288E+04  0.10722036288E+04  0.25500000920E-02 0.  1.
        2   -1    0    0  501    0  0.00000000000E+00  0.00000000000E+00 -0.13431719747E+04  0.13431719747E+04  0.25500000920E-02 0. -1.
    10030    2    1    2    0    0  0.00000000000E+00  0.00000000000E+00 -0.27096834590E+03  0.24153756035E+04  0.24001282178E+04 0.  0.
        4    1    3    3  502    0 -0.91943082215E+03 -0.11163572170E+03 -0.90344188515E+03  0.12938409577E+04  0.12699999809E+01 0. -1.
       -4    1    3    3    0  502  0.91943082215E+03  0.11163572170E+03  0.63247353925E+03  0.11215346458E+04  0.12699999809E+01 0.  1.
</event>
<event>
 5   0  0.5452384E-07  0.2399769E+04  0.7818609E-02  0.8439590E-01
        1   -1    0    0  501    0  0.00000000000E+00  0.00000000000E+00  0.10779802666E+04  0.10779802667E+04  0.50400001928E-02 0.  1.
       -1   -1    0    0    0  501  0.00000000000E+00  0.00000000000E+00 -0.13355748324E+04  0.13355748324E+04  0.50400001928E-02 0. -1.
    10030    2    1    2    0    0  0.00000000000E+00  0.00000000000E+00 -0.25759456576E+03  0.24135550991E+04  0.23997694172E+04 0.  0.
        5    1    3    3  502    0 -0.67636853254E+03 -0.98285696654E+03 -0.71178880632E+00  0.11931072060E+04  0.46999998093E+01 0. -1.
       -5    1    3    3    0  502  0.67636853254E+03  0.98285696654E+03 -0.25688277695E+03  0.12204478930E+04  0.46999998093E+01 0.  1.
</event>
<event>
 5   0  0.1336057E-06  0.2399710E+04  0.7818609E-02  0.8439612E-01
       -2   -1    0    0    0  501  0.00000000000E+00  0.00000000000E+00  0.11377710540E+04  0.11377710540E+04  0.25500000920E-02 0. -1.
        2   -1    0    0  501    0  0.00000000000E+00  0.00000000000E+00 -0.12653269179E+04  0.12653269179E+04  0.25500000920E-02 0.  1.
    10030    2    1    2    0    0  0.00000000000E+00  0.00000000000E+00 -0.12755586389E+03  0.24030979719E+04  0.23997102667E+04 0.  0.
        2    1    3    3  502    0 -0.87248687572E+02 -0.17403059206E+03 -0.12494059953E+04  0.12644818392E+04  0.25500000920E-02 0.  1.
       -2    1    3    3    0  502  0.87248687572E+02  0.17403059206E+03  0.11218501314E+04  0.11386161328E+04  0.25500000920E-02 0. -1.
</event>
<event>
 5   0  0.5363690E-07  0.2400359E+04  0.7818609E-02  0.8439369E-01
       -1   -1    0    0    0  501  0.00000000000E+00  0.00000000000E+00  0.11339180036E+04  0.11339180036E+04  0.50400001928E-02 0.  1.
        1   -1    0    0  501    0  0.00000000000E+00  0.00000000000E+00 -0.12703131512E+04  0.12703131512E+04  0.50400001928E-02 0. -1.
    10030    2    1    2    0    0  0.00000000000E+00  0.00000000000E+00 -0.13639514763E+03  0.24042311548E+04  0.24003591001E+04 0.  0.
        4    1    3    3  502    0 -0.10616797886E+04  0.73528097627E+01 -0.62875319876E+03  0.12339166241E+04  0.12699999809E+01 0. -1.
       -4    1    3    3    0  502  0.10616797886E+04 -0.73528097627E+01  0.49235805113E+03  0.11703145307E+04  0.12699999809E+01 0.  1.
</event>
<event>
 5   0  0.5527286E-07  0.2398610E+04  0.7818609E-02  0.8440024E-01
       -1   -1    0    0    0  501  0.00000000000E+00  0.00000000000E+00  0.18366678373E+04  0.18366678373E+04  0.50400001928E-02 0. -1.
        1   -1    0    0  501    0  0.00000000000E+00  0.00000000000E+00 -0.78312091582E+03  0.78312091583E+03  0.50400001928E-02 0.  1.
    10030    2    1    2    0    0  0.00000000000E+00  0.00000000000E+00  0.10535469214E+04  0.26197887531E+04  0.23986104301E+04 0.  0.
        1    1    3    3  502    0  0.39514958490E+03  0.90772309622E+03  0.12661193189E+04  0.16072219958E+04  0.50400001928E-02 0. -1.
       -1    1    3    3    0  502 -0.39514958490E+03 -0.90772309622E+03 -0.21257239748E+03  0.10125667573E+04  0.50400001928E-02 0.  1.
</event>
<event>
 5   0  0.1336057E-06  0.2400561E+04  0.7818609E-02  0.8439294E-01
        2   -1    0    0  501    0  0.00000000000E+00  0.00000000000E+00  0.16309598011E+04  0.16309598011E+04  0.25500000920E-02 0. -1.
       -2   -1    0    0    0  501  0.00000000000E+00  0.00000000000E+00 -0.88332825366E+03  0.88332825366E+03  0.25500000920E-02 0.  1.
    10030    2    1    2    0    0  0.00000000000E+00  0.00000000000E+00  0.74763154741E+03  0.25142880547E+04  0.24005606619E+04 0.  0.
        2    1    3    3  502    0  0.10299035893E+04 -0.58797226934E+03  0.17995205745E+03  0.11994980349E+04  0.25500000920E-02 0. -1.
       -2    1    3    3    0  502 -0.10299035893E+04  0.58797226934E+03  0.56767948996E+03  0.13147900198E+04  0.25500000920E-02 0.  1.
</event>
<event>
 5   0  0.1275948E-06  0.2400461E+04  0.7818609E-02  0.8439331E-01
        2   -1    0    0  501    0  0.00000000000E+00  0.00000000000E+00  0.92561150019E+03  0.92561150020E+03  0.25500000920E-02 0.  1.
       -2   -1    0    0    0  501  0.00000000000E+00  0.00000000000E+00 -0.15563264101E+04  0.15563264101E+04  0.25500000920E-02 0. -1.
    10030    2    1    2    0    0  0.00000000000E+00  0.00000000000E+00 -0.63071490992E+03  0.24819379103E+04  0.24004613084E+04 0.  0.
        1    1    3    3  502    0  0.21835491628E+03 -0.11315115048E+04  0.31524278974E+02  0.11528186913E+04  0.50400001928E-02 0.  1.
       -1    1    3    3    0  502 -0.21835491628E+03  0.11315115048E+04 -0.66223918889E+03  0.13291192190E+04  0.50400001928E-02 0. -1.
</event>
<event>
 5   0  0.5690124E-07  0.2400469E+04  0.7818609E-02  0.8439328E-01
        1   -1    0    0  501    0  0.00000000000E+00  0.00000000000E+00  0.13083450780E+04  0.13083450780E+04  0.50400001928E-02 0.  1.
       -1   -1    0    0    0  501  0.00000000000E+00  0.00000000000E+00 -0.11010568430E+04  0.11010568430E+04  0.50400001928E-02 0. -1.
    10030    2    1    2    0    0  0.00000000000E+00  0.00000000000E+00  0.20728823500E+03  0.24094019209E+04  0.24004685385E+04 0.  0.
        2    1    3    3  502    0 -0.14553257312E+03 -0.90296888066E+03 -0.67644174347E+03  0.11375877819E+04  0.25500000920E-02 0. -1.
       -2    1    3    3    0  502  0.14553257312E+03  0.90296888066E+03  0.88372997847E+03  0.12718141390E+04  0.25500000920E-02 0.  1.
</event>
<event>
 5   0  0.5527286E-07  0.2399842E+04  0.7818609E-02  0.8439563E-01
       -1   -1    0    0    0  501  0.00000000000E+00  0.00000000000E+00  0.11046319271E+04  0.11046319271E+04  0.50400001928E-02 0. -1.
        1   -1    0    0  501    0  0.00000000000E+00  0.00000000000E+00 -0.13034303551E+04  0.13034303551E+04  0.50400001928E-02 0.  1.
    10030    2    1    2    0    0  0.00000000000E+00  0.00000000000E+00 -0.19879842802E+03  0.24080622821E+04  0.23998423156E+04 0.  0.
        1    1    3    3  502    0 -0.92825969315E+03  0.45886960762E+03 -0.70776244781E+03  0.12542547816E+04  0.50400001928E-02 0. -1.
       -1    1    3    3    0  502  0.92825969315E+03 -0.45886960762E+03  0.50896401979E+03  0.11538075005E+04  0.50400001928E-02 0.  1.
</event>
<event>
 5   0  0.5363690E-07  0.2389397E+04  0.7818609E-02  0.8443484E-01
        1   -1    0    0  501    0  0.00000000000E+00  0.00000000000E+00  0.22632282567E+04  0.22632282567E+04  0.50400001928E-02 0. -1.
       -1   -1    0    0    0  501  0.00000000000E+00  0.00000000000E+00 -0.63064958630E+03  0.63064958632E+03  0.50400001928E-02 0.  1.
    10030    2    1    2    0    0  0.00000000000E+00  0.00000000000E+00  0.16325786704E+04  0.28938778430E+04  0.23893965463E+04 0.  0.
        4    1    3    3  502    0  0.49597803563E+02  0.84638902559E+03  0.18357068488E+04  0.20220424259E+04  0.12699999809E+01 0. -1.
       -4    1    3    3    0  502 -0.49597803563E+02 -0.84638902559E+03 -0.20312817836E+03  0.87183541710E+03  0.12699999809E+01 0.  1.
</event>
<event>
 5   0  0.1291468E-06  0.2383988E+04  0.7818609E-02  0.8445522E-01
       -2   -1    0    0    0  501  0.00000000000E+00  0.00000000000E+00  0.19164009302E+04  0.19164009302E+04  0.25500000920E-02 0. -1.
        2   -1    0    0  501    0  0.00000000000E+00  0.00000000000E+00 -0.74141596822E+03  0.74141596823E+03  0.25500000920E-02 0.  1.
    10030    2    1    2    0    0  0.00000000000E+00  0.00000000000E+00  0.11749849620E+04  0.26578168984E+04  0.23839884657E+04 0.  0.
        4    1    3    3  502    0  0.11096852743E+02  0.53705197872E+03 -0.59882735106E+03  0.80445247048E+03  0.12699999809E+01 0.  1.
       -4    1    3    3    0  502 -0.11096852743E+02 -0.53705197872E+03  0.17738123131E+04  0.18533644280E+04  0.12699999809E+01 0. -1.
</event>
<event>
 5   0  0.5510176E-07  0.2399403E+04  0.7818609E-02  0.8439727E-01
       -1   -1    0    0    0  501  0.00000000000E+00  0.00000000000E+00  0.13874311329E+04  0.13874311330E+04  0.50400001928E-02 0.  1.
        1   -1    0    0  501    0  0.00000000000E+00  0.00000000000E+00 -0.10373728410E+04  0.10373728410E+04  0.50400001928E-02 0. -1.
    10030    2    1    2    0    0  0.00000000000E+00  0.00000000000E+00  0.35005829200E+03  0.24248039739E+04  0.23994027390E+04 0.  0.
        3    1    3    3  502    0  0.26270073668E+03  0.38744918665E+02 -0.10073011180E+04  0.10417141634E+04  0.10100000352E+00 0. -1.
       -3    1    3    3    0  502 -0.26270073668E+03 -0.38744918665E+02  0.13573594100E+04  0.13830898105E+04  0.10100000352E+00 0.  1.
</event>
<event>
 5   0  0.5527286E-07  0.2399469E+04  0.7818609E-02  0.8439703E-01
       -1   -1    0    0    0  501  0.00000000000E+00  0.00000000000E+00  0.87203009546E+03  0.87203009548E+03  0.50400001928E-02 0. -1.
        1   -1    0    0  501    0  0.00000000000E+00  0.00000000000E+00 -0.16505878850E+04  0.16505878850E+04  0.50400001928E-02 0.  1.
    10030    2    1    2    0    0  0.00000000000E+00  0.00000000000E+00 -0.77855778958E+03  0.25226179805E+04  0.23994685336E+04 0.  0.
        1    1    3    3  502    0 -0.55796007196E+02 -0.74552644063E+03  0.59719630865E+03  0.95685228703E+03  0.50400001928E-02 0.  1.
       -1    1    3    3    0  502  0.55796007196E+02  0.74552644063E+03 -0.13757540982E+04  0.15657656935E+04  0.50400001928E-02 0. -1.
</event>
<event>
 5   0  0.5527286E-07  0.2400899E+04  0.7818609E-02  0.8439167E-01
        1   -1    0    0  501    0  0.00000000000E+00  0.00000000000E+00  0.69214243284E+03  0.69214243286E+03  0.50400001928E-02 0. -1.
       -1   -1    0    0    0  501  0.00000000000E+00  0.00000000000E+00 -0.20820556887E+04  0.20820556887E+04  0.50400001928E-02 0.  1.
    10030    2    1    2    0    0  0.00000000000E+00  0.00000000000E+00 -0.13899132558E+04  0.27741981215E+04  0.24008990730E+04 0.  0.
        1    1    3    3  502    0  0.68682984914E+03  0.72319005974E+03  0.77006339515E+02  0.10003344843E+04  0.50400001928E-02 0. -1.
       -1    1    3    3    0  502 -0.68682984914E+03 -0.72319005974E+03 -0.14669195953E+04  0.17738636372E+04  0.50400001928E-02 0.  1.
</event>
<event>
 5   0  0.1291468E-06  0.2400534E+04  0.7818609E-02  0.8439304E-01
        2   -1    0    0  501    0  0.00000000000E+00  0.00000000000E+00  0.15141066098E+04  0.15141066098E+04  0.25500000920E-02 0. -1.
       -2   -1    0    0    0  501  0.00000000000E+00  0.00000000000E+00 -0.95147917544E+03  0.95147917544E+03  0.25500000920E-02 0.  1.
    10030    2    1    2    0    0  0.00000000000E+00  0.00000000000E+00  0.56262743437E+03  0.24655857852E+04  0.24005340311E+04 0.  0.
        4    1    3    3  502    0  0.11800503773E+04 -0.17537548770E+02  0.50590066254E+03  0.12840418808E+04  0.12699999809E+01 0. -1.
       -4    1    3    3    0  502 -0.11800503773E+04  0.17537548770E+02  0.56726771823E+02  0.11815439044E+04  0.12699999809E+01 0.  1.
</event>
<event>
 5   0  0.1308662E-06  0.2401752E+04  0.7818609E-02  0.8438848E-01
       -2   -1    0    0    0  501  0.00000000000E+00  0.00000000000E+00  0.10933024127E+04  0.10933024127E+04  0.25500000920E-02 0. -1.
        2   -1    0    0  501    0  0.00000000000E+00  0.00000000000E+00 -0.13190338001E+04  0.13190338001E+04  0.25500000920E-02 0.  1.
    10030    2    1    2    0    0  0.00000000000E+00  0.00000000000E+00 -0.22573138739E+03  0.24123362128E+04  0.24017517242E+04 0.  0.
        3    1    3    3  502    0  0.90793456270E+03 -0.57051484801E+03  0.43013725715E+03  0.11553572747E+04  0.10100000352E+00 0. -1.
       -3    1    3    3    0  502 -0.90793456270E+03  0.57051484801E+03 -0.65586864454E+03  0.12569789382E+04  0.10100000352E+00 0.  1.
</event>
<event>
 5   0  0.1307477E-06  0.2400062E+04  0.7818609E-02  0.8439480E-01
        2   -1    0    0  501    0  0.00000000000E+00  0.00000000000E+00  0.28630131098E+04  0.28630131098E+04  0.25500000920E-02 0. -1.
       -2   -1    0    0    0  501  0.00000000000E+00  0.00000000000E+00 -0.50299266930E+03  0.50299266931E+03  0.25500000920E-02 0.  1.
    10030    2    1    2    0    0  0.00000000000E+00  0.00000000000E+00  0.23600204405E+04  0.33660057791E+04  0.24000621712E+04 0.  0.
        5    1    3    3  502    0  0.11876185548E+04  0.13045764133E+03  0.10226119805E+04  0.15726456628E+04  0.46999998093E+01 0.  1.
       -5    1    3    3    0  502 -0.11876185548E+04 -0.13045764133E+03  0.13374084600E+04  0.17933601164E+04  0.46999998093E+01 0. -1.
</event>
<event>
 5   0  0.1308662E-06  0.2400724E+04  0.7818609E-02  0.8439233E-01
       -2   -1    0    0    0  501  0.00000000000E+00  0.00000000000E+00  0.49718764838E+03  0.49718764839E+03  0.25500000920E-02 0.  1.
        2   -1    0    0  501    0  0.00000000000E+00  0.00000000000E+00 -0.28980379661E+04  0.28980379661E+04  0.25500000920E-02 0. -1.
    10030    2    1    2    0    0  0.00000000000E+00  0.00000000000E+00 -0.24008503177E+04  0.33952256145E+04  0.24007237919E+04 0.  0.
        3    1    3    3  502    0  0.78807359855E+03  0.79875743366E+03 -0.59742463153E+03  0.12712158098E+04  0.10100000352E+00 0.  1.
       -3    1    3    3    0  502 -0.78807359855E+03 -0.79875743366E+03 -0.18034256862E+04  0.21240098047E+04  0.10100000352E+00 0. -1.
</event>
<event>
 5   0  0.5452384E-07  0.2396124E+04  0.7818609E-02  0.8440956E-01
       -1   -1    0    0    0  501  0.00000000000E+00  0.00000000000E+00  0.81185004733E+03  0.81185004734E+03  0.50400001928E-02 0. -1.
        1   -1    0    0  501    0  0.00000000000E+00  0.00000000000E+00 -0.17680027504E+04  0.17680027504E+04  0.50400001928E-02 0.  1.
    10030    2    1    2    0    0  0.00000000000E+00  0.00000000000E+00 -0.95615270307E+03  0.25798527978E+04  0.23961244681E+04 0.  0.
        5    1    3    3  502    0 -0.27273456716E+03  0.14596339652E+02  0.77787305060E+03  0.82444270274E+03  0.46999998093E+01 0. -1.
       -5    1    3    3    0  502  0.27273456716E+03 -0.14596339652E+02 -0.17340257537E+04  0.17554100950E+04  0.46999998093E+01 0.  1.
</event>
<event>
 5   0  0.1307477E-06  0.2390112E+04  0.7818609E-02  0.8443215E-01
       -2   -1    0    0    0  501  0.00000000000E+00  0.00000000000E+00  0.10463129301E+04  0.10463129301E+04  0.25500000920E-02 0.  1.
        2   -1    0    0  501    0  0.00000000000E+00  0.00000000000E+00 -0.13649442747E+04  0.13649442747E+04  0.25500000920E-02 0. -1.
    10030    2    1    2    0    0  0.00000000000E+00  0.00000000000E+00 -0.31863134463E+03  0.24112572048E+04  0.23901120003E+04 0.  0.
        5    1    3    3  502    0  0.55011302684E+03 -0.10454528188E+04  0.22670964151E+02  0.11815802983E+04  0.46999998093E+01 0. -1.
       -5    1    3    3    0  502 -0.55011302684E+03  0.10454528188E+04 -0.34130230878E+03  0.12296769066E+04  0.46999998093E+01 0.  1.
</event>
<event>
 5   0  0.1336057E-06  0.2400591E+04  0.7818609E-02  0.8439282E-01
        2   -1    0    0  501    0  0.00000000000E+00  0.00000000000E+00  0.23579713746E+04  0.23579713746E+04  0.25500000920E-02 0.  1.
       -2   -1    0    0    0  501  0.00000000000E+00  0.00000000000E+00 -0.61099537583E+03  0.61099537584E+03  0.25500000920E-02 0. -1.
    10030    2    1    2    0    0  0.00000000000E+00  0.00000000000E+00  0.17469759988E+04  0.29689667504E+04  0.24005912657E+04 0.  0.
        2    1    3    3  502    0 -0.89077542965E+03 -0.79888456813E+03  0.75607877789E+03  0.14153983671E+04  0.25500000920E-02 0. -1.
       -2    1    3    3    0  502  0.89077542965E+03  0.79888456813E+03  0.99089722087E+03  0.15535683833E+04  0.25500000920E-02 0.  1.
</event>
<event>
 5   0  0.1307477E-06  0.2400469E+04  0.7818609E-02  0.8439328E-01
        2   -1    0    0  501    0  0.00000000000E+00  0.00000000000E+00  0.13872331406E+04  0.13872331406E+04  0.25500000920E-02 0. -1.
       -2   -1    0    0    0  501  0.00000000000E+00  0.00000000000E+00 -0.10384431855E+04  0.10384431855E+04  0.25500000920E-02 0.  1.
    10030    2    1    2    0    0  0.00000000000E+00  0.00000000000E+00  0.34878995511E+03  0.24256763261E+04  0.24004689555E+04 0.  0.
        5    1    3    3  502    0 -0.76466393797E+03  0.55197723660E+03 -0.57579631306E+03  0.11049675524E+04  0.46999998093E+01 0.  1.
       -5    1    3    3    0  502  0.76466393797E+03 -0.55197723660E+03  0.92458626817E+03  0.13207087737E+04  0.46999998093E+01 0. -1.
</event>
<event>
 5   0  0.5527286E-07  0.2401273E+04  0.7818609E-02  0.8439027E-01
       -1   -1    0    0    0  501  0.00000000000E+00  0.00000000000E+00  0.81279116878E+03  0.81279116880E+03  0.50400001928E-02 0.  1.
        1   -1    0    0  501    0  0.00000000000E+00  0.00000000000E+00 -0.17735528217E+04  0.17735528217E+04  0.50400001928E-02 0. -1.
    10030    2    1    2    0    0  0.00000000000E+00  0.00000000000E+00 -0.96076165289E+03  0.25863439905E+04  0.24012730547E+04 0.  0.
        1    1    3    3  502    0 -0.54968612741E+03 -0.66511691966E+03 -0.13795861278E+04  0.16272041173E+04  0.50400001928E-02 0.  1.
       -1    1    3    3    0  502  0.54968612741E+03  0.66511691966E+03  0.41882447488E+03  0.95913987315E+03  0.50400001928E-02 0. -1.
</event>
<event>
 5   0  0.1336057E-06  0.2391437E+04  0.7818609E-02  0.8442716E-01
        2   -1    0    0  501    0  0.00000000000E+00  0.00000000000E+00  0.10459538559E+04  0.10459538559E+04  0.25500000920E-02 0. -1.
       -2   -1    0    0    0  501  0.00000000000E+00  0.00000000000E+00 -0.13669269338E+04  0.13669269338E+04  0.25500000920E-02 0.  1.
    10030    2    1    2    0    0  0.00000000000E+00  0.00000000000E+00 -0.32097307784E+03  0.24128807897E+04  0.23914368042E+04 0.  0.
        2    1    3    3  502    0  0.32771528450E+03 -0.87747863328E+03  0.58939822449E+03  0.11066870952E+04  0.25500000920E-02 0. -1.
       -2    1    3    3    0  502 -0.32771528450E+03  0.87747863328E+03 -0.91037130233E+03  0.13061936946E+04  0.25500000920E-02 0.  1.
</event>
<event>
 5   0  0.5452384E-07  0.2400085E+04  0.7818609E-02  0.8439472E-01
        1   -1    0    0  501    0  0.00000000000E+00  0.00000000000E+00  0.15005486378E+04  0.15005486378E+04  0.50400001928E-02 0. -1.
       -1   -1    0    0    0  501  0.00000000000E+00  0.00000000000E+00 -0.95971710929E+03  0.95971710930E+03  0.50400001928E-02 0.  1.
    10030    2    1    2    0    0  0.00000000000E+00  0.00000000000E+00  0.54083152853E+03  0.24602657471E+04  0.24000851660E+04 0.  0.
        5    1    3    3  502    0 -0.51903125841E+03 -0.10805643839E+04  0.32718745077E+03  0.12426127929E+04  0.46999998093E+01 0. -1.
       -5    1    3    3    0  502  0.51903125841E+03  0.10805643839E+04  0.21364407776E+03  0.12176529543E+04  0.46999998093E+01 0.  1.
</event>
<event>
 5   0  0.5510176E-07  0.2397802E+04  0.7818609E-02  0.8440327E-01
       -1   -1    0    0    0  501  0.00000000000E+00  0.00000000000E+00  0.94694367417E+03  0.94694367418E+03  0.50400001928E-02 0. -1.
        1   -1    0    0  501    0  0.00000000000E+00  0.00000000000E+00 -0.15178974532E+04  0.15178974532E+04  0.50400001928E-02 0.  1.
    10030    2    1    2    0    0  0.00000000000E+00  0.00000000000E+00 -0.57095377905E+03  0.24648411274E+04  0.23978018195E+04 0.  0.
        3    1    3    3  502    0  0.49140933107E+03 -0.66137889507E+03  0.60976722413E+03  0.10250469508E+04  0.10100000352E+00 0. -1.
       -3    1    3    3    0  502 -0.49140933107E+03  0.66137889507E+03 -0.11807210032E+04  0.14397941766E+04  0.10100000352E+00 0.  1.
</event>
<event>
 5   0  0.1291468E-06  0.2403186E+04  0.7818609E-02  0.8438312E-01
       -2   -1    0    0    0  501  0.00000000000E+00  0.00000000000E+00  0.82533673298E+03  0.82533673298E+03  0.25500000920E-02 0.  1.
        2   -1    0    0  501    0  0.00000000000E+00  0.00000000000E+00 -0.17493784133E+04  0.17493784133E+04  0.25500000920E-02 0. -1.
    10030    2    1    2    0    0  0.00000000000E+00  0.00000000000E+00 -0.92404168033E+03  0.25747151463E+04  0.24031864384E+04 0.  0.
        4    1    3    3  502    0  0.10225680907E+04 -0.59685219555E+03 -0.24259379895E+03  0.12086072181E+04  0.12699999809E+01 0. -1.
       -4    1    3    3    0  502 -0.10225680907E+04  0.59685219555E+03 -0.68144788138E+03  0.13661079282E+04  0.12699999809E+01 0.  1.
</event>
<event>
 5   0  0.5452384E-07  0.2400401E+04  0.7818609E-02  0.8439353E-01
       -1   -1    0    0    0  501  0.00000000000E+00  0.00000000000E+00  0.19075641420E+04  0.19075641420E+04  0.50400001928E-02 0.  1.
        1   -1    0    0  501    0  0.00000000000E+00  0.00000000000E+00 -0.75514184357E+03  0.75514184359E+03  0.50400001928E-02 0. -1.
    10030    2    1    2    0    0  0.00000000000E+00  0.00000000000E+00  0.11524222984E+04  0.26627059856E+04  0.24004012189E+04 0.  0.
        5    1    3    3  502    0 -0.10542045923E+04  0.15322130357E+02  0.12123564746E+04  0.16066774417E+04  0.46999998093E+01 0. -1.
       -5    1    3    3    0  502  0.10542045923E+04 -0.15322130357E+02 -0.59934176144E+02  0.10560285439E+04  0.46999998093E+01 0.  1.
</event>
<event>
 5   0  0.5527286E-07  0.2398543E+04  0.7818609E-02  0.8440049E-01
       -1   -1    0    0    0  501  0.00000000000E+00  0.00000000000E+00  0.14421250226E+04  0.14421250226E+04  0.50400001928E-02 0.  1.
        1   -1    0    0  501    0  0.00000000000E+00  0.00000000000E+00 -0.99731475634E+03  0.99731475636E+03  0.50400001928E-02 0. -1.
    10030    2    1    2    0    0  0.00000000000E+00  0.00000000000E+00  0.44481026625E+03  0.24394397790E+04  0.23985433626E+04 0.  0.
        1    1    3    3  502    0  0.25584086146E+02 -0.39801651995E+03 -0.92788794122E+03  0.10099741220E+04  0.50400001928E-02 0. -1.
       -1    1    3    3    0  502 -0.25584086146E+02  0.39801651995E+03  0.13726982075E+04  0.14294656570E+04  0.50400001928E-02 0.  1.
</event>
<event>
 5   0  0.5510176E-07  0.2400898E+04  0.7818609E-02  0.8439168E-01
        1   -1    0    0  501    0  0.00000000000E+00  0.00000000000E+00  0.19473128388E+04  0.19473128388E+04  0.50400001928E-02 0. -1.
       -1   -1    0    0    0  501  0.00000000000E+00  0.00000000000E+00 -0.74003389362E+03  0.74003389364E+03  0.50400001928E-02 0.  1.
    10030    2    1    2    0    0  0.00000000000E+00  0.00000000000E+00  0.12072789451E+04  0.26873467324E+04  0.24008977506E+04 0.  0.
        3    1    3    3  502    0 -0.17955663788E+03  0.58071718542E+03  0.17623295698E+04  0.18642099019E+04  0.10100000352E+00 0. -1.
       -3    1    3    3    0  502  0.17955663788E+03 -0.58071718542E+03 -0.55505062463E+03  0.82313683051E+03  0.10100000352E+00 0.  1.
</event>
<event>
 5   0  0.1307477E-06  0.2400163E+04  0.7818609E-02  0.8439443E-01
       -2   -1    0    0    0  501  0.00000000000E+00  0.00000000000E+00  0.88051097103E+03  0.88051097103E+03  0.25500000920E-02 0.  1.
        2   -1    0    0  501    0  0.00000000000E+00  0.00000000000E+00 -0.16356361604E+04  0.16356361604E+04  0.25500000920E-02 0. -1.
    10030    2    1    2    0    0  0.00000000000E+00  0.00000000000E+00 -0.75512518942E+03  0.25161471315E+04  0.24001629810E+04 0.  0.
        5    1    3    3  502    0 -0.10934529397E+04  0.21342902625E+03  0.90067473754E+02  0.11177323116E+04  0.46999998093E+01 0.  1.
       -5    1    3    3    0  502  0.10934529397E+04 -0.21342902625E+03 -0.84519266317E+03  0.13984148199E+04  0.46999998093E+01 0. -1.
</event>
<event>
 5   0  0.5363690E-07  0.2400134E+04  0.7818609E-02  0.8439453E-01
       -1   -1    0    0    0  501  0.00000000000E+00  0.00000000000E+00  0.63137891820E+03  0.63137891822E+03  0.50400001928E-02 0.  1.
        1   -1    0    0  501    0  0.00000000000E+00  0.00000000000E+00 -0.22809777084E+04  0.22809777084E+04  0.50400001928E-02 0. -1.
    10030    2    1    2    0    0  0.00000000000E+00  0.00000000000E+00 -0.16495987902E+04  0.29123566266E+04  0.24001343612E+04 0.  0.
        4    1    3    3  502    0  0.19474958651E+03 -0.11583614182E+04 -0.52650914042E+03  0.12872226165E+04  0.12699999809E+01 0. -1.
       -4    1    3    3    0  502 -0.19474958651E+03  0.11583614182E+04 -0.11230896497E+04  0.16251340101E+04  0.12699999809E+01 0.  1.
</event>
<event>
 5   0  0.5452384E-07  0.2399481E+04  0.7818609E-02  0.8439698E-01
        1   -1    0    0  501    0  0.00000000000E+00  0.00000000000E+00  0.25207432706E+04  0.25207432706E+04  0.50400001928E-02 0. -1.
       -1   -1    0    0    0  501  0.00000000000E+00  0.00000000000E+00 -0.57101325227E+03  0.57101325229E+03  0.50400001928E-02 0.  1.
    10030    2    1    2    0    0  0.00000000000E+00  0.00000000000E+00  0.19497300183E+04  0.30917565229E+04  0.23994814549E+04 0.  0.
        5    1    3    3  502    0  0.88202890941E+03  0.53922454770E+03  0.19044093203E+03  0.10512030957E+04  0.46999998093E+01 0.  1.
       -5    1    3    3    0  502 -0.88202890941E+03 -0.53922454770E+03  0.17592890863E+04  0.20405534271E+04  0.46999998093E+01 0. -1.
</event>
<event>
 5   0  0.1307477E-06  0.2400221E+04  0.7818609E-02  0.8439421E-01
        2   -1    0    0  501    0  0.00000000000E+00  0.00000000000E+00  0.12718094605E+04  0.12718094605E+04  0.25500000920E-02 0. -1.
       -2   -1    0    0    0  501  0.00000000000E+00  0.00000000000E+00 -0.11324538064E+04  0.11324538064E+04  0.25500000920E-02 0.  1.
    10030    2    1    2    0    0  0.00000000000E+00  0.00000000000E+00  0.13935565416E+03  0.24042632669E+04  0.24002212103E+04 0.  0.
        5    1    3    3  502    0  0.10590579862E+04 -0.27496249458E+02 -0.49508324465E+03  0.11693970117E+04  0.46999998093E+01 0. -1.
       -5    1    3    3    0  502 -0.10590579862E+04  0.27496249458E+02  0.63443889881E+03  0.12348662552E+04  0.46999998093E+01 0.  1.
</event>
<event>
 5   0  0.5452384E-07  0.2402262E+04  0.7818609E-02  0.8438657E-01
       -1   -1    0    0    0  501  0.00000000000E+00  0.00000000000E+00  0.72619935617E+03  0.72619935619E+03  0.50400001928E-02 0.  1.
        1   -1    0    0  501    0  0.00000000000E+00  0.00000000000E+00 -0.19866655648E+04  0.19866655649E+04  0.50400001928E-02 0. -1.
    10030    2    1    2    0    0  0.00000000000E+00  0.00000000000E+00 -0.12604662087E+04  0.27128649210E+04  0.24022616462E+04 0.  0.
        5    1    3    3  502    0  0.86347857893E+03 -0.89058471616E+02 -0.15677302206E+04  0.17920175229E+04  0.46999998093E+01 0. -1.
       -5    1    3    3    0  502 -0.86347857893E+03  0.89058471616E+02  0.30726401196E+03  0.92084739815E+03  0.46999998093E+01 0.  1.
</event>
<event>
 5   0  0.1291468E-06  0.2402393E+04  0.7818609E-02  0.8438608E-01
        2   -1    0    0  501    0  0.00000000000E+00  0.00000000000E+00  0.16304636826E+04  0.16304636826E+04  0.25500000920E-02 0. -1.
       -2   -1    0    0    0  501  0.00000000000E+00  0.00000000000E+00 -0.88494663320E+03  0.88494663320E+03  0.25500000920E-02 0.  1.
    10030    2    1    2    0    0  0.00000000000E+00  0.00000000000E+00  0.74551704942E+03  0.25154103158E+04  0.24023932621E+04 0.  0.
        4    1    3    3  502    0 -0.11882378938E+04  0.16038042542E+03  0.44855580225E+03  0.12801699472E+04  0.12699999809E+01 0.  1.
       -4    1    3    3    0  502  0.11882378938E+04 -0.16038042542E+03  0.29696124717E+03  0.12352403686E+04  0.12699999809E+01 0. -1.
</event>
<event>
 5   0  0.5363690E-07  0.2395281E+04  0.7818609E-02  0.8441272E-01
        1   -1    0    0  501    0  0.00000000000E+00  0.00000000000E+00  0.17058465312E+04  0.17058465312E+04  0.50400001928E-02 0.  1.
       -1   -1    0    0    0  501  0.00000000000E+00  0.00000000000E+00 -0.84083917955E+03  0.84083917956E+03  0.50400001928E-02 0. -1.
    10030    2    1    2    0    0  0.00000000000E+00  0.00000000000E+00  0.86500735163E+03  0.25466857108E+04  0.23952808585E+04 0.  0.
        4    1    3    3  502    0 -0.26620075976E+03  0.44926372641E+03  0.15784248185E+04  0.16625664681E+04  0.12699999809E+01 0.  1.
       -4    1    3    3    0  502  0.26620075976E+03 -0.44926372641E+03 -0.71341746683E+03  0.88411924266E+03  0.12699999809E+01 0. -1.
</event>
<event>
 5   0  0.5690124E-07  0.2401294E+04  0.7818609E-02  0.8439019E-01
       -1   -1    0    0    0  501  0.00000000000E+00  0.00000000000E+00  0.16401096074E+04  0.16401096074E+04  0.50400001928E-02 0.  1.
        1   -1    0    0  501    0  0.00000000000E+00  0.00000000000E+00 -0.87893712424E+03  0.87893712426E+03  0.50400001928E-02 0. -1.
    10030    2    1    2    0    0  0.00000000000E+00  0.00000000000E+00  0.76117248317E+03  0.25190467317E+04  0.24012940027E+04 0.  0.
        2    1    3    3  502    0 -0.64083399420E+03  0.84150797722E+03  0.97655510181E+03  0.14396054149E+04  0.25500000920E-02 0.  1.
       -2    1    3    3    0  502  0.64083399420E+03 -0.84150797722E+03 -0.21538261864E+03  0.10794413167E+04  0.25500000920E-02 0. -1.
</event>
<event>
 5   0  0.5510176E-07  0.2399931E+04  0.7818609E-02  0.8439529E-01
       -1   -1    0    0    0  501  0.00000000000E+00  0.00000000000E+00  0.75716785131E+03  0.75716785133E+03  0.50400001928E-02 0.  1.
        1   -1    0    0  501    0  0.00000000000E+00  0.00000000000E+00 -0.19017146761E+04  0.19017146761E+04  0.50400001928E-02 0. -1.
    10030    2    1    2    0    0  0.00000000000E+00  0.00000000000E+00 -0.11445468248E+04  0.26588825274E+04  0.23999310116E+04 0.  0.
        3    1    3    3  502    0 -0.11103584722E+04  0.41652765110E+03 -0.77513095452E+03  0.14167636457E+04  0.10100000352E+00 0. -1.
       -3    1    3    3    0  502  0.11103584722E+04 -0.41652765110E+03 -0.36941587026E+03  0.12421188817E+04  0.10100000352E+00 0.  1.
</event>
<event>
 5   0  0.1308662E-06  0.2400459E+04  0.7818609E-02  0.8439332E-01
       -2   -1    0    0    0  501  0.00000000000E+00  0.00000000000E+00  0.11136009971E+04  0.11136009971E+04  0.25500000920E-02 0.  1.
        2   -1    0    0  501    0  0.00000000000E+00  0.00000000000E+00 -0.12935967844E+04  0.12935967844E+04  0.25500000920E-02 0. -1.
    10030    2    1    2    0    0  0.00000000000E+00  0.00000000000E+00 -0.17999578731E+03  0.24071977814E+04  0.24004588469E+04 0.  0.
        3    1    3    3  502    0 -0.70081232343E+03 -0.51001804101E+03  0.74257039842E+03  0.11413444360E+04  0.10100000352E+00 0.  1.
       -3    1    3    3    0  502  0.70081232343E+03  0.51001804101E+03 -0.92256618573E+03  0.12658533454E+04  0.10100000352E+00 0. -1.
</event>
<event>
 5   0  0.5690124E-07  0.2398443E+04  0.7818609E-02  0.8440087E-01
        1   -1    0    0  501    0  0.00000000000E+00  0.00000000000E+00  0.11209202282E+04  0.11209202282E+04  0.50400001928E-02 0.  1.
       -1   -1    0    0    0  501  0.00000000000E+00  0.00000000000E+00 -0.12829919800E+04  0.12829919800E+04  0.50400001928E-02 0. -1.
    10030    2    1    2    0    0  0.00000000000E+00  0.00000000000E+00 -0.16207175181E+03  0.24039122081E+04  0.23984425471E+04 0.  0.
        2    1    3    3  502    0 -0.15479566046E+02 -0.88109055809E+03  0.73418946080E+03  0.11469936150E+04  0.25500000920E-02 0.  1.
       -2    1    3    3    0  502  0.15479566046E+02  0.88109055809E+03 -0.89626121261E+03  0.12569185931E+04  0.25500000920E-02 0. -1.
</event>
<event>
 5   0  0.5690124E-07  0.2400076E+04  0.7818609E-02  0.8439475E-01
        1   -1    0    0  501    0  0.00000000000E+00  0.00000000000E+00  0.17649075230E+04  0.17649075230E+04  0.50400001928E-02 0. -1.
       -1   -1    0    0    0  501  0.00000000000E+00  0.00000000000E+00 -0.81595871093E+03  0.81595871094E+03  0.50400001928E-02 0.  1.
    10030    2    1    2    0    0  0.00000000000E+00  0.00000000000E+00  0.94894881207E+03  0.25808662339E+04  0.24000763883E+04 0.  0.
        2    1    3    3  502    0 -0.43925947538E+03  0.92082493016E+03 -0.20496209807E+03  0.10406137133E+04  0.25500000920E-02 0.  1.
       -2    1    3    3    0  502  0.43925947538E+03 -0.92082493016E+03  0.11539109101E+04  0.15402525206E+04  0.25500000920E-02 0. -1.
</event>
<event>
 5   0  0.1307477E-06  0.2401229E+04  0.7818609E-02  0.8439044E-01
       -2   -1    0    0    0  501  0.00000000000E+00  0.00000000000E+00  0.99981373051E+03  0.99981373051E+03  0.25500000920E-02 0. -1.
        2   -1    0    0  501    0  0.00000000000E+00  0.00000000000E+00 -0.14417439935E+04  0.14417439935E+04  0.25500000920E-02 0.  1.
    10030    2    1    2    0    0  0.00000000000E+00  0.00000000000E+00 -0.44193026295E+03  0.24415577240E+04  0.24012292190E+04 0.  0.
        5    1    3    3  502    0  0.37853423659E+03  0.34709266751E+03  0.88247611600E+03  0.10210522383E+04  0.46999998093E+01 0. -1.
       -5    1    3    3    0  502 -0.37853423659E+03 -0.34709266751E+03 -0.13244063789E+04  0.14205054856E+04  0.46999998093E+01 0.  1.
</event>
<event>
 5   0  0.1291468E-06  0.2399605E+04  0.7818609E-02  0.8439651E-01
        2   -1    0    0  501    0  0.00000000000E+00  0.00000000000E+00  0.13610864437E+04  0.13610864437E+04  0.25500000920E-02 0.  1.
       -2   -1    0    0    0  501  0.00000000000E+00  0.00000000000E+00 -0.10576301019E+04  0.10576301019E+04  0.25500000920E-02 0. -1.
    10030    2    1    2    0    0  0.00000000000E+00  0.00000000000E+00  0.30345634182E+03  0.24187165456E+04  0.23996049626E+04 0.  0.
        4    1    3    3  502    0  0.20852986580E+03 -0.11586832720E+04  0.38485523409E+03  0.12386067955E+04  0.12699999809E+01 0. -1.
       -4    1    3    3    0  502 -0.20852986580E+03  0.11586832720E+04 -0.81398892271E+02  0.11801097501E+04  0.12699999809E+01 0.  1.
</event>
<event>
 5   0  0.5690124E-07  0.2397911E+04  0.7818609E-02  0.8440286E-01
       -1   -1    0    0    0  501  0.00000000000E+00  0.00000000000E+00  0.11388685118E+04  0.11388685118E+04  0.50400001928E-02 0. -1.
        1   -1    0    0  501    0  0.00000000000E+00  0.00000000000E+00 -0.12622131215E+04  0.12622131215E+04  0.50400001928E-02 0.  1.
    10030    2    1    2    0    0  0.00000000000E+00  0.00000000000E+00 -0.12334460968E+03  0.24010816333E+04  0.23979114073E+04 0.  0.
        2    1    3    3  502    0  0.39553223475E+03 -0.12404289260E+03  0.10648316732E+04  0.11426718165E+04  0.25500000920E-02 0. -1.
       -2    1    3    3    0  502 -0.39553223475E+03  0.12404289260E+03 -0.11881762829E+04  0.12584098168E+04  0.25500000920E-02 0.  1.
</event>
<event>
 5   0  0.5510176E-07  0.2413691E+04  0.7818609E-02  0.8434396E-01
       -1   -1    0    0    0  501  0.00000000000E+00  0.00000000000E+00  0.11608936666E+04  0.11608936666E+04  0.50400001928E-02 0. -1.
        1   -1    0    0  501    0  0.00000000000E+00  0.00000000000E+00 -0.12546160181E+04  0.12546160181E+04  0.50400001928E-02 0.  1.
    10030    2    1    2    0    0  0.00000000000E+00  0.00000000000E+00 -0.93722351505E+02  0.24155096847E+04  0.24136907751E+04 0.  0.
        3    1    3    3  502    0  0.10972736734E+04  0.44318301207E+03 -0.28379913946E+03  0.12169480918E+04  0.10100000352E+00 0.  1.
       -3    1    3    3    0  502 -0.10972736734E+04 -0.44318301207E+03  0.19007678795E+03  0.11985615929E+04  0.10100000352E+00 0. -1.
</event>
<event>
 5   0  0.5510176E-07  0.2391781E+04  0.7818609E-02  0.8442587E-01
       -1   -1    0    0    0  501  0.00000000000E+00  0.00000000000E+00  0.90921024041E+03  0.90921024043E+03  0.50400001928E-02 0. -1.
        1   -1    0    0  501    0  0.00000000000E+00  0.00000000000E+00 -0.15729635532E+04  0.15729635532E+04  0.50400001928E-02 0.  1.
    10030    2    1    2    0    0  0.00000000000E+00  0.00000000000E+00 -0.66375331279E+03  0.24821737936E+04  0.23917814034E+04 0.  0.
        3    1    3    3  502    0  0.86827604699E+03  0.39986820137E+03  0.41386019456E+03  0.10416708420E+04  0.10100000352E+00 0.  1.
       -3    1    3    3    0  502 -0.86827604699E+03 -0.39986820137E+03 -0.10776135074E+04  0.14405029516E+04  0.10100000352E+00 0. -1.
</event>
<event>
 5   0  0.1336057E-06  0.2399340E+04  0.7818609E-02  0.8439751E-01
        2   -1    0    0  501    0  0.00000000000E+00  0.00000000000E+00  0.24718966603E+04  0.24718966603E+04  0.25500000920E-02 0.  1.
       -2   -1    0    0    0  501  0.00000000000E+00  0.00000000000E+00 -0.58222806838E+03  0.58222806839E+03  0.25500000920E-02 0. -1.
    10030    2    1    2    0    0  0.00000000000E+00  0.00000000000E+00  0.18896685919E+04  0.30541247286E+04  0.23993395906E+04 0.  0.
        2    1    3    3  502    0  0.61122904421E+02  0.11851014228E+04  0.11689743655E+04  0.16657438156E+04  0.25500000920E-02 0.  1.
       -2    1    3    3    0  502 -0.61122904421E+02 -0.11851014228E+04  0.72069422639E+03  0.13883809131E+04  0.25500000920E-02 0. -1.
</event>
<event>
 5   0  0.5527286E-07  0.2399553E+04  0.7818609E-02  0.8439671E-01
        1   -1    0    0  501    0  0.00000000000E+00  0.00000000000E+00  0.17989436009E+04  0.17989436009E+04  0.50400001928E-02 0. -1.
       -1   -1    0    0    0  501  0.00000000000E+00  0.00000000000E+00 -0.80017157062E+03  0.80017157063E+03  0.50400001928E-02 0.  1.
    10030    2    1    2    0    0  0.00000000000E+00  0.00000000000E+00  0.99877203028E+03  0.25991151715E+04  0.23995528972E+04 0.  0.
        1    1    3    3  502    0 -0.11549603686E+04  0.23074059088E+03  0.74707104290E+03  0.13947364685E+04  0.50400001928E-02 0. -1.
       -1    1    3    3    0  502  0.11549603686E+04 -0.23074059088E+03  0.25170098738E+03  0.12043787031E+04  0.50400001928E-02 0.  1.
</event>
<event>
 5   0  0.1307477E-06  0.2401549E+04  0.7818609E-02  0.8438924E-01
       -2   -1    0    0    0  501  0.00000000000E+00  0.00000000000E+00  0.66723043867E+03  0.66723043868E+03  0.25500000920E-02 0.  1.
        2   -1    0    0  501    0  0.00000000000E+00  0.00000000000E+00 -0.21609611280E+04  0.21609611280E+04  0.25500000920E-02 0. -1.
    10030    2    1    2    0    0  0.00000000000E+00  0.00000000000E+00 -0.14937306893E+04  0.28281915667E+04  0.24015487015E+04 0.  0.
        5    1    3    3  502    0  0.11067043218E+04  0.26670552585E+03 -0.11967083094E+04  0.16516837352E+04  0.46999998093E+01 0. -1.
       -5    1    3    3    0  502 -0.11067043218E+04 -0.26670552585E+03 -0.29702237994E+03  0.11765078315E+04  0.46999998093E+01 0.  1.
</event>
<event>
 5   0  0.5510176E-07  0.2400390E+04  0.7818609E-02  0.8439357E-01
        1   -1    0    0  501    0  0.00000000000E+00  0.00000000000E+00  0.45434638806E+03  0.45434638809E+03  0.50400001928E-02 0. -1.
       -1   -1    0    0    0  501  0.00000000000E+00  0.00000000000E+00 -0.31704189845E+04  0.31704189845E+04  0.50400001928E-02 0.  1.
    10030    2    1    2    0    0  0.00000000000E+00  0.00000000000E+00 -0.27160725964E+04  0.36247653726E+04  0.24003903135E+04 0.  0.
        3    1    3    3  502    0 -0.35608379550E+03 -0.11159640741E+04 -0.17526740186E+04  0.21080886390E+04  0.10100000352E+00 0.  1.
       -3    1    3    3    0  502  0.35608379550E+03  0.11159640741E+04 -0.96339857780E+03  0.15166767336E+04  0.10100000352E+00 0. -1.
</event>
<event>
 5   0  0.1336057E-06  0.2403089E+04  0.7818609E-02  0.8438348E-01
        2   -1    0    0  501    0  0.00000000000E+00  0.00000000000E+00  0.11917550239E+04  0.11917550239E+04  0.25500000920E-02 0. -1.
       -2   -1    0    0    0  501  0.00000000000E+00  0.00000000000E+00 -0.12114146435E+04  0.12114146435E+04  0.25500000920E-02 0.  1.
    10030    2    1    2    0    0  0.00000000000E+00  0.00000000000E+00 -0.19659619544E+02  0.24031696674E+04  0.24030892513E+04 0.  0.
        2    1    3    3  502    0 -0.34614932701E+03  0.73741974935E+02 -0.11581069949E+04  0.12109785494E+04  0.25500000920E-02 0.  1.
       -2    1    3    3    0  502  0.34614932701E+03 -0.73741974935E+02  0.11384473753E+04  0.11921911180E+04  0.25500000920E-02 0. -1.
</event>
<event>
 5   0  0.4483375E-07  0.2399969E+04  0.7818609E-02  0.8439515E-01
        3   -1    0    0  501    0  0.00000000000E+00  0.00000000000E+00  0.21997964817E+04  0.21997964841E+04  0.10100000352E+00 0.  1.
       -3   -1    0    0    0  501  0.00000000000E+00  0.00000000000E+00 -0.65458884229E+03  0.65458885008E+03  0.10100000352E+00 0. -1.
    10030    2    1    2    0    0  0.00000000000E+00  0.00000000000E+00  0.15452076394E+04  0.28543853341E+04  0.23999685387E+04 0.  0.
        3    1    3    3  502    0  0.61919849184E+03 -0.27432577528E+03 -0.40556665915E+03  0.78939579965E+03  0.10100000352E+00 0. -1.
       -3    1    3    3    0  502 -0.61919849184E+03  0.27432577528E+03  0.19507742986E+04  0.20649895345E+04  0.10100000352E+00 0.  1.
</event>
<event>
 5   0  0.1307477E-06  0.2400078E+04  0.7818609E-02  0.8439474E-01
       -2   -1    0    0    0  501  0.00000000000E+00  0.00000000000E+00  0.52697426945E+03  0.52697426946E+03  0.25500000920E-02 0.  1.
        2   -1    0    0  501    0  0.00000000000E+00  0.00000000000E+00 -0.27327584088E+04  0.27327584088E+04  0.25500000920E-02 0. -1.
    10030    2    1    2    0    0  0.00000000000E+00  0.00000000000E+00 -0.22057841394E+04  0.32597326783E+04  0.24000778038E+04 0.  0.
        5    1    3    3  502    0 -0.33548790986E+03 -0.87766182997E+03 -0.89042636521E+02  0.94381836524E+03  0.46999998093E+01 0.  1.
       -5    1    3    3    0  502  0.33548790986E+03  0.87766182997E+03 -0.21167415028E+04  0.23159143130E+04  0.46999998093E+01 0. -1.
</event>
<event>
 5   0  0.5527286E-07  0.2399629E+04  0.7818609E-02  0.8439642E-01
       -1   -1    0    0    0  501  0.00000000000E+00  0.00000000000E+00  0.15849790388E+04  0.15849790388E+04  0.50400001928E-02 0. -1.
        1   -1    0    0  501    0  0.00000000000E+00  0.00000000000E+00 -0.90824857482E+03  0.90824857484E+03  0.50400001928E-02 0.  1.
    10030    2    1    2    0    0  0.00000000000E+00  0.00000000000E+00  0.67673046401E+03  0.24932276137E+04  0.23996290990E+04 0.  0.
        1    1    3    3  502    0  0.39916391446E+03  0.11307168421E+04  0.29549388049E+03  0.12349773443E+04  0.50400001928E-02 0.  1.
       -1    1    3    3    0  502 -0.39916391446E+03 -0.11307168421E+04  0.38123658353E+03  0.12582502693E+04  0.50400001928E-02 0. -1.
</event>
<event>
 5   0  0.5363690E-07  0.2400318E+04  0.7818609E-02  0.8439384E-01
       -1   -1    0    0    0  501  0.00000000000E+00  0.00000000000E+00  0.12489503267E+04  0.12489503267E+04  0.50400001928E-02 0.  1.
        1   -1    0    0  501    0  0.00000000000E+00  0.00000000000E+00 -0.11532738873E+04  0.11532738873E+04  0.50400001928E-02 0. -1.
    10030    2    1    2    0    0  0.00000000000E+00  0.00000000000E+00  0.95676439394E+02  0.24022242141E+04  0.24003181443E+04 0.  0.
        4    1    3    3  502    0  0.43671640221E+03 -0.27399150493E+03  0.11324827805E+04  0.12443116256E+04  0.12699999809E+01 0.  1.
       -4    1    3    3    0  502 -0.43671640221E+03  0.27399150493E+03 -0.10368063411E+04  0.11579125885E+04  0.12699999809E+01 0. -1.
</event>
<event>
 5   0  0.1308662E-06  0.2390199E+04  0.7818609E-02  0.8443182E-01
       -2   -1    0    0    0  501  0.00000000000E+00  0.00000000000E+00  0.12106367717E+04  0.12106367717E+04  0.25500000920E-02 0. -1.
        2   -1    0    0  501    0  0.00000000000E+00  0.00000000000E+00 -0.11797616791E+04  0.11797616791E+04  0.25500000920E-02 0.  1.
    10030    2    1    2    0    0  0.00000000000E+00  0.00000000000E+00  0.30875092626E+02  0.23903984509E+04  0.23901990466E+04 0.  0.
        3    1    3    3  502    0  0.57160813266E+02  0.11415911282E+04  0.36441536145E+03  0.11997067260E+04  0.10100000352E+00 0. -1.
       -3    1    3    3    0  502 -0.57160813266E+02 -0.11415911282E+04 -0.33354026882E+03  0.11906917249E+04  0.10100000352E+00 0.  1.
</event>
<event>
 5   0  0.5452384E-07  0.2401794E+04  0.7818609E-02  0.8438832E-01
        1   -1    0    0  501    0  0.00000000000E+00  0.00000000000E+00  0.77998897810E+03  0.77998897811E+03  0.50400001928E-02 0. -1.
       -1   -1    0    0    0  501  0.00000000000E+00  0.00000000000E+00 -0.18489406738E+04  0.18489406738E+04  0.50400001928E-02 0.  1.
    10030    2    1    2    0    0  0.00000000000E+00  0.00000000000E+00 -0.10689516957E+04  0.26289296519E+04  0.24017937853E+04 0.  0.
        5    1    3    3  502    0 -0.11753137880E+04 -0.24651014325E+03 -0.53581898846E+03  0.13150109617E+04  0.46999998093E+01 0. -1.
       -5    1    3    3    0  502  0.11753137880E+04  0.24651014325E+03 -0.53313270721E+03  0.13139186902E+04  0.46999998093E+01 0.  1.
</event>
<event>
 5   0  0.1275948E-06  0.2402072E+04  0.7818609E-02  0.8438728E-01
       -2   -1    0    0    0  501  0.00000000000E+00  0.00000000000E+00  0.10669502166E+04  0.10669502166E+04  0.25500000920E-02 0. -1.
        2   -1    0    0  501    0  0.00000000000E+00  0.00000000000E+00 -0.13519720578E+04  0.13519720578E+04  0.25500000920E-02 0.  1.
    10030    2    1    2    0    0  0.00000000000E+00  0.00000000000E+00 -0.28502184117E+03  0.24189222743E+04  0.24020715059E+04 0.  0.
        1    1    3    3  502    0 -0.40776706483E+03 -0.81582791962E+03 -0.92942586142E+03  0.13021833993E+04  0.50400001928E-02 0.  1.
       -1    1    3    3    0  502  0.40776706483E+03  0.81582791962E+03  0.64440402025E+03  0.11167388750E+04  0.50400001928E-02 0. -1.
</event>
<event>
 5   0  0.5527286E-07  0.2400349E+04  0.7818609E-02  0.8439373E-01
       -1   -1    0    0    0  501  0.00000000000E+00  0.00000000000E+00  0.10511613352E+04  0.10511613352E+04  0.50400001928E-02 0.  1.
        1   -1    0    0  501    0  0.00000000000E+00  0.00000000000E+00 -0.13703122818E+04  0.13703122818E+04  0.50400001928E-02 0. -1.
    10030    2    1    2    0    0  0.00000000000E+00  0.00000000000E+00 -0.31915094657E+03  0.24214736171E+04  0.24003493811E+04 0.  0.
        1    1    3    3  502    0 -0.10346880369E+03 -0.32777582039E+03  0.10004470526E+04  0.10578454929E+04  0.50400001928E-02 0.  1.
       -1    1    3    3    0  502  0.10346880369E+03  0.32777582039E+03 -0.13195979991E+04  0.13636281242E+04  0.50400001928E-02 0. -1.
</event>
<event>
 5   0  0.1336057E-06  0.2391837E+04  0.7818609E-02  0.8442566E-01
        2   -1    0    0  501    0  0.00000000000E+00  0.00000000000E+00  0.25256029298E+04  0.25256029299E+04  0.25500000920E-02 0. -1.
       -2   -1    0    0    0  501  0.00000000000E+00  0.00000000000E+00 -0.56628902893E+03  0.56628902894E+03  0.25500000920E-02 0.  1.
    10030    2    1    2    0    0  0.00000000000E+00  0.00000000000E+00  0.19593139009E+04  0.30918919588E+04  0.23918371438E+04 0.  0.
        2    1    3    3  502    0  0.21523854169E+03  0.11651667018E+04  0.77009777174E+03  0.14131495501E+04  0.25500000920E-02 0. -1.
       -2    1    3    3    0  502 -0.21523854169E+03 -0.11651667018E+04  0.11892161292E+04  0.16787424087E+04  0.25500000920E-02 0.  1.
</event>
<event>
 5   0  0.5510176E-07  0.2407063E+04  0.7818609E-02  0.8436864E-01
        1   -1    0    0  501    0  0.00000000000E+00  0.00000000000E+00  0.85251234337E+03  0.85251234339E+03  0.50400001928E-02 0.  1.
       -1   -1    0    0    0  501  0.00000000000E+00  0.00000000000E+00 -0.16990812955E+04  0.16990812955E+04  0.50400001928E-02 0. -1.
    10030    2    1    2    0    0  0.00000000000E+00  0.00000000000E+00 -0.84656895213E+03  0.25515936389E+04  0.24070627552E+04 0.  0.
        3    1    3    3  502    0  0.72578236232E+03 -0.39109501429E+03  0.50615902425E+03  0.96742561248E+03  0.10100000352E+00 0.  1.
       -3    1    3    3    0  502 -0.72578236232E+03  0.39109501429E+03 -0.13527279764E+04  0.15841680264E+04  0.10100000352E+00 0. -1.
</event>
<event>
 5   0  0.1291468E-06  0.2400167E+04  0.7818609E-02  0.8439441E-01
        2   -1    0    0  501    0  0.00000000000E+00  0.00000000000E+00  0.98207699761E+03  0.98207699761E+03  0.25500000920E-02 0. -1.
       -2   -1    0    0    0  501  0.00000000000E+00  0.00000000000E+00 -0.14664844522E+04  0.14664844523E+04  0.25500000920E-02 0.  1.
    10030    2    1    2    0    0  0.00000000000E+00  0.00000000000E+00 -0.48440745464E+03  0.24485614499E+04  0.24001672008E+04 0.  0.
        4    1    3    3  502    0 -0.25149407646E+03 -0.10259180319E+04 -0.82328652231E+03  0.13392383617E+04  0.12699999809E+01 0.  1.
       -4    1    3    3    0  502  0.25149407646E+03  0.10259180319E+04  0.33887906767E+03  0.11093230882E+04  0.12699999809E+01 0. -1.
</event>
<event>
 5   0  0.1275948E-06  0.2397963E+04  0.7818609E-02  0.8440267E-01
       -2   -1    0    0    0  501  0.00000000000E+00  0.00000000000E+00  0.15415800193E+04  0.15415800193E+04  0.25500000920E-02 0. -1.
        2   -1    0    0  501    0  0.00000000000E+00  0.00000000000E+00 -0.93252164552E+03  0.93252164552E+03  0.25500000920E-02 0.  1.
    10030    2    1    2    0    0  0.00000000000E+00  0.00000000000E+00  0.60905837381E+03  0.24741016649E+04  0.23979630826E+04 0.  0.
        1    1    3    3  502    0 -0.22445913085E+02 -0.96710072950E+03  0.10353770874E+04  0.14169662499E+04  0.50400001928E-02 0. -1.
       -1    1    3    3    0  502  0.22445913085E+02  0.96710072950E+03 -0.42631871364E+03  0.10571354150E+04  0.50400001928E-02 0.  1.
</event>
<event>
 5   0  0.5510176E-07  0.2400338E+04  0.7818609E-02  0.8439377E-01
        1   -1    0    0  501    0  0.00000000000E+00  0.00000000000E+00  0.11796237112E+04  0.11796237112E+04  0.50400001928E-02 0. -1.
       -1   -1    0    0    0  501  0.00000000000E+00  0.00000000000E+00 -0.12210722032E+04  0.12210722032E+04  0.50400001928E-02 0.  1.
    10030    2    1    2    0    0  0.00000000000E+00  0.00000000000E+00 -0.41448491985E+02  0.24006959143E+04  0.24003380794E+04 0.  0.
        3    1    3    3  502    0 -0.61338061780E+03 -0.91820652886E+03  0.44952315544E+03  0.11922290423E+04  0.10100000352E+00 0. -1.
       -3    1    3    3    0  502  0.61338061780E+03  0.91820652886E+03 -0.49097164743E+03  0.12084668720E+04  0.10100000352E+00 0.  1.
</event>
<event>
 5   0  0.5452384E-07  0.2399362E+04  0.7818609E-02  0.8439742E-01
       -1   -1    0    0    0  501  0.00000000000E+00  0.00000000000E+00  0.26886202699E+04  0.26886202699E+04  0.50400001928E-02 0.  1.
        1   -1    0    0  501    0  0.00000000000E+00  0.00000000000E+00 -0.53530605238E+03  0.53530605240E+03  0.50400001928E-02 0. -1.
    10030    2    1    2    0    0  0.00000000000E+00  0.00000000000E+00  0.21533142175E+04  0.32239263223E+04  0.23993621678E+04 0.  0.
        5    1    3    3  502    0 -0.30204123802E+03  0.75540866729E+02  0.26333768079E+04  0.26517222393E+04  0.46999998093E+01 0.  1.
       -5    1    3    3    0  502  0.30204123802E+03 -0.75540866729E+02 -0.48006259034E+03  0.57220408304E+03  0.46999998093E+01 0. -1.
</event>
<event>
 5   0  0.5510176E-07  0.2399261E+04  0.7818609E-02  0.8439780E-01
        1   -1    0    0  501    0  0.00000000000E+00  0.00000000000E+00  0.10158084549E+04  0.10158084549E+04  0.50400001928E-02 0. -1.
       -1   -1    0    0    0  501  0.00000000000E+00  0.00000000000E+00 -0.14167167987E+04  0.14167167987E+04  0.50400001928E-02 0.  1.
    10030    2    1    2    0    0  0.00000000000E+00  0.00000000000E+00 -0.40090834378E+03  0.24325252536E+04  0.23992606381E+04 0.  0.
        3    1    3    3  502    0  0.35668996270E+03  0.92491172498E+02  0.95700909034E+03  0.10254992714E+04  0.10100000352E+00 0. -1.
       -3    1    3    3    0  502 -0.35668996270E+03 -0.92491172498E+02 -0.13579174341E+04  0.14070259822E+04  0.10100000352E+00 0.  1.
</event>
<event>
 5   0  0.5452384E-07  0.2392719E+04  0.7818609E-02  0.8442234E-01
        1   -1    0    0  501    0  0.00000000000E+00  0.00000000000E+00  0.26691934964E+04  0.26691934964E+04  0.50400001928E-02 0.  1.
       -1   -1    0    0    0  501  0.00000000000E+00  0.00000000000E+00 -0.53622063562E+03  0.53622063564E+03  0.50400001928E-02 0. -1.
    10030    2    1    2    0    0  0.00000000000E+00  0.00000000000E+00  0.21329728608E+04  0.32054141321E+04  0.23927194848E+04 0.  0.
        5    1    3    3  502    0  0.27212619794E+03  0.11635675640E+04  0.98938476957E+03  0.15514014489E+04  0.46999998093E+01 0.  1.
       -5    1    3    3    0  502 -0.27212619794E+03 -0.11635675640E+04  0.11435880912E+04  0.16540126831E+04  0.46999998093E+01 0. -1.
</event>
<event>
 5   0  0.1336057E-06  0.2403325E+04  0.7818609E-02  0.8438260E-01
       -2   -1    0    0    0  501  0.00000000000E+00  0.00000000000E+00  0.81418942383E+03  0.81418942383E+03  0.25500000920E-02 0. -1.
        2   -1    0    0  501    0  0.00000000000E+00  0.00000000000E+00 -0.17735334911E+04  0.17735334911E+04  0.25500000920E-02 0.  1.
    10030    2    1    2    0    0  0.00000000000E+00  0.00000000000E+00 -0.95934406724E+03  0.25877229149E+04  0.24033245401E+04 0.  0.
        2    1    3    3  502    0 -0.27650740637E+03 -0.10345492492E+04  0.10735985282E+03  0.10762316818E+04  0.25500000920E-02 0. -1.
       -2    1    3    3    0  502  0.27650740637E+03  0.10345492492E+04 -0.10667039201E+04  0.15114912332E+04  0.25500000920E-02 0.  1.
</event>
<event>
 5   0  0.5510176E-07  0.2399587E+04  0.7818609E-02  0.8439658E-01
        1   -1    0    0  501    0  0.00000000000E+00  0.00000000000E+00  0.11506673831E+04  0.11506673831E+04  0.50400001928E-02 0. -1.
       -1   -1    0    0    0  501  0.00000000000E+00  0.00000000000E+00 -0.12510170577E+04  0.12510170578E+04  0.50400001928E-02 0.  1.
    10030    2    1    2    0    0  0.00000000000E+00  0.00000000000E+00 -0.10034967463E+03  0.24016844409E+04  0.23995870679E+04 0.  0.
        3    1    3    3  502    0 -0.11912051849E+04  0.11912846190E+03  0.29538550690E+02  0.11975115528E+04  0.10100000352E+00 0.  1.
       -3    1    3    3    0  502  0.11912051849E+04 -0.11912846190E+03 -0.12988822532E+03  0.12041728880E+04  0.10100000352E+00 0. -1.
</event>
<event>
 5   0  0.1275948E-06  0.2402481E+04  0.7818609E-02  0.8438575E-01
       -2   -1    0    0    0  501  0.00000000000E+00  0.00000000000E+00  0.83707805682E+03  0.83707805682E+03  0.25500000920E-02 0.  1.
        2   -1    0    0  501    0  0.00000000000E+00  0.00000000000E+00 -0.17238280759E+04  0.17238280759E+04  0.25500000920E-02 0. -1.
    10030    2    1    2    0    0  0.00000000000E+00  0.00000000000E+00 -0.88675001908E+03  0.25609061327E+04  0.24024809311E+04 0.  0.
        1    1    3    3  502    0 -0.12227878713E+03  0.12338004122E+01 -0.17171761138E+04  0.17215247398E+04  0.50400001928E-02 0. -1.
       -1    1    3    3    0  502  0.12227878713E+03 -0.12338004122E+01  0.83042609468E+03  0.83938139293E+03  0.50400001928E-02 0.  1.
</event>
<event>
 5   0  0.1291468E-06  0.2401047E+04  0.7818609E-02  0.8439112E-01
       -2   -1    0    0    0  501  0.00000000000E+00  0.00000000000E+00  0.10152405670E+04  0.10152405670E+04  0.25500000920E-02 0. -1.
        2   -1    0    0  501    0  0.00000000000E+00  0.00000000000E+00 -0.14196203354E+04  0.14196203354E+04  0.25500000920E-02 0.  1.
    10030    2    1    2    0    0  0.00000000000E+00  0.00000000000E+00 -0.40437976845E+03  0.24348609024E+04  0.24010465670E+04 0.  0.
        4    1    3    3  502    0 -0.10494165219E+04  0.56955215143E+03 -0.75572141983E+02  0.11964018769E+04  0.12699999809E+01 0. -1.
       -4    1    3    3    0  502  0.10494165219E+04 -0.56955215143E+03 -0.32880762647E+03  0.12384590254E+04  0.12699999809E+01 0.  1.
</event>
<event>
 5   0  0.5510176E-07  0.2400709E+04  0.7818609E-02  0.8439238E-01
        1   -1    0    0  501    0  0.00000000000E+00  0.00000000000E+00  0.20000870241E+04  0.20000870241E+04  0.50400001928E-02 0.  1.
       -1   -1    0    0    0  501  0.00000000000E+00  0.00000000000E+00 -0.72039387688E+03  0.72039387690E+03  0.50400001928E-02 0. -1.
    10030    2    1    2    0    0  0.00000000000E+00  0.00000000000E+00  0.12796931472E+04  0.27204809010E+04  0.24007085999E+04 0.  0.
        3    1    3    3  502    0  0.91598373602E+03 -0.21289525472E+03  0.14852008528E+04  0.17578885567E+04  0.10100000352E+00 0. -1.
       -3    1    3    3    0  502 -0.91598373602E+03  0.21289525472E+03 -0.20550770561E+03  0.96259234435E+03  0.10100000352E+00 0.  1.
</event>
<event>
 5   0  0.1308662E-06  0.2390530E+04  0.7818609E-02  0.8443058E-01
       -2   -1    0    0    0  501  0.00000000000E+00  0.00000000000E+00  0.69704893847E+03  0.69704893848E+03  0.25500000920E-02 0. -1.
        2   -1    0    0  501    0  0.00000000000E+00  0.00000000000E+00 -0.20495805541E+04  0.20495805541E+04  0.25500000920E-02 0.  1.
    10030    2    1    2    0    0  0.00000000000E+00  0.00000000000E+00 -0.13525316156E+04  0.27466294926E+04  0.23905296062E+04 0.  0.
        3    1    3    3  502    0 -0.78801067555E+03 -0.28573006141E+03 -0.16552841899E+04  0.18554159243E+04  0.10100000352E+00 0.  1.
       -3    1    3    3    0  502  0.78801067555E+03  0.28573006141E+03  0.30275257427E+03  0.89121356823E+03  0.10100000352E+00 0. -1.
</event>
<event>
 5   0  0.1308662E-06  0.2405722E+04  0.7818609E-02  0.8437364E-01
       -2   -1    0    0    0  501  0.00000000000E+00  0.00000000000E+00  0.63928153997E+03  0.63928153998E+03  0.25500000920E-02 0. -1.
        2   -1    0    0  501    0  0.00000000000E+00  0.00000000000E+00 -0.22632825793E+04  0.22632825793E+04  0.25500000920E-02 0.  1.
    10030    2    1    2    0    0  0.00000000000E+00  0.00000000000E+00 -0.16240010394E+04  0.29025641193E+04  0.24057221558E+04 0.  0.
        3    1    3    3  502    0 -0.38288069462E+03  0.74859072402E+03 -0.18498148389E+04  0.20319450403E+04  0.10100000352E+00 0.  1.
       -3    1    3    3    0  502  0.38288069462E+03 -0.74859072402E+03  0.22581379957E+03  0.87061907898E+03  0.10100000352E+00 0. -1.
</event>
<event>
 5   0  0.5690124E-07  0.2399830E+04  0.7818609E-02  0.8439567E-01
        1   -1    0    0  501    0  0.00000000000E+00  0.00000000000E+00  0.12334404803E+04  0.12334404803E+04  0.50400001928E-02 0. -1.
       -1   -1    0    0    0  501  0.00000000000E+00  0.00000000000E+00 -0.11673004763E+04  0.11673004763E+04  0.50400001928E-02 0.  1.
    10030    2    1    2    0    0  0.00000000000E+00  0.00000000000E+00  0.66140004015E+02  0.24007409565E+04  0.23998297107E+04 0.  0.
        2    1    3    3  502    0  0.15222067875E+03 -0.85119675304E+03  0.86530452552E+03  0.12232983975E+04  0.25500000920E-02 0. -1.
       -2    1    3    3    0  502 -0.15222067875E+03  0.85119675304E+03 -0.79916452151E+03  0.11774425590E+04  0.25500000920E-02 0.  1.
</event>
<event>
 5   0  0.5452384E-07  0.2399990E+04  0.7818609E-02  0.8439507E-01
       -1   -1    0    0    0  501  0.00000000000E+00  0.00000000000E+00  0.60507228503E+03  0.60507228505E+03  0.50400001928E-02 0. -1.
        1   -1    0    0  501    0  0.00000000000E+00  0.00000000000E+00 -0.23798606166E+04  0.23798606166E+04  0.50400001928E-02 0.  1.
    10030    2    1    2    0    0  0.00000000000E+00  0.00000000000E+00 -0.17747883316E+04  0.29849329016E+04  0.23999897511E+04 0.  0.
        5    1    3    3  502    0 -0.45452999154E+03  0.10723148608E+04 -0.12468054143E+04  0.17061660250E+04  0.46999998093E+01 0.  1.
       -5    1    3    3    0  502  0.45452999154E+03 -0.10723148608E+04 -0.52798291726E+03  0.12787668766E+04  0.46999998093E+01 0. -1.
</event>
<event>
 5   0  0.5527286E-07  0.2398202E+04  0.7818609E-02  0.8440177E-01
        1   -1    0    0  501    0  0.00000000000E+00  0.00000000000E+00  0.93232396203E+03  0.93232396204E+03  0.50400001928E-02 0.  1.
       -1   -1    0    0    0  501  0.00000000000E+00  0.00000000000E+00 -0.15422144232E+04  0.15422144232E+04  0.50400001928E-02 0. -1.
    10030    2    1    2    0    0  0.00000000000E+00  0.00000000000E+00 -0.60989046121E+03  0.24745383853E+04  0.23982022112E+04 0.  0.
        1    1    3    3  502    0 -0.83650926301E+03  0.34955763335E+03 -0.11147220166E+04  0.14368519271E+04  0.50400001928E-02 0. -1.
       -1    1    3    3    0  502  0.83650926301E+03 -0.34955763335E+03  0.50483155539E+03  0.10376864582E+04  0.50400001928E-02 0.  1.
</event>
<event>
 5   0  0.1307477E-06  0.2399156E+04  0.7818609E-02  0.8439820E-01
       -2   -1    0    0    0  501  0.00000000000E+00  0.00000000000E+00  0.61111409490E+03  0.61111409490E+03  0.25500000920E-02 0. -1.
        2   -1    0    0  501    0  0.00000000000E+00  0.00000000000E+00 -0.23546955123E+04  0.23546955123E+04  0.25500000920E-02 0.  1.
    10030    2    1    2    0    0  0.00000000000E+00  0.00000000000E+00 -0.17435814174E+04  0.29658096072E+04  0.23991561990E+04 0.  0.
        5    1    3    3  502    0  0.69376800296E+03  0.27735170736E+03 -0.20319176862E+04  0.21649363928E+04  0.46999998093E+01 0.  1.
       -5    1    3    3    0  502 -0.69376800296E+03 -0.27735170736E+03  0.28833626884E+03  0.80087321433E+03  0.46999998093E+01 0. -1.
</event>
<event>
 5   0  0.1308662E-06  0.2399956E+04  0.7818609E-02  0.8439520E-01
       -2   -1    0    0    0  501  0.00000000000E+00  0.00000000000E+00  0.13244895099E+04  0.13244895099E+04  0.25500000920E-02 0. -1.
        2   -1    0    0  501    0  0.00000000000E+00  0.00000000000E+00 -0.10871716979E+04  0.10871716979E+04  0.25500000920E-02 0.  1.
    10030    2    1    2    0    0  0.00000000000E+00  0.00000000000E+00  0.23731781205E+03  0.24116612078E+04  0.23999562574E+04 0.  0.
        3    1    3    3  502    0 -0.83180503096E+03 -0.18491048976E+03 -0.73036179360E+03  0.11222833236E+04  0.10100000352E+00 0.  1.
       -3    1    3    3    0  502  0.83180503096E+03  0.18491048976E+03  0.96767960565E+03  0.12893778842E+04  0.10100000352E+00 0. -1.
</event>
<event>
 5   0  0.1291468E-06  0.2399577E+04  0.7818609E-02  0.8439662E-01
        2   -1    0    0  501    0  0.00000000000E+00  0.00000000000E+00  0.15017936788E+04  0.15017936788E+04  0.25500000920E-02 0. -1.
       -2   -1    0    0    0  501  0.00000000000E+00  0.00000000000E+00 -0.95851560751E+03  0.95851560751E+03  0.25500000920E-02 0.  1.
    10030    2    1    2    0    0  0.00000000000E+00  0.00000000000E+00  0.54327807132E+03  0.24603092863E+04  0.23995771964E+04 0.  0.
        4    1    3    3  502    0  0.96616266791E+03 -0.58796157207E+03 -0.13889718669E+03  0.11395012736E+04  0.12699999809E+01 0.  1.
       -4    1    3    3    0  502 -0.96616266791E+03  0.58796157207E+03  0.68217525801E+03  0.13208080128E+04  0.12699999809E+01 0. -1.
</event>
<event>
 5   0  0.1308662E-06  0.2400944E+04  0.7818609E-02  0.8439150E-01
        2   -1    0    0  501    0  0.00000000000E+00  0.00000000000E+00  0.27389330615E+04  0.27389330615E+04  0.25500000920E-02 0.  1.
       -2   -1    0    0    0  501  0.00000000000E+00  0.00000000000E+00 -0.52616562396E+03  0.52616562397E+03  0.25500000920E-02 0. -1.
    10030    2    1    2    0    0  0.00000000000E+00  0.00000000000E+00  0.22127674375E+04  0.32650986854E+04  0.24009435006E+04 0.  0.
        3    1    3    3  502    0 -0.11472516269E+03 -0.11775714577E+04  0.83002801669E+03  0.14452622321E+04  0.10100000352E+00 0. -1.
       -3    1    3    3    0  502  0.11472516269E+03  0.11775714577E+04  0.13827394208E+04  0.18198364533E+04  0.10100000352E+00 0.  1.
</event>
<event>
 5   0  0.5452384E-07  0.2400890E+04  0.7818609E-02  0.8439171E-01
       -1   -1    0    0    0  501  0.00000000000E+00  0.00000000000E+00  0.12944551355E+04  0.12944551355E+04  0.50400001928E-02 0.  1.
        1   -1    0    0  501    0  0.00000000000E+00  0.00000000000E+00 -0.11132620032E+04  0.11132620033E+04  0.50400001928E-02 0. -1.
    10030    2    1    2    0    0  0.00000000000E+00  0.00000000000E+00  0.18119313229E+03  0.24077171388E+04  0.24008895996E+04 0.  0.
        5    1    3    3  502    0  0.40835766194E+03 -0.77162880496E+03  0.91688056831E+03  0.12660407020E+04  0.46999998093E+01 0.  1.
       -5    1    3    3    0  502 -0.40835766194E+03  0.77162880496E+03 -0.73568743602E+03  0.11416764367E+04  0.46999998093E+01 0. -1.
</event>
<event>
 5   0  0.5363690E-07  0.2400188E+04  0.7818609E-02  0.8439433E-01
       -1   -1    0    0    0  501  0.00000000000E+00  0.00000000000E+00  0.94688253175E+03  0.94688253176E+03  0.50400001928E-02 0. -1.
        1   -1    0    0  501    0  0.00000000000E+00  0.00000000000E+00 -0.15210186227E+04  0.15210186227E+04  0.50400001928E-02 0.  1.
    10030    2    1    2    0    0  0.00000000000E+00  0.00000000000E+00 -0.57413609098E+03  0.24679011545E+04  0.24001882962E+04 0.  0.
        4    1    3    3  502    0  0.84003062754E+03  0.79088721327E+03 -0.62664305802E+03  0.13129497989E+04  0.12699999809E+01 0. -1.
       -4    1    3    3    0  502 -0.84003062754E+03 -0.79088721327E+03  0.52506967046E+02  0.11549513556E+04  0.12699999809E+01 0.  1.
</event>
<event>
 5   0  0.5452384E-07  0.2403078E+04  0.7818609E-02  0.8438352E-01
       -1   -1    0    0    0  501  0.00000000000E+00  0.00000000000E+00  0.11760766186E+04  0.11760766186E+04  0.50400001928E-02 0.  1.
        1   -1    0    0  501    0  0.00000000000E+00  0.00000000000E+00 -0.12275528893E+04  0.12275528893E+04  0.50400001928E-02 0. -1.
    10030    2    1    2    0    0  0.00000000000E+00  0.00000000000E+00 -0.51476270692E+02  0.24036295079E+04  0.24030782353E+04 0.  0.
        5    1    3    3  502    0 -0.59074351986E+03 -0.38083915622E+03 -0.10004655589E+04  0.12226895737E+04  0.46999998093E+01 0. -1.
       -5    1    3    3    0  502  0.59074351986E+03  0.38083915622E+03  0.94898928818E+03  0.11809399342E+04  0.46999998093E+01 0.  1.
</event>
<event>
 5   0  0.5363690E-07  0.2399405E+04  0.7818609E-02  0.8439726E-01
        1   -1    0    0  501    0  0.00000000000E+00  0.00000000000E+00  0.82265368888E+03  0.82265368889E+03  0.50400001928E-02 0.  1.
       -1   -1    0    0    0  501  0.00000000000E+00  0.00000000000E+00 -0.17495654519E+04  0.17495654519E+04  0.50400001928E-02 0. -1.
    10030    2    1    2    0    0  0.00000000000E+00  0.00000000000E+00 -0.92691176304E+03  0.25722191408E+04  0.23994053205E+04 0.  0.
        4    1    3    3  502    0  0.54866519851E+03  0.58986132728E+03  0.48956947013E+03  0.94268221817E+03  0.12699999809E+01 0.  1.
       -4    1    3    3    0  502 -0.54866519851E+03 -0.58986132728E+03 -0.14164812332E+04  0.16295369227E+04  0.12699999809E+01 0. -1.
</event>
<event>
 5   0  0.1308662E-06  0.2399765E+04  0.7818609E-02  0.8439591E-01
        2   -1    0    0  501    0  0.00000000000E+00  0.00000000000E+00  0.12718500124E+04  0.12718500124E+04  0.25500000920E-02 0.  1.
       -2   -1    0    0    0  501  0.00000000000E+00  0.00000000000E+00 -0.11319876497E+04  0.11319876497E+04  0.25500000920E-02 0. -1.
    10030    2    1    2    0    0  0.00000000000E+00  0.00000000000E+00  0.13986236267E+03  0.24038376621E+04  0.23997654105E+04 0.  0.
        3    1    3    3  502    0 -0.10278839811E+04  0.60803564984E+03  0.18616975335E+03  0.12086819339E+04  0.10100000352E+00 0. -1.
       -3    1    3    3    0  502  0.10278839811E+04 -0.60803564984E+03 -0.46307390686E+02  0.11951557282E+04  0.10100000352E+00 0.  1.
</event>
<event>
 5   0  0.5510176E-07  0.2399503E+04  0.7818609E-02  0.8439689E-01
        1   -1    0    0  501    0  0.00000000000E+00  0.00000000000E+00  0.79397236583E+03  0.79397236584E+03  0.50400001928E-02 0.  1.
       -1   -1    0    0    0  501  0.00000000000E+00  0.00000000000E+00 -0.18129147572E+04  0.18129147573E+04  0.50400001928E-02 0. -1.
    10030    2    1    2    0    0  0.00000000000E+00  0.00000000000E+00 -0.10189423914E+04  0.26068871231E+04  0.23995034644E+04 0.  0.
        3    1    3    3  502    0 -0.63273865517E+03  0.10889032977E+03 -0.16105692727E+04  0.17338248764E+04  0.10100000352E+00 0. -1.
       -3    1    3    3    0  502  0.63273865517E+03 -0.10889032977E+03  0.59162688132E+03  0.87306224667E+03  0.10100000352E+00 0.  1.
</event>
<event>
 5   0  0.1307477E-06  0.2400013E+04  0.7818609E-02  0.8439499E-01
        2   -1    0    0  501    0  0.00000000000E+00  0.00000000000E+00  0.16132865971E+04  0.16132865971E+04  0.25500000920E-02 0. -1.
       -2   -1    0    0    0  501  0.00000000000E+00  0.00000000000E+00 -0.89259725736E+03  0.89259725736E+03  0.25500000920E-02 0.  1.
    10030    2    1    2    0    0  0.00000000000E+00  0.00000000000E+00  0.72068933970E+03  0.25058838544E+04  0.24000126599E+04 0.  0.
        5    1    3    3  502    0  0.75355460658E+03  0.68591809673E+03 -0.30138309608E+03  0.10626297761E+04  0.46999998093E+01 0.  1.
       -5    1    3    3    0  502 -0.75355460658E+03 -0.68591809673E+03  0.10220724358E+04  0.14432540783E+04  0.46999998093E+01 0. -1.
</event>
<event>
 5   0  0.1308662E-06  0.2399109E+04  0.7818609E-02  0.8439837E-01
        2   -1    0    0  501    0  0.00000000000E+00  0.00000000000E+00  0.20479949471E+04  0.20479949471E+04  0.25500000920E-02 0.  1.
       -2   -1    0    0    0  501  0.00000000000E+00  0.00000000000E+00 -0.70260504887E+03  0.70260504887E+03  0.25500000920E-02 0. -1.
    10030    2    1    2    0    0  0.00000000000E+00  0.00000000000E+00  0.13453898982E+04  0.27505999960E+04  0.23991094930E+04 0.  0.
        3    1    3    3  502    0 -0.19294220866E+03  0.94103821744E+03  0.14963894338E+04  0.17781903639E+04  0.10100000352E+00 0.  1.
       -3    1    3    3    0  502  0.19294220866E+03 -0.94103821744E+03 -0.15099953557E+03  0.97240963205E+03  0.10100000352E+00 0. -1.
</event>
<event>
 5   0  0.5510176E-07  0.2400477E+04  0.7818609E-02  0.8439325E-01
       -1   -1    0    0    0  501  0.00000000000E+00  0.00000000000E+00  0.92396640921E+03  0.92396640922E+03  0.50400001928E-02 0.  1.
        1   -1    0    0  501    0  0.00000000000E+00  0.00000000000E+00 -0.15591177657E+04  0.15591177657E+04  0.50400001928E-02 0. -1.
    10030    2    1    2    0    0  0.00000000000E+00  0.00000000000E+00 -0.63515135651E+03  0.24830841750E+04  0.24004769889E+04 0.  0.
        3    1    3    3  502    0  0.40541276563E+03  0.78727759557E+03 -0.11556460111E+04  0.14559131966E+04  0.10100000352E+00 0. -1.
       -3    1    3    3    0  502 -0.40541276563E+03 -0.78727759557E+03  0.52049465458E+03  0.10271709783E+04  0.10100000352E+00 0.  1.
</event>
<event>
 5   0  0.1291468E-06  0.2400402E+04  0.7818609E-02  0.8439353E-01
        2   -1    0    0  501    0  0.00000000000E+00  0.00000000000E+00  0.10950808044E+04  0.10950808044E+04  0.25500000920E-02 0.  1.
       -2   -1    0    0    0  501  0.00000000000E+00  0.00000000000E+00 -0.13154123769E+04  0.13154123769E+04  0.25500000920E-02 0. -1.
    10030    2    1    2    0    0  0.00000000000E+00  0.00000000000E+00 -0.22033157252E+03  0.24104931813E+04  0.24004023361E+04 0.  0.
        4    1    3    3  502    0 -0.32683551981E+03  0.57738107132E+03  0.89418406480E+03  0.11134438078E+04  0.12699999809E+01 0.  1.
       -4    1    3    3    0  502  0.32683551981E+03 -0.57738107132E+03 -0.11145156373E+04  0.12970493735E+04  0.12699999809E+01 0. -1.
</event>
<event>
 5   0  0.4483375E-07  0.2400078E+04  0.7818609E-02  0.8439474E-01
        4   -1    0    0  501    0  0.00000000000E+00  0.00000000000E+00  0.20001784455E+04  0.20001788487E+04  0.12699999809E+01 0. -1.
       -4   -1    0    0    0  501  0.00000000000E+00  0.00000000000E+00 -0.71998161039E+03  0.71998273048E+03  0.12699999809E+01 0.  1.
    10030    2    1    2    0    0  0.00000000000E+00  0.00000000000E+00  0.12801968351E+04  0.27201615792E+04  0.24000781404E+04 0.  0.
        4    1    3    3  502    0  0.72566419960E+03  0.24385423954E+03 -0.40729081601E+03  0.86714522568E+03  0.12699999809E+01 0.  1.
       -4    1    3    3    0  502 -0.72566419960E+03 -0.24385423954E+03  0.16874876511E+04  0.18530163535E+04  0.12699999809E+01 0. -1.
</event>
<event>
 5   0  0.5690124E-07  0.2403757E+04  0.7818609E-02  0.8438098E-01
       -1   -1    0    0    0  501  0.00000000000E+00  0.00000000000E+00  0.52311980194E+03  0.52311980196E+03  0.50400001928E-02 0. -1.
        1   -1    0    0  501    0  0.00000000000E+00  0.00000000000E+00 -0.27613398066E+04  0.27613398066E+04  0.50400001928E-02 0.  1.
    10030    2    1    2    0    0  0.00000000000E+00  0.00000000000E+00 -0.22382200047E+04  0.32844596086E+04  0.24037566705E+04 0.  0.
        2    1    3    3  502    0 -0.36491024589E+03 -0.18338882910E+03  0.42540228750E+03  0.58971014610E+03  0.25500000920E-02 0. -1.
       -2    1    3    3    0  502  0.36491024589E+03  0.18338882910E+03 -0.26636222922E+04  0.26947494625E+04  0.25500000920E-02 0.  1.
</event>
<event>
 5   0  0.5363690E-07  0.2401101E+04  0.7818609E-02  0.8439091E-01
       -1   -1    0    0    0  501  0.00000000000E+00  0.00000000000E+00  0.78320590776E+03  0.78320590777E+03  0.50400001928E-02 0.  1.
        1   -1    0    0  501    0  0.00000000000E+00  0.00000000000E+00 -0.18402844037E+04  0.18402844037E+04  0.50400001928E-02 0. -1.
    10030    2    1    2    0    0  0.00000000000E+00  0.00000000000E+00 -0.10570784959E+04  0.26234903115E+04  0.24011010949E+04 0.  0.
        4    1    3    3  502    0 -0.23410104946E+02 -0.22293138580E+02 -0.18398080489E+04  0.18400924669E+04  0.12699999809E+01 0. -1.
       -4    1    3    3    0  502  0.23410104946E+02  0.22293138580E+02  0.78272955292E+03  0.78339784462E+03  0.12699999809E+01 0.  1.
</event>
<event>
 5   0  0.5510176E-07  0.2399624E+04  0.7818609E-02  0.8439644E-01
       -1   -1    0    0    0  501  0.00000000000E+00  0.00000000000E+00  0.12655579341E+04  0.12655579342E+04  0.50400001928E-02 0.  1.
        1   -1    0    0  501    0  0.00000000000E+00  0.00000000000E+00 -0.11374812221E+04  0.11374812221E+04  0.50400001928E-02 0. -1.
    10030    2    1    2    0    0  0.00000000000E+00  0.00000000000E+00  0.12807671202E+03  0.24030391563E+04  0.23996236252E+04 0.  0.
        3    1    3    3  502    0 -0.52361350181E+03 -0.10783818320E+04  0.11380718747E+03  0.12041721476E+04  0.10100000352E+00 0.  1.
       -3    1    3    3    0  502  0.52361350181E+03  0.10783818320E+04  0.14269524541E+02  0.11988670087E+04  0.10100000352E+00 0. -1.
</event>
<event>
 5   0  0.5452384E-07  0.2400115E+04  0.7818609E-02  0.8439461E-01
        1   -1    0    0  501    0  0.00000000000E+00  0.00000000000E+00  0.23428843629E+04  0.23428843629E+04  0.50400001928E-02 0.  1.
       -1   -1    0    0    0  501  0.00000000000E+00  0.00000000000E+00 -0.61468570539E+03  0.61468570541E+03  0.50400001928E-02 0. -1.
    10030    2    1    2    0    0  0.00000000000E+00  0.00000000000E+00  0.17281986575E+04  0.29575700683E+04  0.24001146034E+04 0.  0.
        5    1    3    3  502    0  0.48406689007E+03 -0.95914513526E+03  0.20528810624E+03  0.10938214850E+04  0.46999998093E+01 0. -1.
       -5    1    3    3    0  502 -0.48406689007E+03  0.95914513526E+03  0.15229105513E+04  0.18637485833E+04  0.46999998093E+01 0.  1.
</event>
<event>
 5   0  0.1308662E-06  0.2398314E+04  0.7818609E-02  0.8440135E-01
        2   -1    0    0  501    0  0.00000000000E+00  0.00000000000E+00  0.17516456233E+04  0.17516456233E+04  0.25500000920E-02 0.  1.
       -2   -1    0    0    0  501  0.00000000000E+00  0.00000000000E+00 -0.82092962715E+03  0.82092962715E+03  0.25500000920E-02 0. -1.
    10030    2    1    2    0    0  0.00000000000E+00  0.00000000000E+00  0.93071599619E+03  0.25725752505E+04  0.23983142317E+04 0.  0.
        3    1    3    3  502    0 -0.57561075549E+03 -0.71820863132E+03 -0.35914444787E+03  0.98799601445E+03  0.10100000352E+00 0. -1.
       -3    1    3    3    0  502  0.57561075549E+03  0.71820863132E+03  0.12898604441E+04  0.15845792360E+04  0.10100000352E+00 0.  1.
</event>
<event>
 5   0  0.5527286E-07  0.2399770E+04  0.7818609E-02  0.8439590E-01
       -1   -1    0    0    0  501  0.00000000000E+00  0.00000000000E+00  0.17965297028E+04  0.17965297028E+04  0.50400001928E-02 0.  1.
        1   -1    0    0  501    0  0.00000000000E+00  0.00000000000E+00 -0.80139168189E+03  0.80139168191E+03  0.50400001928E-02 0. -1.
    10030    2    1    2    0    0  0.00000000000E+00  0.00000000000E+00  0.99513802094E+03  0.25979213847E+04  0.23997699558E+04 0.  0.
        1    1    3    3  502    0  0.34059980574E+03 -0.17681880074E+03  0.17283007768E+04  0.17703945015E+04  0.50400001928E-02 0.  1.
       -1    1    3    3    0  502 -0.34059980574E+03  0.17681880074E+03 -0.73316275581E+03  0.82752688325E+03  0.50400001928E-02 0. -1.
</event>
<event>
 5   0  0.1275948E-06  0.2403302E+04  0.7818609E-02  0.8438269E-01
        2   -1    0    0  501    0  0.00000000000E+00  0.00000000000E+00  0.18285580686E+04  0.18285580687E+04  0.25500000920E-02 0. -1.
       -2   -1    0    0    0  501  0.00000000000E+00  0.00000000000E+00 -0.78967395958E+03  0.78967395958E+03  0.25500000920E-02 0.  1.
    10030    2    1    2    0    0  0.00000000000E+00  0.00000000000E+00  0.10388841091E+04  0.26182320282E+04  0.24033016377E+04 0.  0.
        1    1    3    3  502    0 -0.66429273482E+03 -0.79015642055E+03 -0.15065356580E+03  0.10432298421E+04  0.50400001928E-02 0.  1.
       -1    1    3    3    0  502  0.66429273482E+03  0.79015642055E+03  0.11895376749E+04  0.15750021862E+04  0.50400001928E-02 0. -1.
</event>
<event>
 5   0  0.5510176E-07  0.2400304E+04  0.7818609E-02  0.8439390E-01
       -1   -1    0    0    0  501  0.00000000000E+00  0.00000000000E+00  0.86921777432E+03  0.86921777434E+03  0.50400001928E-02 0.  1.
        1   -1    0    0  501    0  0.00000000000E+00  0.00000000000E+00 -0.16570819850E+04  0.16570819850E+04  0.50400001928E-02 0. -1.
    10030    2    1    2    0    0  0.00000000000E+00  0.00000000000E+00 -0.78786421067E+03  0.25262997593E+04  0.24003042431E+04 0.  0.
        3    1    3    3  502    0 -0.22151747938E+03  0.13343711711E+03 -0.16274097502E+04  0.16478282566E+04  0.10100000352E+00 0. -1.
       -3    1    3    3    0  502  0.22151747938E+03 -0.13343711711E+03  0.83954553957E+03  0.87847150273E+03  0.10100000352E+00 0.  1.
</event>
<event>
 5   0  0.5690124E-07  0.2401085E+04  0.7818609E-02  0.8439098E-01
       -1   -1    0    0    0  501  0.00000000000E+00  0.00000000000E+00  0.10182917743E+04  0.10182917743E+04  0.50400001928E-02 0. -1.
        1   -1    0    0  501    0  0.00000000000E+00  0.00000000000E+00 -0.14154113808E+04  0.14154113808E+04  0.50400001928E-02 0.  1.
    10030    2    1    2    0    0  0.00000000000E+00  0.00000000000E+00 -0.39711960651E+03  0.24337031551E+04  0.24010845602E+04 0.  0.
        2    1    3    3  502    0 -0.57154636549E+03 -0.19195493899E+03 -0.12508298025E+04  0.13885557754E+04  0.25500000920E-02 0.  1.
       -2    1    3    3    0  502  0.57154636549E+03  0.19195493899E+03  0.85371019600E+03  0.10451473797E+04  0.25500000920E-02 0. -1.
</event>
<event>
 5   0  0.5452384E-07  0.2400364E+04  0.7818609E-02  0.8439367E-01
        1   -1    0    0  501    0  0.00000000000E+00  0.00000000000E+00  0.17863166234E+04  0.17863166234E+04  0.50400001928E-02 0. -1.
       -1   -1    0    0    0  501  0.00000000000E+00  0.00000000000E+00 -0.80637243716E+03  0.80637243717E+03  0.50400001928E-02 0.  1.
    10030    2    1    2    0    0  0.00000000000E+00  0.00000000000E+00  0.97994418623E+03  0.25926890606E+04  0.24003637134E+04 0.  0.
        5    1    3    3  502    0  0.66676685502E+03  0.56326285132E+03 -0.39978433160E+03  0.96004826984E+03  0.46999998093E+01 0.  1.
       -5    1    3    3    0  502 -0.66676685502E+03 -0.56326285132E+03  0.13797285178E+04  0.16326407907E+04  0.46999998093E+01 0. -1.
</event>
<event>
 5   0  0.1307477E-06  0.2401480E+04  0.7818609E-02  0.8438950E-01
       -2   -1    0    0    0  501  0.00000000000E+00  0.00000000000E+00  0.49759561680E+03  0.49759561680E+03  0.25500000920E-02 0.  1.
        2   -1    0    0  501    0  0.00000000000E+00  0.00000000000E+00 -0.28974862931E+04  0.28974862931E+04  0.25500000920E-02 0. -1.
    10030    2    1    2    0    0  0.00000000000E+00  0.00000000000E+00 -0.23998906763E+04  0.33950819099E+04  0.24014799430E+04 0.  0.
        5    1    3    3  502    0 -0.84331099138E+03 -0.12170838280E+03 -0.38730144559E+01  0.85207009622E+03  0.46999998093E+01 0.  1.
       -5    1    3    3    0  502  0.84331099138E+03  0.12170838280E+03 -0.23960176618E+04  0.25430118137E+04  0.46999998093E+01 0. -1.
</event>
<event>
 5   0  0.1307477E-06  0.2392723E+04  0.7818609E-02  0.8442233E-01
       -2   -1    0    0    0  501  0.00000000000E+00  0.00000000000E+00  0.11021746020E+04  0.11021746020E+04  0.25500000920E-02 0.  1.
        2   -1    0    0  501    0  0.00000000000E+00  0.00000000000E+00 -0.12985969977E+04  0.12985969977E+04  0.25500000920E-02 0. -1.
    10030    2    1    2    0    0  0.00000000000E+00  0.00000000000E+00 -0.19642239568E+03  0.24007715997E+04  0.23927228248E+04 0.  0.
        5    1    3    3  502    0 -0.34088399569E+03  0.10761272599E+04 -0.49578488163E+03  0.12329138319E+04  0.46999998093E+01 0. -1.
       -5    1    3    3    0  502  0.34088399569E+03 -0.10761272599E+04  0.29936248595E+03  0.11678577679E+04  0.46999998093E+01 0.  1.
</event>
<event>
 5   0  0.1307477E-06  0.2400403E+04  0.7818609E-02  0.8439353E-01
       -2   -1    0    0    0  501  0.00000000000E+00  0.00000000000E+00  0.13974457872E+04  0.13974457872E+04  0.25500000920E-02 0. -1.
        2   -1    0    0  501    0  0.00000000000E+00  0.00000000000E+00 -0.10307972026E+04  0.10307972026E+04  0.25500000920E-02 0.  1.
    10030    2    1    2    0    0  0.00000000000E+00  0.00000000000E+00  0.36664858465E+03  0.24282429898E+04  0.24004026398E+04 0.  0.
        5    1    3    3  502    0  0.99425150469E+01  0.38152902910E+03 -0.96776505602E+03  0.10403146386E+04  0.46999998093E+01 0.  1.
       -5    1    3    3    0  502 -0.99425150469E+01 -0.38152902910E+03  0.13344136407E+04  0.13879283512E+04  0.46999998093E+01 0. -1.
</event>
<event>
 5   0  0.5363690E-07  0.2394501E+04  0.7818609E-02  0.8441565E-01
        1   -1    0    0  501    0  0.00000000000E+00  0.00000000000E+00  0.15434117673E+04  0.15434117673E+04  0.50400001928E-02 0. -1.
       -1   -1    0    0    0  501  0.00000000000E+00  0.00000000000E+00 -0.92872729883E+03  0.92872729884E+03  0.50400001928E-02 0.  1.
    10030    2    1    2    0    0  0.00000000000E+00  0.00000000000E+00  0.61468446844E+03  0.24721390661E+04  0.23945009013E+04 0.  0.
        4    1    3    3  502    0 -0.67133388007E+03 -0.40510611585E+03  0.12414470031E+04  0.14683298056E+04  0.12699999809E+01 0. -1.
       -4    1    3    3    0  502  0.67133388007E+03  0.40510611585E+03 -0.62676253469E+03  0.10038092605E+04  0.12699999809E+01 0.  1.
</event>
<event>
 5   0  0.1336057E-06  0.2398849E+04  0.7818609E-02  0.8439935E-01
       -2   -1    0    0    0  501  0.00000000000E+00  0.00000000000E+00  0.44916769912E+03  0.44916769913E+03  0.25500000920E-02 0. -1.
        2   -1    0    0  501    0  0.00000000000E+00  0.00000000000E+00 -0.32028559286E+04  0.32028559286E+04  0.25500000920E-02 0.  1.
    10030    2    1    2    0    0  0.00000000000E+00  0.00000000000E+00 -0.27536882295E+04  0.36520236278E+04  0.23988492475E+04 0.  0.
        2    1    3    3  502    0  0.23099535328E+03 -0.10381808034E+03 -0.31616878987E+04  0.31718145305E+04  0.25500000920E-02 0.  1.
       -2    1    3    3    0  502 -0.23099535328E+03  0.10381808034E+03  0.40799966919E+03  0.48020909728E+03  0.25500000920E-02 0. -1.
</event>
<event>
 5   0  0.1308662E-06  0.2402960E+04  0.7818609E-02  0.8438396E-01
        2   -1    0    0  501    0  0.00000000000E+00  0.00000000000E+00  0.16124989992E+04  0.16124989992E+04  0.25500000920E-02 0. -1.
       -2   -1    0    0    0  501  0.00000000000E+00  0.00000000000E+00 -0.89522829606E+03  0.89522829606E+03  0.25500000920E-02 0.  1.
    10030    2    1    2    0    0  0.00000000000E+00  0.00000000000E+00  0.71727070318E+03  0.25077272953E+04  0.24029604504E+04 0.  0.
        3    1    3    3  502    0 -0.15678009995E+03  0.10490743848E+04  0.94752274203E+03  0.14222996947E+04  0.10100000352E+00 0. -1.
       -3    1    3    3    0  502  0.15678009995E+03 -0.10490743848E+04 -0.23025203885E+03  0.10854276006E+04  0.10100000352E+00 0.  1.
</event>
<event>
 5   0  0.5527286E-07  0.2400540E+04  0.7818609E-02  0.8439301E-01
       -1   -1    0    0    0  501  0.00000000000E+00  0.00000000000E+00  0.97509328294E+03  0.97509328295E+03  0.50400001928E-02 0.  1.
        1   -1    0    0  501    0  0.00000000000E+00  0.00000000000E+00 -0.14774461556E+04  0.14774461556E+04  0.50400001928E-02 0. -1.
    10030    2    1    2    0    0  0.00000000000E+00  0.00000000000E+00 -0.50235287267E+03  0.24525394386E+04  0.24005397912E+04 0.  0.
        1    1    3    3  502    0  0.82069974756E+03  0.72602826265E+03 -0.75166835094E+03  0.13287853189E+04  0.50400001928E-02 0. -1.
       -1    1    3    3    0  502 -0.82069974756E+03 -0.72602826265E+03  0.24931547827E+03  0.11237541197E+04  0.50400001928E-02 0.  1.
</event>
<event>
 5   0  0.1308662E-06  0.2399826E+04  0.7818609E-02  0.8439569E-01
       -2   -1    0    0    0  501  0.00000000000E+00  0.00000000000E+00  0.93606741570E+03  0.93606741570E+03  0.25500000920E-02 0. -1.
        2   -1    0    0  501    0  0.00000000000E+00  0.00000000000E+00 -0.15381279249E+04  0.15381279249E+04  0.25500000920E-02 0.  1.
    10030    2    1    2    0    0  0.00000000000E+00  0.00000000000E+00 -0.60206050922E+03  0.24741953406E+04  0.23998261868E+04 0.  0.
        3    1    3    3  502    0 -0.11430059166E+04 -0.62733565108E+02  0.69829965912E+02  0.11468540709E+04  0.10100000352E+00 0. -1.
       -3    1    3    3    0  502  0.11430059166E+04  0.62733565108E+02 -0.67189047513E+03  0.13273412697E+04  0.10100000352E+00 0.  1.
</event>
<event>
 5   0  0.5363690E-07  0.2399564E+04  0.7818609E-02  0.8439667E-01
        1   -1    0    0  501    0  0.00000000000E+00  0.00000000000E+00  0.21081536192E+04  0.21081536192E+04  0.50400001928E-02 0. -1.
       -1   -1    0    0    0  501  0.00000000000E+00  0.00000000000E+00 -0.68281421766E+03  0.68281421768E+03  0.50400001928E-02 0.  1.
    10030    2    1    2    0    0  0.00000000000E+00  0.00000000000E+00  0.14253394015E+04  0.27909678369E+04  0.23995643473E+04 0.  0.
        4    1    3    3  502    0 -0.69211851926E+03 -0.89793946048E+03  0.25600496032E+03  0.11622665236E+04  0.12699999809E+01 0.  1.
       -4    1    3    3    0  502  0.69211851926E+03  0.89793946048E+03  0.11693344412E+04  0.16287013132E+04  0.12699999809E+01 0. -1.
</event>
<event>
 5   0  0.1307477E-06  0.2406415E+04  0.7818609E-02  0.8437106E-01
        2   -1    0    0  501    0  0.00000000000E+00  0.00000000000E+00  0.19309532107E+04  0.19309532107E+04  0.25500000920E-02 0. -1.
       -2   -1    0    0    0  501  0.00000000000E+00  0.00000000000E+00 -0.74973765465E+03  0.74973765465E+03  0.25500000920E-02 0.  1.
    10030    2    1    2    0    0  0.00000000000E+00  0.00000000000E+00  0.11812155560E+04  0.26806908653E+04  0.24064150360E+04 0.  0.
        5    1    3    3  502    0  0.70220298919E+03 -0.28873963629E+03 -0.44917296924E+03  0.88217802165E+03  0.46999998093E+01 0.  1.
       -5    1    3    3    0  502 -0.70220298919E+03  0.28873963629E+03  0.16303885252E+04  0.17985128437E+04  0.46999998093E+01 0. -1.
</event>
<event>
 5   0  0.5510176E-07  0.2398071E+04  0.7818609E-02  0.8440226E-01
        1   -1    0    0  501    0  0.00000000000E+00  0.00000000000E+00  0.17048484958E+04  0.17048484958E+04  0.50400001928E-02 0.  1.
       -1   -1    0    0    0  501  0.00000000000E+00  0.00000000000E+00 -0.84329253042E+03  0.84329253044E+03  0.50400001928E-02 0. -1.
    10030    2    1    2    0    0  0.00000000000E+00  0.00000000000E+00  0.86155596534E+03  0.25481410262E+04  0.23980708930E+04 0.  0.
        3    1    3    3  502    0  0.10940908205E+04  0.15043892280E+03  0.92692343087E+03  0.14418230300E+04  0.10100000352E+00 0.  1.
       -3    1    3    3    0  502 -0.10940908205E+04 -0.15043892280E+03 -0.65367465525E+02  0.11063179962E+04  0.10100000352E+00 0. -1.
</event>
<event>
 5   0  0.1336057E-06  0.2400709E+04  0.7818609E-02  0.8439238E-01
        2   -1    0    0  501    0  0.00000000000E+00  0.00000000000E+00  0.14080369541E+04  0.14080369541E+04  0.25500000920E-02 0. -1.
       -2   -1    0    0    0  501  0.00000000000E+00  0.00000000000E+00 -0.10233046732E+04  0.10233046732E+04  0.25500000920E-02 0.  1.
    10030    2    1    2    0    0  0.00000000000E+00  0.00000000000E+00  0.38473228085E+03  0.24313416273E+04  0.24007088913E+04 0.  0.
        2    1    3    3  502    0 -0.82048464467E+03 -0.21592747469E+02 -0.69470368993E+03  0.10753020579E+04  0.25500000920E-02 0.  1.
       -2    1    3    3    0  502  0.82048464467E+03  0.21592747469E+02  0.10794359708E+04  0.13560395694E+04  0.25500000920E-02 0. -1.
</event>
<event>
 5   0  0.5452384E-07  0.2399940E+04  0.7818609E-02  0.8439526E-01
        1   -1    0    0  501    0  0.00000000000E+00  0.00000000000E+00  0.11476633531E+04  0.11476633531E+04  0.50400001928E-02 0.  1.
       -1   -1    0    0    0  501  0.00000000000E+00  0.00000000000E+00 -0.12546610099E+04  0.12546610099E+04  0.50400001928E-02 0. -1.
    10030    2    1    2    0    0  0.00000000000E+00  0.00000000000E+00 -0.10699765679E+03  0.24023243629E+04  0.23999403839E+04 0.  0.
        5    1    3    3  502    0  0.88808987421E+02  0.10424005902E+04 -0.64180736301E+03  0.12273649856E+04  0.46999998093E+01 0. -1.
       -5    1    3    3    0  502 -0.88808987421E+02 -0.10424005902E+04  0.53480970622E+03  0.11749593774E+04  0.46999998093E+01 0.  1.
</event>
<event>
 5   0  0.5690124E-07  0.2398871E+04  0.7818609E-02  0.8439926E-01
        1   -1    0    0  501    0  0.00000000000E+00  0.00000000000E+00  0.18255025264E+04  0.18255025264E+04  0.50400001928E-02 0. -1.
       -1   -1    0    0    0  501  0.00000000000E+00  0.00000000000E+00 -0.78808205186E+03  0.78808205188E+03  0.50400001928E-02 0.  1.
    10030    2    1    2    0    0  0.00000000000E+00  0.00000000000E+00  0.10374204746E+04  0.26135845783E+04  0.23988712152E+04 0.  0.
        2    1    3    3  502    0 -0.57454454671E+03  0.62664477780E+03 -0.40310498351E+03  0.94089252385E+03  0.25500000920E-02 0.  1.
       -2    1    3    3    0  502  0.57454454671E+03 -0.62664477780E+03  0.14405254581E+04  0.16726920545E+04  0.25500000920E-02 0. -1.
</event>
<event>
 5   0  0.5452384E-07  0.2399557E+04  0.7818609E-02  0.8439670E-01
        1   -1    0    0  501    0  0.00000000000E+00  0.00000000000E+00  0.75711263165E+03  0.75711263167E+03  0.50400001928E-02 0.  1.
       -1   -1    0    0    0  501  0.00000000000E+00  0.00000000000E+00 -0.19012601848E+04  0.19012601848E+04  0.50400001928E-02 0. -1.
    10030    2    1    2    0    0  0.00000000000E+00  0.00000000000E+00 -0.11441475532E+04  0.26583728165E+04  0.23995567107E+04 0.  0.
        5    1    3    3  502    0 -0.10821738496E+04 -0.41854085434E+03 -0.23391447134E+03  0.11836446922E+04  0.46999998093E+01 0.  1.
       -5    1    3    3    0  502  0.10821738496E+04  0.41854085434E+03 -0.91023308182E+03  0.14747281243E+04  0.46999998093E+01 0. -1.
</event>
<event>
 5   0  0.1307477E-06  0.2401130E+04  0.7818609E-02  0.8439081E-01
        2   -1    0    0  501    0  0.00000000000E+00  0.00000000000E+00  0.23540072768E+04  0.23540072768E+04  0.25500000920E-02 0.  1.
       -2   -1    0    0    0  501  0.00000000000E+00  0.00000000000E+00 -0.61229912077E+03  0.61229912078E+03  0.25500000920E-02 0. -1.
    10030    2    1    2    0    0  0.00000000000E+00  0.00000000000E+00  0.17417081561E+04  0.29663063976E+04  0.24011302221E+04 0.  0.
        5    1    3    3  502    0 -0.10367826732E+04 -0.28732447349E+02  0.12389325710E+03  0.10445647391E+04  0.46999998093E+01 0. -1.
       -5    1    3    3    0  502  0.10367826732E+04  0.28732447349E+02  0.16178148990E+04  0.19217416586E+04  0.46999998093E+01 0.  1.
</event>
<event>
 5   0  0.5452384E-07  0.2401236E+04  0.7818609E-02  0.8439041E-01
        1   -1    0    0  501    0  0.00000000000E+00  0.00000000000E+00  0.82139447422E+03  0.82139447424E+03  0.50400001928E-02 0.  1.
       -1   -1    0    0    0  501  0.00000000000E+00  0.00000000000E+00 -0.17549218906E+04  0.17549218906E+04  0.50400001928E-02 0. -1.
    10030    2    1    2    0    0  0.00000000000E+00  0.00000000000E+00 -0.93352741640E+03  0.25763163649E+04  0.24012356350E+04 0.  0.
        5    1    3    3  502    0 -0.49661703942E+01  0.63222698818E+03 -0.15618315983E+04  0.16849556845E+04  0.46999998093E+01 0. -1.
       -5    1    3    3    0  502  0.49661703942E+01 -0.63222698818E+03  0.62830418190E+03  0.89136068032E+03  0.46999998093E+01 0.  1.
</event>
<event>
 5   0  0.1275948E-06  0.2400821E+04  0.7818609E-02  0.8439196E-01
        2   -1    0    0  501    0  0.00000000000E+00  0.00000000000E+00  0.10806520683E+04  0.10806520683E+04  0.25500000920E-02 0.  1.
       -2   -1    0    0    0  501  0.00000000000E+00  0.00000000000E+00 -0.13334402684E+04  0.13334402684E+04  0.25500000920E-02 0. -1.
    10030    2    1    2    0    0  0.00000000000E+00  0.00000000000E+00 -0.25278820014E+03  0.24140923367E+04  0.24008206797E+04 0.  0.
        1    1    3    3  502    0  0.25191115047E+03 -0.10963504357E+04  0.29489869318E+03  0.11629311006E+04  0.50400001928E-02 0.  1.
       -1    1    3    3    0  502 -0.25191115047E+03  0.10963504357E+04 -0.54768689332E+03  0.12511612361E+04  0.50400001928E-02 0. -1.
</event>
<event>
 5   0  0.1307477E-06  0.2401126E+04  0.7818609E-02  0.8439082E-01
        2   -1    0    0  501    0  0.00000000000E+00  0.00000000000E+00  0.13167402428E+04  0.13167402428E+04  0.25500000920E-02 0. -1.
       -2   -1    0    0    0  501  0.00000000000E+00  0.00000000000E+00 -0.10946361870E+04  0.10946361870E+04  0.25500000920E-02 0.  1.
    10030    2    1    2    0    0  0.00000000000E+00  0.00000000000E+00  0.22210405583E+03  0.24113764298E+04  0.24011260014E+04 0.  0.
        5    1    3    3  502    0 -0.17248830618E+03  0.10845290221E+04 -0.37617269456E+03  0.11608115272E+04  0.46999998093E+01 0.  1.
       -5    1    3    3    0  502  0.17248830618E+03 -0.10845290221E+04  0.59827675040E+03  0.12505649026E+04  0.46999998093E+01 0. -1.
</event>
<event>
 5   0  0.1307477E-06  0.2399443E+04  0.7818609E-02  0.8439712E-01
       -2   -1    0    0    0  501  0.00000000000E+00  0.00000000000E+00  0.98119499493E+03  0.98119499494E+03  0.25500000920E-02 0. -1.
        2   -1    0    0  501    0  0.00000000000E+00  0.00000000000E+00 -0.14669171683E+04  0.14669171683E+04  0.25500000920E-02 0.  1.
    10030    2    1    2    0    0  0.00000000000E+00  0.00000000000E+00 -0.48572217332E+03  0.24481121632E+04  0.23994430883E+04 0.  0.
        5    1    3    3  502    0  0.11055910655E+03  0.54585907884E+03  0.84129478016E+03  0.10089521530E+04  0.46999998093E+01 0. -1.
       -5    1    3    3    0  502 -0.11055910655E+03 -0.54585907884E+03 -0.13270169535E+04  0.14391600102E+04  0.46999998093E+01 0.  1.
</event>
<event>
 5   0  0.5452384E-07  0.2400122E+04  0.7818609E-02  0.8439458E-01
        1   -1    0    0  501    0  0.00000000000E+00  0.00000000000E+00  0.14999328047E+04  0.14999328047E+04  0.50400001928E-02 0.  1.
       -1   -1    0    0    0  501  0.00000000000E+00  0.00000000000E+00 -0.96014065091E+03  0.96014065092E+03  0.50400001928E-02 0. -1.
    10030    2    1    2    0    0  0.00000000000E+00  0.00000000000E+00  0.53979215383E+03  0.24600734557E+04  0.24001220465E+04 0.  0.
        5    1    3    3  502    0  0.34318596181E+03  0.16869447398E+03  0.14358017535E+04  0.14858610955E+04  0.46999998093E+01 0.  1.
       -5    1    3    3    0  502 -0.34318596181E+03 -0.16869447398E+03 -0.89600959966E+03  0.97421236012E+03  0.46999998093E+01 0. -1.
</event>
<event>
 5   0  0.5452384E-07  0.2400405E+04  0.7818609E-02  0.8439352E-01
        1   -1    0    0  501    0  0.00000000000E+00  0.00000000000E+00  0.11987166394E+04  0.11987166394E+04  0.50400001928E-02 0.  1.
       -1   -1    0    0    0  501  0.00000000000E+00  0.00000000000E+00 -0.12016903283E+04  0.12016903283E+04  0.50400001928E-02 0. -1.
    10030    2    1    2    0    0  0.00000000000E+00  0.00000000000E+00 -0.29736888327E+01  0.24004069677E+04  0.24004051258E+04 0.  0.
        5    1    3    3  502    0 -0.67092575285E+03  0.87876885729E+03 -0.46848616591E+03  0.12007820152E+04  0.46999998093E+01 0. -1.
       -5    1    3    3    0  502  0.67092575285E+03 -0.87876885729E+03  0.46551247708E+03  0.11996249525E+04  0.46999998093E+01 0.  1.
</event>
<event>
 5   0  0.1307477E-06  0.2404921E+04  0.7818609E-02  0.8437663E-01
       -2   -1    0    0    0  501  0.00000000000E+00  0.00000000000E+00  0.72211932015E+03  0.72211932015E+03  0.25500000920E-02 0. -1.
        2   -1    0    0  501    0  0.00000000000E+00  0.00000000000E+00 -0.20023169915E+04  0.20023169915E+04  0.25500000920E-02 0.  1.
    10030    2    1    2    0    0  0.00000000000E+00  0.00000000000E+00 -0.12801976713E+04  0.27244363116E+04  0.24049214412E+04 0.  0.
        5    1    3    3  502    0  0.33486203619E+03 -0.59061802543E+03 -0.17643876463E+04  0.18905152979E+04  0.46999998093E+01 0.  1.
       -5    1    3    3    0  502 -0.33486203619E+03  0.59061802543E+03  0.48418997498E+03  0.83392101371E+03  0.46999998093E+01 0. -1.
</event>
<event>
 5   0  0.5363690E-07  0.2400508E+04  0.7818609E-02  0.8439314E-01
        1   -1    0    0  501    0  0.00000000000E+00  0.00000000000E+00  0.15873837978E+04  0.15873837978E+04  0.50400001928E-02 0. -1.
       -1   -1    0    0    0  501  0.00000000000E+00  0.00000000000E+00 -0.90753687625E+03  0.90753687627E+03  0.50400001928E-02 0.  1.
    10030    2    1    2    0    0  0.00000000000E+00  0.00000000000E+00  0.67984692159E+03  0.24949206741E+04  0.24005077241E+04 0.  0.
        4    1    3    3  502    0  0.15588779694E+03 -0.52497684391E+03  0.14499682499E+04  0.15499391054E+04  0.12699999809E+01 0. -1.
       -4    1    3    3    0  502 -0.15588779694E+03  0.52497684391E+03 -0.77012132834E+03  0.94498156867E+03  0.12699999809E+01 0.  1.
</event>
<event>
 5   0  0.1275948E-06  0.2400868E+04  0.7818609E-02  0.8439179E-01
        2   -1    0    0  501    0  0.00000000000E+00  0.00000000000E+00  0.14869440463E+04  0.14869440463E+04  0.25500000920E-02 0. -1.
       -2   -1    0    0    0  501  0.00000000000E+00  0.00000000000E+00 -0.96912958578E+03  0.96912958578E+03  0.25500000920E-02 0.  1.
    10030    2    1    2    0    0  0.00000000000E+00  0.00000000000E+00  0.51781446053E+03  0.24560736321E+04  0.24008677329E+04 0.  0.
        1    1    3    3  502    0 -0.85493447254E+03  0.68952696835E+03 -0.23667095669E+03  0.11235539747E+04  0.50400001928E-02 0.  1.
       -1    1    3    3    0  502  0.85493447254E+03 -0.68952696835E+03  0.75448541722E+03  0.13325196573E+04  0.50400001928E-02 0. -1.
</event>
<event>
 5   0  0.5452384E-07  0.2399607E+04  0.7818609E-02  0.8439651E-01
       -1   -1    0    0    0  501  0.00000000000E+00  0.00000000000E+00  0.13423966544E+04  0.13423966544E+04  0.50400001928E-02 0.  1.
        1   -1    0    0  501    0  0.00000000000E+00  0.00000000000E+00 -0.10723569589E+04  0.10723569589E+04  0.50400001928E-02 0. -1.
    10030    2    1    2    0    0  0.00000000000E+00  0.00000000000E+00  0.27003969547E+03  0.24147536134E+04  0.23996069628E+04 0.  0.
        5    1    3    3  502    0 -0.42619620875E+03  0.75012084905E+03 -0.70401869298E+03  0.11135478915E+04  0.46999998093E+01 0. -1.
       -5    1    3    3    0  502  0.42619620875E+03 -0.75012084905E+03  0.97405838845E+03  0.13012057219E+04  0.46999998093E+01 0.  1.
</event>
<event>
 5   0  0.5527286E-07  0.2399924E+04  0.7818609E-02  0.8439532E-01
       -1   -1    0    0    0  501  0.00000000000E+00  0.00000000000E+00  0.12283821616E+04  0.12283821616E+04  0.50400001928E-02 0.  1.
        1   -1    0    0  501    0  0.00000000000E+00  0.00000000000E+00 -0.11721991560E+04  0.11721991560E+04  0.50400001928E-02 0. -1.
    10030    2    1    2    0    0  0.00000000000E+00  0.00000000000E+00  0.56183005587E+02  0.24005813176E+04  0.23999237763E+04 0.  0.
        1    1    3    3  502    0  0.70250403344E+03 -0.97227822234E+03 -0.46539048033E+01  0.11995242880E+04  0.50400001928E-02 0.  1.
       -1    1    3    3    0  502 -0.70250403344E+03  0.97227822234E+03  0.60836910391E+02  0.12010570296E+04  0.50400001928E-02 0. -1.
</event>
<event>
 5   0  0.5527286E-07  0.2398522E+04  0.7818609E-02  0.8440057E-01
        1   -1    0    0  501    0  0.00000000000E+00  0.00000000000E+00  0.14910533462E+04  0.14910533462E+04  0.50400001928E-02 0. -1.
       -1   -1    0    0    0  501  0.00000000000E+00  0.00000000000E+00 -0.96457098452E+03  0.96457098453E+03  0.50400001928E-02 0.  1.
    10030    2    1    2    0    0  0.00000000000E+00  0.00000000000E+00  0.52648236171E+03  0.24556243308E+04  0.23985218733E+04 0.  0.
        1    1    3    3  502    0 -0.63586218738E+03  0.10134749646E+04  0.17897388119E+03  0.12097453763E+04  0.50400001928E-02 0. -1.
       -1    1    3    3    0  502  0.63586218738E+03 -0.10134749646E+04  0.34750848051E+03  0.12458789545E+04  0.50400001928E-02 0.  1.
</event>
<event>
 5   0  0.5363690E-07  0.2391259E+04  0.7818609E-02  0.8442783E-01
        1   -1    0    0  501    0  0.00000000000E+00  0.00000000000E+00  0.14151862282E+04  0.14151862282E+04  0.50400001928E-02 0.  1.
       -1   -1    0    0    0  501  0.00000000000E+00  0.00000000000E+00 -0.10101359133E+04  0.10101359134E+04  0.50400001928E-02 0. -1.
    10030    2    1    2    0    0  0.00000000000E+00  0.00000000000E+00  0.40505031489E+03  0.24253221416E+04  0.23912594449E+04 0.  0.
        4    1    3    3  502    0  0.72562077874E+03  0.34332502302E+03  0.11012233344E+04  0.13627516395E+04  0.12699999809E+01 0.  1.
       -4    1    3    3    0  502 -0.72562077874E+03 -0.34332502302E+03 -0.69617301946E+03  0.10625705021E+04  0.12699999809E+01 0. -1.
</event>
<event>
 5   0  0.1291468E-06  0.2400118E+04  0.7818609E-02  0.8439459E-01
        2   -1    0    0  501    0  0.00000000000E+00  0.00000000000E+00  0.19321191708E+04  0.19321191708E+04  0.25500000920E-02 0.  1.
       -2   -1    0    0    0  501  0.00000000000E+00  0.00000000000E+00 -0.74536883034E+03  0.74536883034E+03  0.25500000920E-02 0. -1.
    10030    2    1    2    0    0  0.00000000000E+00  0.00000000000E+00  0.11867503405E+04  0.26774880012E+04  0.24001178358E+04 0.  0.
        4    1    3    3  502    0  0.67330130336E+03  0.89438267727E+03  0.10756359345E+04  0.15524977601E+04  0.12699999809E+01 0.  1.
       -4    1    3    3    0  502 -0.67330130336E+03 -0.89438267727E+03  0.11111440601E+03  0.11249902411E+04  0.12699999809E+01 0. -1.
</event>
<event>
 5   0  0.1308662E-06  0.2400239E+04  0.7818609E-02  0.8439414E-01
        2   -1    0    0  501    0  0.00000000000E+00  0.00000000000E+00  0.10745432738E+04  0.10745432738E+04  0.25500000920E-02 0. -1.
       -2   -1    0    0    0  501  0.00000000000E+00  0.00000000000E+00 -0.13403710771E+04  0.13403710771E+04  0.25500000920E-02 0.  1.
    10030    2    1    2    0    0  0.00000000000E+00  0.00000000000E+00 -0.26582780339E+03  0.24149143509E+04  0.24002389258E+04 0.  0.
        3    1    3    3  502    0 -0.11802289610E+02 -0.54524764639E+03 -0.12084929525E+04  0.13258542591E+04  0.10100000352E+00 0.  1.
       -3    1    3    3    0  502  0.11802289610E+02  0.54524764639E+03  0.94266514913E+03  0.10890600918E+04  0.10100000352E+00 0. -1.
</event>
<event>
 5   0  0.5363690E-07  0.2400211E+04  0.7818609E-02  0.8439425E-01
       -1   -1    0    0    0  501  0.00000000000E+00  0.00000000000E+00  0.63115334572E+03  0.63115334574E+03  0.50400001928E-02 0. -1.
        1   -1    0    0  501    0  0.00000000000E+00  0.00000000000E+00 -0.22819378410E+04  0.22819378410E+04  0.50400001928E-02 0.  1.
    10030    2    1    2    0    0  0.00000000000E+00  0.00000000000E+00 -0.16507844953E+04  0.29130911868E+04  0.24002105767E+04 0.  0.
        4    1    3    3  502    0  0.99330093749E+03 -0.67091685178E+03 -0.75384764477E+03  0.14160028456E+04  0.12699999809E+01 0. -1.
       -4    1    3    3    0  502 -0.99330093749E+03  0.67091685178E+03 -0.89693685054E+03  0.14970883411E+04  0.12699999809E+01 0.  1.
</event>
<event>
 5   0  0.1307477E-06  0.2400330E+04  0.7818609E-02  0.8439380E-01
        2   -1    0    0  501    0  0.00000000000E+00  0.00000000000E+00  0.16982818999E+04  0.16982818999E+04  0.25500000920E-02 0.  1.
       -2   -1    0    0    0  501  0.00000000000E+00  0.00000000000E+00 -0.84814875356E+03  0.84814875356E+03  0.25500000920E-02 0. -1.
    10030    2    1    2    0    0  0.00000000000E+00  0.00000000000E+00  0.85013314633E+03  0.25464306535E+04  0.24003297078E+04 0.  0.
        5    1    3    3  502    0  0.83696250105E+03 -0.14882948810E+03 -0.47368075617E+03  0.97316596398E+03  0.46999998093E+01 0. -1.
       -5    1    3    3    0  502 -0.83696250105E+03  0.14882948810E+03  0.13238139025E+04  0.15732646895E+04  0.46999998093E+01 0.  1.
</event>
<event>
 5   0  0.1308662E-06  0.2398635E+04  0.7818609E-02  0.8440015E-01
       -2   -1    0    0    0  501  0.00000000000E+00  0.00000000000E+00  0.99223600596E+03  0.99223600596E+03  0.25500000920E-02 0.  1.
        2   -1    0    0  501    0  0.00000000000E+00  0.00000000000E+00 -0.14496178316E+04  0.14496178316E+04  0.25500000920E-02 0. -1.
    10030    2    1    2    0    0  0.00000000000E+00  0.00000000000E+00 -0.45738182568E+03  0.24418538376E+04  0.23986354516E+04 0.  0.
        3    1    3    3  502    0  0.42776185791E+03  0.63859149332E+03 -0.11659220603E+04  0.13964789878E+04  0.10100000352E+00 0. -1.
       -3    1    3    3    0  502 -0.42776185791E+03 -0.63859149332E+03  0.70854023460E+03  0.10453748498E+04  0.10100000352E+00 0.  1.
</event>
<event>
 5   0  0.1291468E-06  0.2399217E+04  0.7818609E-02  0.8439797E-01
        2   -1    0    0  501    0  0.00000000000E+00  0.00000000000E+00  0.11785289170E+04  0.11785289170E+04  0.25500000920E-02 0. -1.
       -2   -1    0    0    0  501  0.00000000000E+00  0.00000000000E+00 -0.12210648692E+04  0.12210648692E+04  0.25500000920E-02 0.  1.
    10030    2    1    2    0    0  0.00000000000E+00  0.00000000000E+00 -0.42535952207E+02  0.23995937863E+04  0.23992167538E+04 0.  0.
        4    1    3    3  502    0 -0.75153630633E+03 -0.24444484628E+03 -0.92390553151E+03  0.12157973296E+04  0.12699999809E+01 0.  1.
       -4    1    3    3    0  502  0.75153630633E+03  0.24444484628E+03  0.88136957931E+03  0.11837964567E+04  0.12699999809E+01 0. -1.
</event>
<event>
 5   0  0.1336057E-06  0.2399535E+04  0.7818609E-02  0.8439678E-01
        2   -1    0    0  501    0  0.00000000000E+00  0.00000000000E+00  0.20352156715E+04  0.20352156715E+04  0.25500000920E-02 0. -1.
       -2   -1    0    0    0  501  0.00000000000E+00  0.00000000000E+00 -0.70726737108E+03  0.70726737108E+03  0.25500000920E-02 0.  1.
    10030    2    1    2    0    0  0.00000000000E+00  0.00000000000E+00  0.13279483004E+04  0.27424830426E+04  0.23995346528E+04 0.  0.
        2    1    3    3  502    0  0.59311258860E+03  0.14696040571E+03 -0.51609675279E+03  0.79983483411E+03  0.25500000920E-02 0.  1.
       -2    1    3    3    0  502 -0.59311258860E+03 -0.14696040571E+03  0.18440450532E+04  0.19426482084E+04  0.25500000920E-02 0. -1.
</event>
<event>
 5   0  0.1336057E-06  0.2397595E+04  0.7818609E-02  0.8440405E-01
        2   -1    0    0  501    0  0.00000000000E+00  0.00000000000E+00  0.18935550469E+04  0.18935550469E+04  0.25500000920E-02 0. -1.
       -2   -1    0    0    0  501  0.00000000000E+00  0.00000000000E+00 -0.75895085761E+03  0.75895085761E+03  0.25500000920E-02 0.  1.
    10030    2    1    2    0    0  0.00000000000E+00  0.00000000000E+00  0.11346041893E+04  0.26525059045E+04  0.23975948171E+04 0.  0.
        2    1    3    3  502    0 -0.11277562654E+03 -0.21075631874E+03 -0.73231900407E+03  0.77034258064E+03  0.25500000920E-02 0.  1.
       -2    1    3    3    0  502  0.11277562654E+03  0.21075631874E+03  0.18669231934E+04  0.18821633239E+04  0.25500000920E-02 0. -1.
</event>
<event>
 5   0  0.1336057E-06  0.2400493E+04  0.7818609E-02  0.8439319E-01
       -2   -1    0    0    0  501  0.00000000000E+00  0.00000000000E+00  0.70167766580E+03  0.70167766580E+03  0.25500000920E-02 0.  1.
        2   -1    0    0  501    0  0.00000000000E+00  0.00000000000E+00 -0.20530674312E+04  0.20530674312E+04  0.25500000920E-02 0. -1.
    10030    2    1    2    0    0  0.00000000000E+00  0.00000000000E+00 -0.13513897654E+04  0.27547450970E+04  0.24004929184E+04 0.  0.
        2    1    3    3  502    0 -0.16124670943E+03 -0.69577185657E+03 -0.17826689527E+04  0.19204185931E+04  0.25500000920E-02 0. -1.
       -2    1    3    3    0  502  0.16124670943E+03  0.69577185657E+03  0.43127918732E+03  0.83432650390E+03  0.25500000920E-02 0.  1.
</event>
<event>
 5   0  0.1308662E-06  0.2400264E+04  0.7818609E-02  0.8439405E-01
       -2   -1    0    0    0  501  0.00000000000E+00  0.00000000000E+00  0.10443035989E+04  0.10443035989E+04  0.25500000920E-02 0. -1.
        2   -1    0    0  501    0  0.00000000000E+00  0.00000000000E+00 -0.13792132143E+04  0.13792132143E+04  0.25500000920E-02 0.  1.
    10030    2    1    2    0    0  0.00000000000E+00  0.00000000000E+00 -0.33490961542E+03  0.24235168131E+04  0.24002644215E+04 0.  0.
        3    1    3    3  502    0 -0.15606036474E+03 -0.57504371301E+03  0.88440846279E+03  0.10663997602E+04  0.10100000352E+00 0. -1.
       -3    1    3    3    0  502  0.15606036474E+03  0.57504371301E+03 -0.12193180782E+04  0.13571170529E+04  0.10100000352E+00 0.  1.
</event>
<event>
 5   0  0.1291468E-06  0.2403025E+04  0.7818609E-02  0.8438372E-01
        2   -1    0    0  501    0  0.00000000000E+00  0.00000000000E+00  0.29384874804E+04  0.29384874804E+04  0.25500000920E-02 0. -1.
       -2   -1    0    0    0  501  0.00000000000E+00  0.00000000000E+00 -0.49128420846E+03  0.49128420847E+03  0.25500000920E-02 0.  1.
    10030    2    1    2    0    0  0.00000000000E+00  0.00000000000E+00  0.24472032719E+04  0.34297716889E+04  0.24030251733E+04 0.  0.
        4    1    3    3  502    0 -0.10101258967E+04  0.55313172875E+03  0.17124749550E+04  0.20637056769E+04  0.12699999809E+01 0. -1.
       -4    1    3    3    0  502  0.10101258967E+04 -0.55313172875E+03  0.73472831699E+03  0.13660660120E+04  0.12699999809E+01 0.  1.
</event>
<event>
 5   0  0.1275948E-06  0.2399421E+04  0.7818609E-02  0.8439720E-01
        2   -1    0    0  501    0  0.00000000000E+00  0.00000000000E+00  0.16870805717E+04  0.16870805717E+04  0.25500000920E-02 0.  1.
       -2   -1    0    0    0  501  0.00000000000E+00  0.00000000000E+00 -0.85313346989E+03  0.85313346990E+03  0.25500000920E-02 0. -1.
    10030    2    1    2    0    0  0.00000000000E+00  0.00000000000E+00  0.83394710181E+03  0.25402140416E+04  0.23994206819E+04 0.  0.
        1    1    3    3  502    0  0.11421973771E+04  0.13138009167E+03  0.77976095261E+03  0.13892093867E+04  0.50400001928E-02 0.  1.
       -1    1    3    3    0  502 -0.11421973771E+04 -0.13138009167E+03  0.54186149206E+02  0.11510046549E+04  0.50400001928E-02 0. -1.
</event>
<event>
 5   0  0.5527286E-07  0.2416014E+04  0.7818609E-02  0.8433532E-01
       -1   -1    0    0    0  501  0.00000000000E+00  0.00000000000E+00  0.10677116474E+04  0.10677116475E+04  0.50400001928E-02 0. -1.
        1   -1    0    0  501    0  0.00000000000E+00  0.00000000000E+00 -0.13667372872E+04  0.13667372872E+04  0.50400001928E-02 0.  1.
    10030    2    1    2    0    0  0.00000000000E+00  0.00000000000E+00 -0.29902563977E+03  0.24344489347E+04  0.24160143382E+04 0.  0.
        1    1    3    3  502    0  0.60458928174E+03  0.96038335921E+03  0.26767153283E+03  0.11659813231E+04  0.50400001928E-02 0. -1.
       -1    1    3    3    0  502 -0.60458928174E+03 -0.96038335921E+03 -0.56669717260E+03  0.12684676116E+04  0.50400001928E-02 0.  1.
</event>
<event>
 5   0  0.5510176E-07  0.2399994E+04  0.7818609E-02  0.8439506E-01
        1   -1    0    0  501    0  0.00000000000E+00  0.00000000000E+00  0.13718217585E+04  0.13718217585E+04  0.50400001928E-02 0. -1.
       -1   -1    0    0    0  501  0.00000000000E+00  0.00000000000E+00 -0.10496938526E+04  0.10496938526E+04  0.50400001928E-02 0.  1.
    10030    2    1    2    0    0  0.00000000000E+00  0.00000000000E+00  0.32212790581E+03  0.24215156111E+04  0.23999940556E+04 0.  0.
        3    1    3    3  502    0  0.54822311248E+02 -0.32828056542E+03  0.13243202624E+04  0.13655027583E+04  0.10100000352E+00 0. -1.
       -3    1    3    3    0  502 -0.54822311248E+02  0.32828056542E+03 -0.10021923566E+04  0.10560128528E+04  0.10100000352E+00 0.  1.
</event>
<event>
 5   0  0.5527286E-07  0.2400650E+04  0.7818609E-02  0.8439260E-01
        1   -1    0    0  501    0  0.00000000000E+00  0.00000000000E+00  0.24361006274E+04  0.24361006275E+04  0.50400001928E-02 0.  1.
       -1   -1    0    0    0  501  0.00000000000E+00  0.00000000000E+00 -0.59142883874E+03  0.59142883876E+03  0.50400001928E-02 0. -1.
    10030    2    1    2    0    0  0.00000000000E+00  0.00000000000E+00  0.18446717887E+04  0.30275294662E+04  0.24006500496E+04 0.  0.
        1    1    3    3  502    0 -0.85433041014E+03 -0.77130751812E+03  0.49283965554E+03  0.12520729465E+04  0.50400001928E-02 0. -1.
       -1    1    3    3    0  502  0.85433041014E+03  0.77130751812E+03  0.13518321332E+04  0.17754565197E+04  0.50400001928E-02 0.  1.
</event>
<event>
 5   0  0.1291468E-06  0.2397779E+04  0.7818609E-02  0.8440336E-01
       -2   -1    0    0    0  501  0.00000000000E+00  0.00000000000E+00  0.82711512972E+03  0.82711512973E+03  0.25500000920E-02 0. -1.
        2   -1    0    0  501    0  0.00000000000E+00  0.00000000000E+00 -0.17377700012E+04  0.17377700012E+04  0.25500000920E-02 0.  1.
    10030    2    1    2    0    0  0.00000000000E+00  0.00000000000E+00 -0.91065487150E+03  0.25648851309E+04  0.23977788555E+04 0.  0.
        4    1    3    3  502    0 -0.55056731741E+03  0.97556952717E+03 -0.91226752132E+03  0.14446777899E+04  0.12699999809E+01 0.  1.
       -4    1    3    3    0  502  0.55056731741E+03 -0.97556952717E+03  0.16126498223E+01  0.11202073410E+04  0.12699999809E+01 0. -1.
</event>
<event>
 5   0  0.1336057E-06  0.2401256E+04  0.7818609E-02  0.8439034E-01
        2   -1    0    0  501    0  0.00000000000E+00  0.00000000000E+00  0.16539463026E+04  0.16539463026E+04  0.25500000920E-02 0. -1.
       -2   -1    0    0    0  501  0.00000000000E+00  0.00000000000E+00 -0.87155626958E+03  0.87155626958E+03  0.25500000920E-02 0.  1.
    10030    2    1    2    0    0  0.00000000000E+00  0.00000000000E+00  0.78239003300E+03  0.25255025722E+04  0.24012557295E+04 0.  0.
        2    1    3    3  502    0  0.98503228229E+03 -0.29319642985E+02 -0.33011862313E+03  0.10392913662E+04  0.25500000920E-02 0.  1.
       -2    1    3    3    0  502 -0.98503228229E+03  0.29319642985E+02  0.11125086561E+04  0.14862112059E+04  0.25500000920E-02 0. -1.
</event>
<event>
 5   0  0.1336057E-06  0.2399347E+04  0.7818609E-02  0.8439748E-01
        2   -1    0    0  501    0  0.00000000000E+00  0.00000000000E+00  0.16401813306E+04  0.16401813306E+04  0.25500000920E-02 0.  1.
       -2   -1    0    0    0  501  0.00000000000E+00  0.00000000000E+00 -0.87747426772E+03  0.87747426773E+03  0.25500000920E-02 0. -1.
    10030    2    1    2    0    0  0.00000000000E+00  0.00000000000E+00  0.76270706287E+03  0.25176555983E+04  0.23993473379E+04 0.  0.
        2    1    3    3  502    0  0.97769952017E+03  0.75204784884E+02  0.11065652576E+04  0.14785258810E+04  0.25500000920E-02 0.  1.
       -2    1    3    3    0  502 -0.97769952017E+03 -0.75204784884E+02 -0.34385819471E+03  0.10391297174E+04  0.25500000920E-02 0. -1.
</event>
<event>
 5   0  0.1275948E-06  0.2399100E+04  0.7818609E-02  0.8439840E-01
       -2   -1    0    0    0  501  0.00000000000E+00  0.00000000000E+00  0.10161791535E+04  0.10161791535E+04  0.25500000920E-02 0. -1.
        2   -1    0    0  501    0  0.00000000000E+00  0.00000000000E+00 -0.14160107836E+04  0.14160107836E+04  0.25500000920E-02 0.  1.
    10030    2    1    2    0    0  0.00000000000E+00  0.00000000000E+00 -0.39983163017E+03  0.24321899371E+04  0.23991003642E+04 0.  0.
        1    1    3    3  502    0  0.44741039733E+03 -0.57265225234E+03  0.76761301107E+03  0.10570413429E+04  0.50400001928E-02 0. -1.
       -1    1    3    3    0  502 -0.44741039733E+03  0.57265225234E+03 -0.11674446412E+04  0.13751485942E+04  0.50400001928E-02 0.  1.
</event>
<event>
 5   0  0.1307477E-06  0.2401123E+04  0.7818609E-02  0.8439083E-01
       -2   -1    0    0    0  501  0.00000000000E+00  0.00000000000E+00  0.60425940112E+03  0.60425940113E+03  0.25500000920E-02 0.  1.
        2   -1    0    0  501    0  0.00000000000E+00  0.00000000000E+00 -0.23853133058E+04  0.23853133058E+04  0.25500000920E-02 0. -1.
    10030    2    1    2    0    0  0.00000000000E+00  0.00000000000E+00 -0.17810539047E+04  0.29895727070E+04  0.24011230620E+04 0.  0.
        5    1    3    3  502    0  0.68529468771E+03 -0.95967017967E+03 -0.11709593249E+04  0.16618554370E+04  0.46999998093E+01 0. -1.
       -5    1    3    3    0  502 -0.68529468771E+03  0.95967017967E+03 -0.61009457978E+03  0.13277172700E+04  0.46999998093E+01 0.  1.
</event>
<event>
 5   0  0.5690124E-07  0.2401072E+04  0.7818609E-02  0.8439102E-01
        1   -1    0    0  501    0  0.00000000000E+00  0.00000000000E+00  0.22825990327E+04  0.22825990327E+04  0.50400001928E-02 0.  1.
       -1   -1    0    0    0  501  0.00000000000E+00  0.00000000000E+00 -0.63142346902E+03  0.63142346904E+03  0.50400001928E-02 0. -1.
    10030    2    1    2    0    0  0.00000000000E+00  0.00000000000E+00  0.16511755637E+04  0.29140225018E+04  0.24010719270E+04 0.  0.
        2    1    3    3  502    0  0.15029271762E+03 -0.19718174289E+03  0.22511909220E+04  0.22648022227E+04  0.25500000920E-02 0.  1.
       -2    1    3    3    0  502 -0.15029271762E+03  0.19718174289E+03 -0.60001535823E+03  0.64922027912E+03  0.25500000920E-02 0. -1.
</event>
<event>
 5   0  0.5510176E-07  0.2399667E+04  0.7818609E-02  0.8439628E-01
       -1   -1    0    0    0  501  0.00000000000E+00  0.00000000000E+00  0.12220897922E+04  0.12220897922E+04  0.50400001928E-02 0. -1.
        1   -1    0    0  501    0  0.00000000000E+00  0.00000000000E+00 -0.11779826110E+04  0.11779826110E+04  0.50400001928E-02 0.  1.
    10030    2    1    2    0    0  0.00000000000E+00  0.00000000000E+00  0.44107181170E+02  0.24000724033E+04  0.23996670805E+04 0.  0.
        3    1    3    3  502    0  0.11846418779E+04  0.13696103970E+03  0.15423418527E+03  0.12024653423E+04  0.10100000352E+00 0. -1.
       -3    1    3    3    0  502 -0.11846418779E+04 -0.13696103970E+03 -0.11012700410E+03  0.11976070610E+04  0.10100000352E+00 0.  1.
</event>
<event>
 5   0  0.5527286E-07  0.2399314E+04  0.7818609E-02  0.8439760E-01
        1   -1    0    0  501    0  0.00000000000E+00  0.00000000000E+00  0.17154346019E+04  0.17154346019E+04  0.50400001928E-02 0. -1.
       -1   -1    0    0    0  501  0.00000000000E+00  0.00000000000E+00 -0.83895763830E+03  0.83895763831E+03  0.50400001928E-02 0.  1.
    10030    2    1    2    0    0  0.00000000000E+00  0.00000000000E+00  0.87647696357E+03  0.25543922402E+04  0.23993140372E+04 0.  0.
        1    1    3    3  502    0  0.52078954915E+03  0.22055020617E+03 -0.68811895087E+03  0.89071422944E+03  0.50400001928E-02 0.  1.
       -1    1    3    3    0  502 -0.52078954915E+03 -0.22055020617E+03  0.15645959144E+04  0.16636780107E+04  0.50400001928E-02 0. -1.
</event>
<event>
 5   0  0.5690124E-07  0.2399926E+04  0.7818609E-02  0.8439531E-01
        1   -1    0    0  501    0  0.00000000000E+00  0.00000000000E+00  0.11879522383E+04  0.11879522383E+04  0.50400001928E-02 0. -1.
       -1   -1    0    0    0  501  0.00000000000E+00  0.00000000000E+00 -0.12120948192E+04  0.12120948192E+04  0.50400001928E-02 0.  1.
    10030    2    1    2    0    0  0.00000000000E+00  0.00000000000E+00 -0.24142580967E+02  0.24000470575E+04  0.23999256268E+04 0.  0.
        2    1    3    3  502    0  0.11242750628E+04 -0.24299714095E+03 -0.35394927037E+03  0.12034625517E+04  0.25500000920E-02 0.  1.
       -2    1    3    3    0  502 -0.11242750628E+04  0.24299714095E+03  0.32980668940E+03  0.11965845058E+04  0.25500000920E-02 0. -1.
</event>
<event>
 5   0  0.1308662E-06  0.2400468E+04  0.7818609E-02  0.8439328E-01
        2   -1    0    0  501    0  0.00000000000E+00  0.00000000000E+00  0.13152971366E+04  0.13152971366E+04  0.25500000920E-02 0.  1.
       -2   -1    0    0    0  501  0.00000000000E+00  0.00000000000E+00 -0.10952368161E+04  0.10952368161E+04  0.25500000920E-02 0. -1.
    10030    2    1    2    0    0  0.00000000000E+00  0.00000000000E+00  0.22006032045E+03  0.24105339527E+04  0.24004681611E+04 0.  0.
        3    1    3    3  502    0 -0.85442721327E+03 -0.64367147148E+03  0.65655768357E+03  0.12551600806E+04  0.10100000352E+00 0. -1.
       -3    1    3    3    0  502  0.85442721327E+03  0.64367147148E+03 -0.43649736313E+03  0.11553738720E+04  0.10100000352E+00 0.  1.
</event>
<event>
 5   0  0.5690124E-07  0.2400666E+04  0.7818609E-02  0.8439254E-01
       -1   -1    0    0    0  501  0.00000000000E+00  0.00000000000E+00  0.17109612031E+04  0.17109612031E+04  0.50400001928E-02 0. -1.
        1   -1    0    0  501    0  0.00000000000E+00  0.00000000000E+00 -0.84209916907E+03  0.84209916909E+03  0.50400001928E-02 0.  1.
    10030    2    1    2    0    0  0.00000000000E+00  0.00000000000E+00  0.86886203399E+03  0.25530603722E+04  0.24006657472E+04 0.  0.
        2    1    3    3  502    0  0.10733948802E+04 -0.25456365667E+03  0.93755917555E+03  0.14477556533E+04  0.25500000920E-02 0. -1.
       -2    1    3    3    0  502 -0.10733948802E+04  0.25456365667E+03 -0.68697141562E+02  0.11053047188E+04  0.25500000920E-02 0.  1.
</event>
<event>
 5   0  0.1307477E-06  0.2399390E+04  0.7818609E-02  0.8439732E-01
        2   -1    0    0  501    0  0.00000000000E+00  0.00000000000E+00  0.25952726513E+04  0.25952726513E+04  0.25500000920E-02 0. -1.
       -2   -1    0    0    0  501  0.00000000000E+00  0.00000000000E+00 -0.55457277933E+03  0.55457277934E+03  0.25500000920E-02 0.  1.
    10030    2    1    2    0    0  0.00000000000E+00  0.00000000000E+00  0.20406998720E+04  0.31498454307E+04  0.23993895619E+04 0.  0.
        5    1    3    3  502    0 -0.84553467685E+03 -0.40547046341E+02 -0.95637355911E+02  0.85190465814E+03  0.46999998093E+01 0.  1.
       -5    1    3    3    0  502  0.84553467685E+03  0.40547046341E+02  0.21363372279E+04  0.22979407725E+04  0.46999998093E+01 0. -1.
</event>
<event>
 5   0  0.1275948E-06  0.2395492E+04  0.7818609E-02  0.8441193E-01
        2   -1    0    0  501    0  0.00000000000E+00  0.00000000000E+00  0.15503131309E+04  0.15503131309E+04  0.25500000920E-02 0. -1.
       -2   -1    0    0    0  501  0.00000000000E+00  0.00000000000E+00 -0.92535878486E+03  0.92535878487E+03  0.25500000920E-02 0.  1.
    10030    2    1    2    0    0  0.00000000000E+00  0.00000000000E+00  0.62495434607E+03  0.24756719158E+04  0.23954923294E+04 0.  0.
        1    1    3    3  502    0 -0.69569400612E+02  0.53440411060E+03 -0.79298336970E+03  0.95877540623E+03  0.50400001928E-02 0.  1.
       -1    1    3    3    0  502  0.69569400612E+02 -0.53440411060E+03  0.14179377158E+04  0.15168965096E+04  0.50400001928E-02 0. -1.
</event>
<event>
 5   0  0.5452384E-07  0.2400150E+04  0.7818609E-02  0.8439447E-01
       -1   -1    0    0    0  501  0.00000000000E+00  0.00000000000E+00  0.58884738407E+03  0.58884738409E+03  0.50400001928E-02 0.  1.
        1   -1    0    0  501    0  0.00000000000E+00  0.00000000000E+00 -0.24457609993E+04  0.24457609993E+04  0.50400001928E-02 0. -1.
    10030    2    1    2    0    0  0.00000000000E+00  0.00000000000E+00 -0.18569136152E+04  0.30346083834E+04  0.24001499674E+04 0.  0.
        5    1    3    3  502    0 -0.11480731388E+04  0.33786745128E+03 -0.10410579405E+04  0.15862061884E+04  0.46999998093E+01 0.  1.
       -5    1    3    3    0  502  0.11480731388E+04 -0.33786745128E+03 -0.81585567471E+03  0.14484021950E+04  0.46999998093E+01 0. -1.
</event>
<event>
 5   0  0.5510176E-07  0.2400312E+04  0.7818609E-02  0.8439387E-01
        1   -1    0    0  501    0  0.00000000000E+00  0.00000000000E+00  0.18258546436E+04  0.18258546436E+04  0.50400001928E-02 0. -1.
       -1   -1    0    0    0  501  0.00000000000E+00  0.00000000000E+00 -0.78887691635E+03  0.78887691636E+03  0.50400001928E-02 0.  1.
    10030    2    1    2    0    0  0.00000000000E+00  0.00000000000E+00  0.10369777273E+04  0.26147315600E+04  0.24003121305E+04 0.  0.
        3    1    3    3  502    0  0.97560323139E+03  0.25930937208E+03  0.12255734694E+04  0.15877888256E+04  0.10100000352E+00 0. -1.
       -3    1    3    3    0  502 -0.97560323139E+03 -0.25930937208E+03 -0.18859574215E+03  0.10269427344E+04  0.10100000352E+00 0.  1.
</event>
<event>
 5   0  0.5527286E-07  0.2398817E+04  0.7818609E-02  0.8439947E-01
       -1   -1    0    0    0  501  0.00000000000E+00  0.00000000000E+00  0.18647503583E+04  0.18647503583E+04  0.50400001928E-02 0. -1.
        1   -1    0    0  501    0  0.00000000000E+00  0.00000000000E+00 -0.77146028059E+03  0.77146028061E+03  0.50400001928E-02 0.  1.
    10030    2    1    2    0    0  0.00000000000E+00  0.00000000000E+00  0.10932900777E+04  0.26362106389E+04  0.23988170707E+04 0.  0.
        1    1    3    3  502    0 -0.11123331648E+04  0.24100110602E+02  0.54296290585E+02  0.11139182969E+04  0.50400001928E-02 0.  1.
       -1    1    3    3    0  502  0.11123331648E+04 -0.24100110602E+02  0.10389937871E+04  0.15222923420E+04  0.50400001928E-02 0. -1.
</event>
<event>
 5   0  0.5452384E-07  0.2394552E+04  0.7818609E-02  0.8441546E-01
       -1   -1    0    0    0  501  0.00000000000E+00  0.00000000000E+00  0.77731654060E+03  0.77731654062E+03  0.50400001928E-02 0. -1.
        1   -1    0    0  501    0  0.00000000000E+00  0.00000000000E+00 -0.18441264847E+04  0.18441264847E+04  0.50400001928E-02 0.  1.
    10030    2    1    2    0    0  0.00000000000E+00  0.00000000000E+00 -0.10668099441E+04  0.26214430253E+04  0.23945521665E+04 0.  0.
        5    1    3    3  502    0  0.60466874151E+03 -0.21902086673E+03 -0.16389718428E+04  0.17606377306E+04  0.46999998093E+01 0.  1.
       -5    1    3    3    0  502 -0.60466874151E+03  0.21902086673E+03  0.57216189871E+03  0.86080529469E+03  0.46999998093E+01 0. -1.
</event>
<event>
 5   0  0.1336057E-06  0.2398999E+04  0.7818609E-02  0.8439878E-01
       -2   -1    0    0    0  501  0.00000000000E+00  0.00000000000E+00  0.84538043513E+03  0.84538043514E+03  0.25500000920E-02 0. -1.
        2   -1    0    0  501    0  0.00000000000E+00  0.00000000000E+00 -0.17019549263E+04  0.17019549263E+04  0.25500000920E-02 0.  1.
    10030    2    1    2    0    0  0.00000000000E+00  0.00000000000E+00 -0.85657449120E+03  0.25473353615E+04  0.23989992882E+04 0.  0.
        2    1    3    3  502    0  0.73284984374E+03 -0.21399795302E+03  0.55408592750E+03  0.94333198421E+03  0.25500000920E-02 0. -1.
       -2    1    3    3    0  502 -0.73284984374E+03  0.21399795302E+03 -0.14106604187E+04  0.16040033773E+04  0.25500000920E-02 0.  1.
</event>
<event>
 5   0  0.5690124E-07  0.2398383E+04  0.7818609E-02  0.8440109E-01
       -1   -1    0    0    0  501  0.00000000000E+00  0.00000000000E+00  0.11898390892E+04  0.11898390892E+04  0.50400001928E-02 0.  1.
        1   -1    0    0  501    0  0.00000000000E+00  0.00000000000E+00 -0.12086177522E+04  0.12086177522E+04  0.50400001928E-02 0. -1.
    10030    2    1    2    0    0  0.00000000000E+00  0.00000000000E+00 -0.18778662974E+02  0.23984568414E+04  0.23983833268E+04 0.  0.
        2    1    3    3  502    0 -0.41096710826E+03 -0.11246189439E+04  0.56936998912E+02  0.11987091202E+04  0.25500000920E-02 0. -1.
       -2    1    3    3    0  502  0.41096710826E+03  0.11246189439E+04 -0.75715661886E+02  0.11997477212E+04  0.25500000920E-02 0.  1.
</event>
<event>
 5   0  0.1307477E-06  0.2399850E+04  0.7818609E-02  0.8439560E-01
        2   -1    0    0  501    0  0.00000000000E+00  0.00000000000E+00  0.16637880484E+04  0.16637880484E+04  0.25500000920E-02 0. -1.
       -2   -1    0    0    0  501  0.00000000000E+00  0.00000000000E+00 -0.86538657664E+03  0.86538657665E+03  0.25500000920E-02 0.  1.
    10030    2    1    2    0    0  0.00000000000E+00  0.00000000000E+00  0.79840147171E+03  0.25291746250E+04  0.23998498648E+04 0.  0.
        5    1    3    3  502    0 -0.52518869720E+03 -0.76573173050E+03 -0.40177512224E+03  0.10117379056E+04  0.46999998093E+01 0.  1.
       -5    1    3    3    0  502  0.52518869720E+03  0.76573173050E+03  0.12001765940E+04  0.15174367194E+04  0.46999998093E+01 0. -1.
</event>
<event>
 5   0  0.5527286E-07  0.2399951E+04  0.7818609E-02  0.8439522E-01
       -1   -1    0    0    0  501  0.00000000000E+00  0.00000000000E+00  0.69795255254E+03  0.69795255256E+03  0.50400001928E-02 0. -1.
        1   -1    0    0  501    0  0.00000000000E+00  0.00000000000E+00 -0.20630938899E+04  0.20630938899E+04  0.50400001928E-02 0.  1.
    10030    2    1    2    0    0  0.00000000000E+00  0.00000000000E+00 -0.13651413373E+04  0.27610464424E+04  0.23999513717E+04 0.  0.
        1    1    3    3  502    0 -0.38278873858E+03 -0.11204033636E+04 -0.90716299306E+03  0.14915681719E+04  0.50400001928E-02 0.  1.
       -1    1    3    3    0  502  0.38278873858E+03  0.11204033636E+04 -0.45797834427E+03  0.12694782705E+04  0.50400001928E-02 0. -1.
</event>
<event>
 5   0  0.1308662E-06  0.2409342E+04  0.7818609E-02  0.8436014E-01
        2   -1    0    0  501    0  0.00000000000E+00  0.00000000000E+00  0.16892030286E+04  0.16892030286E+04  0.25500000920E-02 0.  1.
       -2   -1    0    0    0  501  0.00000000000E+00  0.00000000000E+00 -0.85912242835E+03  0.85912242835E+03  0.25500000920E-02 0. -1.
    10030    2    1    2    0    0  0.00000000000E+00  0.00000000000E+00  0.83008060027E+03  0.25483254570E+04  0.24093419914E+04 0.  0.
        3    1    3    3  502    0  0.18777411701E+03  0.11044235395E+04  0.88356229812E+03  0.14267770738E+04  0.10100000352E+00 0.  1.
       -3    1    3    3    0  502 -0.18777411701E+03 -0.11044235395E+04 -0.53481697854E+02  0.11215483831E+04  0.10100000352E+00 0. -1.
</event>
<event>
 5   0  0.1307477E-06  0.2388944E+04  0.7818609E-02  0.8443655E-01
       -2   -1    0    0    0  501  0.00000000000E+00  0.00000000000E+00  0.86001789403E+03  0.86001789403E+03  0.25500000920E-02 0.  1.
        2   -1    0    0  501    0  0.00000000000E+00  0.00000000000E+00 -0.16589921275E+04  0.16589921275E+04  0.25500000920E-02 0. -1.
    10030    2    1    2    0    0  0.00000000000E+00  0.00000000000E+00 -0.79897423345E+03  0.25190100215E+04  0.23889436290E+04 0.  0.
        5    1    3    3  502    0 -0.96021298755E+03 -0.64398634810E+03 -0.83129974896E+02  0.11591635263E+04  0.46999998093E+01 0.  1.
       -5    1    3    3    0  502  0.96021298755E+03  0.64398634810E+03 -0.71584425855E+03  0.13598464952E+04  0.46999998093E+01 0. -1.
</event>
<event>
 5   0  0.1307477E-06  0.2400673E+04  0.7818609E-02  0.8439251E-01
       -2   -1    0    0    0  501  0.00000000000E+00  0.00000000000E+00  0.12010523334E+04  0.12010523334E+04  0.25500000920E-02 0.  1.
        2   -1    0    0  501    0  0.00000000000E+00  0.00000000000E+00 -0.11996215479E+04  0.11996215479E+04  0.25500000920E-02 0. -1.
    10030    2    1    2    0    0  0.00000000000E+00  0.00000000000E+00  0.14307855338E+01  0.24006738814E+04  0.24006734550E+04 0.  0.
        5    1    3    3  502    0  0.44119983340E+03 -0.10009185528E+04  0.49497343645E+03  0.12006315152E+04  0.46999998093E+01 0.  1.
       -5    1    3    3    0  502 -0.44119983340E+03  0.10009185528E+04 -0.49354265092E+03  0.12000423662E+04  0.46999998093E+01 0. -1.
</event>
<event>
 5   0  0.1308662E-06  0.2400647E+04  0.7818609E-02  0.8439262E-01
       -2   -1    0    0    0  501  0.00000000000E+00  0.00000000000E+00  0.10600983566E+04  0.10600983566E+04  0.25500000920E-02 0. -1.
        2   -1    0    0  501    0  0.00000000000E+00  0.00000000000E+00 -0.13590964831E+04  0.13590964831E+04  0.25500000920E-02 0.  1.
    10030    2    1    2    0    0  0.00000000000E+00  0.00000000000E+00 -0.29899812642E+03  0.24191948397E+04  0.24006465364E+04 0.  0.
        3    1    3    3  502    0 -0.52906274712E+03 -0.42371526213E+03 -0.11477759893E+04  0.13329785240E+04  0.10100000352E+00 0.  1.
       -3    1    3    3    0  502  0.52906274712E+03  0.42371526213E+03  0.84877786286E+03  0.10862163157E+04  0.10100000352E+00 0. -1.
</event>
<event>
 5   0  0.5527286E-07  0.2400231E+04  0.7818609E-02  0.8439417E-01
        1   -1    0    0  501    0  0.00000000000E+00  0.00000000000E+00  0.10911821376E+04  0.10911821376E+04  0.50400001928E-02 0. -1.
       -1   -1    0    0    0  501  0.00000000000E+00  0.00000000000E+00 -0.13199232822E+04  0.13199232822E+04  0.50400001928E-02 0.  1.
    10030    2    1    2    0    0  0.00000000000E+00  0.00000000000E+00 -0.22874114457E+03  0.24111054199E+04  0.24002305794E+04 0.  0.
        1    1    3    3  502    0 -0.53142036914E+03  0.79704648756E+02 -0.11923197211E+04  0.13078175550E+04  0.50400001928E-02 0.  1.
       -1    1    3    3    0  502  0.53142036914E+03 -0.79704648756E+02  0.96357857650E+03  0.11032878649E+04  0.50400001928E-02 0. -1.
</event>
<event>
 5   0  0.5363690E-07  0.2401613E+04  0.7818609E-02  0.8438900E-01
       -1   -1    0    0    0  501  0.00000000000E+00  0.00000000000E+00  0.92876503824E+03  0.92876503825E+03  0.50400001928E-02 0.  1.
        1   -1    0    0  501    0  0.00000000000E+00  0.00000000000E+00 -0.15525310159E+04  0.15525310159E+04  0.50400001928E-02 0. -1.
    10030    2    1    2    0    0  0.00000000000E+00  0.00000000000E+00 -0.62376597762E+03  0.24812960541E+04  0.24016132314E+04 0.  0.
        4    1    3    3  502    0  0.10370067655E+04 -0.27752671275E+03 -0.86781656948E+03  0.13804025932E+04  0.12699999809E+01 0. -1.
       -4    1    3    3    0  502 -0.10370067655E+04  0.27752671275E+03  0.24405059186E+03  0.11008934609E+04  0.12699999809E+01 0.  1.
</event>
<event>
 5   0  0.5452384E-07  0.2399447E+04  0.7818609E-02  0.8439711E-01
       -1   -1    0    0    0  501  0.00000000000E+00  0.00000000000E+00  0.65852518739E+03  0.65852518741E+03  0.50400001928E-02 0. -1.
        1   -1    0    0  501    0  0.00000000000E+00  0.00000000000E+00 -0.21856960327E+04  0.21856960327E+04  0.50400001928E-02 0.  1.
    10030    2    1    2    0    0  0.00000000000E+00  0.00000000000E+00 -0.15271708453E+04  0.28442212201E+04  0.23994465108E+04 0.  0.
        5    1    3    3  502    0  0.13673523113E+03  0.21733596574E+03  0.62556101919E+03  0.67622490650E+03  0.46999998093E+01 0. -1.
       -5    1    3    3    0  502 -0.13673523113E+03 -0.21733596574E+03 -0.21527318645E+04  0.21679963136E+04  0.46999998093E+01 0.  1.
</event>
<event>
 5   0  0.1336057E-06  0.2397614E+04  0.7818609E-02  0.8440397E-01
        2   -1    0    0  501    0  0.00000000000E+00  0.00000000000E+00  0.12849535474E+04  0.12849535474E+04  0.25500000920E-02 0. -1.
       -2   -1    0    0    0  501  0.00000000000E+00  0.00000000000E+00 -0.11184360691E+04  0.11184360692E+04  0.25500000920E-02 0.  1.
    10030    2    1    2    0    0  0.00000000000E+00  0.00000000000E+00  0.16651747823E+03  0.24033896165E+04  0.23976141429E+04 0.  0.
        2    1    3    3  502    0 -0.28341883372E+03 -0.11636426408E+04  0.13580603652E+03  0.12053355178E+04  0.25500000920E-02 0. -1.
       -2    1    3    3    0  502  0.28341883372E+03  0.11636426408E+04  0.30711441709E+02  0.11980540987E+04  0.25500000920E-02 0.  1.
</event>
<event>
 5   0  0.5510176E-07  0.2399683E+04  0.7818609E-02  0.8439622E-01
       -1   -1    0    0    0  501  0.00000000000E+00  0.00000000000E+00  0.68246446440E+03  0.68246446442E+03  0.50400001928E-02 0.  1.
        1   -1    0    0  501    0  0.00000000000E+00  0.00000000000E+00 -0.21094433684E+04  0.21094433684E+04  0.50400001928E-02 0. -1.
    10030    2    1    2    0    0  0.00000000000E+00  0.00000000000E+00 -0.14269789040E+04  0.27919078328E+04  0.23996834280E+04 0.  0.
        3    1    3    3  502    0  0.48175695202E+03  0.10561610004E+04 -0.10664849655E+04  0.15763743246E+04  0.10100000352E+00 0.  1.
       -3    1    3    3    0  502 -0.48175695202E+03 -0.10561610004E+04 -0.36049393854E+03  0.12155335082E+04  0.10100000352E+00 0. -1.
</event>
<event>
 5   0  0.5363690E-07  0.2399729E+04  0.7818609E-02  0.8439605E-01
       -1   -1    0    0    0  501  0.00000000000E+00  0.00000000000E+00  0.13712031232E+04  0.13712031232E+04  0.50400001928E-02 0.  1.
        1   -1    0    0  501    0  0.00000000000E+00  0.00000000000E+00 -0.10499354822E+04  0.10499354822E+04  0.50400001928E-02 0. -1.
    10030    2    1    2    0    0  0.00000000000E+00  0.00000000000E+00  0.32126764101E+03  0.24211386055E+04  0.23997289951E+04 0.  0.
        4    1    3    3  502    0  0.46853676214E+03 -0.73441899914E+03 -0.67181842344E+03  0.11001088904E+04  0.12699999809E+01 0. -1.
       -4    1    3    3    0  502 -0.46853676214E+03  0.73441899914E+03  0.99308606445E+03  0.13210297151E+04  0.12699999809E+01 0.  1.
</event>
<event>
 5   0  0.1291468E-06  0.2399197E+04  0.7818609E-02  0.8439804E-01
       -2   -1    0    0    0  501  0.00000000000E+00  0.00000000000E+00  0.51012912671E+03  0.51012912671E+03  0.25500000920E-02 0. -1.
        2   -1    0    0  501    0  0.00000000000E+00  0.00000000000E+00 -0.28209266434E+04  0.28209266434E+04  0.25500000920E-02 0.  1.
    10030    2    1    2    0    0  0.00000000000E+00  0.00000000000E+00 -0.23107975167E+04  0.33310557701E+04  0.23991972367E+04 0.  0.
        4    1    3    3  502    0  0.14844321469E+03 -0.52193667532E+03 -0.26407850036E+04  0.26959600014E+04  0.12699999809E+01 0.  1.
       -4    1    3    3    0  502 -0.14844321469E+03  0.52193667532E+03  0.32998748690E+03  0.63509576872E+03  0.12699999809E+01 0. -1.
</event>
<event>
 5   0  0.5363690E-07  0.2400296E+04  0.7818609E-02  0.8439393E-01
       -1   -1    0    0    0  501  0.00000000000E+00  0.00000000000E+00  0.97704495705E+03  0.97704495707E+03  0.50400001928E-02 0.  1.
        1   -1    0    0  501    0  0.00000000000E+00  0.00000000000E+00 -0.14741951421E+04  0.14741951421E+04  0.50400001928E-02 0. -1.
    10030    2    1    2    0    0  0.00000000000E+00  0.00000000000E+00 -0.49715018506E+03  0.24512400992E+04  0.24002957562E+04 0.  0.
        4    1    3    3  502    0 -0.99258331124E+03  0.19561638550E+03 -0.90793007032E+03  0.13593476470E+04  0.12699999809E+01 0. -1.
       -4    1    3    3    0  502  0.99258331124E+03 -0.19561638550E+03  0.41077988526E+03  0.10918924521E+04  0.12699999809E+01 0.  1.
</event>
<event>
 5   0  0.5363690E-07  0.2399282E+04  0.7818609E-02  0.8439773E-01
        1   -1    0    0  501    0  0.00000000000E+00  0.00000000000E+00  0.16261550530E+04  0.16261550530E+04  0.50400001928E-02 0.  1.
       -1   -1    0    0    0  501  0.00000000000E+00  0.00000000000E+00 -0.88499443824E+03  0.88499443825E+03  0.50400001928E-02 0. -1.
    10030    2    1    2    0    0  0.00000000000E+00  0.00000000000E+00  0.74116061480E+03  0.25111494913E+04  0.23992817072E+04 0.  0.
        4    1    3    3  502    0 -0.79531581351E+03  0.60502253807E+03  0.10652724749E+04  0.14606117121E+04  0.12699999809E+01 0. -1.
       -4    1    3    3    0  502  0.79531581351E+03 -0.60502253807E+03 -0.32411186010E+03  0.10505377792E+04  0.12699999809E+01 0.  1.
</event>
<event>
 5   0  0.5527286E-07  0.2396481E+04  0.7818609E-02  0.8440822E-01
       -1   -1    0    0    0  501  0.00000000000E+00  0.00000000000E+00  0.86246439029E+03  0.86246439030E+03  0.50400001928E-02 0.  1.
        1   -1    0    0  501    0  0.00000000000E+00  0.00000000000E+00 -0.16647411985E+04  0.16647411985E+04  0.50400001928E-02 0. -1.
    10030    2    1    2    0    0  0.00000000000E+00  0.00000000000E+00 -0.80227680821E+03  0.25272055888E+04  0.23964807554E+04 0.  0.
        1    1    3    3  502    0 -0.99198514229E+03 -0.65378996355E+03 -0.56554035588E+03  0.13157931954E+04  0.50400001928E-02 0.  1.
       -1    1    3    3    0  502  0.99198514229E+03  0.65378996355E+03 -0.23673645233E+03  0.12114123934E+04  0.50400001928E-02 0. -1.
</event>
<event>
 5   0  0.1275948E-06  0.2397409E+04  0.7818609E-02  0.8440474E-01
       -2   -1    0    0    0  501  0.00000000000E+00  0.00000000000E+00  0.58949862135E+03  0.58949862135E+03  0.25500000920E-02 0. -1.
        2   -1    0    0  501    0  0.00000000000E+00  0.00000000000E+00 -0.24374816826E+04  0.24374816826E+04  0.25500000920E-02 0.  1.
    10030    2    1    2    0    0  0.00000000000E+00  0.00000000000E+00 -0.18479830613E+04  0.30269803040E+04  0.23974086773E+04 0.  0.
        1    1    3    3  502    0 -0.70150627250E+03  0.96887260228E+03 -0.82564665966E+03  0.14534502318E+04  0.50400001928E-02 0.  1.
       -1    1    3    3    0  502  0.70150627250E+03 -0.96887260228E+03 -0.10223364016E+04  0.15735300721E+04  0.50400001928E-02 0. -1.
</event>
<event>
 5   0  0.5510176E-07  0.2400492E+04  0.7818609E-02  0.8439319E-01
        1   -1    0    0  501    0  0.00000000000E+00  0.00000000000E+00  0.16518661308E+04  0.16518661308E+04  0.50400001928E-02 0.  1.
       -1   -1    0    0    0  501  0.00000000000E+00  0.00000000000E+00 -0.87209910512E+03  0.87209910513E+03  0.50400001928E-02 0. -1.
    10030    2    1    2    0    0  0.00000000000E+00  0.00000000000E+00  0.77976702571E+03  0.25239652360E+04  0.24004924282E+04 0.  0.
        3    1    3    3  502    0 -0.95933704484E+03  0.35144336061E+03 -0.27239707127E+03  0.10573741892E+04  0.10100000352E+00 0. -1.
       -3    1    3    3    0  502  0.95933704484E+03 -0.35144336061E+03  0.10521640970E+04  0.14665910468E+04  0.10100000352E+00 0.  1.
</event>
<event>
 5   0  0.1336057E-06  0.2399527E+04  0.7818609E-02  0.8439681E-01
        2   -1    0    0  501    0  0.00000000000E+00  0.00000000000E+00  0.57740289252E+03  0.57740289252E+03  0.25500000920E-02 0.  1.
       -2   -1    0    0    0  501  0.00000000000E+00  0.00000000000E+00 -0.24929436374E+04  0.24929436374E+04  0.25500000920E-02 0. -1.
    10030    2    1    2    0    0  0.00000000000E+00  0.00000000000E+00 -0.19155407449E+04  0.30703465299E+04  0.23995273427E+04 0.  0.
        2    1    3    3  502    0 -0.75884251096E+03  0.35028085323E+03 -0.20591569988E+04  0.22223109994E+04  0.25500000920E-02 0. -1.
       -2    1    3    3    0  502  0.75884251096E+03 -0.35028085323E+03  0.14361625390E+03  0.84803553049E+03  0.25500000920E-02 0.  1.
</event>
<event>
 5   0  0.1308662E-06  0.2402685E+04  0.7818609E-02  0.8438499E-01
        2   -1    0    0  501    0  0.00000000000E+00  0.00000000000E+00  0.19473290320E+04  0.19473290320E+04  0.25500000920E-02 0.  1.
       -2   -1    0    0    0  501  0.00000000000E+00  0.00000000000E+00 -0.74112974217E+03  0.74112974218E+03  0.25500000920E-02 0. -1.
    10030    2    1    2    0    0  0.00000000000E+00  0.00000000000E+00  0.12061992898E+04  0.26884587742E+04  0.24026847179E+04 0.  0.
        3    1    3    3  502    0 -0.56844317018E+03  0.33472328141E+03 -0.52033795450E+03  0.84018980590E+03  0.10100000352E+00 0. -1.
       -3    1    3    3    0  502  0.56844317018E+03 -0.33472328141E+03  0.17265372443E+04  0.18482689683E+04  0.10100000352E+00 0.  1.
</event>
<event>
 5   0  0.4483375E-07  0.2399617E+04  0.7818609E-02  0.8439647E-01
       -3   -1    0    0    0  501  0.00000000000E+00  0.00000000000E+00  0.13048963117E+04  0.13048963156E+04  0.10100000352E+00 0. -1.
        3   -1    0    0  501    0  0.00000000000E+00  0.00000000000E+00 -0.11031839161E+04  0.11031839208E+04  0.10100000352E+00 0.  1.
    10030    2    1    2    0    0  0.00000000000E+00  0.00000000000E+00  0.20171239551E+03  0.24080802363E+04  0.23996171641E+04 0.  0.
        5    1    3    3  502    0  0.74079562166E+03 -0.55164930570E+03  0.86933988313E+03  0.12684120119E+04  0.46999998093E+01 0. -1.
       -5    1    3    3    0  502 -0.74079562166E+03  0.55164930570E+03 -0.66762748762E+03  0.11396682244E+04  0.46999998093E+01 0.  1.
</event>
<event>
 5   0  0.5452384E-07  0.2401137E+04  0.7818609E-02  0.8439078E-01
        1   -1    0    0  501    0  0.00000000000E+00  0.00000000000E+00  0.13262617735E+04  0.13262617736E+04  0.50400001928E-02 0.  1.
       -1   -1    0    0    0  501  0.00000000000E+00  0.00000000000E+00 -0.10867872376E+04  0.10867872376E+04  0.50400001928E-02 0. -1.
    10030    2    1    2    0    0  0.00000000000E+00  0.00000000000E+00  0.23947453593E+03  0.24130490112E+04  0.24011367052E+04 0.  0.
        5    1    3    3  502    0  0.78055715980E+03  0.87327583456E+03  0.38460146811E+03  0.12328100187E+04  0.46999998093E+01 0.  1.
       -5    1    3    3    0  502 -0.78055715980E+03 -0.87327583456E+03 -0.14512693219E+03  0.11802389925E+04  0.46999998093E+01 0. -1.
</event>
<event>
 5   0  0.1291468E-06  0.2396887E+04  0.7818609E-02  0.8440670E-01
        2   -1    0    0  501    0  0.00000000000E+00  0.00000000000E+00  0.16974376321E+04  0.16974376321E+04  0.25500000920E-02 0. -1.
       -2   -1    0    0    0  501  0.00000000000E+00  0.00000000000E+00 -0.84613836506E+03  0.84613836506E+03  0.25500000920E-02 0.  1.
    10030    2    1    2    0    0  0.00000000000E+00  0.00000000000E+00  0.85129926707E+03  0.25435759972E+04  0.23968872338E+04 0.  0.
        4    1    3    3  502    0  0.71125316041E+03 -0.25743614147E+03 -0.56081586140E+03  0.94163181150E+03  0.12699999809E+01 0.  1.
       -4    1    3    3    0  502 -0.71125316041E+03  0.25743614147E+03  0.14121151285E+04  0.16019441857E+04  0.12699999809E+01 0. -1.
</event>
<event>
 5   0  0.1291468E-06  0.2398125E+04  0.7818609E-02  0.8440206E-01
       -2   -1    0    0    0  501  0.00000000000E+00  0.00000000000E+00  0.14728232198E+04  0.14728232198E+04  0.25500000920E-02 0. -1.
        2   -1    0    0  501    0  0.00000000000E+00  0.00000000000E+00 -0.97618717825E+03  0.97618717826E+03  0.25500000920E-02 0.  1.
    10030    2    1    2    0    0  0.00000000000E+00  0.00000000000E+00  0.49663604156E+03  0.24490103981E+04  0.23981252203E+04 0.  0.
        4    1    3    3  502    0  0.17229615964E+02 -0.10900931717E+04  0.75805814919E+03  0.13278756542E+04  0.12699999809E+01 0. -1.
       -4    1    3    3    0  502 -0.17229615964E+02  0.10900931717E+04 -0.26142210763E+03  0.11211347439E+04  0.12699999809E+01 0.  1.
</event>
<event>
 5   0  0.1336057E-06  0.2398788E+04  0.7818609E-02  0.8439958E-01
       -2   -1    0    0    0  501  0.00000000000E+00  0.00000000000E+00  0.10573982748E+04  0.10573982749E+04  0.25500000920E-02 0.  1.
        2   -1    0    0  501    0  0.00000000000E+00  0.00000000000E+00 -0.13604576691E+04  0.13604576691E+04  0.25500000920E-02 0. -1.
    10030    2    1    2    0    0  0.00000000000E+00  0.00000000000E+00 -0.30305939422E+03  0.24178559439E+04  0.23987876874E+04 0.  0.
        2    1    3    3  502    0  0.47923243013E+03  0.61111927054E+03 -0.10728057305E+04  0.13244027409E+04  0.25500000920E-02 0. -1.
       -2    1    3    3    0  502 -0.47923243013E+03 -0.61111927054E+03  0.76974633624E+03  0.10934532030E+04  0.25500000920E-02 0.  1.
</event>
<event>
 5   0  0.5452384E-07  0.2399599E+04  0.7818609E-02  0.8439654E-01
        1   -1    0    0  501    0  0.00000000000E+00  0.00000000000E+00  0.17127023334E+04  0.17127023334E+04  0.50400001928E-02 0. -1.
       -1   -1    0    0    0  501  0.00000000000E+00  0.00000000000E+00 -0.84049535432E+03  0.84049535434E+03  0.50400001928E-02 0.  1.
    10030    2    1    2    0    0  0.00000000000E+00  0.00000000000E+00  0.87220697912E+03  0.25531976878E+04  0.23995985953E+04 0.  0.
        5    1    3    3  502    0 -0.15348106058E+03  0.11873385330E+04  0.35254624419E+03  0.12480545549E+04  0.46999998093E+01 0. -1.
       -5    1    3    3    0  502  0.15348106058E+03 -0.11873385330E+04  0.51966073492E+03  0.13051431328E+04  0.46999998093E+01 0.  1.
</event>
<event>
 5   0  0.1308662E-06  0.2399703E+04  0.7818609E-02  0.8439615E-01
        2   -1    0    0  501    0  0.00000000000E+00  0.00000000000E+00  0.96621986263E+03  0.96621986263E+03  0.25500000920E-02 0. -1.
       -2   -1    0    0    0  501  0.00000000000E+00  0.00000000000E+00 -0.14899747901E+04  0.14899747901E+04  0.25500000920E-02 0.  1.
    10030    2    1    2    0    0  0.00000000000E+00  0.00000000000E+00 -0.52375492749E+03  0.24561946527E+04  0.23997026791E+04 0.  0.
        3    1    3    3  502    0 -0.99612995233E+03  0.22042744152E+03 -0.90823389972E+03  0.13659253148E+04  0.10100000352E+00 0.  1.
       -3    1    3    3    0  502  0.99612995233E+03 -0.22042744152E+03  0.38447897223E+03  0.10902693379E+04  0.10100000352E+00 0. -1.
</event>
<event>
 5   0  0.4483375E-07  0.2399204E+04  0.7818609E-02  0.8439802E-01
        3   -1    0    0  501    0  0.00000000000E+00  0.00000000000E+00  0.19884661923E+04  0.19884661949E+04  0.10100000352E+00 0. -1.
       -3   -1    0    0    0  501  0.00000000000E+00  0.00000000000E+00 -0.72369602290E+03  0.72369602994E+03  0.10100000352E+00 0.  1.
    10030    2    1    2    0    0  0.00000000000E+00  0.00000000000E+00  0.12647701694E+04  0.27121622248E+04  0.23992041081E+04 0.  0.
        4    1    3    3  502    0 -0.31831620516E+03  0.93737932350E+03 -0.13351640582E+03  0.99891613568E+03  0.12699999809E+01 0.  1.
       -4    1    3    3    0  502  0.31831620516E+03 -0.93737932350E+03  0.13982865752E+04  0.17132460891E+04  0.12699999809E+01 0. -1.
</event>
<event>
 5   0  0.5510176E-07  0.2398170E+04  0.7818609E-02  0.8440189E-01
        1   -1    0    0  501    0  0.00000000000E+00  0.00000000000E+00  0.14188966400E+04  0.14188966400E+04  0.50400001928E-02 0.  1.
       -1   -1    0    0    0  501  0.00000000000E+00  0.00000000000E+00 -0.10133261905E+04  0.10133261905E+04  0.50400001928E-02 0. -1.
    10030    2    1    2    0    0  0.00000000000E+00  0.00000000000E+00  0.40557044949E+03  0.24322228305E+04  0.23981702416E+04 0.  0.
        3    1    3    3  502    0 -0.22067538468E+03  0.43310069538E+03 -0.90892318683E+03  0.10307352752E+04  0.10100000352E+00 0. -1.
       -3    1    3    3    0  502  0.22067538468E+03 -0.43310069538E+03  0.13144936363E+04  0.14014875554E+04  0.10100000352E+00 0.  1.
</event>
<event>
 5   0  0.4483375E-07  0.2399589E+04  0.7818609E-02  0.8439658E-01
       -3   -1    0    0    0  501  0.00000000000E+00  0.00000000000E+00  0.58351005753E+03  0.58351006627E+03  0.10100000352E+00 0. -1.
        3   -1    0    0  501    0  0.00000000000E+00  0.00000000000E+00 -0.24669782157E+04  0.24669782177E+04  0.10100000352E+00 0.  1.
    10030    2    1    2    0    0  0.00000000000E+00  0.00000000000E+00 -0.18834681581E+04  0.30504882840E+04  0.23995888123E+04 0.  0.
        1    1    3    3  502    0 -0.42785241304E+03  0.75901074751E+03 -0.19903084604E+04  0.21726672018E+04  0.50400001928E-02 0.  1.
       -1    1    3    3    0  502  0.42785241304E+03 -0.75901074751E+03  0.10684030224E+03  0.87782108222E+03  0.50400001928E-02 0. -1.
</event>
<event>
 5   0  0.1291468E-06  0.2399867E+04  0.7818609E-02  0.8439553E-01
       -2   -1    0    0    0  501  0.00000000000E+00  0.00000000000E+00  0.14583745193E+04  0.14583745193E+04  0.25500000920E-02 0.  1.
        2   -1    0    0  501    0  0.00000000000E+00  0.00000000000E+00 -0.98729101135E+03  0.98729101135E+03  0.25500000920E-02 0. -1.
    10030    2    1    2    0    0  0.00000000000E+00  0.00000000000E+00  0.47108350791E+03  0.24456655306E+04  0.23998667080E+04 0.  0.
        4    1    3    3  502    0 -0.30282781863E+03 -0.20721227039E+03  0.13997963109E+04  0.14470911988E+04  0.12699999809E+01 0.  1.
       -4    1    3    3    0  502  0.30282781863E+03  0.20721227039E+03 -0.92871280301E+03  0.99857433179E+03  0.12699999809E+01 0. -1.
</event>
<event>
 5   0  0.5363690E-07  0.2395112E+04  0.7818609E-02  0.8441336E-01
       -1   -1    0    0    0  501  0.00000000000E+00  0.00000000000E+00  0.74702788203E+03  0.74702788205E+03  0.50400001928E-02 0.  1.
        1   -1    0    0  501    0  0.00000000000E+00  0.00000000000E+00 -0.19197946714E+04  0.19197946714E+04  0.50400001928E-02 0. -1.
    10030    2    1    2    0    0  0.00000000000E+00  0.00000000000E+00 -0.11727667894E+04  0.26668225535E+04  0.23951118115E+04 0.  0.
        4    1    3    3  502    0 -0.76477757795E+03  0.11260118033E+03 -0.16047888261E+04  0.17812671217E+04  0.12699999809E+01 0. -1.
       -4    1    3    3    0  502  0.76477757795E+03 -0.11260118033E+03  0.43202203676E+03  0.88555543175E+03  0.12699999809E+01 0.  1.
</event>
<event>
 5   0  0.5510176E-07  0.2399759E+04  0.7818609E-02  0.8439594E-01
       -1   -1    0    0    0  501  0.00000000000E+00  0.00000000000E+00  0.19006998627E+04  0.19006998627E+04  0.50400001928E-02 0.  1.
        1   -1    0    0  501    0  0.00000000000E+00  0.00000000000E+00 -0.75746335034E+03  0.75746335035E+03  0.50400001928E-02 0. -1.
    10030    2    1    2    0    0  0.00000000000E+00  0.00000000000E+00  0.11432365123E+04  0.26581632130E+04  0.23997587262E+04 0.  0.
        3    1    3    3  502    0  0.17932765151E+03  0.18951999970E+02 -0.74236817354E+03  0.76395556166E+03  0.10100000352E+00 0. -1.
       -3    1    3    3    0  502 -0.17932765151E+03 -0.18951999970E+02  0.18856046859E+04  0.18942076514E+04  0.10100000352E+00 0.  1.
</event>
<event>
 5   0  0.1336057E-06  0.2399715E+04  0.7818609E-02  0.8439610E-01
       -2   -1    0    0    0  501  0.00000000000E+00  0.00000000000E+00  0.76263287020E+03  0.76263287020E+03  0.25500000920E-02 0.  1.
        2   -1    0    0  501    0  0.00000000000E+00  0.00000000000E+00 -0.18877471671E+04  0.18877471671E+04  0.25500000920E-02 0. -1.
    10030    2    1    2    0    0  0.00000000000E+00  0.00000000000E+00 -0.11251142969E+04  0.26503800373E+04  0.23997150166E+04 0.  0.
        2    1    3    3  502    0 -0.23645255327E+03 -0.10994230682E+04 -0.10050735225E+03  0.11290450039E+04  0.25500000920E-02 0.  1.
       -2    1    3    3    0  502  0.23645255327E+03  0.10994230682E+04 -0.10246069447E+04  0.15213350334E+04  0.25500000920E-02 0. -1.
</event>
<event>
 5   0  0.5510176E-07  0.2398013E+04  0.7818609E-02  0.8440248E-01
       -1   -1    0    0    0  501  0.00000000000E+00  0.00000000000E+00  0.15047906454E+04  0.15047906454E+04  0.50400001928E-02 0. -1.
        1   -1    0    0  501    0  0.00000000000E+00  0.00000000000E+00 -0.95536006376E+03  0.95536006378E+03  0.50400001928E-02 0.  1.
    10030    2    1    2    0    0  0.00000000000E+00  0.00000000000E+00  0.54943058165E+03  0.24601507092E+04  0.23980132502E+04 0.  0.
        3    1    3    3  502    0 -0.22545666052E+03  0.67801636875E+03 -0.71308405574E+03  0.10094680692E+04  0.10100000352E+00 0.  1.
       -3    1    3    3    0  502  0.22545666052E+03 -0.67801636875E+03  0.12625146374E+04  0.14506826400E+04  0.10100000352E+00 0. -1.
</event>
<event>
 5   0  0.1291468E-06  0.2399724E+04  0.7818609E-02  0.8439607E-01
       -2   -1    0    0    0  501  0.00000000000E+00  0.00000000000E+00  0.93575410727E+03  0.93575410728E+03  0.25500000920E-02 0.  1.
        2   -1    0    0  501    0  0.00000000000E+00  0.00000000000E+00 -0.15385124822E+04  0.15385124822E+04  0.25500000920E-02 0. -1.
    10030    2    1    2    0    0  0.00000000000E+00  0.00000000000E+00 -0.60275837495E+03  0.24742665895E+04  0.23997244628E+04 0.  0.
        4    1    3    3  502    0 -0.62731710991E+03  0.86774788429E+03  0.25687691522E+03  0.11011360087E+04  0.12699999809E+01 0.  1.
       -4    1    3    3    0  502  0.62731710991E+03 -0.86774788429E+03 -0.85963529016E+03  0.13731305809E+04  0.12699999809E+01 0. -1.
</event>
<event>
 5   0  0.1275948E-06  0.2400252E+04  0.7818609E-02  0.8439409E-01
       -2   -1    0    0    0  501  0.00000000000E+00  0.00000000000E+00  0.16577467073E+04  0.16577467073E+04  0.25500000920E-02 0. -1.
        2   -1    0    0  501    0  0.00000000000E+00  0.00000000000E+00 -0.86883141349E+03  0.86883141349E+03  0.25500000920E-02 0.  1.
    10030    2    1    2    0    0  0.00000000000E+00  0.00000000000E+00  0.78891529378E+03  0.25265781208E+04  0.24002519992E+04 0.  0.
        1    1    3    3  502    0  0.67254957232E+03  0.96824343528E+03  0.15794554806E+03  0.11894389742E+04  0.50400001928E-02 0. -1.
       -1    1    3    3    0  502 -0.67254957232E+03 -0.96824343528E+03  0.63096974572E+03  0.13371391465E+04  0.50400001928E-02 0.  1.
</event>
<event>
 5   0  0.1308662E-06  0.2399947E+04  0.7818609E-02  0.8439523E-01
       -2   -1    0    0    0  501  0.00000000000E+00  0.00000000000E+00  0.14136572315E+04  0.14136572315E+04  0.25500000920E-02 0.  1.
        2   -1    0    0  501    0  0.00000000000E+00  0.00000000000E+00 -0.10185896918E+04  0.10185896918E+04  0.25500000920E-02 0. -1.
    10030    2    1    2    0    0  0.00000000000E+00  0.00000000000E+00  0.39506753978E+03  0.24322469233E+04  0.23999472359E+04 0.  0.
        3    1    3    3  502    0 -0.98417724794E+03 -0.54051939414E+03 -0.23144850350E+03  0.11464442816E+04  0.10100000352E+00 0. -1.
       -3    1    3    3    0  502  0.98417724794E+03  0.54051939414E+03  0.62651604328E+03  0.12858026417E+04  0.10100000352E+00 0.  1.
</event>
<event>
 5   0  0.1308662E-06  0.2400148E+04  0.7818609E-02  0.8439448E-01
        2   -1    0    0  501    0  0.00000000000E+00  0.00000000000E+00  0.16236727683E+04  0.16236727683E+04  0.25500000920E-02 0.  1.
       -2   -1    0    0    0  501  0.00000000000E+00  0.00000000000E+00 -0.88698775460E+03  0.88698775460E+03  0.25500000920E-02 0. -1.
    10030    2    1    2    0    0  0.00000000000E+00  0.00000000000E+00  0.73668501374E+03  0.25106605229E+04  0.24001482146E+04 0.  0.
        3    1    3    3  502    0 -0.92474258846E+01  0.22745446786E+03  0.16008809645E+04  0.16169851337E+04  0.10100000352E+00 0.  1.
       -3    1    3    3    0  502  0.92474258846E+01 -0.22745446786E+03 -0.86419595077E+03  0.89367538926E+03  0.10100000352E+00 0. -1.
</event>
<event>
 5   0  0.1307477E-06  0.2401398E+04  0.7818609E-02  0.8438980E-01
        2   -1    0    0  501    0  0.00000000000E+00  0.00000000000E+00  0.11337481157E+04  0.11337481157E+04  0.25500000920E-02 0.  1.
       -2   -1    0    0    0  501  0.00000000000E+00  0.00000000000E+00 -0.12716033694E+04  0.12716033694E+04  0.25500000920E-02 0. -1.
    10030    2    1    2    0    0  0.00000000000E+00  0.00000000000E+00 -0.13785525366E+03  0.24053514851E+04  0.24013978629E+04 0.  0.
        5    1    3    3  502    0 -0.92373647791E+02 -0.34258370306E+03  0.10800264216E+04  0.11368270079E+04  0.46999998093E+01 0.  1.
       -5    1    3    3    0  502  0.92373647791E+02  0.34258370306E+03 -0.12178816753E+04  0.12685244773E+04  0.46999998093E+01 0. -1.
</event>
<event>
 5   0  0.5510176E-07  0.2401128E+04  0.7818609E-02  0.8439081E-01
        1   -1    0    0  501    0  0.00000000000E+00  0.00000000000E+00  0.12041528529E+04  0.12041528529E+04  0.50400001928E-02 0.  1.
       -1   -1    0    0    0  501  0.00000000000E+00  0.00000000000E+00 -0.11969861163E+04  0.11969861163E+04  0.50400001928E-02 0. -1.
    10030    2    1    2    0    0  0.00000000000E+00  0.00000000000E+00  0.71667365505E+01  0.24011389692E+04  0.24011282738E+04 0.  0.
        3    1    3    3  502    0 -0.35081782408E+03  0.17291119157E+03 -0.11314912057E+04  0.11971816005E+04  0.10100000352E+00 0. -1.
       -3    1    3    3    0  502  0.35081782408E+03 -0.17291119157E+03  0.11386579423E+04  0.12039573687E+04  0.10100000352E+00 0.  1.
</event>
<event>
 5   0  0.5363690E-07  0.2400238E+04  0.7818609E-02  0.8439414E-01
       -1   -1    0    0    0  501  0.00000000000E+00  0.00000000000E+00  0.10816643337E+04  0.10816643338E+04  0.50400001928E-02 0.  1.
        1   -1    0    0  501    0  0.00000000000E+00  0.00000000000E+00 -0.13315463581E+04  0.13315463581E+04  0.50400001928E-02 0. -1.
    10030    2    1    2    0    0  0.00000000000E+00  0.00000000000E+00 -0.24988202440E+03  0.24132106919E+04  0.24002384918E+04 0.  0.
        4    1    3    3  502    0 -0.80505005667E+03  0.96664882447E+02 -0.10145024205E+04  0.12987172391E+04  0.12699999809E+01 0. -1.
       -4    1    3    3    0  502  0.80505005667E+03 -0.96664882447E+02  0.76462039606E+03  0.11144934527E+04  0.12699999809E+01 0.  1.
</event>
<event>
 5   0  0.1291468E-06  0.2396561E+04  0.7818609E-02  0.8440792E-01
       -2   -1    0    0    0  501  0.00000000000E+00  0.00000000000E+00  0.10151371995E+04  0.10151371995E+04  0.25500000920E-02 0.  1.
        2   -1    0    0  501    0  0.00000000000E+00  0.00000000000E+00 -0.14144647786E+04  0.14144647786E+04  0.25500000920E-02 0. -1.
    10030    2    1    2    0    0  0.00000000000E+00  0.00000000000E+00 -0.39932757910E+03  0.24296019780E+04  0.23965607141E+04 0.  0.
        4    1    3    3  502    0 -0.77305631235E+03 -0.82506847190E+03  0.20269617665E+03  0.11486694034E+04  0.12699999809E+01 0.  1.
       -4    1    3    3    0  502  0.77305631235E+03  0.82506847190E+03 -0.60202375576E+03  0.12809325746E+04  0.12699999809E+01 0. -1.
</event>
<event>
 5   0  0.5510176E-07  0.2398305E+04  0.7818609E-02  0.8440138E-01
       -1   -1    0    0    0  501  0.00000000000E+00  0.00000000000E+00  0.13076890861E+04  0.13076890861E+04  0.50400001928E-02 0. -1.
        1   -1    0    0  501    0  0.00000000000E+00  0.00000000000E+00 -0.10996245270E+04  0.10996245270E+04  0.50400001928E-02 0.  1.
    10030    2    1    2    0    0  0.00000000000E+00  0.00000000000E+00  0.20806455911E+03  0.24073136130E+04  0.23983052289E+04 0.  0.
        3    1    3    3  502    0  0.40597673177E+03  0.87596581885E+03  0.81792363495E+03  0.12653585679E+04  0.10100000352E+00 0.  1.
       -3    1    3    3    0  502 -0.40597673177E+03 -0.87596581885E+03 -0.60985907584E+03  0.11419550451E+04  0.10100000352E+00 0. -1.
</event>
<event>
 5   0  0.5690124E-07  0.2398817E+04  0.7818609E-02  0.8439947E-01
       -1   -1    0    0    0  501  0.00000000000E+00  0.00000000000E+00  0.11348297519E+04  0.11348297519E+04  0.50400001928E-02 0.  1.
        1   -1    0    0  501    0  0.00000000000E+00  0.00000000000E+00 -0.12676623711E+04  0.12676623711E+04  0.50400001928E-02 0. -1.
    10030    2    1    2    0    0  0.00000000000E+00  0.00000000000E+00 -0.13283261924E+03  0.24024921230E+04  0.23988171870E+04 0.  0.
        2    1    3    3  502    0 -0.10494679316E+04 -0.54063382948E+03  0.14583546115E+03  0.11895107645E+04  0.25500000920E-02 0. -1.
       -2    1    3    3    0  502  0.10494679316E+04  0.54063382948E+03 -0.27866808039E+03  0.12129813585E+04  0.25500000920E-02 0.  1.
</event>
<event>
 5   0  0.5510176E-07  0.2400690E+04  0.7818609E-02  0.8439245E-01
       -1   -1    0    0    0  501  0.00000000000E+00  0.00000000000E+00  0.77370864570E+03  0.77370864572E+03  0.50400001928E-02 0.  1.
        1   -1    0    0  501    0  0.00000000000E+00  0.00000000000E+00 -0.18622361455E+04  0.18622361455E+04  0.50400001928E-02 0. -1.
    10030    2    1    2    0    0  0.00000000000E+00  0.00000000000E+00 -0.10885274998E+04  0.26359447912E+04  0.24006900726E+04 0.  0.
        3    1    3    3  502    0 -0.77092100163E+03  0.81344112775E+03 -0.72224972487E+02  0.11230414578E+04  0.10100000352E+00 0.  1.
       -3    1    3    3    0  502  0.77092100163E+03 -0.81344112775E+03 -0.10163025273E+04  0.15129033334E+04  0.10100000352E+00 0. -1.
</event>
<event>
 5   0  0.5510176E-07  0.2400006E+04  0.7818609E-02  0.8439501E-01
        1   -1    0    0  501    0  0.00000000000E+00  0.00000000000E+00  0.20042120824E+04  0.20042120824E+04  0.50400001928E-02 0.  1.
       -1   -1    0    0    0  501  0.00000000000E+00  0.00000000000E+00 -0.71849037265E+03  0.71849037267E+03  0.50400001928E-02 0. -1.
    10030    2    1    2    0    0  0.00000000000E+00  0.00000000000E+00  0.12857217097E+04  0.27227024551E+04  0.24000059050E+04 0.  0.
        3    1    3    3  502    0 -0.39502251112E+03  0.40255253726E+03  0.18444831962E+04  0.19287844879E+04  0.10100000352E+00 0.  1.
       -3    1    3    3    0  502  0.39502251112E+03 -0.40255253726E+03 -0.55876148649E+03  0.79391796713E+03  0.10100000352E+00 0. -1.
</event>
<event>
 5   0  0.5452384E-07  0.2407480E+04  0.7818609E-02  0.8436709E-01
       -1   -1    0    0    0  501  0.00000000000E+00  0.00000000000E+00  0.80504598116E+03  0.80504598117E+03  0.50400001928E-02 0. -1.
        1   -1    0    0  501    0  0.00000000000E+00  0.00000000000E+00 -0.17998844816E+04  0.17998844816E+04  0.50400001928E-02 0.  1.
    10030    2    1    2    0    0  0.00000000000E+00  0.00000000000E+00 -0.99483850047E+03  0.26049304628E+04  0.24074798180E+04 0.  0.
        5    1    3    3  502    0  0.97432930604E+03 -0.63181237593E+03 -0.15446436722E+03  0.11714887134E+04  0.46999998093E+01 0.  1.
       -5    1    3    3    0  502 -0.97432930604E+03  0.63181237593E+03 -0.84037413326E+03  0.14334417494E+04  0.46999998093E+01 0. -1.
</event>
<event>
 5   0  0.5690124E-07  0.2400585E+04  0.7818609E-02  0.8439285E-01
       -1   -1    0    0    0  501  0.00000000000E+00  0.00000000000E+00  0.74780116589E+03  0.74780116590E+03  0.50400001928E-02 0. -1.
        1   -1    0    0  501    0  0.00000000000E+00  0.00000000000E+00 -0.19265842304E+04  0.19265842304E+04  0.50400001928E-02 0.  1.
    10030    2    1    2    0    0  0.00000000000E+00  0.00000000000E+00 -0.11787830645E+04  0.26743853963E+04  0.24005848735E+04 0.  0.
        2    1    3    3  502    0 -0.21460850336E+03 -0.85124361670E+03 -0.15013054961E+04  0.17391350429E+04  0.25500000920E-02 0.  1.
       -2    1    3    3    0  502  0.21460850336E+03  0.85124361670E+03  0.32252243161E+03  0.93525035342E+03  0.25500000920E-02 0. -1.
</event>
<event>
 5   0  0.5690124E-07  0.2399756E+04  0.7818609E-02  0.8439595E-01
       -1   -1    0    0    0  501  0.00000000000E+00  0.00000000000E+00  0.81501274321E+03  0.81501274323E+03  0.50400001928E-02 0. -1.
        1   -1    0    0  501    0  0.00000000000E+00  0.00000000000E+00 -0.17664839657E+04  0.17664839657E+04  0.50400001928E-02 0.  1.
    10030    2    1    2    0    0  0.00000000000E+00  0.00000000000E+00 -0.95147122244E+03  0.25814967089E+04  0.23997557732E+04 0.  0.
        2    1    3    3  502    0 -0.16680970902E+03  0.63744518131E+03 -0.15544471108E+04  0.16883328045E+04  0.25500000920E-02 0.  1.
       -2    1    3    3    0  502  0.16680970902E+03 -0.63744518131E+03  0.60297588839E+03  0.89316390444E+03  0.25500000920E-02 0. -1.
</event>
<event>
 5   0  0.1307477E-06  0.2400651E+04  0.7818609E-02  0.8439260E-01
        2   -1    0    0  501    0  0.00000000000E+00  0.00000000000E+00  0.13110956911E+04  0.13110956911E+04  0.25500000920E-02 0. -1.
       -2   -1    0    0    0  501  0.00000000000E+00  0.00000000000E+00 -0.10989139216E+04  0.10989139217E+04  0.25500000920E-02 0.  1.
    10030    2    1    2    0    0  0.00000000000E+00  0.00000000000E+00  0.21218176948E+03  0.24100096128E+04  0.24006510014E+04 0.  0.
        5    1    3    3  502    0 -0.97680295823E+03  0.40729813145E+03 -0.46244134651E+03  0.11549501617E+04  0.46999998093E+01 0.  1.
       -5    1    3    3    0  502  0.97680295823E+03 -0.40729813145E+03  0.67462311600E+03  0.12550594511E+04  0.46999998093E+01 0. -1.
</event>
<event>
 5   0  0.5510176E-07  0.2399718E+04  0.7818609E-02  0.8439609E-01
        1   -1    0    0  501    0  0.00000000000E+00  0.00000000000E+00  0.12549077153E+04  0.12549077153E+04  0.50400001928E-02 0. -1.
       -1   -1    0    0    0  501  0.00000000000E+00  0.00000000000E+00 -0.11472254107E+04  0.11472254107E+04  0.50400001928E-02 0.  1.
    10030    2    1    2    0    0  0.00000000000E+00  0.00000000000E+00  0.10768230462E+03  0.24021331261E+04  0.23997183328E+04 0.  0.
        3    1    3    3  502    0 -0.28923192273E+03  0.10261823985E+04  0.60480994911E+03  0.12257652732E+04  0.10100000352E+00 0.  1.
       -3    1    3    3    0  502  0.28923192273E+03 -0.10261823985E+04 -0.49712764450E+03  0.11763678529E+04  0.10100000352E+00 0. -1.
</event>
<event>
 5   0  0.1307477E-06  0.2400152E+04  0.7818609E-02  0.8439447E-01
       -2   -1    0    0    0  501  0.00000000000E+00  0.00000000000E+00  0.85056871451E+03  0.85056871451E+03  0.25500000920E-02 0.  1.
        2   -1    0    0  501    0  0.00000000000E+00  0.00000000000E+00 -0.16931988176E+04  0.16931988176E+04  0.25500000920E-02 0. -1.
    10030    2    1    2    0    0  0.00000000000E+00  0.00000000000E+00 -0.84263010306E+03  0.25437675321E+04  0.24001516133E+04 0.  0.
        5    1    3    3  502    0  0.89526494637E+03  0.61496112721E+03  0.11959956763E+03  0.10927042870E+04  0.46999998093E+01 0.  1.
       -5    1    3    3    0  502 -0.89526494637E+03 -0.61496112721E+03 -0.96222967068E+03  0.14510632451E+04  0.46999998093E+01 0. -1.
</event>
<event>
 5   0  0.5510176E-07  0.2397995E+04  0.7818609E-02  0.8440254E-01
       -1   -1    0    0    0  501  0.00000000000E+00  0.00000000000E+00  0.14700764366E+04  0.14700764366E+04  0.50400001928E-02 0.  1.
        1   -1    0    0  501    0  0.00000000000E+00  0.00000000000E+00 -0.97790516686E+03  0.97790516688E+03  0.50400001928E-02 0. -1.
    10030    2    1    2    0    0  0.00000000000E+00  0.00000000000E+00  0.49217126972E+03  0.24479816035E+04  0.23979952819E+04 0.  0.
        3    1    3    3  502    0 -0.35603512609E+03 -0.10879851187E+04  0.61006049292E+03  0.12971686262E+04  0.10100000352E+00 0.  1.
       -3    1    3    3    0  502  0.35603512609E+03  0.10879851187E+04 -0.11788922320E+03  0.11508129773E+04  0.10100000352E+00 0. -1.
</event>
<event>
 5   0  0.1291468E-06  0.2393739E+04  0.7818609E-02  0.8441851E-01
       -2   -1    0    0    0  501  0.00000000000E+00  0.00000000000E+00  0.96875098177E+03  0.96875098177E+03  0.25500000920E-02 0. -1.
        2   -1    0    0  501    0  0.00000000000E+00  0.00000000000E+00 -0.14787052081E+04  0.14787052082E+04  0.25500000920E-02 0.  1.
    10030    2    1    2    0    0  0.00000000000E+00  0.00000000000E+00 -0.50995422638E+03  0.24474561899E+04  0.23937394362E+04 0.  0.
        4    1    3    3  502    0 -0.95208623281E+03  0.61028707708E+03 -0.65566031821E+03  0.13072148167E+04  0.12699999809E+01 0.  1.
       -4    1    3    3    0  502  0.95208623281E+03 -0.61028707708E+03  0.14570609183E+03  0.11402413732E+04  0.12699999809E+01 0. -1.
</event>
<event>
 5   0  0.5363690E-07  0.2400948E+04  0.7818609E-02  0.8439149E-01
       -1   -1    0    0    0  501  0.00000000000E+00  0.00000000000E+00  0.12196160228E+04  0.12196160228E+04  0.50400001928E-02 0. -1.
        1   -1    0    0  501    0  0.00000000000E+00  0.00000000000E+00 -0.11816328637E+04  0.11816328637E+04  0.50400001928E-02 0.  1.
    10030    2    1    2    0    0  0.00000000000E+00  0.00000000000E+00  0.37983159076E+02  0.24012488866E+04  0.24009484573E+04 0.  0.
        4    1    3    3  502    0 -0.46246142650E+03  0.85411549327E+03  0.72459592249E+03  0.12117857528E+04  0.12699999809E+01 0. -1.
       -4    1    3    3    0  502  0.46246142650E+03 -0.85411549327E+03 -0.68661276341E+03  0.11894631338E+04  0.12699999809E+01 0.  1.
</event>
<event>
 5   0  0.1291468E-06  0.2400048E+04  0.7818609E-02  0.8439486E-01
        2   -1    0    0  501    0  0.00000000000E+00  0.00000000000E+00  0.14496281169E+04  0.14496281169E+04  0.25500000920E-02 0.  1.
       -2   -1    0    0    0  501  0.00000000000E+00  0.00000000000E+00 -0.99339803506E+03  0.99339803507E+03  0.25500000920E-02 0. -1.
    10030    2    1    2    0    0  0.00000000000E+00  0.00000000000E+00  0.45623008187E+03  0.24430261520E+04  0.24000481020E+04 0.  0.
        4    1    3    3  502    0  0.46419698095E+02  0.84673602956E+03  0.10924011954E+04  0.13829167281E+04  0.12699999809E+01 0.  1.
       -4    1    3    3    0  502 -0.46419698095E+02 -0.84673602956E+03 -0.63617111354E+03  0.10601094239E+04  0.12699999809E+01 0. -1.
</event>
<event>
 5   0  0.1336057E-06  0.2398774E+04  0.7818609E-02  0.8439963E-01
        2   -1    0    0  501    0  0.00000000000E+00  0.00000000000E+00  0.17244179860E+04  0.17244179860E+04  0.25500000920E-02 0. -1.
       -2   -1    0    0    0  501  0.00000000000E+00  0.00000000000E+00 -0.83421112441E+03  0.83421112442E+03  0.25500000920E-02 0.  1.
    10030    2    1    2    0    0  0.00000000000E+00  0.00000000000E+00  0.89020686163E+03  0.25586291105E+04  0.23987735759E+04 0.  0.
        2    1    3    3  502    0 -0.57761566498E+03  0.83690543453E+03 -0.23326493752E+03  0.10432943467E+04  0.25500000920E-02 0.  1.
       -2    1    3    3    0  502  0.57761566498E+03 -0.83690543453E+03  0.11234717991E+04  0.15153347638E+04  0.25500000920E-02 0. -1.
</event>
<event>
 5   0  0.5527286E-07  0.2397919E+04  0.7818609E-02  0.8440283E-01
        1   -1    0    0  501    0  0.00000000000E+00  0.00000000000E+00  0.99956696440E+03  0.99956696441E+03  0.50400001928E-02 0.  1.
       -1   -1    0    0    0  501  0.00000000000E+00  0.00000000000E+00 -0.14381266281E+04  0.14381266281E+04  0.50400001928E-02 0. -1.
    10030    2    1    2    0    0  0.00000000000E+00  0.00000000000E+00 -0.43855966374E+03  0.24376935926E+04  0.23979189879E+04 0.  0.
        1    1    3    3  502    0 -0.38768624061E+03 -0.33713046800E+03  0.88199248513E+03  0.10207195097E+04  0.50400001928E-02 0.  1.
       -1    1    3    3    0  502  0.38768624061E+03  0.33713046800E+03 -0.13205521489E+04  0.14169740829E+04  0.50400001928E-02 0. -1.
</event>
<event>
 5   0  0.4483375E-07  0.2399223E+04  0.7818609E-02  0.8439795E-01
       -3   -1    0    0    0  501  0.00000000000E+00  0.00000000000E+00  0.14399930255E+04  0.14399930291E+04  0.10100000352E+00 0. -1.
        3   -1    0    0  501    0  0.00000000000E+00  0.00000000000E+00 -0.99935733393E+03  0.99935733903E+03  0.10100000352E+00 0.  1.
    10030    2    1    2    0    0  0.00000000000E+00  0.00000000000E+00  0.44063569161E+03  0.24393503681E+04  0.23992228754E+04 0.  0.
        1    1    3    3  502    0 -0.10534394645E+04 -0.52452950678E+03  0.45702425320E+03  0.12624329990E+04  0.50400001928E-02 0. -1.
       -1    1    3    3    0  502  0.10534394645E+04  0.52452950678E+03 -0.16388561585E+02  0.11769173692E+04  0.50400001928E-02 0.  1.
</event>
<event>
 5   0  0.5527286E-07  0.2398762E+04  0.7818609E-02  0.8439967E-01
       -1   -1    0    0    0  501  0.00000000000E+00  0.00000000000E+00  0.10248671517E+04  0.10248671518E+04  0.50400001928E-02 0.  1.
        1   -1    0    0  501    0  0.00000000000E+00  0.00000000000E+00 -0.14036105618E+04  0.14036105619E+04  0.50400001928E-02 0. -1.
    10030    2    1    2    0    0  0.00000000000E+00  0.00000000000E+00 -0.37874341010E+03  0.24284777136E+04  0.23987616461E+04 0.  0.
        1    1    3    3  502    0 -0.41433378143E+03 -0.68917859721E+03  0.71152556334E+03  0.10737356512E+04  0.50400001928E-02 0.  1.
       -1    1    3    3    0  502  0.41433378143E+03  0.68917859721E+03 -0.10902689734E+04  0.13547420624E+04  0.50400001928E-02 0. -1.
</event>
<event>
 5   0  0.1307477E-06  0.2400085E+04  0.7818609E-02  0.8439472E-01
       -2   -1    0    0    0  501  0.00000000000E+00  0.00000000000E+00  0.55237301440E+03  0.55237301441E+03  0.25500000920E-02 0. -1.
        2   -1    0    0  501    0  0.00000000000E+00  0.00000000000E+00 -0.26071187962E+04  0.26071187962E+04  0.25500000920E-02 0.  1.
    10030    2    1    2    0    0  0.00000000000E+00  0.00000000000E+00 -0.20547457818E+04  0.31594918106E+04  0.24000850555E+04 0.  0.
        5    1    3    3  502    0 -0.27699829731E+03 -0.53116669693E+03 -0.23961930852E+04  0.24699452439E+04  0.46999998093E+01 0.  1.
       -5    1    3    3    0  502  0.27699829731E+03  0.53116669693E+03  0.34144730337E+03  0.68954656668E+03  0.46999998093E+01 0. -1.
</event>
<event>
 5   0  0.1308662E-06  0.2400610E+04  0.7818609E-02  0.8439275E-01
        2   -1    0    0  501    0  0.00000000000E+00  0.00000000000E+00  0.12219938457E+04  0.12219938457E+04  0.25500000920E-02 0. -1.
       -2   -1    0    0    0  501  0.00000000000E+00  0.00000000000E+00 -0.11790010585E+04  0.11790010585E+04  0.25500000920E-02 0.  1.
    10030    2    1    2    0    0  0.00000000000E+00  0.00000000000E+00  0.42992787221E+02  0.24009949042E+04  0.24006099538E+04 0.  0.
        3    1    3    3  502    0 -0.43577706742E+02 -0.70675919780E+02 -0.11761253367E+04  0.11790525518E+04  0.10100000352E+00 0.  1.
       -3    1    3    3    0  502  0.43577706742E+02  0.70675919780E+02  0.12191181239E+04  0.12219423523E+04  0.10100000352E+00 0. -1.
</event>
<event>
 5   0  0.1307477E-06  0.2400086E+04  0.7818609E-02  0.8439471E-01
       -2   -1    0    0    0  501  0.00000000000E+00  0.00000000000E+00  0.90277840601E+03  0.90277840602E+03  0.25500000920E-02 0. -1.
        2   -1    0    0  501    0  0.00000000000E+00  0.00000000000E+00 -0.15951901551E+04  0.15951901551E+04  0.25500000920E-02 0.  1.
    10030    2    1    2    0    0  0.00000000000E+00  0.00000000000E+00 -0.69241174907E+03  0.24979685611E+04  0.24000860197E+04 0.  0.
        5    1    3    3  502    0 -0.53452703275E+03 -0.93880271395E+03  0.19760838669E+03  0.10982444395E+04  0.46999998093E+01 0. -1.
       -5    1    3    3    0  502  0.53452703275E+03  0.93880271395E+03 -0.89002013576E+03  0.13997241216E+04  0.46999998093E+01 0.  1.
</event>
<event>
 5   0  0.5690124E-07  0.2398446E+04  0.7818609E-02  0.8440086E-01
       -1   -1    0    0    0  501  0.00000000000E+00  0.00000000000E+00  0.84702092569E+03  0.84702092571E+03  0.50400001928E-02 0.  1.
        1   -1    0    0  501    0  0.00000000000E+00  0.00000000000E+00 -0.16978744810E+04  0.16978744810E+04  0.50400001928E-02 0. -1.
    10030    2    1    2    0    0  0.00000000000E+00  0.00000000000E+00 -0.85085355529E+03  0.25448954067E+04  0.23984455088E+04 0.  0.
        2    1    3    3  502    0  0.39716544809E+03 -0.76117550470E+03  0.46295810104E+03  0.97542746806E+03  0.25500000920E-02 0.  1.
       -2    1    3    3    0  502 -0.39716544809E+03  0.76117550470E+03 -0.13138116563E+04  0.15694679386E+04  0.25500000920E-02 0. -1.
</event>
<event>
 5   0  0.1291468E-06  0.2400326E+04  0.7818609E-02  0.8439381E-01
        2   -1    0    0  501    0  0.00000000000E+00  0.00000000000E+00  0.85326392291E+03  0.85326392292E+03  0.25500000920E-02 0.  1.
       -2   -1    0    0    0  501  0.00000000000E+00  0.00000000000E+00 -0.16880960231E+04  0.16880960231E+04  0.25500000920E-02 0. -1.
    10030    2    1    2    0    0  0.00000000000E+00  0.00000000000E+00 -0.83483210020E+03  0.25413599460E+04  0.24003261736E+04 0.  0.
        4    1    3    3  502    0 -0.29703169824E+03  0.48238865068E+03  0.70279751480E+03  0.90269186314E+03  0.12699999809E+01 0.  1.
       -4    1    3    3    0  502  0.29703169824E+03 -0.48238865068E+03 -0.15376296150E+04  0.16386680829E+04  0.12699999809E+01 0. -1.
</event>
<event>
 5   0  0.5527286E-07  0.2397977E+04  0.7818609E-02  0.8440261E-01
       -1   -1    0    0    0  501  0.00000000000E+00  0.00000000000E+00  0.62142562547E+03  0.62142562549E+03  0.50400001928E-02 0. -1.
        1   -1    0    0  501    0  0.00000000000E+00  0.00000000000E+00 -0.23133469548E+04  0.23133469548E+04  0.50400001928E-02 0.  1.
    10030    2    1    2    0    0  0.00000000000E+00  0.00000000000E+00 -0.16919213293E+04  0.29347725803E+04  0.23979767124E+04 0.  0.
        1    1    3    3  502    0  0.70103115930E+03 -0.95357167755E+03 -0.61109090942E+03  0.13319818806E+04  0.50400001928E-02 0. -1.
       -1    1    3    3    0  502 -0.70103115930E+03  0.95357167755E+03 -0.10808304199E+04  0.16027906997E+04  0.50400001928E-02 0.  1.
</event>
<event>
 5   0  0.1308662E-06  0.2399471E+04  0.7818609E-02  0.8439702E-01
       -2   -1    0    0    0  501  0.00000000000E+00  0.00000000000E+00  0.82452688016E+03  0.82452688017E+03  0.25500000920E-02 0.  1.
        2   -1    0    0  501    0  0.00000000000E+00  0.00000000000E+00 -0.17456859210E+04  0.17456859210E+04  0.25500000920E-02 0. -1.
    10030    2    1    2    0    0  0.00000000000E+00  0.00000000000E+00 -0.92115904081E+03  0.25702128011E+04  0.23994707468E+04 0.  0.
        3    1    3    3  502    0 -0.91135012132E+03  0.30157947352E+03 -0.12314084706E+04  0.15613699287E+04  0.10100000352E+00 0. -1.
       -3    1    3    3    0  502  0.91135012132E+03 -0.30157947352E+03  0.31024942978E+03  0.10088428725E+04  0.10100000352E+00 0.  1.
</event>
<event>
 5   0  0.5527286E-07  0.2399807E+04  0.7818609E-02  0.8439576E-01
       -1   -1    0    0    0  501  0.00000000000E+00  0.00000000000E+00  0.10916587522E+04  0.10916587522E+04  0.50400001928E-02 0.  1.
        1   -1    0    0  501    0  0.00000000000E+00  0.00000000000E+00 -0.13188812337E+04  0.13188812337E+04  0.50400001928E-02 0. -1.
    10030    2    1    2    0    0  0.00000000000E+00  0.00000000000E+00 -0.22722248153E+03  0.24105399860E+04  0.23998068605E+04 0.  0.
        1    1    3    3  502    0 -0.10363282288E+04 -0.59888913416E+03 -0.28830852152E+02  0.11972784183E+04  0.50400001928E-02 0. -1.
       -1    1    3    3    0  502  0.10363282288E+04  0.59888913416E+03 -0.19839162938E+03  0.12132615676E+04  0.50400001928E-02 0.  1.
</event>
<event>
 5   0  0.1307477E-06  0.2396684E+04  0.7818609E-02  0.8440746E-01
       -2   -1    0    0    0  501  0.00000000000E+00  0.00000000000E+00  0.89670558990E+03  0.89670558990E+03  0.25500000920E-02 0.  1.
        2   -1    0    0  501    0  0.00000000000E+00  0.00000000000E+00 -0.16014433407E+04  0.16014433407E+04  0.25500000920E-02 0. -1.
    10030    2    1    2    0    0  0.00000000000E+00  0.00000000000E+00 -0.70473775078E+03  0.24981489306E+04  0.23966837050E+04 0.  0.
        5    1    3    3  502    0 -0.90058535866E+03  0.75173445901E+03 -0.60735243410E+03  0.13210063415E+04  0.46999998093E+01 0. -1.
       -5    1    3    3    0  502  0.90058535866E+03 -0.75173445901E+03 -0.97385316677E+02  0.11771425891E+04  0.46999998093E+01 0.  1.
</event>
<event>
 5   0  0.4483375E-07  0.2401366E+04  0.7818609E-02  0.8438992E-01
       -3   -1    0    0    0  501  0.00000000000E+00  0.00000000000E+00  0.11073206294E+04  0.11073206340E+04  0.10100000352E+00 0. -1.
        3   -1    0    0  501    0  0.00000000000E+00  0.00000000000E+00 -0.13019168826E+04  0.13019168865E+04  0.10100000352E+00 0.  1.
    10030    2    1    2    0    0  0.00000000000E+00  0.00000000000E+00 -0.19459625320E+03  0.24092375206E+04  0.24013658048E+04 0.  0.
        5    1    3    3  502    0 -0.97941337700E+03  0.40583294239E+03 -0.66276470084E+03  0.12502919974E+04  0.46999998093E+01 0. -1.
       -5    1    3    3    0  502  0.97941337700E+03 -0.40583294239E+03  0.46816844764E+03  0.11589455231E+04  0.46999998093E+01 0.  1.
</event>
<event>
 5   0  0.5363690E-07  0.2399808E+04  0.7818609E-02  0.8439575E-01
        1   -1    0    0  501    0  0.00000000000E+00  0.00000000000E+00  0.82561566830E+03  0.82561566832E+03  0.50400001928E-02 0. -1.
       -1   -1    0    0    0  501  0.00000000000E+00  0.00000000000E+00 -0.17438738879E+04  0.17438738879E+04  0.50400001928E-02 0.  1.
    10030    2    1    2    0    0  0.00000000000E+00  0.00000000000E+00 -0.91825821960E+03  0.25694895562E+04  0.23998079968E+04 0.  0.
        4    1    3    3  502    0 -0.62960047689E+03  0.64948519429E+03 -0.13032506395E+04  0.15864084027E+04  0.12699999809E+01 0.  1.
       -4    1    3    3    0  502  0.62960047689E+03 -0.64948519429E+03  0.38499241986E+03  0.98308115349E+03  0.12699999809E+01 0. -1.
</event>
<event>
 5   0  0.1336057E-06  0.2400519E+04  0.7818609E-02  0.8439309E-01
       -2   -1    0    0    0  501  0.00000000000E+00  0.00000000000E+00  0.15868057096E+04  0.15868057096E+04  0.25500000920E-02 0. -1.
        2   -1    0    0  501    0  0.00000000000E+00  0.00000000000E+00 -0.90787583558E+03  0.90787583559E+03  0.25500000920E-02 0.  1.
    10030    2    1    2    0    0  0.00000000000E+00  0.00000000000E+00  0.67892987404E+03  0.24946815452E+04  0.24005187436E+04 0.  0.
        2    1    3    3  502    0 -0.31057477907E+03 -0.11329742338E+04  0.59515519957E+03  0.13169271124E+04  0.25500000920E-02 0.  1.
       -2    1    3    3    0  502  0.31057477907E+03  0.11329742338E+04  0.83774674466E+02  0.11777544328E+04  0.25500000920E-02 0. -1.
</event>
<event>
 5   0  0.1308662E-06  0.2401007E+04  0.7818609E-02  0.8439127E-01
        2   -1    0    0  501    0  0.00000000000E+00  0.00000000000E+00  0.17509772638E+04  0.17509772638E+04  0.25500000920E-02 0. -1.
       -2   -1    0    0    0  501  0.00000000000E+00  0.00000000000E+00 -0.82308815886E+03  0.82308815886E+03  0.25500000920E-02 0.  1.
    10030    2    1    2    0    0  0.00000000000E+00  0.00000000000E+00  0.92788910496E+03  0.25740654227E+04  0.24010069990E+04 0.  0.
        3    1    3    3  502    0 -0.40903074708E+02  0.98287375798E+03 -0.27376217109E+03  0.10211070572E+04  0.10100000352E+00 0.  1.
       -3    1    3    3    0  502  0.40903074708E+02 -0.98287375798E+03  0.12016512760E+04  0.15529583655E+04  0.10100000352E+00 0. -1.
</event>
<event>
 5   0  0.5452384E-07  0.2404206E+04  0.7818609E-02  0.8437931E-01
       -1   -1    0    0    0  501  0.00000000000E+00  0.00000000000E+00  0.90204716765E+03  0.90204716766E+03  0.50400001928E-02 0. -1.
        1   -1    0    0  501    0  0.00000000000E+00  0.00000000000E+00 -0.16019690523E+04  0.16019690523E+04  0.50400001928E-02 0.  1.
    10030    2    1    2    0    0  0.00000000000E+00  0.00000000000E+00 -0.69992188469E+03  0.25040162200E+04  0.24042060198E+04 0.  0.
        5    1    3    3  502    0 -0.22706909297E+03  0.80150350066E+03  0.55265532464E+03  0.99970907388E+03  0.46999998093E+01 0. -1.
       -5    1    3    3    0  502  0.22706909297E+03 -0.80150350066E+03 -0.12525772093E+04  0.15043071461E+04  0.46999998093E+01 0.  1.
</event>
<event>
 5   0  0.4483375E-07  0.2399944E+04  0.7818609E-02  0.8439524E-01
       -4   -1    0    0    0  501  0.00000000000E+00  0.00000000000E+00  0.16195491375E+04  0.16195496354E+04  0.12699999809E+01 0. -1.
        4   -1    0    0  501    0  0.00000000000E+00  0.00000000000E+00 -0.88909383076E+03  0.88909473780E+03  0.12699999809E+01 0.  1.
    10030    2    1    2    0    0  0.00000000000E+00  0.00000000000E+00  0.73045530675E+03  0.25086443732E+04  0.23999440902E+04 0.  0.
        3    1    3    3  502    0 -0.82216841268E+02 -0.84698112045E+03 -0.51913967819E+03  0.99681625341E+03  0.10100000352E+00 0.  1.
       -3    1    3    3    0  502  0.82216841268E+02  0.84698112045E+03  0.12495949849E+04  0.15118281198E+04  0.10100000352E+00 0. -1.
</event>
<event>
 5   0  0.1291468E-06  0.2399152E+04  0.7818609E-02  0.8439821E-01
        2   -1    0    0  501    0  0.00000000000E+00  0.00000000000E+00  0.22232275759E+04  0.22232275759E+04  0.25500000920E-02 0.  1.
       -2   -1    0    0    0  501  0.00000000000E+00  0.00000000000E+00 -0.64724912218E+03  0.64724912218E+03  0.25500000920E-02 0. -1.
    10030    2    1    2    0    0  0.00000000000E+00  0.00000000000E+00  0.15759784537E+04  0.28704766981E+04  0.23991515975E+04 0.  0.
        4    1    3    3  502    0  0.22905486306E+03 -0.22579508515E+03 -0.59469596098E+03  0.67610239585E+03  0.12699999809E+01 0. -1.
       -4    1    3    3    0  502 -0.22905486306E+03  0.22579508515E+03  0.21706744147E+04  0.21943743022E+04  0.12699999809E+01 0.  1.
</event>
<event>
 5   0  0.1336057E-06  0.2400963E+04  0.7818609E-02  0.8439143E-01
       -2   -1    0    0    0  501  0.00000000000E+00  0.00000000000E+00  0.11944706314E+04  0.11944706314E+04  0.25500000920E-02 0.  1.
        2   -1    0    0  501    0  0.00000000000E+00  0.00000000000E+00 -0.12065226802E+04  0.12065226802E+04  0.25500000920E-02 0. -1.
    10030    2    1    2    0    0  0.00000000000E+00  0.00000000000E+00 -0.12052048758E+02  0.24009933116E+04  0.24009630631E+04 0.  0.
        2    1    3    3  502    0  0.14904978612E+03 -0.60001564525E+03 -0.10350780037E+04  0.12056620949E+04  0.25500000920E-02 0. -1.
       -2    1    3    3    0  502 -0.14904978612E+03  0.60001564525E+03  0.10230259549E+04  0.11953312167E+04  0.25500000920E-02 0.  1.
</event>
<event>
 5   0  0.5690124E-07  0.2397633E+04  0.7818609E-02  0.8440390E-01
        1   -1    0    0  501    0  0.00000000000E+00  0.00000000000E+00  0.13303897462E+04  0.13303897462E+04  0.50400001928E-02 0.  1.
       -1   -1    0    0    0  501  0.00000000000E+00  0.00000000000E+00 -0.10802555393E+04  0.10802555394E+04  0.50400001928E-02 0. -1.
    10030    2    1    2    0    0  0.00000000000E+00  0.00000000000E+00  0.25013420689E+03  0.24106452856E+04  0.23976329101E+04 0.  0.
        2    1    3    3  502    0 -0.78338509599E+03  0.52543869643E+03  0.86893568686E+03  0.12825081911E+04  0.25500000920E-02 0.  1.
       -2    1    3    3    0  502  0.78338509599E+03 -0.52543869643E+03 -0.61880147998E+03  0.11281370945E+04  0.25500000920E-02 0. -1.
</event>
<event>
 5   0  0.1291468E-06  0.2398934E+04  0.7818609E-02  0.8439903E-01
        2   -1    0    0  501    0  0.00000000000E+00  0.00000000000E+00  0.21237404379E+04  0.21237404379E+04  0.25500000920E-02 0. -1.
       -2   -1    0    0    0  501  0.00000000000E+00  0.00000000000E+00 -0.67744677472E+03  0.67744677473E+03  0.25500000920E-02 0.  1.
    10030    2    1    2    0    0  0.00000000000E+00  0.00000000000E+00  0.14462936632E+04  0.28011872126E+04  0.23989340216E+04 0.  0.
        4    1    3    3  502    0  0.22044086677E+03  0.97869987449E+03 -0.44572227653E+02  0.10042091000E+04  0.12699999809E+01 0.  1.
       -4    1    3    3    0  502 -0.22044086677E+03 -0.97869987449E+03  0.14908658908E+04  0.17969781127E+04  0.12699999809E+01 0. -1.
</event>
<event>
 5   0  0.1307477E-06  0.2400213E+04  0.7818609E-02  0.8439424E-01
       -2   -1    0    0    0  501  0.00000000000E+00  0.00000000000E+00  0.91700660190E+03  0.91700660191E+03  0.25500000920E-02 0.  1.
        2   -1    0    0  501    0  0.00000000000E+00  0.00000000000E+00 -0.15706052577E+04  0.15706052577E+04  0.25500000920E-02 0. -1.
    10030    2    1    2    0    0  0.00000000000E+00  0.00000000000E+00 -0.65359865575E+03  0.24876118596E+04  0.24002128158E+04 0.  0.
        5    1    3    3  502    0 -0.39648246835E+03 -0.23916725644E+03  0.82069010672E+03  0.94231293398E+03  0.46999998093E+01 0.  1.
       -5    1    3    3    0  502  0.39648246835E+03  0.23916725644E+03 -0.14742887625E+04  0.15452989256E+04  0.46999998093E+01 0. -1.
</event>
<event>
 5   0  0.1291468E-06  0.2400828E+04  0.7818609E-02  0.8439194E-01
       -2   -1    0    0    0  501  0.00000000000E+00  0.00000000000E+00  0.81334391871E+03  0.81334391871E+03  0.25500000920E-02 0. -1.
        2   -1    0    0  501    0  0.00000000000E+00  0.00000000000E+00 -0.17716910205E+04  0.17716910205E+04  0.25500000920E-02 0.  1.
    10030    2    1    2    0    0  0.00000000000E+00  0.00000000000E+00 -0.95834710179E+03  0.25850349392E+04  0.24008282882E+04 0.  0.
        4    1    3    3  502    0 -0.10292010431E+04  0.22613967976E+03  0.13991931329E+03  0.10630018669E+04  0.12699999809E+01 0. -1.
       -4    1    3    3    0  502  0.10292010431E+04 -0.22613967976E+03 -0.10982664151E+04  0.15220330723E+04  0.12699999809E+01 0.  1.
</event>
<event>
 5   0  0.1336057E-06  0.2399579E+04  0.7818609E-02  0.8439661E-01
       -2   -1    0    0    0  501  0.00000000000E+00  0.00000000000E+00  0.79140216966E+03  0.79140216967E+03  0.25500000920E-02 0.  1.
        2   -1    0    0  501    0  0.00000000000E+00  0.00000000000E+00 -0.18189171492E+04  0.18189171492E+04  0.25500000920E-02 0. -1.
    10030    2    1    2    0    0  0.00000000000E+00  0.00000000000E+00 -0.10275149796E+04  0.26103193189E+04  0.23995791117E+04 0.  0.
        2    1    3    3  502    0  0.10682747161E+04 -0.41297949868E+03 -0.90254158845E+03  0.14581989763E+04  0.25500000920E-02 0. -1.
       -2    1    3    3    0  502 -0.10682747161E+04  0.41297949868E+03 -0.12497339112E+03  0.11521203427E+04  0.25500000920E-02 0.  1.
</event>
<event>
 5   0  0.1307477E-06  0.2399504E+04  0.7818609E-02  0.8439689E-01
       -2   -1    0    0    0  501  0.00000000000E+00  0.00000000000E+00  0.16134634724E+04  0.16134634724E+04  0.25500000920E-02 0.  1.
        2   -1    0    0  501    0  0.00000000000E+00  0.00000000000E+00 -0.89212095970E+03  0.89212095970E+03  0.25500000920E-02 0. -1.
    10030    2    1    2    0    0  0.00000000000E+00  0.00000000000E+00  0.72134251270E+03  0.25055844321E+04  0.23995037666E+04 0.  0.
        5    1    3    3  502    0 -0.53193777148E+03 -0.43758293755E+03  0.13864154852E+04  0.15480977384E+04  0.46999998093E+01 0.  1.
       -5    1    3    3    0  502  0.53193777148E+03  0.43758293755E+03 -0.66507297249E+03  0.95748669374E+03  0.46999998093E+01 0. -1.
</event>
<event>
 5   0  0.5527286E-07  0.2399326E+04  0.7818609E-02  0.8439756E-01
       -1   -1    0    0    0  501  0.00000000000E+00  0.00000000000E+00  0.17542573672E+04  0.17542573672E+04  0.50400001928E-02 0.  1.
        1   -1    0    0  501    0  0.00000000000E+00  0.00000000000E+00 -0.82039906297E+03  0.82039906298E+03  0.50400001928E-02 0. -1.
    10030    2    1    2    0    0  0.00000000000E+00  0.00000000000E+00  0.93385830425E+03  0.25746564302E+04  0.23993258222E+04 0.  0.
        1    1    3    3  502    0  0.24167924595E+01 -0.42703594393E+03  0.16699345006E+04  0.17236724673E+04  0.50400001928E-02 0.  1.
       -1    1    3    3    0  502 -0.24167924595E+01  0.42703594393E+03 -0.73607619633E+03  0.85098396290E+03  0.50400001928E-02 0. -1.
</event>
<event>
 5   0  0.1308662E-06  0.2400920E+04  0.7818609E-02  0.8439159E-01
       -2   -1    0    0    0  501  0.00000000000E+00  0.00000000000E+00  0.87353092679E+03  0.87353092679E+03  0.25500000920E-02 0.  1.
        2   -1    0    0  501    0  0.00000000000E+00  0.00000000000E+00 -0.16497454846E+04  0.16497454846E+04  0.25500000920E-02 0. -1.
    10030    2    1    2    0    0  0.00000000000E+00  0.00000000000E+00 -0.77621455784E+03  0.25232764114E+04  0.24009195756E+04 0.  0.
        3    1    3    3  502    0  0.91695311325E+03 -0.66155150932E+03  0.35745098559E+02  0.11312520204E+04  0.10100000352E+00 0.  1.
       -3    1    3    3    0  502 -0.91695311325E+03  0.66155150932E+03 -0.81195965640E+03  0.13920243910E+04  0.10100000352E+00 0. -1.
</event>
<event>
 5   0  0.5527286E-07  0.2398115E+04  0.7818609E-02  0.8440209E-01
       -1   -1    0    0    0  501  0.00000000000E+00  0.00000000000E+00  0.17696455846E+04  0.17696455846E+04  0.50400001928E-02 0. -1.
        1   -1    0    0  501    0  0.00000000000E+00  0.00000000000E+00 -0.81244483660E+03  0.81244483661E+03  0.50400001928E-02 0.  1.
    10030    2    1    2    0    0  0.00000000000E+00  0.00000000000E+00  0.95720074799E+03  0.25820904212E+04  0.23981154416E+04 0.  0.
        1    1    3    3  502    0  0.10577604134E+04  0.95702925922E+02 -0.12062236152E+03  0.10689087409E+04  0.50400001928E-02 0.  1.
       -1    1    3    3    0  502 -0.10577604134E+04 -0.95702925922E+02  0.10778231095E+04  0.15131816803E+04  0.50400001928E-02 0. -1.
</event>
<event>
 5   0  0.1336057E-06  0.2401954E+04  0.7818609E-02  0.8438772E-01
        2   -1    0    0  501    0  0.00000000000E+00  0.00000000000E+00  0.18976436884E+04  0.18976436884E+04  0.25500000920E-02 0.  1.
       -2   -1    0    0    0  501  0.00000000000E+00  0.00000000000E+00 -0.76007178261E+03  0.76007178262E+03  0.25500000920E-02 0. -1.
    10030    2    1    2    0    0  0.00000000000E+00  0.00000000000E+00  0.11375719058E+04  0.26577154711E+04  0.24019537223E+04 0.  0.
        2    1    3    3  502    0  0.11219163744E+04 -0.19920919234E+03  0.98861449326E+03  0.15085553585E+04  0.25500000920E-02 0. -1.
       -2    1    3    3    0  502 -0.11219163744E+04  0.19920919234E+03  0.14895741258E+03  0.11491601125E+04  0.25500000920E-02 0.  1.
</event>
<event>
 5   0  0.1307477E-06  0.2400529E+04  0.7818609E-02  0.8439306E-01
       -2   -1    0    0    0  501  0.00000000000E+00  0.00000000000E+00  0.90711551720E+03  0.90711551720E+03  0.25500000920E-02 0. -1.
        2   -1    0    0  501    0  0.00000000000E+00  0.00000000000E+00 -0.15881486956E+04  0.15881486956E+04  0.25500000920E-02 0.  1.
    10030    2    1    2    0    0  0.00000000000E+00  0.00000000000E+00 -0.68103317836E+03  0.24952642128E+04  0.24005285463E+04 0.  0.
        5    1    3    3  502    0  0.19063905977E+03  0.85149701559E+02 -0.15691172477E+04  0.15829544370E+04  0.46999998093E+01 0.  1.
       -5    1    3    3    0  502 -0.19063905977E+03 -0.85149701559E+02  0.88808406930E+03  0.91230977575E+03  0.46999998093E+01 0. -1.
</event>
<event>
 5   0  0.5510176E-07  0.2400291E+04  0.7818609E-02  0.8439395E-01
       -1   -1    0    0    0  501  0.00000000000E+00  0.00000000000E+00  0.10228623438E+04  0.10228623438E+04  0.50400001928E-02 0.  1.
        1   -1    0    0  501    0  0.00000000000E+00  0.00000000000E+00 -0.14081557017E+04  0.14081557017E+04  0.50400001928E-02 0. -1.
    10030    2    1    2    0    0  0.00000000000E+00  0.00000000000E+00 -0.38529335790E+03  0.24310180455E+04  0.24002911836E+04 0.  0.
        3    1    3    3  502    0 -0.10119305491E+04 -0.57173636010E+03  0.11028679631E+03  0.11674969333E+04  0.10100000352E+00 0. -1.
       -3    1    3    3    0  502  0.10119305491E+04  0.57173636010E+03 -0.49558015420E+03  0.12635211122E+04  0.10100000352E+00 0.  1.
</event>
<event>
 5   0  0.5527286E-07  0.2398883E+04  0.7818609E-02  0.8439922E-01
        1   -1    0    0  501    0  0.00000000000E+00  0.00000000000E+00  0.12423314694E+04  0.12423314694E+04  0.50400001928E-02 0.  1.
       -1   -1    0    0    0  501  0.00000000000E+00  0.00000000000E+00 -0.11580324403E+04  0.11580324404E+04  0.50400001928E-02 0. -1.
    10030    2    1    2    0    0  0.00000000000E+00  0.00000000000E+00  0.84299029026E+02  0.24003639097E+04  0.23988831928E+04 0.  0.
        1    1    3    3  502    0 -0.10797075511E+03  0.24310612647E+03  0.12124448079E+04  0.12412818716E+04  0.50400001928E-02 0.  1.
       -1    1    3    3    0  502  0.10797075511E+03 -0.24310612647E+03 -0.11281457788E+04  0.11590820381E+04  0.50400001928E-02 0. -1.
</event>
<event>
 5   0  0.5452384E-07  0.2407582E+04  0.7818609E-02  0.8436671E-01
       -1   -1    0    0    0  501  0.00000000000E+00  0.00000000000E+00  0.13706534812E+04  0.13706534812E+04  0.50400001928E-02 0. -1.
        1   -1    0    0  501    0  0.00000000000E+00  0.00000000000E+00 -0.10572419659E+04  0.10572419660E+04  0.50400001928E-02 0.  1.
    10030    2    1    2    0    0  0.00000000000E+00  0.00000000000E+00  0.31341151529E+03  0.24278954472E+04  0.24075816756E+04 0.  0.
        5    1    3    3  502    0  0.99122598673E+03  0.33901252390E+03 -0.44128304241E+03  0.11367547060E+04  0.46999998093E+01 0.  1.
       -5    1    3    3    0  502 -0.99122598673E+03 -0.33901252390E+03  0.75469455771E+03  0.12911407412E+04  0.46999998093E+01 0. -1.
</event>
<event>
 5   0  0.4483375E-07  0.2399611E+04  0.7818609E-02  0.8439649E-01
       -3   -1    0    0    0  501  0.00000000000E+00  0.00000000000E+00  0.11369725419E+04  0.11369725464E+04  0.10100000352E+00 0. -1.
        3   -1    0    0  501    0  0.00000000000E+00  0.00000000000E+00 -0.12661103337E+04  0.12661103377E+04  0.10100000352E+00 0.  1.
    10030    2    1    2    0    0  0.00000000000E+00  0.00000000000E+00 -0.12913779181E+03  0.24030828841E+04  0.23996105473E+04 0.  0.
        5    1    3    3  502    0 -0.85665922454E+03  0.29905495048E+03  0.72155855739E+03  0.11592962228E+04  0.46999998093E+01 0. -1.
       -5    1    3    3    0  502  0.85665922454E+03 -0.29905495048E+03 -0.85069634920E+03  0.12437866613E+04  0.46999998093E+01 0.  1.
</event>
<event>
 5   0  0.4483375E-07  0.2399903E+04  0.7818609E-02  0.8439540E-01
        3   -1    0    0  501    0  0.00000000000E+00  0.00000000000E+00  0.28123871057E+04  0.28123871075E+04  0.10100000352E+00 0. -1.
       -3   -1    0    0    0  501  0.00000000000E+00  0.00000000000E+00 -0.51197932605E+03  0.51197933601E+03  0.10100000352E+00 0.  1.
    10030    2    1    2    0    0  0.00000000000E+00  0.00000000000E+00  0.23004077797E+04  0.33243664435E+04  0.23999033935E+04 0.  0.
        4    1    3    3  502    0 -0.98721527807E+03 -0.25916306119E+03  0.20242286672E+04  0.22669942231E+04  0.12699999809E+01 0. -1.
       -4    1    3    3    0  502  0.98721527807E+03  0.25916306119E+03  0.27617911248E+03  0.10573722205E+04  0.12699999809E+01 0.  1.
</event>
<event>
 5   0  0.5510176E-07  0.2399403E+04  0.7818609E-02  0.8439727E-01
       -1   -1    0    0    0  501  0.00000000000E+00  0.00000000000E+00  0.13673234073E+04  0.13673234073E+04  0.50400001928E-02 0. -1.
        1   -1    0    0  501    0  0.00000000000E+00  0.00000000000E+00 -0.10526289707E+04  0.10526289707E+04  0.50400001928E-02 0.  1.
    10030    2    1    2    0    0  0.00000000000E+00  0.00000000000E+00  0.31469443661E+03  0.24199523781E+04  0.23994034516E+04 0.  0.
        3    1    3    3  502    0 -0.87654535517E+03  0.18716731205E+03  0.96162315558E+03  0.13145655046E+04  0.10100000352E+00 0.  1.
       -3    1    3    3    0  502  0.87654535517E+03 -0.18716731205E+03 -0.64692871898E+03  0.11053868735E+04  0.10100000352E+00 0. -1.
</event>
<event>
 5   0  0.1307477E-06  0.2398079E+04  0.7818609E-02  0.8440223E-01
       -2   -1    0    0    0  501  0.00000000000E+00  0.00000000000E+00  0.75817519146E+03  0.75817519146E+03  0.25500000920E-02 0. -1.
        2   -1    0    0  501    0  0.00000000000E+00  0.00000000000E+00 -0.18962581417E+04  0.18962581417E+04  0.25500000920E-02 0.  1.
    10030    2    1    2    0    0  0.00000000000E+00  0.00000000000E+00 -0.11380829502E+04  0.26544333331E+04  0.23980791310E+04 0.  0.
        5    1    3    3  502    0  0.64479845963E+03 -0.26770084223E+03  0.50997011124E+03  0.86459262016E+03  0.46999998093E+01 0. -1.
       -5    1    3    3    0  502 -0.64479845963E+03  0.26770084223E+03 -0.16480530615E+04  0.17898407130E+04  0.46999998093E+01 0.  1.
</event>
<event>
 5   0  0.4483375E-07  0.2401451E+04  0.7818609E-02  0.8438960E-01
       -3   -1    0    0    0  501  0.00000000000E+00  0.00000000000E+00  0.22031427851E+04  0.22031427874E+04  0.10100000352E+00 0.  1.
        3   -1    0    0  501    0  0.00000000000E+00  0.00000000000E+00 -0.65440244879E+03  0.65440245659E+03  0.10100000352E+00 0. -1.
    10030    2    1    2    0    0  0.00000000000E+00  0.00000000000E+00  0.15487403363E+04  0.28575452440E+04  0.24014512679E+04 0.  0.
        4    1    3    3  502    0  0.88672614628E+03  0.39278836649E+03 -0.68021009322E+02  0.97221110360E+03  0.12699999809E+01 0. -1.
       -4    1    3    3    0  502 -0.88672614628E+03 -0.39278836649E+03  0.16167613456E+04  0.18853341404E+04  0.12699999809E+01 0.  1.
</event>
<event>
 5   0  0.1307477E-06  0.2400134E+04  0.7818609E-02  0.8439454E-01
       -2   -1    0    0    0  501  0.00000000000E+00  0.00000000000E+00  0.88121273066E+03  0.88121273066E+03  0.25500000920E-02 0.  1.
        2   -1    0    0  501    0  0.00000000000E+00  0.00000000000E+00 -0.16342934673E+04  0.16342934673E+04  0.25500000920E-02 0. -1.
    10030    2    1    2    0    0  0.00000000000E+00  0.00000000000E+00 -0.75308073668E+03  0.25155061980E+04  0.24001335038E+04 0.  0.
        5    1    3    3  502    0  0.21589981990E+03  0.49127094388E+03  0.74845265208E+03  0.92095783559E+03  0.46999998093E+01 0.  1.
       -5    1    3    3    0  502 -0.21589981990E+03 -0.49127094388E+03 -0.15015333888E+04  0.15945483624E+04  0.46999998093E+01 0. -1.
</event>
<event>
 5   0  0.5527286E-07  0.2399183E+04  0.7818609E-02  0.8439810E-01
        1   -1    0    0  501    0  0.00000000000E+00  0.00000000000E+00  0.13646267744E+04  0.13646267744E+04  0.50400001928E-02 0. -1.
       -1   -1    0    0    0  501  0.00000000000E+00  0.00000000000E+00 -0.10545148820E+04  0.10545148820E+04  0.50400001928E-02 0.  1.
    10030    2    1    2    0    0  0.00000000000E+00  0.00000000000E+00  0.31011189245E+03  0.24191416564E+04  0.23991825624E+04 0.  0.
        1    1    3    3  502    0 -0.63687444302E+03 -0.79284637748E+03  0.79659165436E+03  0.12918098538E+04  0.50400001928E-02 0. -1.
       -1    1    3    3    0  502  0.63687444302E+03  0.79284637748E+03 -0.48647976191E+03  0.11273318026E+04  0.50400001928E-02 0.  1.
</event>
<event>
 5   0  0.5452384E-07  0.2400764E+04  0.7818609E-02  0.8439218E-01
        1   -1    0    0  501    0  0.00000000000E+00  0.00000000000E+00  0.16894647281E+04  0.16894647281E+04  0.50400001928E-02 0.  1.
       -1   -1    0    0    0  501  0.00000000000E+00  0.00000000000E+00 -0.85288383262E+03  0.85288383263E+03  0.50400001928E-02 0. -1.
    10030    2    1    2    0    0  0.00000000000E+00  0.00000000000E+00  0.83658089544E+03  0.25423485607E+04  0.24007641720E+04 0.  0.
        5    1    3    3  502    0  0.29619123735E+03  0.83392239010E+03  0.12771308655E+04  0.15537828482E+04  0.46999998093E+01 0.  1.
       -5    1    3    3    0  502 -0.29619123735E+03 -0.83392239010E+03 -0.44054997005E+03  0.98856571249E+03  0.46999998093E+01 0. -1.
</event>
<event>
 5   0  0.1308662E-06  0.2399881E+04  0.7818609E-02  0.8439548E-01
       -2   -1    0    0    0  501  0.00000000000E+00  0.00000000000E+00  0.66773523048E+03  0.66773523048E+03  0.25500000920E-02 0.  1.
        2   -1    0    0  501    0  0.00000000000E+00  0.00000000000E+00 -0.21563295955E+04  0.21563295955E+04  0.25500000920E-02 0. -1.
    10030    2    1    2    0    0  0.00000000000E+00  0.00000000000E+00 -0.14885943650E+04  0.28240648260E+04  0.23998810299E+04 0.  0.
        3    1    3    3  502    0 -0.10456137062E+04  0.51109539522E+03 -0.10880431501E+04  0.15932245392E+04  0.10100000352E+00 0. -1.
       -3    1    3    3    0  502  0.10456137062E+04 -0.51109539522E+03 -0.40055121493E+03  0.12308402868E+04  0.10100000352E+00 0.  1.
</event>
<event>
 5   0  0.1307477E-06  0.2403275E+04  0.7818609E-02  0.8438278E-01
        2   -1    0    0  501    0  0.00000000000E+00  0.00000000000E+00  0.19101097920E+04  0.19101097920E+04  0.25500000920E-02 0. -1.
       -2   -1    0    0    0  501  0.00000000000E+00  0.00000000000E+00 -0.75594245151E+03  0.75594245151E+03  0.25500000920E-02 0.  1.
    10030    2    1    2    0    0  0.00000000000E+00  0.00000000000E+00  0.11541673404E+04  0.26660522435E+04  0.24032753307E+04 0.  0.
        5    1    3    3  502    0 -0.31557020405E+03  0.51734312266E+03  0.17281728190E+04  0.18313470023E+04  0.46999998093E+01 0. -1.
       -5    1    3    3    0  502  0.31557020405E+03 -0.51734312266E+03 -0.57400547859E+03  0.83470524120E+03  0.46999998093E+01 0.  1.
</event>
<event>
 5   0  0.4483375E-07  0.2400149E+04  0.7818609E-02  0.8439448E-01
        3   -1    0    0  501    0  0.00000000000E+00  0.00000000000E+00  0.10147112121E+04  0.10147112171E+04  0.10100000352E+00 0.  1.
       -3   -1    0    0    0  501  0.00000000000E+00  0.00000000000E+00 -0.14192988540E+04  0.14192988576E+04  0.10100000352E+00 0. -1.
    10030    2    1    2    0    0  0.00000000000E+00  0.00000000000E+00 -0.40458764192E+03  0.24340100747E+04  0.24001487212E+04 0.  0.
        1    1    3    3  502    0  0.22749791928E+03  0.11608840137E+04 -0.40706198044E+03  0.12510421466E+04  0.50400001928E-02 0. -1.
       -1    1    3    3    0  502 -0.22749791928E+03 -0.11608840137E+04  0.24743385149E+01  0.11829679281E+04  0.50400001928E-02 0.  1.
</event>
<event>
 5   0  0.1291468E-06  0.2402692E+04  0.7818609E-02  0.8438496E-01
        2   -1    0    0  501    0  0.00000000000E+00  0.00000000000E+00  0.16289714571E+04  0.16289714571E+04  0.25500000920E-02 0.  1.
       -2   -1    0    0    0  501  0.00000000000E+00  0.00000000000E+00 -0.88597762263E+03  0.88597762263E+03  0.25500000920E-02 0. -1.
    10030    2    1    2    0    0  0.00000000000E+00  0.00000000000E+00  0.74299383449E+03  0.25149490798E+04  0.24026920393E+04 0.  0.
        4    1    3    3  502    0  0.22254491162E+03  0.76315471522E+03  0.13143013907E+04  0.15360081756E+04  0.12699999809E+01 0.  1.
       -4    1    3    3    0  502 -0.22254491162E+03 -0.76315471522E+03 -0.57130755623E+03  0.97894090412E+03  0.12699999809E+01 0. -1.
</event>
<event>
 5   0  0.5527286E-07  0.2399126E+04  0.7818609E-02  0.8439831E-01
        1   -1    0    0  501    0  0.00000000000E+00  0.00000000000E+00  0.20992931144E+04  0.20992931144E+04  0.50400001928E-02 0.  1.
       -1   -1    0    0    0  501  0.00000000000E+00  0.00000000000E+00 -0.68544561956E+03  0.68544561958E+03  0.50400001928E-02 0. -1.
    10030    2    1    2    0    0  0.00000000000E+00  0.00000000000E+00  0.14138474949E+04  0.27847387340E+04  0.23991258987E+04 0.  0.
        1    1    3    3  502    0 -0.29512401860E+03 -0.55036110946E+03 -0.48187953878E+03  0.78879872407E+03  0.50400001928E-02 0. -1.
       -1    1    3    3    0  502  0.29512401860E+03  0.55036110946E+03  0.18957270337E+04  0.19959400100E+04  0.50400001928E-02 0.  1.
</event>
<event>
 5   0  0.5363690E-07  0.2400747E+04  0.7818609E-02  0.8439224E-01
       -1   -1    0    0    0  501  0.00000000000E+00  0.00000000000E+00  0.12049864120E+04  0.12049864121E+04  0.50400001928E-02 0.  1.
        1   -1    0    0  501    0  0.00000000000E+00  0.00000000000E+00 -0.11957779764E+04  0.11957779764E+04  0.50400001928E-02 0. -1.
    10030    2    1    2    0    0  0.00000000000E+00  0.00000000000E+00  0.92084356514E+01  0.24007643885E+04  0.24007467283E+04 0.  0.
        4    1    3    3  502    0 -0.17422988146E+03  0.51278526930E+03  0.10758682843E+04  0.12044911631E+04  0.12699999809E+01 0.  1.
       -4    1    3    3    0  502  0.17422988146E+03 -0.51278526930E+03 -0.10666598486E+04  0.11962732253E+04  0.12699999809E+01 0. -1.
</event>
<event>
 5   0  0.5363690E-07  0.2400808E+04  0.7818609E-02  0.8439201E-01
        1   -1    0    0  501    0  0.00000000000E+00  0.00000000000E+00  0.75124556545E+03  0.75124556547E+03  0.50400001928E-02 0. -1.
       -1   -1    0    0    0  501  0.00000000000E+00  0.00000000000E+00 -0.19181073682E+04  0.19181073682E+04  0.50400001928E-02 0.  1.
    10030    2    1    2    0    0  0.00000000000E+00  0.00000000000E+00 -0.11668618027E+04  0.26693529336E+04  0.24008079094E+04 0.  0.
        4    1    3    3  502    0 -0.97619346567E+03 -0.65775868799E+03 -0.84505484259E+03  0.14490408807E+04  0.12699999809E+01 0. -1.
       -4    1    3    3    0  502  0.97619346567E+03  0.65775868799E+03 -0.32180696011E+03  0.12203120529E+04  0.12699999809E+01 0.  1.
</event>
<event>
 5   0  0.5363690E-07  0.2399063E+04  0.7818609E-02  0.8439855E-01
        1   -1    0    0  501    0  0.00000000000E+00  0.00000000000E+00  0.88076011285E+03  0.88076011287E+03  0.50400001928E-02 0. -1.
       -1   -1    0    0    0  501  0.00000000000E+00  0.00000000000E+00 -0.16336746957E+04  0.16336746958E+04  0.50400001928E-02 0.  1.
    10030    2    1    2    0    0  0.00000000000E+00  0.00000000000E+00 -0.75291458289E+03  0.25144348086E+04  0.23990627415E+04 0.  0.
        4    1    3    3  502    0 -0.59800125637E+03  0.32836006757E+03  0.65762515529E+03  0.94757495449E+03  0.12699999809E+01 0. -1.
       -4    1    3    3    0  502  0.59800125637E+03 -0.32836006757E+03 -0.14105397382E+04  0.15668598541E+04  0.12699999809E+01 0.  1.
</event>
<event>
 5   0  0.5527286E-07  0.2400467E+04  0.7818609E-02  0.8439329E-01
       -1   -1    0    0    0  501  0.00000000000E+00  0.00000000000E+00  0.10207974077E+04  0.10207974077E+04  0.50400001928E-02 0.  1.
        1   -1    0    0  501    0  0.00000000000E+00  0.00000000000E+00 -0.14112103806E+04  0.14112103806E+04  0.50400001928E-02 0. -1.
    10030    2    1    2    0    0  0.00000000000E+00  0.00000000000E+00 -0.39041297283E+03  0.24320077883E+04  0.24004665365E+04 0.  0.
        1    1    3    3  502    0  0.44900956210E+03  0.40886401020E+03 -0.12440778719E+04  0.13843804091E+04  0.50400001928E-02 0. -1.
       -1    1    3    3    0  502 -0.44900956210E+03 -0.40886401020E+03  0.85366489908E+03  0.10476273792E+04  0.50400001928E-02 0.  1.
</event>
<event>
 5   0  0.5452384E-07  0.2400694E+04  0.7818609E-02  0.8439244E-01
       -1   -1    0    0    0  501  0.00000000000E+00  0.00000000000E+00  0.54571404536E+03  0.54571404539E+03  0.50400001928E-02 0. -1.
        1   -1    0    0  501    0  0.00000000000E+00  0.00000000000E+00 -0.26402711495E+04  0.26402711495E+04  0.50400001928E-02 0.  1.
    10030    2    1    2    0    0  0.00000000000E+00  0.00000000000E+00 -0.20945571041E+04  0.31859851949E+04  0.24006941079E+04 0.  0.
        5    1    3    3  502    0 -0.37831881214E+03  0.62472853872E+03  0.21689393874E+03  0.76188971733E+03  0.46999998093E+01 0. -1.
       -5    1    3    3    0  502  0.37831881214E+03 -0.62472853872E+03 -0.23114510429E+04  0.24240954776E+04  0.46999998093E+01 0.  1.
</event>
<event>
 5   0  0.1291468E-06  0.2401424E+04  0.7818609E-02  0.8438971E-01
        2   -1    0    0  501    0  0.00000000000E+00  0.00000000000E+00  0.11084723832E+04  0.11084723832E+04  0.25500000920E-02 0.  1.
       -2   -1    0    0    0  501  0.00000000000E+00  0.00000000000E+00 -0.13006271761E+04  0.13006271761E+04  0.25500000920E-02 0. -1.
    10030    2    1    2    0    0  0.00000000000E+00  0.00000000000E+00 -0.19215479288E+03  0.24090995592E+04  0.24014239988E+04 0.  0.
        4    1    3    3  502    0  0.43128771428E+03 -0.85697511712E+03  0.62823602940E+03  0.11467770339E+04  0.12699999809E+01 0. -1.
       -4    1    3    3    0  502 -0.43128771428E+03  0.85697511712E+03 -0.82039082228E+03  0.12623225254E+04  0.12699999809E+01 0.  1.
</event>
<event>
 5   0  0.5452384E-07  0.2394852E+04  0.7818609E-02  0.8441434E-01
        1   -1    0    0  501    0  0.00000000000E+00  0.00000000000E+00  0.11842185902E+04  0.11842185902E+04  0.50400001928E-02 0.  1.
       -1   -1    0    0    0  501  0.00000000000E+00  0.00000000000E+00 -0.12107802636E+04  0.12107802636E+04  0.50400001928E-02 0. -1.
    10030    2    1    2    0    0  0.00000000000E+00  0.00000000000E+00 -0.26561673405E+02  0.23949988538E+04  0.23948515585E+04 0.  0.
        5    1    3    3  502    0  0.77626771109E+03 -0.83768402435E+03 -0.37316450293E+03  0.12014907075E+04  0.46999998093E+01 0. -1.
       -5    1    3    3    0  502 -0.77626771109E+03  0.83768402435E+03  0.34660282952E+03  0.11935081463E+04  0.46999998093E+01 0.  1.
</event>
<event>
 5   0  0.1291468E-06  0.2406241E+04  0.7818609E-02  0.8437171E-01
        2   -1    0    0  501    0  0.00000000000E+00  0.00000000000E+00  0.16086266477E+04  0.16086266477E+04  0.25500000920E-02 0.  1.
       -2   -1    0    0    0  501  0.00000000000E+00  0.00000000000E+00 -0.89983556008E+03  0.89983556008E+03  0.25500000920E-02 0. -1.
    10030    2    1    2    0    0  0.00000000000E+00  0.00000000000E+00  0.70879108759E+03  0.25084622078E+04  0.24062414347E+04 0.  0.
        4    1    3    3  502    0  0.40314710615E+03  0.11178154968E+04  0.15809106171E+03  0.11987633089E+04  0.12699999809E+01 0. -1.
       -4    1    3    3    0  502 -0.40314710615E+03 -0.11178154968E+04  0.55070002589E+03  0.13096988988E+04  0.12699999809E+01 0.  1.
</event>
<event>
 5   0  0.5527286E-07  0.2400495E+04  0.7818609E-02  0.8439318E-01
       -1   -1    0    0    0  501  0.00000000000E+00  0.00000000000E+00  0.13095225625E+04  0.13095225625E+04  0.50400001928E-02 0. -1.
        1   -1    0    0  501    0  0.00000000000E+00  0.00000000000E+00 -0.11000915100E+04  0.11000915100E+04  0.50400001928E-02 0.  1.
    10030    2    1    2    0    0  0.00000000000E+00  0.00000000000E+00  0.20943105249E+03  0.24096140725E+04  0.24004954932E+04 0.  0.
        1    1    3    3  502    0 -0.51086498110E+03  0.99484990313E+03  0.54212910633E+03  0.12428247369E+04  0.50400001928E-02 0. -1.
       -1    1    3    3    0  502  0.51086498110E+03 -0.99484990313E+03 -0.33269805384E+03  0.11667893356E+04  0.50400001928E-02 0.  1.
</event>
<event>
 5   0  0.1275948E-06  0.2402000E+04  0.7818609E-02  0.8438755E-01
       -2   -1    0    0    0  501  0.00000000000E+00  0.00000000000E+00  0.79434239385E+03  0.79434239386E+03  0.25500000920E-02 0. -1.
        2   -1    0    0  501    0  0.00000000000E+00  0.00000000000E+00 -0.18158427112E+04  0.18158427112E+04  0.25500000920E-02 0.  1.
    10030    2    1    2    0    0  0.00000000000E+00  0.00000000000E+00 -0.10215003173E+04  0.26101851051E+04  0.24019998718E+04 0.  0.
        1    1    3    3  502    0 -0.82348978745E+03  0.15882557376E+02  0.43908610605E+03  0.93337253775E+03  0.50400001928E-02 0. -1.
       -1    1    3    3    0  502  0.82348978745E+03 -0.15882557376E+02 -0.14605864234E+04  0.16768125673E+04  0.50400001928E-02 0.  1.
</event>
<event>
 5   0  0.5510176E-07  0.2400272E+04  0.7818609E-02  0.8439402E-01
       -1   -1    0    0    0  501  0.00000000000E+00  0.00000000000E+00  0.11789651295E+04  0.11789651295E+04  0.50400001928E-02 0.  1.
        1   -1    0    0  501    0  0.00000000000E+00  0.00000000000E+00 -0.12216872421E+04  0.12216872421E+04  0.50400001928E-02 0. -1.
    10030    2    1    2    0    0  0.00000000000E+00  0.00000000000E+00 -0.42722112584E+02  0.24006523716E+04  0.24002721992E+04 0.  0.
        3    1    3    3  502    0 -0.18767068477E+03 -0.31798728197E+03  0.11207438222E+04  0.11800012384E+04  0.10100000352E+00 0.  1.
       -3    1    3    3    0  502  0.18767068477E+03  0.31798728197E+03 -0.11634659348E+04  0.12206511332E+04  0.10100000352E+00 0. -1.
</event>
<event>
 5   0  0.1336057E-06  0.2399954E+04  0.7818609E-02  0.8439521E-01
       -2   -1    0    0    0  501  0.00000000000E+00  0.00000000000E+00  0.11918703485E+04  0.11918703485E+04  0.25500000920E-02 0.  1.
        2   -1    0    0  501    0  0.00000000000E+00  0.00000000000E+00 -0.12081386127E+04  0.12081386127E+04  0.25500000920E-02 0. -1.
    10030    2    1    2    0    0  0.00000000000E+00  0.00000000000E+00 -0.16268264171E+02  0.24000089612E+04  0.23999538240E+04 0.  0.
        2    1    3    3  502    0  0.97845814558E+03  0.41098466482E+03  0.55192860024E+03  0.11962081412E+04  0.25500000920E-02 0.  1.
       -2    1    3    3    0  502 -0.97845814558E+03 -0.41098466482E+03 -0.56819686441E+03  0.12038008199E+04  0.25500000920E-02 0. -1.
</event>
<event>
 5   0  0.5527286E-07  0.2392558E+04  0.7818609E-02  0.8442295E-01
        1   -1    0    0  501    0  0.00000000000E+00  0.00000000000E+00  0.16900021116E+04  0.16900021116E+04  0.50400001928E-02 0. -1.
       -1   -1    0    0    0  501  0.00000000000E+00  0.00000000000E+00 -0.84679382700E+03  0.84679382701E+03  0.50400001928E-02 0.  1.
    10030    2    1    2    0    0  0.00000000000E+00  0.00000000000E+00  0.84320828461E+03  0.25367959386E+04  0.23925579247E+04 0.  0.
        1    1    3    3  502    0 -0.38352155308E+03 -0.77283936237E+03 -0.45703589679E+03  0.97634587759E+03  0.50400001928E-02 0.  1.
       -1    1    3    3    0  502  0.38352155308E+03  0.77283936237E+03  0.13002441814E+04  0.15604500610E+04  0.50400001928E-02 0. -1.
</event>
<event>
 5   0  0.5510176E-07  0.2399156E+04  0.7818609E-02  0.8439820E-01
        1   -1    0    0  501    0  0.00000000000E+00  0.00000000000E+00  0.11082249507E+04  0.11082249508E+04  0.50400001928E-02 0.  1.
       -1   -1    0    0    0  501  0.00000000000E+00  0.00000000000E+00 -0.12984615597E+04  0.12984615597E+04  0.50400001928E-02 0. -1.
    10030    2    1    2    0    0  0.00000000000E+00  0.00000000000E+00 -0.19023660896E+03  0.24066865105E+04  0.23991561000E+04 0.  0.
        3    1    3    3  502    0  0.74060909033E+03  0.77540763588E+03  0.44436956200E+03  0.11606994203E+04  0.10100000352E+00 0.  1.
       -3    1    3    3    0  502 -0.74060909033E+03 -0.77540763588E+03 -0.63460617096E+03  0.12459870902E+04  0.10100000352E+00 0. -1.
</event>
<event>
 5   0  0.5527286E-07  0.2398439E+04  0.7818609E-02  0.8440088E-01
        1   -1    0    0  501    0  0.00000000000E+00  0.00000000000E+00  0.11281475347E+04  0.11281475347E+04  0.50400001928E-02 0.  1.
       -1   -1    0    0    0  501  0.00000000000E+00  0.00000000000E+00 -0.12747690360E+04  0.12747690360E+04  0.50400001928E-02 0. -1.
    10030    2    1    2    0    0  0.00000000000E+00  0.00000000000E+00 -0.14662150135E+03  0.24029165707E+04  0.23984391135E+04 0.  0.
        1    1    3    3  502    0 -0.36804034538E+03 -0.27582228400E+03  0.10362746956E+04  0.11337534445E+04  0.50400001928E-02 0.  1.
       -1    1    3    3    0  502  0.36804034538E+03  0.27582228400E+03 -0.11828961969E+04  0.12691631262E+04  0.50400001928E-02 0. -1.
</event>
<event>
 5   0  0.1307477E-06  0.2399146E+04  0.7818609E-02  0.8439823E-01
       -2   -1    0    0    0  501  0.00000000000E+00  0.00000000000E+00  0.13508840050E+04  0.13508840050E+04  0.25500000920E-02 0.  1.
        2   -1    0    0  501    0  0.00000000000E+00  0.00000000000E+00 -0.10652105983E+04  0.10652105983E+04  0.25500000920E-02 0. -1.
    10030    2    1    2    0    0  0.00000000000E+00  0.00000000000E+00  0.28567340677E+03  0.24160946033E+04  0.23991464809E+04 0.  0.
        5    1    3    3  502    0 -0.18564390109E+03  0.11591489787E+04 -0.10561209673E+03  0.11786712933E+04  0.46999998093E+01 0. -1.
       -5    1    3    3    0  502  0.18564390109E+03 -0.11591489787E+04  0.39128550350E+03  0.12374233100E+04  0.46999998093E+01 0.  1.
</event>
<event>
 5   0  0.1308662E-06  0.2401503E+04  0.7818609E-02  0.8438941E-01
       -2   -1    0    0    0  501  0.00000000000E+00  0.00000000000E+00  0.99313385861E+03  0.99313385862E+03  0.25500000920E-02 0.  1.
        2   -1    0    0  501    0  0.00000000000E+00  0.00000000000E+00 -0.14517722166E+04  0.14517722166E+04  0.25500000920E-02 0. -1.
    10030    2    1    2    0    0  0.00000000000E+00  0.00000000000E+00 -0.45863835798E+03  0.24449060752E+04  0.24015029821E+04 0.  0.
        3    1    3    3  502    0  0.24780622254E+03 -0.31441026476E+02 -0.14250278202E+04  0.14467552525E+04  0.10100000352E+00 0. -1.
       -3    1    3    3    0  502 -0.24780622254E+03  0.31441026476E+02  0.96638946220E+03  0.99815082274E+03  0.10100000352E+00 0.  1.
</event>
<event>
 5   0  0.1275948E-06  0.2398420E+04  0.7818609E-02  0.8440095E-01
       -2   -1    0    0    0  501  0.00000000000E+00  0.00000000000E+00  0.11989365557E+04  0.11989365557E+04  0.25500000920E-02 0. -1.
        2   -1    0    0  501    0  0.00000000000E+00  0.00000000000E+00 -0.11994836682E+04  0.11994836682E+04  0.25500000920E-02 0.  1.
    10030    2    1    2    0    0  0.00000000000E+00  0.00000000000E+00 -0.54711246910E+00  0.23984202239E+04  0.23984201615E+04 0.  0.
        1    1    3    3  502    0  0.38532644444E+03 -0.99070076710E+03  0.55483035747E+03  0.11990834851E+04  0.50400001928E-02 0. -1.
       -1    1    3    3    0  502 -0.38532644444E+03  0.99070076710E+03 -0.55537746994E+03  0.11993367387E+04  0.50400001928E-02 0.  1.
</event>
<event>
 5   0  0.5690124E-07  0.2400643E+04  0.7818609E-02  0.8439263E-01
       -1   -1    0    0    0  501  0.00000000000E+00  0.00000000000E+00  0.12905890171E+04  0.12905890171E+04  0.50400001928E-02 0.  1.
        1   -1    0    0  501    0  0.00000000000E+00  0.00000000000E+00 -0.11163676255E+04  0.11163676255E+04  0.50400001928E-02 0. -1.
    10030    2    1    2    0    0  0.00000000000E+00  0.00000000000E+00  0.17422139153E+03  0.24069566426E+04  0.24006430776E+04 0.  0.
        2    1    3    3  502    0 -0.79719063960E+03 -0.88601736603E+02  0.98243656589E+03  0.12682841912E+04  0.25500000920E-02 0.  1.
       -2    1    3    3    0  502  0.79719063960E+03  0.88601736603E+02 -0.80821517436E+03  0.11386724514E+04  0.25500000920E-02 0. -1.
</event>
<event>
 5   0  0.5527286E-07  0.2402309E+04  0.7818609E-02  0.8438640E-01
       -1   -1    0    0    0  501  0.00000000000E+00  0.00000000000E+00  0.74663799788E+03  0.74663799790E+03  0.50400001928E-02 0.  1.
        1   -1    0    0  501    0  0.00000000000E+00  0.00000000000E+00 -0.19323586753E+04  0.19323586753E+04  0.50400001928E-02 0. -1.
    10030    2    1    2    0    0  0.00000000000E+00  0.00000000000E+00 -0.11857206774E+04  0.26789966732E+04  0.24023092328E+04 0.  0.
        1    1    3    3  502    0 -0.70826002542E+03  0.32836544139E+03  0.42514064723E+03  0.88893233526E+03  0.50400001928E-02 0.  1.
       -1    1    3    3    0  502  0.70826002542E+03 -0.32836544139E+03 -0.16108613246E+04  0.17900643379E+04  0.50400001928E-02 0. -1.
</event>
<event>
 5   0  0.1307477E-06  0.2399341E+04  0.7818609E-02  0.8439750E-01
       -2   -1    0    0    0  501  0.00000000000E+00  0.00000000000E+00  0.79067941898E+03  0.79067941898E+03  0.25500000920E-02 0.  1.
        2   -1    0    0  501    0  0.00000000000E+00  0.00000000000E+00 -0.18202187390E+04  0.18202187390E+04  0.25500000920E-02 0. -1.
    10030    2    1    2    0    0  0.00000000000E+00  0.00000000000E+00 -0.10295393200E+04  0.26108981580E+04  0.23993411554E+04 0.  0.
        5    1    3    3  502    0  0.86566069170E+03  0.16467976951E+03  0.37107233446E+03  0.95614048499E+03  0.46999998093E+01 0.  1.
       -5    1    3    3    0  502 -0.86566069170E+03 -0.16467976951E+03 -0.14006116545E+04  0.16547576730E+04  0.46999998093E+01 0. -1.
</event>
<event>
 5   0  0.5452384E-07  0.2399798E+04  0.7818609E-02  0.8439579E-01
        1   -1    0    0  501    0  0.00000000000E+00  0.00000000000E+00  0.13053112416E+04  0.13053112416E+04  0.50400001928E-02 0.  1.
       -1   -1    0    0    0  501  0.00000000000E+00  0.00000000000E+00 -0.11029993537E+04  0.11029993537E+04  0.50400001928E-02 0. -1.
    10030    2    1    2    0    0  0.00000000000E+00  0.00000000000E+00  0.20231188786E+03  0.24083105953E+04  0.23997978714E+04 0.  0.
        5    1    3    3  502    0  0.99698147340E+03  0.27733193693E+03  0.71064078105E+03  0.12553555159E+04  0.46999998093E+01 0. -1.
       -5    1    3    3    0  502 -0.99698147340E+03 -0.27733193693E+03 -0.50832889319E+03  0.11529550794E+04  0.46999998093E+01 0.  1.
</event>
<event>
 5   0  0.5363690E-07  0.2400299E+04  0.7818609E-02  0.8439392E-01
        1   -1    0    0  501    0  0.00000000000E+00  0.00000000000E+00  0.24325703774E+04  0.24325703774E+04  0.50400001928E-02 0. -1.
       -1   -1    0    0    0  501  0.00000000000E+00  0.00000000000E+00 -0.59211401311E+03  0.59211401313E+03  0.50400001928E-02 0.  1.
    10030    2    1    2    0    0  0.00000000000E+00  0.00000000000E+00  0.18404563643E+04  0.30246843905E+04  0.24002991550E+04 0.  0.
        4    1    3    3  502    0 -0.70843862680E+03 -0.52253226183E+03 -0.10770901161E+03  0.88686419292E+03  0.12699999809E+01 0.  1.
       -4    1    3    3    0  502  0.70843862680E+03  0.52253226183E+03  0.19481653759E+04  0.21378201976E+04  0.12699999809E+01 0. -1.
</event>
<event>
 5   0  0.1307477E-06  0.2399995E+04  0.7818609E-02  0.8439506E-01
       -2   -1    0    0    0  501  0.00000000000E+00  0.00000000000E+00  0.87482412608E+03  0.87482412608E+03  0.25500000920E-02 0.  1.
        2   -1    0    0  501    0  0.00000000000E+00  0.00000000000E+00 -0.16460377457E+04  0.16460377457E+04  0.25500000920E-02 0. -1.
    10030    2    1    2    0    0  0.00000000000E+00  0.00000000000E+00 -0.77121361966E+03  0.25208618718E+04  0.23999946103E+04 0.  0.
        5    1    3    3  502    0  0.90332203521E+03  0.77055407010E+03 -0.56822225834E+03  0.13162989399E+04  0.46999998093E+01 0. -1.
       -5    1    3    3    0  502 -0.90332203521E+03 -0.77055407010E+03 -0.20299136131E+03  0.12045629319E+04  0.46999998093E+01 0.  1.
</event>
<event>
 5   0  0.5452384E-07  0.2400632E+04  0.7818609E-02  0.8439267E-01
       -1   -1    0    0    0  501  0.00000000000E+00  0.00000000000E+00  0.89325675244E+03  0.89325675246E+03  0.50400001928E-02 0.  1.
        1   -1    0    0  501    0  0.00000000000E+00  0.00000000000E+00 -0.16129278396E+04  0.16129278396E+04  0.50400001928E-02 0. -1.
    10030    2    1    2    0    0  0.00000000000E+00  0.00000000000E+00 -0.71967108711E+03  0.25061845920E+04  0.24006321533E+04 0.  0.
        5    1    3    3  502    0 -0.29385478085E+03  0.95211684983E+03  0.33881228882E+03  0.10524699450E+04  0.46999998093E+01 0.  1.
       -5    1    3    3    0  502  0.29385478085E+03 -0.95211684983E+03 -0.10584833759E+04  0.14537146471E+04  0.46999998093E+01 0. -1.
</event>
<event>
 5   0  0.1307477E-06  0.2397231E+04  0.7818609E-02  0.8440541E-01
        2   -1    0    0  501    0  0.00000000000E+00  0.00000000000E+00  0.20728841955E+04  0.20728841955E+04  0.25500000920E-02 0.  1.
       -2   -1    0    0    0  501  0.00000000000E+00  0.00000000000E+00 -0.69308230535E+03  0.69308230535E+03  0.25500000920E-02 0. -1.
    10030    2    1    2    0    0  0.00000000000E+00  0.00000000000E+00  0.13798018902E+04  0.27659665009E+04  0.23972312003E+04 0.  0.
        5    1    3    3  502    0 -0.55183245397E+03  0.80176698632E+03  0.14970023671E+04  0.17856056493E+04  0.46999998093E+01 0.  1.
       -5    1    3    3    0  502  0.55183245397E+03 -0.80176698632E+03 -0.11720047690E+03  0.98036085162E+03  0.46999998093E+01 0. -1.
</event>
<event>
 5   0  0.1291468E-06  0.2396549E+04  0.7818609E-02  0.8440797E-01
       -2   -1    0    0    0  501  0.00000000000E+00  0.00000000000E+00  0.99493168231E+03  0.99493168231E+03  0.25500000920E-02 0.  1.
        2   -1    0    0  501    0  0.00000000000E+00  0.00000000000E+00 -0.14431758587E+04  0.14431758587E+04  0.25500000920E-02 0. -1.
    10030    2    1    2    0    0  0.00000000000E+00  0.00000000000E+00 -0.44824417635E+03  0.24381075410E+04  0.23965486725E+04 0.  0.
        4    1    3    3  502    0  0.18571447682E+03  0.11054350216E+04 -0.65500337243E+03  0.12982709597E+04  0.12699999809E+01 0. -1.
       -4    1    3    3    0  502 -0.18571447682E+03 -0.11054350216E+04  0.20675919608E+03  0.11398365813E+04  0.12699999809E+01 0.  1.
</event>
<event>
 5   0  0.1275948E-06  0.2399853E+04  0.7818609E-02  0.8439559E-01
        2   -1    0    0  501    0  0.00000000000E+00  0.00000000000E+00  0.13639488603E+04  0.13639488603E+04  0.25500000920E-02 0. -1.
       -2   -1    0    0    0  501  0.00000000000E+00  0.00000000000E+00 -0.10556287351E+04  0.10556287351E+04  0.25500000920E-02 0.  1.
    10030    2    1    2    0    0  0.00000000000E+00  0.00000000000E+00  0.30832012518E+03  0.24195775953E+04  0.23998530039E+04 0.  0.
        1    1    3    3  502    0 -0.23808527820E+03  0.74743954890E+03  0.10696280596E+04  0.13264443693E+04  0.50400001928E-02 0. -1.
       -1    1    3    3    0  502  0.23808527820E+03 -0.74743954890E+03 -0.76130793438E+03  0.10931332261E+04  0.50400001928E-02 0.  1.
</event>
<event>
 5   0  0.1275948E-06  0.2399258E+04  0.7818609E-02  0.8439781E-01
        2   -1    0    0  501    0  0.00000000000E+00  0.00000000000E+00  0.14105378527E+04  0.14105378527E+04  0.25500000920E-02 0.  1.
       -2   -1    0    0    0  501  0.00000000000E+00  0.00000000000E+00 -0.10202558071E+04  0.10202558071E+04  0.25500000920E-02 0. -1.
    10030    2    1    2    0    0  0.00000000000E+00  0.00000000000E+00  0.39028204560E+03  0.24307936598E+04  0.23992577480E+04 0.  0.
        1    1    3    3  502    0  0.47143948712E+03  0.74230455489E+03 -0.63157344973E+03  0.10826616575E+04  0.50400001928E-02 0. -1.
       -1    1    3    3    0  502 -0.47143948712E+03 -0.74230455489E+03  0.10218554953E+04  0.13481320023E+04  0.50400001928E-02 0.  1.
</event>
<event>
 5   0  0.5690124E-07  0.2400567E+04  0.7818609E-02  0.8439291E-01
        1   -1    0    0  501    0  0.00000000000E+00  0.00000000000E+00  0.27751723078E+04  0.27751723078E+04  0.50400001928E-02 0.  1.
       -1   -1    0    0    0  501  0.00000000000E+00  0.00000000000E+00 -0.51913203308E+03  0.51913203310E+03  0.50400001928E-02 0. -1.
    10030    2    1    2    0    0  0.00000000000E+00  0.00000000000E+00  0.22560402747E+04  0.32943043409E+04  0.24005673016E+04 0.  0.
        2    1    3    3  502    0  0.87949107719E+03  0.44717290024E+01  0.71285100454E+01  0.87953133366E+03  0.25500000920E-02 0. -1.
       -2    1    3    3    0  502 -0.87949107719E+03 -0.44717290024E+01  0.22489117647E+04  0.24147730073E+04  0.25500000920E-02 0.  1.
</event>
<event>
 5   0  0.1275948E-06  0.2402464E+04  0.7818609E-02  0.8438582E-01
       -2   -1    0    0    0  501  0.00000000000E+00  0.00000000000E+00  0.15028912867E+04  0.15028912867E+04  0.25500000920E-02 0. -1.
        2   -1    0    0  501    0  0.00000000000E+00  0.00000000000E+00 -0.96012181767E+03  0.96012181768E+03  0.25500000920E-02 0.  1.
    10030    2    1    2    0    0  0.00000000000E+00  0.00000000000E+00  0.54276946906E+03  0.24630131044E+04  0.24024643298E+04 0.  0.
        1    1    3    3  502    0 -0.44246946488E+03 -0.91878058460E+03  0.92222438392E+03  0.13749308362E+04  0.50400001928E-02 0. -1.
       -1    1    3    3    0  502  0.44246946488E+03  0.91878058460E+03 -0.37945491485E+03  0.10880822682E+04  0.50400001928E-02 0.  1.
</event>
<event>
 5   0  0.5452384E-07  0.2401194E+04  0.7818609E-02  0.8439057E-01
       -1   -1    0    0    0  501  0.00000000000E+00  0.00000000000E+00  0.19419645636E+04  0.19419645636E+04  0.50400001928E-02 0.  1.
        1   -1    0    0  501    0  0.00000000000E+00  0.00000000000E+00 -0.74225541738E+03  0.74225541739E+03  0.50400001928E-02 0. -1.
    10030    2    1    2    0    0  0.00000000000E+00  0.00000000000E+00  0.11997091462E+04  0.26842199810E+04  0.24011944675E+04 0.  0.
        5    1    3    3  502    0  0.10250129983E+04 -0.62040028765E+03  0.68545341906E+03  0.13803682998E+04  0.46999998093E+01 0.  1.
       -5    1    3    3    0  502 -0.10250129983E+04  0.62040028765E+03  0.51425572716E+03  0.13038516812E+04  0.46999998093E+01 0. -1.
</event>
<event>
 5   0  0.5510176E-07  0.2402387E+04  0.7818609E-02  0.8438611E-01
       -1   -1    0    0    0  501  0.00000000000E+00  0.00000000000E+00  0.11221262265E+04  0.11221262266E+04  0.50400001928E-02 0.  1.
        1   -1    0    0  501    0  0.00000000000E+00  0.00000000000E+00 -0.12858316353E+04  0.12858316353E+04  0.50400001928E-02 0. -1.
    10030    2    1    2    0    0  0.00000000000E+00  0.00000000000E+00 -0.16370540876E+03  0.24079578619E+04  0.24023866474E+04 0.  0.
        3    1    3    3  502    0  0.22694037123E+03 -0.63899259603E+03  0.91193634151E+03  0.11364160202E+04  0.10100000352E+00 0.  1.
       -3    1    3    3    0  502 -0.22694037123E+03  0.63899259603E+03 -0.10756417503E+04  0.12715418416E+04  0.10100000352E+00 0. -1.
</event>
<event>
 5   0  0.1291468E-06  0.2400005E+04  0.7818609E-02  0.8439502E-01
        2   -1    0    0  501    0  0.00000000000E+00  0.00000000000E+00  0.15242786914E+04  0.15242786914E+04  0.25500000920E-02 0. -1.
       -2   -1    0    0    0  501  0.00000000000E+00  0.00000000000E+00 -0.94471318296E+03  0.94471318296E+03  0.25500000920E-02 0.  1.
    10030    2    1    2    0    0  0.00000000000E+00  0.00000000000E+00  0.57956550842E+03  0.24689918743E+04  0.24000051452E+04 0.  0.
        4    1    3    3  502    0 -0.20254490891E+03 -0.35189523382E+03 -0.87190149935E+03  0.96180483112E+03  0.12699999809E+01 0.  1.
       -4    1    3    3    0  502  0.20254490891E+03  0.35189523382E+03  0.14514670078E+04  0.15071870432E+04  0.12699999809E+01 0. -1.
</event>
<event>
 5   0  0.5363690E-07  0.2400323E+04  0.7818609E-02  0.8439382E-01
        1   -1    0    0  501    0  0.00000000000E+00  0.00000000000E+00  0.17318180415E+04  0.17318180415E+04  0.50400001928E-02 0. -1.
       -1   -1    0    0    0  501  0.00000000000E+00  0.00000000000E+00 -0.83172026436E+03  0.83172026438E+03  0.50400001928E-02 0.  1.
    10030    2    1    2    0    0  0.00000000000E+00  0.00000000000E+00  0.90009777715E+03  0.25635383059E+04  0.24003234443E+04 0.  0.
        4    1    3    3  502    0  0.80886428167E+03 -0.34208872026E+02 -0.49617169100E+03  0.94953653586E+03  0.12699999809E+01 0.  1.
       -4    1    3    3    0  502 -0.80886428167E+03  0.34208872026E+02  0.13962694681E+04  0.16140017700E+04  0.12699999809E+01 0. -1.
</event>
<event>
 5   0  0.1308662E-06  0.2399685E+04  0.7818609E-02  0.8439622E-01
       -2   -1    0    0    0  501  0.00000000000E+00  0.00000000000E+00  0.69012207238E+03  0.69012207239E+03  0.25500000920E-02 0.  1.
        2   -1    0    0  501    0  0.00000000000E+00  0.00000000000E+00 -0.20860392240E+04  0.20860392240E+04  0.25500000920E-02 0. -1.
    10030    2    1    2    0    0  0.00000000000E+00  0.00000000000E+00 -0.13959171516E+04  0.27761612964E+04  0.23996847396E+04 0.  0.
        3    1    3    3  502    0 -0.57024371667E+03 -0.82295446562E+03  0.66978115177E+02  0.10034530517E+04  0.10100000352E+00 0.  1.
       -3    1    3    3    0  502  0.57024371667E+03  0.82295446562E+03 -0.14628952668E+04  0.17727082447E+04  0.10100000352E+00 0. -1.
</event>
<event>
 5   0  0.1308662E-06  0.2399743E+04  0.7818609E-02  0.8439600E-01
       -2   -1    0    0    0  501  0.00000000000E+00  0.00000000000E+00  0.85031486522E+03  0.85031486523E+03  0.25500000920E-02 0. -1.
        2   -1    0    0  501    0  0.00000000000E+00  0.00000000000E+00 -0.16931276837E+04  0.16931276837E+04  0.25500000920E-02 0.  1.
    10030    2    1    2    0    0  0.00000000000E+00  0.00000000000E+00 -0.84281281843E+03  0.25434425489E+04  0.23997430180E+04 0.  0.
        3    1    3    3  502    0  0.11497282589E+04 -0.44238513109E+02 -0.78217028514E+03  0.13912665023E+04  0.10100000352E+00 0. -1.
       -3    1    3    3    0  502 -0.11497282589E+04  0.44238513109E+02 -0.60642533293E+02  0.11521760466E+04  0.10100000352E+00 0.  1.
</event>
<event>
 5   0  0.1308662E-06  0.2399264E+04  0.7818609E-02  0.8439779E-01
        2   -1    0    0  501    0  0.00000000000E+00  0.00000000000E+00  0.20996505599E+04  0.20996505599E+04  0.25500000920E-02 0.  1.
       -2   -1    0    0    0  501  0.00000000000E+00  0.00000000000E+00 -0.68540789435E+03  0.68540789435E+03  0.25500000920E-02 0. -1.
    10030    2    1    2    0    0  0.00000000000E+00  0.00000000000E+00  0.14142426655E+04  0.27850584543E+04  0.23992641115E+04 0.  0.
        3    1    3    3  502    0  0.20170640523E+03  0.94125068781E+03  0.15381082349E+04  0.18145013871E+04  0.10100000352E+00 0.  1.
       -3    1    3    3    0  502 -0.20170640523E+03 -0.94125068781E+03 -0.12386556934E+03  0.97055706719E+03  0.10100000352E+00 0. -1.
</event>
<event>
 5   0  0.5690124E-07  0.2407091E+04  0.7818609E-02  0.8436854E-01
       -1   -1    0    0    0  501  0.00000000000E+00  0.00000000000E+00  0.95681457622E+03  0.95681457623E+03  0.50400001928E-02 0. -1.
        1   -1    0    0  501    0  0.00000000000E+00  0.00000000000E+00 -0.15139000050E+04  0.15139000051E+04  0.50400001928E-02 0.  1.
    10030    2    1    2    0    0  0.00000000000E+00  0.00000000000E+00 -0.55708542883E+03  0.24707145813E+04  0.24070908515E+04 0.  0.
        2    1    3    3  502    0 -0.79321831992E+03 -0.43656913676E+03 -0.10924284890E+04  0.14188685344E+04  0.25500000920E-02 0.  1.
       -2    1    3    3    0  502  0.79321831992E+03  0.43656913676E+03  0.53534306022E+03  0.10518460469E+04  0.25500000920E-02 0. -1.
</event>
<event>
 5   0  0.1307477E-06  0.2398926E+04  0.7818609E-02  0.8439906E-01
        2   -1    0    0  501    0  0.00000000000E+00  0.00000000000E+00  0.80254571783E+03  0.80254571784E+03  0.25500000920E-02 0.  1.
       -2   -1    0    0    0  501  0.00000000000E+00  0.00000000000E+00 -0.17926849899E+04  0.17926849899E+04  0.25500000920E-02 0. -1.
    10030    2    1    2    0    0  0.00000000000E+00  0.00000000000E+00 -0.99013927210E+03  0.25952307078E+04  0.23989261448E+04 0.  0.
        5    1    3    3  502    0 -0.77139375794E+03  0.26175568558E+03  0.45738658505E+03  0.93423174154E+03  0.46999998093E+01 0.  1.
       -5    1    3    3    0  502  0.77139375794E+03 -0.26175568558E+03 -0.14475258571E+04  0.16609989662E+04  0.46999998093E+01 0. -1.
</event>
<event>
 5   0  0.1307477E-06  0.2400235E+04  0.7818609E-02  0.8439416E-01
       -2   -1    0    0    0  501  0.00000000000E+00  0.00000000000E+00  0.80305405225E+03  0.80305405226E+03  0.25500000920E-02 0.  1.
        2   -1    0    0  501    0  0.00000000000E+00  0.00000000000E+00 -0.17935059026E+04  0.17935059026E+04  0.25500000920E-02 0. -1.
    10030    2    1    2    0    0  0.00000000000E+00  0.00000000000E+00 -0.99045185039E+03  0.25965599549E+04  0.24002351409E+04 0.  0.
        5    1    3    3  502    0  0.58811396252E+03 -0.76853111690E+03  0.27257501326E+03  0.10054040672E+04  0.46999998093E+01 0.  1.
       -5    1    3    3    0  502 -0.58811396252E+03  0.76853111690E+03 -0.12630268636E+04  0.15911558877E+04  0.46999998093E+01 0. -1.
</event>
<event>
 5   0  0.1291468E-06  0.2405984E+04  0.7818609E-02  0.8437267E-01
       -2   -1    0    0    0  501  0.00000000000E+00  0.00000000000E+00  0.75762299319E+03  0.75762299319E+03  0.25500000920E-02 0.  1.
        2   -1    0    0  501    0  0.00000000000E+00  0.00000000000E+00 -0.19101717877E+04  0.19101717877E+04  0.25500000920E-02 0. -1.
    10030    2    1    2    0    0  0.00000000000E+00  0.00000000000E+00 -0.11525487945E+04  0.26677947809E+04  0.24059842620E+04 0.  0.
        4    1    3    3  502    0  0.39435484214E+03 -0.29774519698E+02  0.68348263584E+03  0.78965333529E+03  0.12699999809E+01 0.  1.
       -4    1    3    3    0  502 -0.39435484214E+03  0.29774519698E+02 -0.18360314303E+04  0.18781414456E+04  0.12699999809E+01 0. -1.
</event>
<event>
 5   0  0.1291468E-06  0.2397030E+04  0.7818609E-02  0.8440616E-01
       -2   -1    0    0    0  501  0.00000000000E+00  0.00000000000E+00  0.13288797351E+04  0.13288797351E+04  0.25500000920E-02 0. -1.
        2   -1    0    0  501    0  0.00000000000E+00  0.00000000000E+00 -0.10809388501E+04  0.10809388501E+04  0.25500000920E-02 0.  1.
    10030    2    1    2    0    0  0.00000000000E+00  0.00000000000E+00  0.24794088499E+03  0.24098185851E+04  0.23970296057E+04 0.  0.
        4    1    3    3  502    0 -0.46402104863E+03  0.68538272675E+03  0.99541185783E+03  0.12945699654E+04  0.12699999809E+01 0. -1.
       -4    1    3    3    0  502  0.46402104863E+03 -0.68538272675E+03 -0.74747097284E+03  0.11152486197E+04  0.12699999809E+01 0.  1.
</event>
<event>
 5   0  0.5363690E-07  0.2399348E+04  0.7818609E-02  0.8439748E-01
        1   -1    0    0  501    0  0.00000000000E+00  0.00000000000E+00  0.14979420723E+04  0.14979420723E+04  0.50400001928E-02 0.  1.
       -1   -1    0    0    0  501  0.00000000000E+00  0.00000000000E+00 -0.96079652686E+03  0.96079652688E+03  0.50400001928E-02 0. -1.
    10030    2    1    2    0    0  0.00000000000E+00  0.00000000000E+00  0.53714554543E+03  0.24587385992E+04  0.23993478618E+04 0.  0.
        4    1    3    3  502    0  0.68706724976E+03 -0.23955045513E+03  0.12460012137E+04  0.14429020978E+04  0.12699999809E+01 0.  1.
       -4    1    3    3    0  502 -0.68706724976E+03  0.23955045513E+03 -0.70885566829E+03  0.10158365014E+04  0.12699999809E+01 0. -1.
</event>
<event>
 5   0  0.1308662E-06  0.2399840E+04  0.7818609E-02  0.8439563E-01
        2   -1    0    0  501    0  0.00000000000E+00  0.00000000000E+00  0.11961416978E+04  0.11961416978E+04  0.25500000920E-02 0.  1.
       -2   -1    0    0    0  501  0.00000000000E+00  0.00000000000E+00 -0.12037104131E+04  0.12037104131E+04  0.25500000920E-02 0. -1.
    10030    2    1    2    0    0  0.00000000000E+00  0.00000000000E+00 -0.75687152689E+01  0.23998521109E+04  0.23998401757E+04 0.  0.
        3    1    3    3  502    0 -0.77694004570E+03 -0.16506072876E+03 -0.90319270449E+03  0.12027626326E+04  0.10100000352E+00 0. -1.
       -3    1    3    3    0  502  0.77694004570E+03  0.16506072876E+03  0.89562398922E+03  0.11970894783E+04  0.10100000352E+00 0.  1.
</event>
<event>
 5   0  0.5363690E-07  0.2400200E+04  0.7818609E-02  0.8439429E-01
       -1   -1    0    0    0  501  0.00000000000E+00  0.00000000000E+00  0.77947847386E+03  0.77947847388E+03  0.50400001928E-02 0.  1.
        1   -1    0    0  501    0  0.00000000000E+00  0.00000000000E+00 -0.18476976966E+04  0.18476976966E+04  0.50400001928E-02 0. -1.
    10030    2    1    2    0    0  0.00000000000E+00  0.00000000000E+00 -0.10682192228E+04  0.26271761705E+04  0.24002004756E+04 0.  0.
        4    1    3    3  502    0 -0.78816609095E+03  0.50527487086E+03  0.28771177644E+03  0.97943257106E+03  0.12699999809E+01 0.  1.
       -4    1    3    3    0  502  0.78816609095E+03 -0.50527487086E+03 -0.13559309992E+04  0.16477435994E+04  0.12699999809E+01 0. -1.
</event>
<event>
 5   0  0.1275948E-06  0.2399451E+04  0.7818609E-02  0.8439709E-01
        2   -1    0    0  501    0  0.00000000000E+00  0.00000000000E+00  0.81272407607E+03  0.81272407607E+03  0.25500000920E-02 0.  1.
       -2   -1    0    0    0  501  0.00000000000E+00  0.00000000000E+00 -0.17710083687E+04  0.17710083687E+04  0.25500000920E-02 0. -1.
    10030    2    1    2    0    0  0.00000000000E+00  0.00000000000E+00 -0.95828429259E+03  0.25837324447E+04  0.23994508873E+04 0.  0.
        1    1    3    3  502    0 -0.87186760148E+03  0.59172742606E+03  0.13853911972E+03  0.10627735173E+04  0.50400001928E-02 0.  1.
       -1    1    3    3    0  502  0.87186760148E+03 -0.59172742606E+03 -0.10968234123E+04  0.15209589275E+04  0.50400001928E-02 0. -1.
</event>
<event>
 5   0  0.1336057E-06  0.2400843E+04  0.7818609E-02  0.8439188E-01
       -2   -1    0    0    0  501  0.00000000000E+00  0.00000000000E+00  0.17189541761E+04  0.17189541761E+04  0.25500000920E-02 0.  1.
        2   -1    0    0  501    0  0.00000000000E+00  0.00000000000E+00 -0.83830733953E+03  0.83830733954E+03  0.25500000920E-02 0. -1.
    10030    2    1    2    0    0  0.00000000000E+00  0.00000000000E+00  0.88064683655E+03  0.25572615156E+04  0.24008431037E+04 0.  0.
        2    1    3    3  502    0 -0.12076718247E+03  0.80213230469E+03  0.13828536359E+04  0.16032108797E+04  0.25500000920E-02 0.  1.
       -2    1    3    3    0  502  0.12076718247E+03 -0.80213230469E+03 -0.50220679932E+03  0.95405063591E+03  0.25500000920E-02 0. -1.
</event>
<event>
 5   0  0.5363690E-07  0.2405795E+04  0.7818609E-02  0.8437337E-01
        1   -1    0    0  501    0  0.00000000000E+00  0.00000000000E+00  0.91100774857E+03  0.91100774858E+03  0.50400001928E-02 0.  1.
       -1   -1    0    0    0  501  0.00000000000E+00  0.00000000000E+00 -0.15883090951E+04  0.15883090951E+04  0.50400001928E-02 0. -1.
    10030    2    1    2    0    0  0.00000000000E+00  0.00000000000E+00 -0.67730134652E+03  0.24993168437E+04  0.24057945821E+04 0.  0.
        4    1    3    3  502    0 -0.53942027968E+03  0.10317539675E+04 -0.24453972745E+02  0.11645128154E+04  0.12699999809E+01 0. -1.
       -4    1    3    3    0  502  0.53942027968E+03 -0.10317539675E+04 -0.65284737378E+03  0.13348040283E+04  0.12699999809E+01 0.  1.
</event>
<event>
 5   0  0.5690124E-07  0.2400018E+04  0.7818609E-02  0.8439497E-01
       -1   -1    0    0    0  501  0.00000000000E+00  0.00000000000E+00  0.71674760631E+03  0.71674760633E+03  0.50400001928E-02 0.  1.
        1   -1    0    0  501    0  0.00000000000E+00  0.00000000000E+00 -0.20091048402E+04  0.20091048402E+04  0.50400001928E-02 0. -1.
    10030    2    1    2    0    0  0.00000000000E+00  0.00000000000E+00 -0.12923572339E+04  0.27258524465E+04  0.24000175708E+04 0.  0.
        2    1    3    3  502    0 -0.92444294290E+03  0.67437483676E+03 -0.23565875996E+03  0.11682941523E+04  0.25500000920E-02 0.  1.
       -2    1    3    3    0  502  0.92444294290E+03 -0.67437483676E+03 -0.10566984739E+04  0.15575582942E+04  0.25500000920E-02 0. -1.
</event>
<event>
 5   0  0.1291468E-06  0.2400836E+04  0.7818609E-02  0.8439191E-01
        2   -1    0    0  501    0  0.00000000000E+00  0.00000000000E+00  0.11946657514E+04  0.11946657514E+04  0.25500000920E-02 0.  1.
       -2   -1    0    0    0  501  0.00000000000E+00  0.00000000000E+00 -0.12061980393E+04  0.12061980393E+04  0.25500000920E-02 0. -1.
    10030    2    1    2    0    0  0.00000000000E+00  0.00000000000E+00 -0.11532287975E+02  0.24008637907E+04  0.24008360935E+04 0.  0.
        4    1    3    3  502    0 -0.53075063207E+03  0.33375828786E+03 -0.10294532175E+04  0.12053490648E+04  0.12699999809E+01 0.  1.
       -4    1    3    3    0  502  0.53075063207E+03 -0.33375828786E+03  0.10179209295E+04  0.11955147259E+04  0.12699999809E+01 0. -1.
</event>
<event>
 5   0  0.1291468E-06  0.2400199E+04  0.7818609E-02  0.8439429E-01
        2   -1    0    0  501    0  0.00000000000E+00  0.00000000000E+00  0.25368647531E+04  0.25368647531E+04  0.25500000920E-02 0. -1.
       -2   -1    0    0    0  501  0.00000000000E+00  0.00000000000E+00 -0.56772388961E+03  0.56772388961E+03  0.25500000920E-02 0.  1.
    10030    2    1    2    0    0  0.00000000000E+00  0.00000000000E+00  0.19691408635E+04  0.31045886427E+04  0.24001989293E+04 0.  0.
        4    1    3    3  502    0  0.59485550611E+03 -0.36406423100E+03  0.22478366495E+04  0.23535435099E+04  0.12699999809E+01 0. -1.
       -4    1    3    3    0  502 -0.59485550611E+03  0.36406423100E+03 -0.27869578600E+03  0.75104513279E+03  0.12699999809E+01 0.  1.
</event>
<event>
 5   0  0.5363690E-07  0.2399065E+04  0.7818609E-02  0.8439854E-01
        1   -1    0    0  501    0  0.00000000000E+00  0.00000000000E+00  0.19517766991E+04  0.19517766991E+04  0.50400001928E-02 0. -1.
       -1   -1    0    0    0  501  0.00000000000E+00  0.00000000000E+00 -0.73721475415E+03  0.73721475417E+03  0.50400001928E-02 0.  1.
    10030    2    1    2    0    0  0.00000000000E+00  0.00000000000E+00  0.12145619450E+04  0.26889914533E+04  0.23990653009E+04 0.  0.
        4    1    3    3  502    0 -0.11304542558E+04 -0.16598422934E+03  0.10166587409E+04  0.15294032161E+04  0.12699999809E+01 0. -1.
       -4    1    3    3    0  502  0.11304542558E+04  0.16598422934E+03  0.19790320408E+03  0.11595882373E+04  0.12699999809E+01 0.  1.
</event>
<event>
 5   0  0.5690124E-07  0.2399954E+04  0.7818609E-02  0.8439521E-01
       -1   -1    0    0    0  501  0.00000000000E+00  0.00000000000E+00  0.54338364758E+03  0.54338364760E+03  0.50400001928E-02 0. -1.
        1   -1    0    0  501    0  0.00000000000E+00  0.00000000000E+00 -0.26499605688E+04  0.26499605688E+04  0.50400001928E-02 0.  1.
    10030    2    1    2    0    0  0.00000000000E+00  0.00000000000E+00 -0.21065769212E+04  0.31933442164E+04  0.23999543661E+04 0.  0.
        2    1    3    3  502    0 -0.11353290564E+04 -0.25386074634E+03 -0.14446884595E+04  0.18548698309E+04  0.25500000920E-02 0.  1.
       -2    1    3    3    0  502  0.11353290564E+04  0.25386074634E+03 -0.66188846175E+03  0.13384743855E+04  0.25500000920E-02 0. -1.
</event>
<event>
 5   0  0.1307477E-06  0.2401368E+04  0.7818609E-02  0.8438992E-01
        2   -1    0    0  501    0  0.00000000000E+00  0.00000000000E+00  0.19207811459E+04  0.19207811459E+04  0.25500000920E-02 0.  1.
       -2   -1    0    0    0  501  0.00000000000E+00  0.00000000000E+00 -0.75054971302E+03  0.75054971303E+03  0.25500000920E-02 0. -1.
    10030    2    1    2    0    0  0.00000000000E+00  0.00000000000E+00  0.11702314329E+04  0.26713308589E+04  0.24013677251E+04 0.  0.
        5    1    3    3  502    0  0.69674793430E+03  0.66302433854E+03  0.13846363729E+04  0.16859118994E+04  0.46999998093E+01 0.  1.
       -5    1    3    3    0  502 -0.69674793430E+03 -0.66302433854E+03 -0.21440494003E+03  0.98541895951E+03  0.46999998093E+01 0. -1.
</event>
<event>
 5   0  0.1307477E-06  0.2400008E+04  0.7818609E-02  0.8439501E-01
        2   -1    0    0  501    0  0.00000000000E+00  0.00000000000E+00  0.18209002659E+04  0.18209002659E+04  0.25500000920E-02 0.  1.
       -2   -1    0    0    0  501  0.00000000000E+00  0.00000000000E+00 -0.79082291767E+03  0.79082291768E+03  0.25500000920E-02 0. -1.
    10030    2    1    2    0    0  0.00000000000E+00  0.00000000000E+00  0.10300773482E+04  0.26117231836E+04  0.24000080509E+04 0.  0.
        5    1    3    3  502    0 -0.22752909985E+03  0.31276259355E+03 -0.72112570699E+03  0.81831186383E+03  0.46999998093E+01 0. -1.
       -5    1    3    3    0  502  0.22752909985E+03 -0.31276259355E+03  0.17512030552E+04  0.17934113197E+04  0.46999998093E+01 0.  1.
</event>
<event>
 5   0  0.5452384E-07  0.2389946E+04  0.7818609E-02  0.8443277E-01
        1   -1    0    0  501    0  0.00000000000E+00  0.00000000000E+00  0.17065433052E+04  0.17065433052E+04  0.50400001928E-02 0.  1.
       -1   -1    0    0    0  501  0.00000000000E+00  0.00000000000E+00 -0.83675603821E+03  0.83675603822E+03  0.50400001928E-02 0. -1.
    10030    2    1    2    0    0  0.00000000000E+00  0.00000000000E+00  0.86978726702E+03  0.25432993435E+04  0.23899459535E+04 0.  0.
        5    1    3    3  502    0 -0.10702311007E+04 -0.38327403364E+03  0.82682576030E+03  0.14056872062E+04  0.46999998093E+01 0.  1.
       -5    1    3    3    0  502  0.10702311007E+04  0.38327403364E+03  0.42961506720E+02  0.11376121373E+04  0.46999998093E+01 0. -1.
</event>
<event>
 5   0  0.1336057E-06  0.2401034E+04  0.7818609E-02  0.8439117E-01
        2   -1    0    0  501    0  0.00000000000E+00  0.00000000000E+00  0.13693598482E+04  0.13693598482E+04  0.25500000920E-02 0. -1.
       -2   -1    0    0    0  501  0.00000000000E+00  0.00000000000E+00 -0.10524922247E+04  0.10524922247E+04  0.25500000920E-02 0.  1.
    10030    2    1    2    0    0  0.00000000000E+00  0.00000000000E+00  0.31686762351E+03  0.24218520728E+04  0.24010336049E+04 0.  0.
        2    1    3    3  502    0  0.32574793260E+03 -0.31535284558E+03 -0.96281666234E+03  0.10642250975E+04  0.25500000920E-02 0.  1.
       -2    1    3    3    0  502 -0.32574793260E+03  0.31535284558E+03  0.12796842858E+04  0.13576269754E+04  0.25500000920E-02 0. -1.
</event>
<event>
 5   0  0.5363690E-07  0.2399227E+04  0.7818609E-02  0.8439793E-01
       -1   -1    0    0    0  501  0.00000000000E+00  0.00000000000E+00  0.82103672467E+03  0.82103672469E+03  0.50400001928E-02 0.  1.
        1   -1    0    0  501    0  0.00000000000E+00  0.00000000000E+00 -0.17527511635E+04  0.17527511635E+04  0.50400001928E-02 0. -1.
    10030    2    1    2    0    0  0.00000000000E+00  0.00000000000E+00 -0.93171443880E+03  0.25737878882E+04  0.23992274377E+04 0.  0.
        4    1    3    3  502    0  0.45342587825E+03 -0.11104317262E+04 -0.44392948036E+03  0.12789560751E+04  0.12699999809E+01 0.  1.
       -4    1    3    3    0  502 -0.45342587825E+03  0.11104317262E+04 -0.48778495844E+03  0.12948318131E+04  0.12699999809E+01 0. -1.
</event>
<event>
 5   0  0.1308662E-06  0.2401730E+04  0.7818609E-02  0.8438856E-01
        2   -1    0    0  501    0  0.00000000000E+00  0.00000000000E+00  0.19942498541E+04  0.19942498541E+04  0.25500000920E-02 0. -1.
       -2   -1    0    0    0  501  0.00000000000E+00  0.00000000000E+00 -0.72311766043E+03  0.72311766043E+03  0.25500000920E-02 0.  1.
    10030    2    1    2    0    0  0.00000000000E+00  0.00000000000E+00  0.12711321937E+04  0.27173675145E+04  0.24017304502E+04 0.  0.
        3    1    3    3  502    0 -0.19439800939E+03  0.35596504868E+03 -0.64327744712E+03  0.76046537469E+03  0.10100000352E+00 0.  1.
       -3    1    3    3    0  502  0.19439800939E+03 -0.35596504868E+03  0.19144096408E+04  0.19569021398E+04  0.10100000352E+00 0. -1.
</event>
<event>
 5   0  0.4483375E-07  0.2398754E+04  0.7818609E-02  0.8439970E-01
        4   -1    0    0  501    0  0.00000000000E+00  0.00000000000E+00  0.10296717513E+04  0.10296725345E+04  0.12699999809E+01 0. -1.
       -4   -1    0    0    0  501  0.00000000000E+00  0.00000000000E+00 -0.13970504770E+04  0.13970510543E+04  0.12699999809E+01 0.  1.
    10030    2    1    2    0    0  0.00000000000E+00  0.00000000000E+00 -0.36737872579E+03  0.24267235888E+04  0.23987538949E+04 0.  0.
        1    1    3    3  502    0  0.24850373607E+03  0.88349527226E+03  0.59744526611E+03  0.10951067751E+04  0.50400001928E-02 0. -1.
       -1    1    3    3    0  502 -0.24850373607E+03 -0.88349527226E+03 -0.96482399190E+03  0.13316168136E+04  0.50400001928E-02 0.  1.
</event>
<event>
 5   0  0.1336057E-06  0.2399744E+04  0.7818609E-02  0.8439599E-01
        2   -1    0    0  501    0  0.00000000000E+00  0.00000000000E+00  0.23935706773E+04  0.23935706773E+04  0.25500000920E-02 0.  1.
       -2   -1    0    0    0  501  0.00000000000E+00  0.00000000000E+00 -0.60148333059E+03  0.60148333060E+03  0.25500000920E-02 0. -1.
    10030    2    1    2    0    0  0.00000000000E+00  0.00000000000E+00  0.17920873467E+04  0.29950540079E+04  0.23997440388E+04 0.  0.
        2    1    3    3  502    0  0.18309940006E+03  0.62055154685E+03 -0.36511668925E+03  0.74291305640E+03  0.25500000920E-02 0. -1.
       -2    1    3    3    0  502 -0.18309940006E+03 -0.62055154685E+03  0.21572040359E+04  0.22521409515E+04  0.25500000920E-02 0.  1.
</event>
<event>
 5   0  0.5510176E-07  0.2400371E+04  0.7818609E-02  0.8439365E-01
        1   -1    0    0  501    0  0.00000000000E+00  0.00000000000E+00  0.10130109125E+04  0.10130109125E+04  0.50400001928E-02 0.  1.
       -1   -1    0    0    0  501  0.00000000000E+00  0.00000000000E+00 -0.14219448836E+04  0.14219448837E+04  0.50400001928E-02 0. -1.
    10030    2    1    2    0    0  0.00000000000E+00  0.00000000000E+00 -0.40893397115E+03  0.24349557962E+04  0.24003713747E+04 0.  0.
        3    1    3    3  502    0 -0.39743266706E+03 -0.10669440944E+04 -0.58957243456E+03  0.12821536925E+04  0.10100000352E+00 0. -1.
       -3    1    3    3    0  502  0.39743266706E+03  0.10669440944E+04  0.18063846340E+03  0.11528021036E+04  0.10100000352E+00 0.  1.
</event>
<event>
 5   0  0.1336057E-06  0.2394335E+04  0.7818609E-02  0.8441627E-01
       -2   -1    0    0    0  501  0.00000000000E+00  0.00000000000E+00  0.18219365679E+04  0.18219365679E+04  0.25500000920E-02 0.  1.
        2   -1    0    0  501    0  0.00000000000E+00  0.00000000000E+00 -0.78664133326E+03  0.78664133326E+03  0.25500000920E-02 0. -1.
    10030    2    1    2    0    0  0.00000000000E+00  0.00000000000E+00  0.10352952347E+04  0.26085779012E+04  0.23943354910E+04 0.  0.
        2    1    3    3  502    0 -0.93713872605E+03 -0.49604601329E+03  0.11231861734E+04  0.15446157514E+04  0.25500000920E-02 0.  1.
       -2    1    3    3    0  502  0.93713872605E+03  0.49604601329E+03 -0.87890938751E+02  0.10639621498E+04  0.25500000920E-02 0. -1.
</event>
<event>
 5   0  0.5452384E-07  0.2400074E+04  0.7818609E-02  0.8439476E-01
        1   -1    0    0  501    0  0.00000000000E+00  0.00000000000E+00  0.11086530037E+04  0.11086530037E+04  0.50400001928E-02 0. -1.
       -1   -1    0    0    0  501  0.00000000000E+00  0.00000000000E+00 -0.12989537811E+04  0.12989537811E+04  0.50400001928E-02 0.  1.
    10030    2    1    2    0    0  0.00000000000E+00  0.00000000000E+00 -0.19030077741E+03  0.24076067848E+04  0.24000741747E+04 0.  0.
        5    1    3    3  502    0  0.93820839566E+03 -0.17561675398E+03 -0.82475052454E+03  0.12614720590E+04  0.46999998093E+01 0.  1.
       -5    1    3    3    0  502 -0.93820839566E+03  0.17561675398E+03  0.63444974713E+03  0.11461347258E+04  0.46999998093E+01 0. -1.
</event>
<event>
 5   0  0.5363690E-07  0.2401016E+04  0.7818609E-02  0.8439123E-01
        1   -1    0    0  501    0  0.00000000000E+00  0.00000000000E+00  0.13804694502E+04  0.13804694502E+04  0.50400001928E-02 0.  1.
       -1   -1    0    0    0  501  0.00000000000E+00  0.00000000000E+00 -0.10440071904E+04  0.10440071904E+04  0.50400001928E-02 0. -1.
    10030    2    1    2    0    0  0.00000000000E+00  0.00000000000E+00  0.33646225987E+03  0.24244766406E+04  0.24010164782E+04 0.  0.
        4    1    3    3  502    0 -0.92181388237E+03 -0.75605996847E+03  0.25961215816E+02  0.11924944894E+04  0.12699999809E+01 0. -1.
       -4    1    3    3    0  502  0.92181388237E+03  0.75605996847E+03  0.31050104405E+03  0.12319821512E+04  0.12699999809E+01 0.  1.
</event>
<event>
 5   0  0.1308662E-06  0.2399663E+04  0.7818609E-02  0.8439630E-01
        2   -1    0    0  501    0  0.00000000000E+00  0.00000000000E+00  0.63429507457E+03  0.63429507458E+03  0.25500000920E-02 0.  1.
       -2   -1    0    0    0  501  0.00000000000E+00  0.00000000000E+00 -0.22695986317E+04  0.22695986317E+04  0.25500000920E-02 0. -1.
    10030    2    1    2    0    0  0.00000000000E+00  0.00000000000E+00 -0.16353035571E+04  0.29038937062E+04  0.23996626707E+04 0.  0.
        3    1    3    3  502    0 -0.11676292481E+04  0.17947433434E+03 -0.10715652559E+04  0.15949361133E+04  0.10100000352E+00 0. -1.
       -3    1    3    3    0  502  0.11676292481E+04 -0.17947433434E+03 -0.56373830120E+03  0.13089575929E+04  0.10100000352E+00 0.  1.
</event>
<event>
 5   0  0.5510176E-07  0.2394936E+04  0.7818609E-02  0.8441402E-01
       -1   -1    0    0    0  501  0.00000000000E+00  0.00000000000E+00  0.76367236532E+03  0.76367236533E+03  0.50400001928E-02 0.  1.
        1   -1    0    0  501    0  0.00000000000E+00  0.00000000000E+00 -0.18776758986E+04  0.18776758986E+04  0.50400001928E-02 0. -1.
    10030    2    1    2    0    0  0.00000000000E+00  0.00000000000E+00 -0.11140035333E+04  0.26413482639E+04  0.23949356524E+04 0.  0.
        3    1    3    3  502    0  0.84796801760E+03 -0.12744890305E+03 -0.14788456136E+04  0.17094669756E+04  0.10100000352E+00 0.  1.
       -3    1    3    3    0  502 -0.84796801760E+03  0.12744890305E+03  0.36484208030E+03  0.93188128831E+03  0.10100000352E+00 0. -1.
</event>
<event>
 5   0  0.5690124E-07  0.2386576E+04  0.7818609E-02  0.8444547E-01
       -1   -1    0    0    0  501  0.00000000000E+00  0.00000000000E+00  0.13003918424E+04  0.13003918425E+04  0.50400001928E-02 0.  1.
        1   -1    0    0  501    0  0.00000000000E+00  0.00000000000E+00 -0.10950051513E+04  0.10950051513E+04  0.50400001928E-02 0. -1.
    10030    2    1    2    0    0  0.00000000000E+00  0.00000000000E+00  0.20538669110E+03  0.23953969938E+04  0.23865755938E+04 0.  0.
        2    1    3    3  502    0  0.27111395624E+02 -0.37740604307E+03 -0.10331988127E+04  0.11003045649E+04  0.25500000920E-02 0. -1.
       -2    1    3    3    0  502 -0.27111395624E+02  0.37740604307E+03  0.12385855038E+04  0.12950924289E+04  0.25500000920E-02 0.  1.
</event>
<event>
 5   0  0.5690124E-07  0.2399574E+04  0.7818609E-02  0.8439663E-01
       -1   -1    0    0    0  501  0.00000000000E+00  0.00000000000E+00  0.16726916018E+04  0.16726916018E+04  0.50400001928E-02 0.  1.
        1   -1    0    0  501    0  0.00000000000E+00  0.00000000000E+00 -0.86058201794E+03  0.86058201796E+03  0.50400001928E-02 0. -1.
    10030    2    1    2    0    0  0.00000000000E+00  0.00000000000E+00  0.81210958386E+03  0.25332736198E+04  0.23995735572E+04 0.  0.
        2    1    3    3  502    0  0.81308428287E+03 -0.38853908786E+03 -0.43017779578E+03  0.99855976778E+03  0.25500000920E-02 0. -1.
       -2    1    3    3    0  502 -0.81308428287E+03  0.38853908786E+03  0.12422873796E+04  0.15347138520E+04  0.25500000920E-02 0.  1.
</event>
<event>
 5   0  0.1291468E-06  0.2399055E+04  0.7818609E-02  0.8439857E-01
        2   -1    0    0  501    0  0.00000000000E+00  0.00000000000E+00  0.84621780571E+03  0.84621780572E+03  0.25500000920E-02 0.  1.
       -2   -1    0    0    0  501  0.00000000000E+00  0.00000000000E+00 -0.17003497891E+04  0.17003497891E+04  0.25500000920E-02 0. -1.
    10030    2    1    2    0    0  0.00000000000E+00  0.00000000000E+00 -0.85413198337E+03  0.25465675948E+04  0.23990550369E+04 0.  0.
        4    1    3    3  502    0  0.60906980066E+03  0.25927002657E+03  0.63478140068E+03  0.91713467294E+03  0.12699999809E+01 0.  1.
       -4    1    3    3    0  502 -0.60906980066E+03 -0.25927002657E+03 -0.14889133841E+04  0.16294329219E+04  0.12699999809E+01 0. -1.
</event>
<event>
 5   0  0.5527286E-07  0.2399970E+04  0.7818609E-02  0.8439515E-01
       -1   -1    0    0    0  501  0.00000000000E+00  0.00000000000E+00  0.12075284883E+04  0.12075284883E+04  0.50400001928E-02 0.  1.
        1   -1    0    0  501    0  0.00000000000E+00  0.00000000000E+00 -0.11924887028E+04  0.11924887028E+04  0.50400001928E-02 0. -1.
    10030    2    1    2    0    0  0.00000000000E+00  0.00000000000E+00  0.15039785498E+02  0.24000171911E+04  0.23999700670E+04 0.  0.
        1    1    3    3  502    0  0.52146289718E+03  0.10807251042E+04 -0.10696036842E+01  0.11999547692E+04  0.50400001928E-02 0.  1.
       -1    1    3    3    0  502 -0.52146289718E+03 -0.10807251042E+04  0.16109389182E+02  0.12000624219E+04  0.50400001928E-02 0. -1.
</event>
<event>
 5   0  0.5527286E-07  0.2400053E+04  0.7818609E-02  0.8439484E-01
        1   -1    0    0  501    0  0.00000000000E+00  0.00000000000E+00  0.20510590467E+04  0.20510590467E+04  0.50400001928E-02 0.  1.
       -1   -1    0    0    0  501  0.00000000000E+00  0.00000000000E+00 -0.70210707401E+03  0.70210707403E+03  0.50400001928E-02 0. -1.
    10030    2    1    2    0    0  0.00000000000E+00  0.00000000000E+00  0.13489519727E+04  0.27531661207E+04  0.24000525544E+04 0.  0.
        1    1    3    3  502    0 -0.74016896655E+02  0.11776796268E+04  0.42405709205E+03  0.12538868457E+04  0.50400001928E-02 0.  1.
       -1    1    3    3    0  502  0.74016896655E+02 -0.11776796268E+04  0.92489488062E+03  0.14992792751E+04  0.50400001928E-02 0. -1.
</event>
<event>
 5   0  0.1307477E-06  0.2399821E+04  0.7818609E-02  0.8439571E-01
       -2   -1    0    0    0  501  0.00000000000E+00  0.00000000000E+00  0.97202790915E+03  0.97202790916E+03  0.25500000920E-02 0.  1.
        2   -1    0    0  501    0  0.00000000000E+00  0.00000000000E+00 -0.14812178030E+04  0.14812178030E+04  0.25500000920E-02 0. -1.
    10030    2    1    2    0    0  0.00000000000E+00  0.00000000000E+00 -0.50918989382E+03  0.24532457121E+04  0.23998208633E+04 0.  0.
        5    1    3    3  502    0  0.87833815349E+02 -0.46236023229E+03  0.87373005336E+03  0.99243038026E+03  0.46999998093E+01 0.  1.
       -5    1    3    3    0  502 -0.87833815349E+02  0.46236023229E+03 -0.13829199472E+04  0.14608153319E+04  0.46999998093E+01 0. -1.
</event>
<event>
 5   0  0.1275948E-06  0.2400283E+04  0.7818609E-02  0.8439398E-01
       -2   -1    0    0    0  501  0.00000000000E+00  0.00000000000E+00  0.48856259360E+03  0.48856259361E+03  0.25500000920E-02 0. -1.
        2   -1    0    0  501    0  0.00000000000E+00  0.00000000000E+00 -0.29481172468E+04  0.29481172468E+04  0.25500000920E-02 0.  1.
    10030    2    1    2    0    0  0.00000000000E+00  0.00000000000E+00 -0.24595546532E+04  0.34366798404E+04  0.24002831569E+04 0.  0.
        1    1    3    3  502    0  0.26822558975E+03  0.10040214629E+04 -0.37030822201E+03  0.11032371659E+04  0.50400001928E-02 0. -1.
       -1    1    3    3    0  502 -0.26822558975E+03 -0.10040214629E+04 -0.20892464312E+04  0.23334426745E+04  0.50400001928E-02 0.  1.
</event>
<event>
 5   0  0.1275948E-06  0.2399795E+04  0.7818609E-02  0.8439580E-01
        2   -1    0    0  501    0  0.00000000000E+00  0.00000000000E+00  0.20840776802E+04  0.20840776802E+04  0.25500000920E-02 0.  1.
       -2   -1    0    0    0  501  0.00000000000E+00  0.00000000000E+00 -0.69083536636E+03  0.69083536636E+03  0.25500000920E-02 0. -1.
    10030    2    1    2    0    0  0.00000000000E+00  0.00000000000E+00  0.13932423138E+04  0.27749130465E+04  0.23997954644E+04 0.  0.
        1    1    3    3  502    0  0.46282397828E+03  0.32853402331E+03 -0.52580055060E+03  0.77369687759E+03  0.50400001928E-02 0. -1.
       -1    1    3    3    0  502 -0.46282397828E+03 -0.32853402331E+03  0.19190428644E+04  0.20012161690E+04  0.50400001928E-02 0.  1.
</event>
<event>
 5   0  0.5510176E-07  0.2401645E+04  0.7818609E-02  0.8438888E-01
       -1   -1    0    0    0  501  0.00000000000E+00  0.00000000000E+00  0.77189840170E+03  0.77189840172E+03  0.50400001928E-02 0.  1.
        1   -1    0    0  501    0  0.00000000000E+00  0.00000000000E+00 -0.18680883539E+04  0.18680883539E+04  0.50400001928E-02 0. -1.
    10030    2    1    2    0    0  0.00000000000E+00  0.00000000000E+00 -0.10961899522E+04  0.26399867556E+04  0.24016447819E+04 0.  0.
        3    1    3    3  502    0  0.48338226380E+03  0.55986748461E+01  0.66021289228E+03  0.81827307878E+03  0.10100000352E+00 0.  1.
       -3    1    3    3    0  502 -0.48338226380E+03 -0.55986748461E+01 -0.17564028444E+04  0.18217136768E+04  0.10100000352E+00 0. -1.
</event>
<event>
 5   0  0.1307477E-06  0.2399527E+04  0.7818609E-02  0.8439681E-01
        2   -1    0    0  501    0  0.00000000000E+00  0.00000000000E+00  0.16580778780E+04  0.16580778780E+04  0.25500000920E-02 0.  1.
       -2   -1    0    0    0  501  0.00000000000E+00  0.00000000000E+00 -0.86813310437E+03  0.86813310438E+03  0.25500000920E-02 0. -1.
    10030    2    1    2    0    0  0.00000000000E+00  0.00000000000E+00  0.78994477365E+03  0.25262109824E+04  0.23995268663E+04 0.  0.
        5    1    3    3  502    0 -0.71061813269E+03 -0.82885444668E+03 -0.12871518744E+03  0.10993486771E+04  0.46999998093E+01 0. -1.
       -5    1    3    3    0  502  0.71061813269E+03  0.82885444668E+03  0.91865996109E+03  0.14268623053E+04  0.46999998093E+01 0.  1.
</event>
<event>
 5   0  0.1336057E-06  0.2401535E+04  0.7818609E-02  0.8438929E-01
        2   -1    0    0  501    0  0.00000000000E+00  0.00000000000E+00  0.13983554073E+04  0.13983554073E+04  0.25500000920E-02 0. -1.
       -2   -1    0    0    0  501  0.00000000000E+00  0.00000000000E+00 -0.10310985004E+04  0.10310985004E+04  0.25500000920E-02 0.  1.
    10030    2    1    2    0    0  0.00000000000E+00  0.00000000000E+00  0.36725690695E+03  0.24294539077E+04  0.24015346456E+04 0.  0.
        2    1    3    3  502    0 -0.26884447649E+03 -0.11508664551E+04  0.39839638417E+03  0.12471931001E+04  0.25500000920E-02 0. -1.
       -2    1    3    3    0  502  0.26884447649E+03  0.11508664551E+04 -0.31139477218E+02  0.11822608076E+04  0.25500000920E-02 0.  1.
</event>
<event>
 5   0  0.5452384E-07  0.2399977E+04  0.7818609E-02  0.8439512E-01
        1   -1    0    0  501    0  0.00000000000E+00  0.00000000000E+00  0.10293807331E+04  0.10293807331E+04  0.50400001928E-02 0. -1.
       -1   -1    0    0    0  501  0.00000000000E+00  0.00000000000E+00 -0.13988720797E+04  0.13988720797E+04  0.50400001928E-02 0.  1.
    10030    2    1    2    0    0  0.00000000000E+00  0.00000000000E+00 -0.36949134663E+03  0.24282528128E+04  0.23999766390E+04 0.  0.
        5    1    3    3  502    0  0.66670707786E+03 -0.91323578670E+03  0.22179923827E+03  0.11522651266E+04  0.46999998093E+01 0.  1.
       -5    1    3    3    0  502 -0.66670707786E+03  0.91323578670E+03 -0.59129058489E+03  0.12759876863E+04  0.46999998093E+01 0. -1.
</event>
<event>
 5   0  0.1275948E-06  0.2400805E+04  0.7818609E-02  0.8439202E-01
        2   -1    0    0  501    0  0.00000000000E+00  0.00000000000E+00  0.97249789796E+03  0.97249789796E+03  0.25500000920E-02 0. -1.
       -2   -1    0    0    0  501  0.00000000000E+00  0.00000000000E+00 -0.14817165196E+04  0.14817165196E+04  0.25500000920E-02 0.  1.
    10030    2    1    2    0    0  0.00000000000E+00  0.00000000000E+00 -0.50921862167E+03  0.24542144176E+04  0.24008050323E+04 0.  0.
        1    1    3    3  502    0  0.18388822623E+03 -0.42790764182E+03 -0.13855883230E+04  0.14617711280E+04  0.50400001928E-02 0.  1.
       -1    1    3    3    0  502 -0.18388822623E+03  0.42790764182E+03  0.87636970134E+03  0.99244328963E+03  0.50400001928E-02 0. -1.
</event>
<event>
 5   0  0.1291468E-06  0.2398440E+04  0.7818609E-02  0.8440088E-01
       -2   -1    0    0    0  501  0.00000000000E+00  0.00000000000E+00  0.60421241801E+03  0.60421241802E+03  0.25500000920E-02 0. -1.
        2   -1    0    0  501    0  0.00000000000E+00  0.00000000000E+00 -0.23801710489E+04  0.23801710489E+04  0.25500000920E-02 0.  1.
    10030    2    1    2    0    0  0.00000000000E+00  0.00000000000E+00 -0.17759586309E+04  0.29843834669E+04  0.23984402471E+04 0.  0.
        4    1    3    3  502    0 -0.11058335315E+04 -0.31697167580E+02 -0.31202109108E+03  0.11494482520E+04  0.12699999809E+01 0. -1.
       -4    1    3    3    0  502  0.11058335315E+04  0.31697167580E+02 -0.14639375398E+04  0.18349352150E+04  0.12699999809E+01 0.  1.
</event>
<event>
 5   0  0.1275948E-06  0.2399407E+04  0.7818609E-02  0.8439726E-01
       -2   -1    0    0    0  501  0.00000000000E+00  0.00000000000E+00  0.99317524314E+03  0.99317524314E+03  0.25500000920E-02 0.  1.
        2   -1    0    0  501    0  0.00000000000E+00  0.00000000000E+00 -0.14491788654E+04  0.14491788654E+04  0.25500000920E-02 0. -1.
    10030    2    1    2    0    0  0.00000000000E+00  0.00000000000E+00 -0.45600362224E+03  0.24423541085E+04  0.23994070701E+04 0.  0.
        1    1    3    3  502    0  0.24251821721E+03 -0.50319585149E+03 -0.13087342188E+04  0.14229569235E+04  0.50400001928E-02 0. -1.
       -1    1    3    3    0  502 -0.24251821721E+03  0.50319585149E+03  0.85273059653E+03  0.10193971851E+04  0.50400001928E-02 0.  1.
</event>
<event>
 5   0  0.1336057E-06  0.2401464E+04  0.7818609E-02  0.8438956E-01
        2   -1    0    0  501    0  0.00000000000E+00  0.00000000000E+00  0.13637966229E+04  0.13637966229E+04  0.25500000920E-02 0.  1.
       -2   -1    0    0    0  501  0.00000000000E+00  0.00000000000E+00 -0.10571644021E+04  0.10571644021E+04  0.25500000920E-02 0. -1.
    10030    2    1    2    0    0  0.00000000000E+00  0.00000000000E+00  0.30663222073E+03  0.24209610250E+04  0.24014639214E+04 0.  0.
        2    1    3    3  502    0 -0.87870565009E+02 -0.11432013838E+04  0.51275904359E+03  0.12560065593E+04  0.25500000920E-02 0.  1.
       -2    1    3    3    0  502  0.87870565009E+02  0.11432013838E+04 -0.20612682286E+03  0.11649544657E+04  0.25500000920E-02 0. -1.
</event>
<event>
 5   0  0.5690124E-07  0.2400919E+04  0.7818609E-02  0.8439159E-01
       -1   -1    0    0    0  501  0.00000000000E+00  0.00000000000E+00  0.87059693495E+03  0.87059693497E+03  0.50400001928E-02 0.  1.
        1   -1    0    0  501    0  0.00000000000E+00  0.00000000000E+00 -0.16553049820E+04  0.16553049820E+04  0.50400001928E-02 0. -1.
    10030    2    1    2    0    0  0.00000000000E+00  0.00000000000E+00 -0.78470804703E+03  0.25259019170E+04  0.24009193604E+04 0.  0.
        2    1    3    3  502    0  0.29656437900E+03  0.94052242554E+03  0.32780170126E+03  0.10392241429E+04  0.25500000920E-02 0.  1.
       -2    1    3    3    0  502 -0.29656437900E+03 -0.94052242554E+03 -0.11125097483E+04  0.14866777741E+04  0.25500000920E-02 0. -1.
</event>
<event>
 5   0  0.5690124E-07  0.2400201E+04  0.7818609E-02  0.8439428E-01
        1   -1    0    0  501    0  0.00000000000E+00  0.00000000000E+00  0.13319442318E+04  0.13319442318E+04  0.50400001928E-02 0.  1.
       -1   -1    0    0    0  501  0.00000000000E+00  0.00000000000E+00 -0.10813078042E+04  0.10813078042E+04  0.50400001928E-02 0. -1.
    10030    2    1    2    0    0  0.00000000000E+00  0.00000000000E+00  0.25063642761E+03  0.24132520360E+04  0.24002014021E+04 0.  0.
        2    1    3    3  502    0 -0.46688158610E+03  0.10809789835E+04 -0.10777788035E+03  0.11824170372E+04  0.25500000920E-02 0. -1.
       -2    1    3    3    0  502  0.46688158610E+03 -0.10809789835E+04  0.35841430796E+03  0.12308349989E+04  0.25500000920E-02 0.  1.
</event>
<event>
 5   0  0.1275948E-06  0.2396590E+04  0.7818609E-02  0.8440781E-01
       -2   -1    0    0    0  501  0.00000000000E+00  0.00000000000E+00  0.87319138924E+03  0.87319138924E+03  0.25500000920E-02 0. -1.
        2   -1    0    0  501    0  0.00000000000E+00  0.00000000000E+00 -0.16444401192E+04  0.16444401192E+04  0.25500000920E-02 0.  1.
    10030    2    1    2    0    0  0.00000000000E+00  0.00000000000E+00 -0.77124872995E+03  0.25176315084E+04  0.23965900377E+04 0.  0.
        1    1    3    3  502    0 -0.98518484770E+03  0.59328533168E+03 -0.73927876576E+03  0.13671538913E+04  0.50400001928E-02 0.  1.
       -1    1    3    3    0  502  0.98518484770E+03 -0.59328533168E+03 -0.31969964193E+02  0.11504776171E+04  0.50400001928E-02 0. -1.
</event>
<event>
 5   0  0.5527286E-07  0.2401304E+04  0.7818609E-02  0.8439016E-01
        1   -1    0    0  501    0  0.00000000000E+00  0.00000000000E+00  0.15617877379E+04  0.15617877379E+04  0.50400001928E-02 0.  1.
       -1   -1    0    0    0  501  0.00000000000E+00  0.00000000000E+00 -0.92302228661E+03  0.92302228662E+03  0.50400001928E-02 0. -1.
    10030    2    1    2    0    0  0.00000000000E+00  0.00000000000E+00  0.63876545131E+03  0.24848100246E+04  0.24013037201E+04 0.  0.
        1    1    3    3  502    0 -0.77622780532E+03 -0.62696997922E+03  0.10103957363E+04  0.14200424305E+04  0.50400001928E-02 0.  1.
       -1    1    3    3    0  502  0.77622780532E+03  0.62696997922E+03 -0.37163028494E+03  0.10647675940E+04  0.50400001928E-02 0. -1.
</event>
<event>
 5   0  0.5452384E-07  0.2399391E+04  0.7818609E-02  0.8439732E-01
        1   -1    0    0  501    0  0.00000000000E+00  0.00000000000E+00  0.18920590881E+04  0.18920590881E+04  0.50400001928E-02 0. -1.
       -1   -1    0    0    0  501  0.00000000000E+00  0.00000000000E+00 -0.76068951709E+03  0.76068951710E+03  0.50400001928E-02 0.  1.
    10030    2    1    2    0    0  0.00000000000E+00  0.00000000000E+00  0.11313695710E+04  0.26527486052E+04  0.23993911845E+04 0.  0.
        5    1    3    3  502    0  0.34466171115E+03 -0.30092775282E+03 -0.66042574338E+03  0.80345096929E+03  0.46999998093E+01 0.  1.
       -5    1    3    3    0  502 -0.34466171115E+03  0.30092775282E+03  0.17917953144E+04  0.18492976359E+04  0.46999998093E+01 0. -1.
</event>
<event>
 5   0  0.1275948E-06  0.2401038E+04  0.7818609E-02  0.8439115E-01
        2   -1    0    0  501    0  0.00000000000E+00  0.00000000000E+00  0.17761478918E+04  0.17761478918E+04  0.25500000920E-02 0.  1.
       -2   -1    0    0    0  501  0.00000000000E+00  0.00000000000E+00 -0.81144460951E+03  0.81144460952E+03  0.25500000920E-02 0. -1.
    10030    2    1    2    0    0  0.00000000000E+00  0.00000000000E+00  0.96470328228E+03  0.25875925013E+04  0.24010378027E+04 0.  0.
        1    1    3    3  502    0 -0.10926179834E+03  0.57152506155E+02 -0.80460200544E+03  0.81399566136E+03  0.50400001928E-02 0. -1.
       -1    1    3    3    0  502  0.10926179834E+03 -0.57152506155E+02  0.17693052877E+04  0.17735968400E+04  0.50400001928E-02 0.  1.
</event>
<event>
 5   0  0.5363690E-07  0.2399985E+04  0.7818609E-02  0.8439509E-01
        1   -1    0    0  501    0  0.00000000000E+00  0.00000000000E+00  0.29431637881E+04  0.29431637881E+04  0.50400001928E-02 0. -1.
       -1   -1    0    0    0  501  0.00000000000E+00  0.00000000000E+00 -0.48926342365E+03  0.48926342368E+03  0.50400001928E-02 0.  1.
    10030    2    1    2    0    0  0.00000000000E+00  0.00000000000E+00  0.24539003645E+04  0.34324272118E+04  0.23999853261E+04 0.  0.
        4    1    3    3  502    0 -0.68763691777E+03  0.87298153679E+03  0.18745571314E+04  0.21791987854E+04  0.12699999809E+01 0.  1.
       -4    1    3    3    0  502  0.68763691777E+03 -0.87298153679E+03  0.57934323303E+03  0.12532284264E+04  0.12699999809E+01 0. -1.
</event>
<event>
 5   0  0.1336057E-06  0.2400917E+04  0.7818609E-02  0.8439160E-01
       -2   -1    0    0    0  501  0.00000000000E+00  0.00000000000E+00  0.13634603678E+04  0.13634603678E+04  0.25500000920E-02 0.  1.
        2   -1    0    0  501    0  0.00000000000E+00  0.00000000000E+00 -0.10569436568E+04  0.10569436568E+04  0.25500000920E-02 0. -1.
    10030    2    1    2    0    0  0.00000000000E+00  0.00000000000E+00  0.30651671097E+03  0.24204040246E+04  0.24009171473E+04 0.  0.
        2    1    3    3  502    0  0.92140666607E+02 -0.40297081703E+03  0.12894486898E+04  0.13540876284E+04  0.25500000920E-02 0.  1.
       -2    1    3    3    0  502 -0.92140666607E+02  0.40297081703E+03 -0.98293197881E+03  0.10663163962E+04  0.25500000920E-02 0. -1.
</event>
<event>
 5   0  0.5363690E-07  0.2400055E+04  0.7818609E-02  0.8439483E-01
        1   -1    0    0  501    0  0.00000000000E+00  0.00000000000E+00  0.10131684214E+04  0.10131684214E+04  0.50400001928E-02 0.  1.
       -1   -1    0    0    0  501  0.00000000000E+00  0.00000000000E+00 -0.14213488153E+04  0.14213488153E+04  0.50400001928E-02 0. -1.
    10030    2    1    2    0    0  0.00000000000E+00  0.00000000000E+00 -0.40818039392E+03  0.24345172367E+04  0.24000547789E+04 0.  0.
        4    1    3    3  502    0 -0.65671408843E+03  0.45797409875E+03  0.70264150613E+03  0.10652325418E+04  0.12699999809E+01 0.  1.
       -4    1    3    3    0  502  0.65671408843E+03 -0.45797409875E+03 -0.11108219000E+04  0.13692846949E+04  0.12699999809E+01 0. -1.
</event>
<event>
 5   0  0.5527286E-07  0.2398905E+04  0.7818609E-02  0.8439914E-01
       -1   -1    0    0    0  501  0.00000000000E+00  0.00000000000E+00  0.12079287205E+04  0.12079287205E+04  0.50400001928E-02 0. -1.
        1   -1    0    0  501    0  0.00000000000E+00  0.00000000000E+00 -0.11910359252E+04  0.11910359252E+04  0.50400001928E-02 0.  1.
    10030    2    1    2    0    0  0.00000000000E+00  0.00000000000E+00  0.16892795276E+02  0.23989646457E+04  0.23989051679E+04 0.  0.
        1    1    3    3  502    0  0.91062267628E+03 -0.76195443737E+02 -0.76852015932E+03  0.11940111555E+04  0.50400001928E-02 0.  1.
       -1    1    3    3    0  502 -0.91062267628E+03  0.76195443737E+02  0.78541295460E+03  0.12049534902E+04  0.50400001928E-02 0. -1.
</event>
<event>
 5   0  0.1307477E-06  0.2401589E+04  0.7818609E-02  0.8438909E-01
        2   -1    0    0  501    0  0.00000000000E+00  0.00000000000E+00  0.17514822911E+04  0.17514822911E+04  0.25500000920E-02 0. -1.
       -2   -1    0    0    0  501  0.00000000000E+00  0.00000000000E+00 -0.82325008283E+03  0.82325008283E+03  0.25500000920E-02 0.  1.
    10030    2    1    2    0    0  0.00000000000E+00  0.00000000000E+00  0.92823220824E+03  0.25747323739E+04  0.24015894247E+04 0.  0.
        5    1    3    3  502    0 -0.64247355449E+03  0.10132087157E+04  0.41027940267E+03  0.12679571949E+04  0.46999998093E+01 0.  1.
       -5    1    3    3    0  502  0.64247355449E+03 -0.10132087157E+04  0.51795280557E+03  0.13067751790E+04  0.46999998093E+01 0. -1.
</event>
<event>
 5   0  0.5510176E-07  0.2399079E+04  0.7818609E-02  0.8439848E-01
        1   -1    0    0  501    0  0.00000000000E+00  0.00000000000E+00  0.19072233787E+04  0.19072233787E+04  0.50400001928E-02 0.  1.
       -1   -1    0    0    0  501  0.00000000000E+00  0.00000000000E+00 -0.75444508625E+03  0.75444508627E+03  0.50400001928E-02 0. -1.
    10030    2    1    2    0    0  0.00000000000E+00  0.00000000000E+00  0.11527782925E+04  0.26616684650E+04  0.23990792455E+04 0.  0.
        3    1    3    3  502    0  0.72235214730E+03 -0.35566043181E+03 -0.41009488193E+03  0.90358441214E+03  0.10100000352E+00 0. -1.
       -3    1    3    3    0  502 -0.72235214730E+03  0.35566043181E+03  0.15628731744E+04  0.17580840529E+04  0.10100000352E+00 0.  1.
</event>
<event>
 5   0  0.5510176E-07  0.2399919E+04  0.7818609E-02  0.8439534E-01
       -1   -1    0    0    0  501  0.00000000000E+00  0.00000000000E+00  0.14949553607E+04  0.14949553607E+04  0.50400001928E-02 0. -1.
        1   -1    0    0  501    0  0.00000000000E+00  0.00000000000E+00 -0.96317451507E+03  0.96317451509E+03  0.50400001928E-02 0.  1.
    10030    2    1    2    0    0  0.00000000000E+00  0.00000000000E+00  0.53178084562E+03  0.24581298758E+04  0.23999190858E+04 0.  0.
        3    1    3    3  502    0  0.71101369158E+03 -0.49123594286E+03  0.11185789255E+04  0.14135317627E+04  0.10100000352E+00 0. -1.
       -3    1    3    3    0  502 -0.71101369158E+03  0.49123594286E+03 -0.58679807993E+03  0.10445981131E+04  0.10100000352E+00 0.  1.
</event>
<event>
 5   0  0.1336057E-06  0.2399854E+04  0.7818609E-02  0.8439558E-01
       -2   -1    0    0    0  501  0.00000000000E+00  0.00000000000E+00  0.12195038253E+04  0.12195038253E+04  0.25500000920E-02 0. -1.
        2   -1    0    0  501    0  0.00000000000E+00  0.00000000000E+00 -0.11806639793E+04  0.11806639793E+04  0.25500000920E-02 0.  1.
    10030    2    1    2    0    0  0.00000000000E+00  0.00000000000E+00  0.38839846073E+02  0.24001678046E+04  0.23998535282E+04 0.  0.
        2    1    3    3  502    0 -0.10205821781E+03 -0.88433660329E+03 -0.78527051047E+03  0.11870622909E+04  0.25500000920E-02 0.  1.
       -2    1    3    3    0  502  0.10205821781E+03  0.88433660329E+03  0.82411035655E+03  0.12131055138E+04  0.25500000920E-02 0. -1.
</event>
<event>
 5   0  0.1291468E-06  0.2408083E+04  0.7818609E-02  0.8436483E-01
        2   -1    0    0  501    0  0.00000000000E+00  0.00000000000E+00  0.12896784439E+04  0.12896784439E+04  0.25500000920E-02 0.  1.
       -2   -1    0    0    0  501  0.00000000000E+00  0.00000000000E+00 -0.11240913837E+04  0.11240913837E+04  0.25500000920E-02 0. -1.
    10030    2    1    2    0    0  0.00000000000E+00  0.00000000000E+00  0.16558706017E+03  0.24137698276E+04  0.24080834093E+04 0.  0.
        4    1    3    3  502    0 -0.65938892749E+03 -0.75443122101E+03 -0.58643159872E+03  0.11609753907E+04  0.12699999809E+01 0. -1.
       -4    1    3    3    0  502  0.65938892749E+03  0.75443122101E+03  0.75201865889E+03  0.12527944369E+04  0.12699999809E+01 0.  1.
</event>
<event>
 5   0  0.5510176E-07  0.2400938E+04  0.7818609E-02  0.8439153E-01
        1   -1    0    0  501    0  0.00000000000E+00  0.00000000000E+00  0.22401958968E+04  0.22401958968E+04  0.50400001928E-02 0. -1.
       -1   -1    0    0    0  501  0.00000000000E+00  0.00000000000E+00 -0.64330324040E+03  0.64330324042E+03  0.50400001928E-02 0.  1.
    10030    2    1    2    0    0  0.00000000000E+00  0.00000000000E+00  0.15968926564E+04  0.28834991372E+04  0.24009375498E+04 0.  0.
        3    1    3    3  502    0 -0.10286774575E+04  0.61862642022E+03  0.77948324751E+03  0.14312477433E+04  0.10100000352E+00 0. -1.
       -3    1    3    3    0  502  0.10286774575E+04 -0.61862642022E+03  0.81740940888E+03  0.14522513939E+04  0.10100000352E+00 0.  1.
</event>
<event>
 5   0  0.1336057E-06  0.2399371E+04  0.7818609E-02  0.8439739E-01
        2   -1    0    0  501    0  0.00000000000E+00  0.00000000000E+00  0.16687255636E+04  0.16687255636E+04  0.25500000920E-02 0. -1.
       -2   -1    0    0    0  501  0.00000000000E+00  0.00000000000E+00 -0.86248145792E+03  0.86248145793E+03  0.25500000920E-02 0.  1.
    10030    2    1    2    0    0  0.00000000000E+00  0.00000000000E+00  0.80624410570E+03  0.25312070216E+04  0.23993706316E+04 0.  0.
        2    1    3    3  502    0 -0.63788303052E+02 -0.65578402677E+02  0.16650403392E+04  0.16675517401E+04  0.25500000920E-02 0. -1.
       -2    1    3    3    0  502  0.63788303052E+02  0.65578402677E+02 -0.85879623353E+03  0.86365528149E+03  0.25500000920E-02 0.  1.
</event>
<event>
 5   0  0.1291468E-06  0.2399688E+04  0.7818609E-02  0.8439620E-01
       -2   -1    0    0    0  501  0.00000000000E+00  0.00000000000E+00  0.13239511581E+04  0.13239511581E+04  0.25500000920E-02 0.  1.
        2   -1    0    0  501    0  0.00000000000E+00  0.00000000000E+00 -0.10873706934E+04  0.10873706935E+04  0.25500000920E-02 0. -1.
    10030    2    1    2    0    0  0.00000000000E+00  0.00000000000E+00  0.23658046462E+03  0.24113218515E+04  0.23996880538E+04 0.  0.
        4    1    3    3  502    0 -0.88689951401E+03  0.45983161336E+03 -0.54945243824E+03  0.11401471201E+04  0.12699999809E+01 0. -1.
       -4    1    3    3    0  502  0.88689951401E+03 -0.45983161336E+03  0.78603290286E+03  0.12711747315E+04  0.12699999809E+01 0.  1.
</event>
<event>
 5   0  0.1308662E-06  0.2402100E+04  0.7818609E-02  0.8438718E-01
       -2   -1    0    0    0  501  0.00000000000E+00  0.00000000000E+00  0.81372258875E+03  0.81372258875E+03  0.25500000920E-02 0. -1.
        2   -1    0    0  501    0  0.00000000000E+00  0.00000000000E+00 -0.17727436023E+04  0.17727436023E+04  0.25500000920E-02 0.  1.
    10030    2    1    2    0    0  0.00000000000E+00  0.00000000000E+00 -0.95902101359E+03  0.25864661911E+04  0.24021003420E+04 0.  0.
        3    1    3    3  502    0  0.92207987792E+02  0.11768900567E+04 -0.71773559903E+03  0.13815632157E+04  0.10100000352E+00 0. -1.
       -3    1    3    3    0  502 -0.92207987792E+02 -0.11768900567E+04 -0.24128541457E+03  0.12049029754E+04  0.10100000352E+00 0.  1.
</event>
<event>
 5   0  0.5510176E-07  0.2400496E+04  0.7818609E-02  0.8439318E-01
       -1   -1    0    0    0  501  0.00000000000E+00  0.00000000000E+00  0.70019950774E+03  0.70019950776E+03  0.50400001928E-02 0. -1.
        1   -1    0    0  501    0  0.00000000000E+00  0.00000000000E+00 -0.20574069578E+04  0.20574069578E+04  0.50400001928E-02 0.  1.
    10030    2    1    2    0    0  0.00000000000E+00  0.00000000000E+00 -0.13572074500E+04  0.27576064655E+04  0.24004960646E+04 0.  0.
        3    1    3    3  502    0  0.70163237197E+03 -0.71155767880E+02  0.43708581666E+03  0.82969581776E+03  0.10100000352E+00 0. -1.
       -3    1    3    3    0  502 -0.70163237197E+03  0.71155767880E+02 -0.17942932667E+04  0.19279106478E+04  0.10100000352E+00 0.  1.
</event>
<event>
 5   0  0.1336057E-06  0.2400834E+04  0.7818609E-02  0.8439191E-01
        2   -1    0    0  501    0  0.00000000000E+00  0.00000000000E+00  0.13313621772E+04  0.13313621772E+04  0.25500000920E-02 0.  1.
       -2   -1    0    0    0  501  0.00000000000E+00  0.00000000000E+00 -0.10823506957E+04  0.10823506957E+04  0.25500000920E-02 0. -1.
    10030    2    1    2    0    0  0.00000000000E+00  0.00000000000E+00  0.24901148151E+03  0.24137128729E+04  0.24008338374E+04 0.  0.
        2    1    3    3  502    0  0.83087098927E+03  0.24047092929E+03 -0.71232223493E+03  0.11205248034E+04  0.25500000920E-02 0. -1.
       -2    1    3    3    0  502 -0.83087098927E+03 -0.24047092929E+03  0.96133371644E+03  0.12931880695E+04  0.25500000920E-02 0.  1.
</event>
<event>
 5   0  0.4483375E-07  0.2399269E+04  0.7818609E-02  0.8439777E-01
        3   -1    0    0  501    0  0.00000000000E+00  0.00000000000E+00  0.21971812237E+04  0.21971812260E+04  0.10100000352E+00 0. -1.
       -3   -1    0    0    0  501  0.00000000000E+00  0.00000000000E+00 -0.65498614408E+03  0.65498615186E+03  0.10100000352E+00 0.  1.
    10030    2    1    2    0    0  0.00000000000E+00  0.00000000000E+00  0.15421950796E+04  0.28521673779E+04  0.23992692821E+04 0.  0.
        2    1    3    3  502    0 -0.10626576327E+04  0.42353139935E+03  0.12005415641E+04  0.16582883156E+04  0.25500000920E-02 0. -1.
       -2    1    3    3    0  502  0.10626576327E+04 -0.42353139935E+03  0.34165351548E+03  0.11938790622E+04  0.25500000920E-02 0.  1.
</event>
<event>
 5   0  0.5363690E-07  0.2400530E+04  0.7818609E-02  0.8439305E-01
        1   -1    0    0  501    0  0.00000000000E+00  0.00000000000E+00  0.11503693935E+04  0.11503693935E+04  0.50400001928E-02 0.  1.
       -1   -1    0    0    0  501  0.00000000000E+00  0.00000000000E+00 -0.12523247442E+04  0.12523247442E+04  0.50400001928E-02 0. -1.
    10030    2    1    2    0    0  0.00000000000E+00  0.00000000000E+00 -0.10195535070E+03  0.24026941377E+04  0.24005299885E+04 0.  0.
        4    1    3    3  502    0 -0.89623038145E+03  0.77053436222E+03 -0.26016931225E+03  0.12102238570E+04  0.12699999809E+01 0.  1.
       -4    1    3    3    0  502  0.89623038145E+03 -0.77053436222E+03  0.15821396154E+03  0.11924702808E+04  0.12699999809E+01 0. -1.
</event>
<event>
 5   0  0.1336057E-06  0.2399921E+04  0.7818609E-02  0.8439533E-01
       -2   -1    0    0    0  501  0.00000000000E+00  0.00000000000E+00  0.18321248681E+04  0.18321248681E+04  0.25500000920E-02 0.  1.
        2   -1    0    0  501    0  0.00000000000E+00  0.00000000000E+00 -0.78592095205E+03  0.78592095205E+03  0.25500000920E-02 0. -1.
    10030    2    1    2    0    0  0.00000000000E+00  0.00000000000E+00  0.10462039160E+04  0.26180458201E+04  0.23999210992E+04 0.  0.
        2    1    3    3  502    0 -0.34521528379E+03  0.11315223676E+04  0.74233755794E+03  0.13966322030E+04  0.25500000920E-02 0. -1.
       -2    1    3    3    0  502  0.34521528379E+03 -0.11315223676E+04  0.30386635807E+03  0.12214136171E+04  0.25500000920E-02 0.  1.
</event>
<event>
 5   0  0.5452384E-07  0.2399595E+04  0.7818609E-02  0.8439655E-01
        1   -1    0    0  501    0  0.00000000000E+00  0.00000000000E+00  0.11153867259E+04  0.11153867259E+04  0.50400001928E-02 0.  1.
       -1   -1    0    0    0  501  0.00000000000E+00  0.00000000000E+00 -0.12905963610E+04  0.12905963610E+04  0.50400001928E-02 0. -1.
    10030    2    1    2    0    0  0.00000000000E+00  0.00000000000E+00 -0.17520963505E+03  0.24059830869E+04  0.23995950071E+04 0.  0.
        5    1    3    3  502    0  0.71264120498E+03  0.60274090739E+03 -0.84349363161E+03  0.12580372352E+04  0.46999998093E+01 0. -1.
       -5    1    3    3    0  502 -0.71264120498E+03 -0.60274090739E+03  0.66828399657E+03  0.11479458517E+04  0.46999998093E+01 0.  1.
</event>
<event>
 5   0  0.5452384E-07  0.2400237E+04  0.7818609E-02  0.8439415E-01
       -1   -1    0    0    0  501  0.00000000000E+00  0.00000000000E+00  0.92058874600E+03  0.92058874602E+03  0.50400001928E-02 0. -1.
        1   -1    0    0  501    0  0.00000000000E+00  0.00000000000E+00 -0.15645254848E+04  0.15645254848E+04  0.50400001928E-02 0.  1.
    10030    2    1    2    0    0  0.00000000000E+00  0.00000000000E+00 -0.64393673879E+03  0.24851142308E+04  0.24002371168E+04 0.  0.
        5    1    3    3  502    0 -0.11504575609E+04 -0.59990207481E+02 -0.67018114917E+03  0.13327851617E+04  0.46999998093E+01 0.  1.
       -5    1    3    3    0  502  0.11504575609E+04  0.59990207481E+02  0.26244410376E+02  0.11523290691E+04  0.46999998093E+01 0. -1.
</event>
<event>
 5   0  0.5510176E-07  0.2400741E+04  0.7818609E-02  0.8439226E-01
       -1   -1    0    0    0  501  0.00000000000E+00  0.00000000000E+00  0.75490013493E+03  0.75490013494E+03  0.50400001928E-02 0.  1.
        1   -1    0    0  501    0  0.00000000000E+00  0.00000000000E+00 -0.19087147071E+04  0.19087147071E+04  0.50400001928E-02 0. -1.
    10030    2    1    2    0    0  0.00000000000E+00  0.00000000000E+00 -0.11538145721E+04  0.26636148420E+04  0.24007407106E+04 0.  0.
        3    1    3    3  502    0  0.95346857753E+03  0.62847209846E+03 -0.16652911292E+03  0.11540413608E+04  0.10100000352E+00 0. -1.
       -3    1    3    3    0  502 -0.95346857753E+03 -0.62847209846E+03 -0.98728545922E+03  0.15095734812E+04  0.10100000352E+00 0.  1.
</event>
<event>
 5   0  0.5690124E-07  0.2398203E+04  0.7818609E-02  0.8440177E-01
       -1   -1    0    0    0  501  0.00000000000E+00  0.00000000000E+00  0.13352107808E+04  0.13352107808E+04  0.50400001928E-02 0.  1.
        1   -1    0    0  501    0  0.00000000000E+00  0.00000000000E+00 -0.10768671712E+04  0.10768671712E+04  0.50400001928E-02 0. -1.
    10030    2    1    2    0    0  0.00000000000E+00  0.00000000000E+00  0.25834360957E+03  0.24120779520E+04  0.23982032078E+04 0.  0.
        2    1    3    3  502    0  0.17728818269E+03 -0.10057694113E+02  0.13219131184E+04  0.13337865457E+04  0.25500000920E-02 0.  1.
       -2    1    3    3    0  502 -0.17728818269E+03  0.10057694113E+02 -0.10635695088E+04  0.10782914063E+04  0.25500000920E-02 0. -1.
</event>
<event>
 5   0  0.1307477E-06  0.2399661E+04  0.7818609E-02  0.8439631E-01
       -2   -1    0    0    0  501  0.00000000000E+00  0.00000000000E+00  0.11543431253E+04  0.11543431253E+04  0.25500000920E-02 0. -1.
        2   -1    0    0  501    0  0.00000000000E+00  0.00000000000E+00 -0.12471100716E+04  0.12471100716E+04  0.25500000920E-02 0.  1.
    10030    2    1    2    0    0  0.00000000000E+00  0.00000000000E+00 -0.92766946339E+02  0.24014531969E+04  0.23996607574E+04 0.  0.
        5    1    3    3  502    0 -0.63630860799E+03 -0.73997072782E+03  0.65208164324E+03  0.11737452373E+04  0.46999998093E+01 0. -1.
       -5    1    3    3    0  502  0.63630860799E+03  0.73997072782E+03 -0.74484858957E+03  0.12277079596E+04  0.46999998093E+01 0.  1.
</event>
<event>
 5   0  0.5363690E-07  0.2399182E+04  0.7818609E-02  0.8439810E-01
        1   -1    0    0  501    0  0.00000000000E+00  0.00000000000E+00  0.84645186042E+03  0.84645186044E+03  0.50400001928E-02 0.  1.
       -1   -1    0    0    0  501  0.00000000000E+00  0.00000000000E+00 -0.17000589152E+04  0.17000589153E+04  0.50400001928E-02 0. -1.
    10030    2    1    2    0    0  0.00000000000E+00  0.00000000000E+00 -0.85360705483E+03  0.25465107757E+04  0.23991815535E+04 0.  0.
        4    1    3    3  502    0  0.85054362720E+02 -0.59565279500E+03 -0.15283078558E+04  0.16424868376E+04  0.12699999809E+01 0. -1.
       -4    1    3    3    0  502 -0.85054362720E+02  0.59565279500E+03  0.67470080099E+03  0.90402393804E+03  0.12699999809E+01 0.  1.
</event>
<event>
 5   0  0.5452384E-07  0.2400603E+04  0.7818609E-02  0.8439278E-01
        1   -1    0    0  501    0  0.00000000000E+00  0.00000000000E+00  0.15625579516E+04  0.15625579517E+04  0.50400001928E-02 0. -1.
       -1   -1    0    0    0  501  0.00000000000E+00  0.00000000000E+00 -0.92202932991E+03  0.92202932992E+03  0.50400001928E-02 0.  1.
    10030    2    1    2    0    0  0.00000000000E+00  0.00000000000E+00  0.64052862174E+03  0.24845872816E+04  0.24006034751E+04 0.  0.
        5    1    3    3  502    0 -0.19350962176E+03 -0.50634393176E+03  0.14286510115E+04  0.15280366336E+04  0.46999998093E+01 0. -1.
       -5    1    3    3    0  502  0.19350962176E+03  0.50634393176E+03 -0.78812238975E+03  0.95655064799E+03  0.46999998093E+01 0.  1.
</event>
<event>
 5   0  0.1336057E-06  0.2400054E+04  0.7818609E-02  0.8439483E-01
        2   -1    0    0  501    0  0.00000000000E+00  0.00000000000E+00  0.13632133276E+04  0.13632133276E+04  0.25500000920E-02 0.  1.
       -2   -1    0    0    0  501  0.00000000000E+00  0.00000000000E+00 -0.10563750988E+04  0.10563750988E+04  0.25500000920E-02 0. -1.
    10030    2    1    2    0    0  0.00000000000E+00  0.00000000000E+00  0.30683822875E+03  0.24195884264E+04  0.24000538441E+04 0.  0.
        2    1    3    3  502    0  0.45706111492E+02 -0.10297463690E+04 -0.46607237569E+03  0.11312338806E+04  0.25500000920E-02 0. -1.
       -2    1    3    3    0  502 -0.45706111492E+02  0.10297463690E+04  0.77291060444E+03  0.12883545458E+04  0.25500000920E-02 0.  1.
</event>
<event>
 5   0  0.5690124E-07  0.2402789E+04  0.7818609E-02  0.8438460E-01
       -1   -1    0    0    0  501  0.00000000000E+00  0.00000000000E+00  0.83642356641E+03  0.83642356642E+03  0.50400001928E-02 0. -1.
        1   -1    0    0  501    0  0.00000000000E+00  0.00000000000E+00 -0.17256193831E+04  0.17256193831E+04  0.50400001928E-02 0.  1.
    10030    2    1    2    0    0  0.00000000000E+00  0.00000000000E+00 -0.88919581672E+03  0.25620429496E+04  0.24027889784E+04 0.  0.
        2    1    3    3  502    0 -0.98994676604E+03 -0.57780995473E+03 -0.82829500537E+03  0.14141893647E+04  0.25500000920E-02 0.  1.
       -2    1    3    3    0  502  0.98994676604E+03  0.57780995473E+03 -0.60900811348E+02  0.11478535848E+04  0.25500000920E-02 0. -1.
</event>
<event>
 5   0  0.1307477E-06  0.2402054E+04  0.7818609E-02  0.8438735E-01
        2   -1    0    0  501    0  0.00000000000E+00  0.00000000000E+00  0.12450962356E+04  0.12450962356E+04  0.25500000920E-02 0. -1.
       -2   -1    0    0    0  501  0.00000000000E+00  0.00000000000E+00 -0.11585171862E+04  0.11585171862E+04  0.25500000920E-02 0.  1.
    10030    2    1    2    0    0  0.00000000000E+00  0.00000000000E+00  0.86579049428E+02  0.24036134218E+04  0.24020536109E+04 0.  0.
        5    1    3    3  502    0  0.31525994598E+03 -0.11552554105E+04 -0.48636339206E+02  0.11984955071E+04  0.46999998093E+01 0.  1.
       -5    1    3    3    0  502 -0.31525994598E+03  0.11552554105E+04  0.13521538863E+03  0.12051179147E+04  0.46999998093E+01 0. -1.
</event>
<event>
 5   0  0.5527286E-07  0.2399667E+04  0.7818609E-02  0.8439628E-01
        1   -1    0    0  501    0  0.00000000000E+00  0.00000000000E+00  0.15132959899E+04  0.15132959900E+04  0.50400001928E-02 0.  1.
       -1   -1    0    0    0  501  0.00000000000E+00  0.00000000000E+00 -0.95130121003E+03  0.95130121005E+03  0.50400001928E-02 0. -1.
    10030    2    1    2    0    0  0.00000000000E+00  0.00000000000E+00  0.56199477991E+03  0.24645972000E+04  0.23996668989E+04 0.  0.
        1    1    3    3  502    0 -0.24556930247E+03  0.11686134123E+04  0.16105250216E+03  0.12049479235E+04  0.50400001928E-02 0. -1.
       -1    1    3    3    0  502  0.24556930247E+03 -0.11686134123E+04  0.40094227775E+03  0.12596492765E+04  0.50400001928E-02 0.  1.
</event>
<event>
 5   0  0.1308662E-06  0.2399845E+04  0.7818609E-02  0.8439562E-01
        2   -1    0    0  501    0  0.00000000000E+00  0.00000000000E+00  0.13067820813E+04  0.13067820813E+04  0.25500000920E-02 0.  1.
       -2   -1    0    0    0  501  0.00000000000E+00  0.00000000000E+00 -0.11018012911E+04  0.11018012911E+04  0.25500000920E-02 0. -1.
    10030    2    1    2    0    0  0.00000000000E+00  0.00000000000E+00  0.20498079016E+03  0.24085833725E+04  0.23998451487E+04 0.  0.
        3    1    3    3  502    0 -0.10909084817E+04 -0.48157919555E+03 -0.31465952505E+02  0.11928914257E+04  0.10100000352E+00 0. -1.
       -3    1    3    3    0  502  0.10909084817E+04  0.48157919555E+03  0.23644674267E+03  0.12156919468E+04  0.10100000352E+00 0.  1.
</event>
<event>
 5   0  0.1307477E-06  0.2399213E+04  0.7818609E-02  0.8439798E-01
       -2   -1    0    0    0  501  0.00000000000E+00  0.00000000000E+00  0.13262302231E+04  0.13262302231E+04  0.25500000920E-02 0. -1.
        2   -1    0    0  501    0  0.00000000000E+00  0.00000000000E+00 -0.10850724606E+04  0.10850724606E+04  0.25500000920E-02 0.  1.
    10030    2    1    2    0    0  0.00000000000E+00  0.00000000000E+00  0.24115776248E+03  0.24113026837E+04  0.23992131139E+04 0.  0.
        5    1    3    3  502    0  0.66624170500E+02  0.11506739424E+04  0.45473658075E+03  0.12390709219E+04  0.46999998093E+01 0.  1.
       -5    1    3    3    0  502 -0.66624170500E+02 -0.11506739424E+04 -0.21357881827E+03  0.11722317618E+04  0.46999998093E+01 0. -1.
</event>
<event>
 5   0  0.5527286E-07  0.2398926E+04  0.7818609E-02  0.8439906E-01
       -1   -1    0    0    0  501  0.00000000000E+00  0.00000000000E+00  0.16327519594E+04  0.16327519594E+04  0.50400001928E-02 0.  1.
        1   -1    0    0  501    0  0.00000000000E+00  0.00000000000E+00 -0.88115764436E+03  0.88115764438E+03  0.50400001928E-02 0. -1.
    10030    2    1    2    0    0  0.00000000000E+00  0.00000000000E+00  0.75159431499E+03  0.25139096037E+04  0.23989263185E+04 0.  0.
        1    1    3    3  502    0 -0.94320460431E+03  0.73069094166E+03  0.24673690635E+03  0.12183691061E+04  0.50400001928E-02 0.  1.
       -1    1    3    3    0  502  0.94320460431E+03 -0.73069094166E+03  0.50485740865E+03  0.12955404976E+04  0.50400001928E-02 0. -1.
</event>
<event>
 5   0  0.1336057E-06  0.2400409E+04  0.7818609E-02  0.8439351E-01
        2   -1    0    0  501    0  0.00000000000E+00  0.00000000000E+00  0.20373613314E+04  0.20373613314E+04  0.25500000920E-02 0.  1.
       -2   -1    0    0    0  501  0.00000000000E+00  0.00000000000E+00 -0.70703738044E+03  0.70703738045E+03  0.25500000920E-02 0. -1.
    10030    2    1    2    0    0  0.00000000000E+00  0.00000000000E+00  0.13303239510E+04  0.27443987118E+04  0.24004088142E+04 0.  0.
        2    1    3    3  502    0 -0.81163904018E+03 -0.20743987233E+03 -0.31748257753E+03  0.89587076034E+03  0.25500000920E-02 0. -1.
       -2    1    3    3    0  502  0.81163904018E+03  0.20743987233E+03  0.16478065285E+04  0.18485279515E+04  0.25500000920E-02 0.  1.
</event>
<event>
 5   0  0.1307477E-06  0.2399787E+04  0.7818609E-02  0.8439583E-01
       -2   -1    0    0    0  501  0.00000000000E+00  0.00000000000E+00  0.10458440884E+04  0.10458440884E+04  0.25500000920E-02 0.  1.
        2   -1    0    0  501    0  0.00000000000E+00  0.00000000000E+00 -0.13766343051E+04  0.13766343051E+04  0.25500000920E-02 0. -1.
    10030    2    1    2    0    0  0.00000000000E+00  0.00000000000E+00 -0.33079021676E+03  0.24224783935E+04  0.23997873655E+04 0.  0.
        5    1    3    3  502    0  0.71998725688E+03 -0.85328148600E+03  0.27836569684E+03  0.11506435137E+04  0.46999998093E+01 0.  1.
       -5    1    3    3    0  502 -0.71998725688E+03  0.85328148600E+03 -0.60915591360E+03  0.12718348798E+04  0.46999998093E+01 0. -1.
</event>
<event>
 5   0  0.5690124E-07  0.2401593E+04  0.7818609E-02  0.8438908E-01
        1   -1    0    0  501    0  0.00000000000E+00  0.00000000000E+00  0.22617424845E+04  0.22617424845E+04  0.50400001928E-02 0. -1.
       -1   -1    0    0    0  501  0.00000000000E+00  0.00000000000E+00 -0.63752246579E+03  0.63752246581E+03  0.50400001928E-02 0.  1.
    10030    2    1    2    0    0  0.00000000000E+00  0.00000000000E+00  0.16242200187E+04  0.28992649503E+04  0.24015925098E+04 0.  0.
        2    1    3    3  502    0 -0.68893853227E+03  0.98162008017E+03  0.88551652529E+03  0.14907561167E+04  0.25500000920E-02 0.  1.
       -2    1    3    3    0  502  0.68893853227E+03 -0.98162008017E+03  0.73870349341E+03  0.14085088336E+04  0.25500000920E-02 0. -1.
</event>
<event>
 5   0  0.1307477E-06  0.2400179E+04  0.7818609E-02  0.8439436E-01
        2   -1    0    0  501    0  0.00000000000E+00  0.00000000000E+00  0.15551969404E+04  0.15551969404E+04  0.25500000920E-02 0. -1.
       -2   -1    0    0    0  501  0.00000000000E+00  0.00000000000E+00 -0.92606609249E+03  0.92606609249E+03  0.25500000920E-02 0.  1.
    10030    2    1    2    0    0  0.00000000000E+00  0.00000000000E+00  0.62913084791E+03  0.24812630329E+04  0.24001792880E+04 0.  0.
        5    1    3    3  502    0 -0.76094677019E+03 -0.92532384314E+03  0.24198784995E+03  0.12222292793E+04  0.46999998093E+01 0.  1.
       -5    1    3    3    0  502  0.76094677019E+03  0.92532384314E+03  0.38714299796E+03  0.12590337536E+04  0.46999998093E+01 0. -1.
</event>
<event>
 5   0  0.5363690E-07  0.2400201E+04  0.7818609E-02  0.8439428E-01
        1   -1    0    0  501    0  0.00000000000E+00  0.00000000000E+00  0.16028906161E+04  0.16028906161E+04  0.50400001928E-02 0. -1.
       -1   -1    0    0    0  501  0.00000000000E+00  0.00000000000E+00 -0.89852757819E+03  0.89852757820E+03  0.50400001928E-02 0.  1.
    10030    2    1    2    0    0  0.00000000000E+00  0.00000000000E+00  0.70436303793E+03  0.25014181943E+04  0.24002011778E+04 0.  0.
        4    1    3    3  502    0 -0.78027845472E+03  0.65286977444E+03 -0.31118778547E+03  0.10639139345E+04  0.12699999809E+01 0.  1.
       -4    1    3    3    0  502  0.78027845472E+03 -0.65286977444E+03  0.10155508234E+04  0.14375042598E+04  0.12699999809E+01 0. -1.
</event>
<event>
 5   0  0.5452384E-07  0.2398451E+04  0.7818609E-02  0.8440084E-01
       -1   -1    0    0    0  501  0.00000000000E+00  0.00000000000E+00  0.62455247463E+03  0.62455247465E+03  0.50400001928E-02 0. -1.
        1   -1    0    0  501    0  0.00000000000E+00  0.00000000000E+00 -0.23026754324E+04  0.23026754324E+04  0.50400001928E-02 0.  1.
    10030    2    1    2    0    0  0.00000000000E+00  0.00000000000E+00 -0.16781229577E+04  0.29272279070E+04  0.23984508664E+04 0.  0.
        5    1    3    3  502    0  0.93135197449E+03 -0.59229288119E+03 -0.14113705310E+04  0.17917076278E+04  0.46999998093E+01 0.  1.
       -5    1    3    3    0  502 -0.93135197449E+03  0.59229288119E+03 -0.26675242670E+03  0.11355202793E+04  0.46999998093E+01 0. -1.
</event>
<event>
 5   0  0.5452384E-07  0.2401903E+04  0.7818609E-02  0.8438791E-01
       -1   -1    0    0    0  501  0.00000000000E+00  0.00000000000E+00  0.17533328406E+04  0.17533328407E+04  0.50400001928E-02 0.  1.
        1   -1    0    0  501    0  0.00000000000E+00  0.00000000000E+00 -0.82259625368E+03  0.82259625370E+03  0.50400001928E-02 0. -1.
    10030    2    1    2    0    0  0.00000000000E+00  0.00000000000E+00  0.93073658696E+03  0.25759290944E+04  0.24019034337E+04 0.  0.
        5    1    3    3  502    0 -0.47700264635E+03 -0.40143824962E+03  0.15661770138E+04  0.16857095602E+04  0.46999998093E+01 0.  1.
       -5    1    3    3    0  502  0.47700264635E+03  0.40143824962E+03 -0.63544042684E+03  0.89021953412E+03  0.46999998093E+01 0. -1.
</event>
<event>
 5   0  0.4483375E-07  0.2400636E+04  0.7818609E-02  0.8439265E-01
        3   -1    0    0  501    0  0.00000000000E+00  0.00000000000E+00  0.97174132170E+03  0.97174132695E+03  0.10100000352E+00 0.  1.
       -3   -1    0    0    0  501  0.00000000000E+00  0.00000000000E+00 -0.14826616639E+04  0.14826616673E+04  0.10100000352E+00 0. -1.
    10030    2    1    2    0    0  0.00000000000E+00  0.00000000000E+00 -0.51092034221E+03  0.24544029943E+04  0.24006362620E+04 0.  0.
        4    1    3    3  502    0  0.11581842395E+04 -0.30716143772E+03 -0.18299883449E+03  0.12121175965E+04  0.12699999809E+01 0.  1.
       -4    1    3    3    0  502 -0.11581842395E+04  0.30716143772E+03 -0.32792150772E+03  0.12422853978E+04  0.12699999809E+01 0. -1.
</event>
<event>
 5   0  0.1308662E-06  0.2400028E+04  0.7818609E-02  0.8439493E-01
        2   -1    0    0  501    0  0.00000000000E+00  0.00000000000E+00  0.15935066314E+04  0.15935066314E+04  0.25500000920E-02 0.  1.
       -2   -1    0    0    0  501  0.00000000000E+00  0.00000000000E+00 -0.90368824841E+03  0.90368824842E+03  0.25500000920E-02 0. -1.
    10030    2    1    2    0    0  0.00000000000E+00  0.00000000000E+00  0.68981838297E+03  0.24971948798E+04  0.24000276803E+04 0.  0.
        3    1    3    3  502    0 -0.86826933929E+03 -0.66391859704E+03 -0.17047661398E+03  0.11062286541E+04  0.10100000352E+00 0. -1.
       -3    1    3    3    0  502  0.86826933929E+03  0.66391859704E+03  0.86029499695E+03  0.13909662257E+04  0.10100000352E+00 0.  1.
</event>
<event>
 5   0  0.5452384E-07  0.2399332E+04  0.7818609E-02  0.8439754E-01
        1   -1    0    0  501    0  0.00000000000E+00  0.00000000000E+00  0.16926883044E+04  0.16926883044E+04  0.50400001928E-02 0.  1.
       -1   -1    0    0    0  501  0.00000000000E+00  0.00000000000E+00 -0.85024456710E+03  0.85024456711E+03  0.50400001928E-02 0. -1.
    10030    2    1    2    0    0  0.00000000000E+00  0.00000000000E+00  0.84244373726E+03  0.25429328715E+04  0.23993324360E+04 0.  0.
        5    1    3    3  502    0  0.59296122831E+03 -0.99774662900E+03  0.99621359707E+02  0.11649239715E+04  0.46999998093E+01 0. -1.
       -5    1    3    3    0  502 -0.59296122831E+03  0.99774662900E+03  0.74282237755E+03  0.13780089000E+04  0.46999998093E+01 0.  1.
</event>
<event>
 5   0  0.5452384E-07  0.2400967E+04  0.7818609E-02  0.8439141E-01
        1   -1    0    0  501    0  0.00000000000E+00  0.00000000000E+00  0.21992013213E+04  0.21992013213E+04  0.50400001928E-02 0. -1.
       -1   -1    0    0    0  501  0.00000000000E+00  0.00000000000E+00 -0.65531109331E+03  0.65531109333E+03  0.50400001928E-02 0.  1.
    10030    2    1    2    0    0  0.00000000000E+00  0.00000000000E+00  0.15438902280E+04  0.28545124146E+04  0.24009673237E+04 0.  0.
        5    1    3    3  502    0 -0.10337066747E+04  0.60246047931E+03  0.88861994566E+03  0.14903609013E+04  0.46999998093E+01 0.  1.
       -5    1    3    3    0  502  0.10337066747E+04 -0.60246047931E+03  0.65527028234E+03  0.13641515133E+04  0.46999998093E+01 0. -1.
</event>
<event>
 5   0  0.1308662E-06  0.2400589E+04  0.7818609E-02  0.8439283E-01
       -2   -1    0    0    0  501  0.00000000000E+00  0.00000000000E+00  0.82206707160E+03  0.82206707160E+03  0.25500000920E-02 0.  1.
        2   -1    0    0  501    0  0.00000000000E+00  0.00000000000E+00 -0.17525411264E+04  0.17525411264E+04  0.25500000920E-02 0. -1.
    10030    2    1    2    0    0  0.00000000000E+00  0.00000000000E+00 -0.93047405480E+03  0.25746081980E+04  0.24005885542E+04 0.  0.
        3    1    3    3  502    0  0.90184692120E+03 -0.28147779965E+03 -0.12592774632E+04  0.15742735977E+04  0.10100000352E+00 0. -1.
       -3    1    3    3    0  502 -0.90184692120E+03  0.28147779965E+03  0.32880340838E+03  0.10003346003E+04  0.10100000352E+00 0.  1.
</event>
<event>
 5   0  0.1275948E-06  0.2399073E+04  0.7818609E-02  0.8439851E-01
       -2   -1    0    0    0  501  0.00000000000E+00  0.00000000000E+00  0.12932936249E+04  0.12932936249E+04  0.25500000920E-02 0. -1.
        2   -1    0    0  501    0  0.00000000000E+00  0.00000000000E+00 -0.11125760805E+04  0.11125760805E+04  0.25500000920E-02 0.  1.
    10030    2    1    2    0    0  0.00000000000E+00  0.00000000000E+00  0.18071754435E+03  0.24058697054E+04  0.23990727810E+04 0.  0.
        1    1    3    3  502    0 -0.20908166386E+03  0.91022151278E+03  0.84526583253E+03  0.12596398978E+04  0.50400001928E-02 0. -1.
       -1    1    3    3    0  502  0.20908166386E+03 -0.91022151278E+03 -0.66454828818E+03  0.11462298076E+04  0.50400001928E-02 0.  1.
</event>
<event>
 5   0  0.1291468E-06  0.2399537E+04  0.7818609E-02  0.8439677E-01
       -2   -1    0    0    0  501  0.00000000000E+00  0.00000000000E+00  0.71954798572E+03  0.71954798572E+03  0.25500000920E-02 0.  1.
        2   -1    0    0  501    0  0.00000000000E+00  0.00000000000E+00 -0.20004843988E+04  0.20004843988E+04  0.25500000920E-02 0. -1.
    10030    2    1    2    0    0  0.00000000000E+00  0.00000000000E+00 -0.12809364131E+04  0.27200323845E+04  0.23995370550E+04 0.  0.
        4    1    3    3  502    0 -0.98320024932E+03 -0.55086612756E+03 -0.11068951913E+04  0.15796692053E+04  0.12699999809E+01 0. -1.
       -4    1    3    3    0  502  0.98320024932E+03  0.55086612756E+03 -0.17404122179E+03  0.11403631792E+04  0.12699999809E+01 0.  1.
</event>
<event>
 5   0  0.5690124E-07  0.2401495E+04  0.7818609E-02  0.8438944E-01
       -1   -1    0    0    0  501  0.00000000000E+00  0.00000000000E+00  0.99268022329E+03  0.99268022330E+03  0.50400001928E-02 0. -1.
        1   -1    0    0  501    0  0.00000000000E+00  0.00000000000E+00 -0.14524263437E+04  0.14524263437E+04  0.50400001928E-02 0.  1.
    10030    2    1    2    0    0  0.00000000000E+00  0.00000000000E+00 -0.45974612044E+03  0.24451065670E+04  0.24014952902E+04 0.  0.
        2    1    3    3  502    0 -0.46129534354E+03 -0.75537389999E+03 -0.10560343662E+04  0.13778939384E+04  0.25500000920E-02 0.  1.
       -2    1    3    3    0  502  0.46129534354E+03  0.75537389999E+03  0.59628824576E+03  0.10672126287E+04  0.25500000920E-02 0. -1.
</event>
<event>
 5   0  0.1307477E-06  0.2400478E+04  0.7818609E-02  0.8439325E-01
       -2   -1    0    0    0  501  0.00000000000E+00  0.00000000000E+00  0.65955000603E+03  0.65955000603E+03  0.25500000920E-02 0.  1.
        2   -1    0    0  501    0  0.00000000000E+00  0.00000000000E+00 -0.21841767083E+04  0.21841767083E+04  0.25500000920E-02 0. -1.
    10030    2    1    2    0    0  0.00000000000E+00  0.00000000000E+00 -0.15246267023E+04  0.28437267143E+04  0.24004780867E+04 0.  0.
        5    1    3    3  502    0 -0.11677061271E+04 -0.11618168106E+03 -0.46375357090E+03  0.12617944550E+04  0.46999998093E+01 0. -1.
       -5    1    3    3    0  502  0.11677061271E+04  0.11618168106E+03 -0.10608731314E+04  0.15819322593E+04  0.46999998093E+01 0.  1.
</event>
<event>
 5   0  0.5363690E-07  0.2399869E+04  0.7818609E-02  0.8439552E-01
        1   -1    0    0  501    0  0.00000000000E+00  0.00000000000E+00  0.23858282181E+04  0.23858282181E+04  0.50400001928E-02 0.  1.
       -1   -1    0    0    0  501  0.00000000000E+00  0.00000000000E+00 -0.60349828025E+03  0.60349828027E+03  0.50400001928E-02 0. -1.
    10030    2    1    2    0    0  0.00000000000E+00  0.00000000000E+00  0.17823299379E+04  0.29893264984E+04  0.23998693520E+04 0.  0.
        4    1    3    3  502    0  0.76991475015E+03  0.53554582452E+03 -0.41191398279E+02  0.93876322725E+03  0.12699999809E+01 0. -1.
       -4    1    3    3    0  502 -0.76991475015E+03 -0.53554582452E+03  0.18235213362E+04  0.20505632712E+04  0.12699999809E+01 0.  1.
</event>
<event>
 5   0  0.1275948E-06  0.2400117E+04  0.7818609E-02  0.8439460E-01
        2   -1    0    0  501    0  0.00000000000E+00  0.00000000000E+00  0.19619284855E+04  0.19619284855E+04  0.25500000920E-02 0.  1.
       -2   -1    0    0    0  501  0.00000000000E+00  0.00000000000E+00 -0.73404306844E+03  0.73404306844E+03  0.25500000920E-02 0. -1.
    10030    2    1    2    0    0  0.00000000000E+00  0.00000000000E+00  0.12278854171E+04  0.26959715539E+04  0.24001166685E+04 0.  0.
        1    1    3    3  502    0 -0.29832719131E+03  0.94873923917E+03  0.13683188654E+04  0.16915678450E+04  0.50400001928E-02 0.  1.
       -1    1    3    3    0  502  0.29832719131E+03 -0.94873923917E+03 -0.14043344832E+03  0.10044037089E+04  0.50400001928E-02 0. -1.
</event>
<event>
 5   0  0.1307477E-06  0.2398926E+04  0.7818609E-02  0.8439906E-01
       -2   -1    0    0    0  501  0.00000000000E+00  0.00000000000E+00  0.11169200622E+04  0.11169200622E+04  0.25500000920E-02 0.  1.
        2   -1    0    0  501    0  0.00000000000E+00  0.00000000000E+00 -0.12881057512E+04  0.12881057512E+04  0.25500000920E-02 0. -1.
    10030    2    1    2    0    0  0.00000000000E+00  0.00000000000E+00 -0.17118568898E+03  0.24050258134E+04  0.23989257227E+04 0.  0.
        5    1    3    3  502    0 -0.15874225373E+03 -0.11781253987E+04  0.74533389426E+02  0.11911153909E+04  0.46999998093E+01 0.  1.
       -5    1    3    3    0  502  0.15874225373E+03  0.11781253987E+04 -0.24571907841E+03  0.12139104225E+04  0.46999998093E+01 0. -1.
</event>
<event>
 5   0  0.1336057E-06  0.2400163E+04  0.7818609E-02  0.8439442E-01
       -2   -1    0    0    0  501  0.00000000000E+00  0.00000000000E+00  0.70074118721E+03  0.70074118722E+03  0.25500000920E-02 0. -1.
        2   -1    0    0  501    0  0.00000000000E+00  0.00000000000E+00 -0.20552464922E+04  0.20552464922E+04  0.25500000920E-02 0.  1.
    10030    2    1    2    0    0  0.00000000000E+00  0.00000000000E+00 -0.13545053050E+04  0.27559876794E+04  0.24001632169E+04 0.  0.
        2    1    3    3  502    0 -0.16278780824E+03 -0.10456970322E+04 -0.13270178699E+04  0.16973386759E+04  0.25500000920E-02 0.  1.
       -2    1    3    3    0  502  0.16278780824E+03  0.10456970322E+04 -0.27487435121E+02  0.10586490036E+04  0.25500000920E-02 0. -1.
</event>
<event>
 5   0  0.5527286E-07  0.2397215E+04  0.7818609E-02  0.8440547E-01
       -1   -1    0    0    0  501  0.00000000000E+00  0.00000000000E+00  0.13187987166E+04  0.13187987166E+04  0.50400001928E-02 0.  1.
        1   -1    0    0  501    0  0.00000000000E+00  0.00000000000E+00 -0.10893703347E+04  0.10893703347E+04  0.50400001928E-02 0. -1.
    10030    2    1    2    0    0  0.00000000000E+00  0.00000000000E+00  0.22942838187E+03  0.24081690513E+04  0.23972152172E+04 0.  0.
        1    1    3    3  502    0 -0.80400972692E+03  0.49429757920E+03  0.85693970650E+03  0.12747970028E+04  0.50400001928E-02 0.  1.
       -1    1    3    3    0  502  0.80400972692E+03 -0.49429757920E+03 -0.62751132463E+03  0.11333720485E+04  0.50400001928E-02 0. -1.
</event>
<event>
 5   0  0.5363690E-07  0.2401811E+04  0.7818609E-02  0.8438826E-01
        1   -1    0    0  501    0  0.00000000000E+00  0.00000000000E+00  0.64921697607E+03  0.64921697609E+03  0.50400001928E-02 0.  1.
       -1   -1    0    0    0  501  0.00000000000E+00  0.00000000000E+00 -0.22214044995E+04  0.22214044995E+04  0.50400001928E-02 0. -1.
    10030    2    1    2    0    0  0.00000000000E+00  0.00000000000E+00 -0.15721875234E+04  0.28706214756E+04  0.24018105769E+04 0.  0.
        4    1    3    3  502    0 -0.80567968607E+03 -0.26234922374E+02  0.27780305424E+03  0.85263367136E+03  0.12699999809E+01 0.  1.
       -4    1    3    3    0  502  0.80567968607E+03  0.26234922374E+02 -0.18499905776E+04  0.20179878042E+04  0.12699999809E+01 0. -1.
</event>
<event>
 5   0  0.1336057E-06  0.2400694E+04  0.7818609E-02  0.8439244E-01
       -2   -1    0    0    0  501  0.00000000000E+00  0.00000000000E+00  0.11226140817E+04  0.11226140817E+04  0.25500000920E-02 0. -1.
        2   -1    0    0  501    0  0.00000000000E+00  0.00000000000E+00 -0.12834624952E+04  0.12834624952E+04  0.25500000920E-02 0.  1.
    10030    2    1    2    0    0  0.00000000000E+00  0.00000000000E+00 -0.16084841348E+03  0.24060765769E+04  0.24006941250E+04 0.  0.
        2    1    3    3  502    0  0.39429504061E+03  0.11773166442E+03  0.10497136885E+04  0.11274875395E+04  0.25500000920E-02 0. -1.
       -2    1    3    3    0  502 -0.39429504061E+03 -0.11773166442E+03 -0.12105621020E+04  0.12785890374E+04  0.25500000920E-02 0.  1.
</event>
<event>
 5   0  0.1307477E-06  0.2398966E+04  0.7818609E-02  0.8439891E-01
       -2   -1    0    0    0  501  0.00000000000E+00  0.00000000000E+00  0.14249050925E+04  0.14249050925E+04  0.25500000920E-02 0.  1.
        2   -1    0    0  501    0  0.00000000000E+00  0.00000000000E+00 -0.10097232673E+04  0.10097232673E+04  0.25500000920E-02 0. -1.
    10030    2    1    2    0    0  0.00000000000E+00  0.00000000000E+00  0.41518182518E+03  0.24346283597E+04  0.23989662987E+04 0.  0.
        5    1    3    3  502    0  0.66222030451E+03 -0.98614414840E+03  0.38617399044E+02  0.11884988038E+04  0.46999998093E+01 0. -1.
       -5    1    3    3    0  502 -0.66222030451E+03  0.98614414840E+03  0.37656442614E+03  0.12461295559E+04  0.46999998093E+01 0.  1.
</event>
<event>
 5   0  0.5363690E-07  0.2400394E+04  0.7818609E-02  0.8439356E-01
        1   -1    0    0  501    0  0.00000000000E+00  0.00000000000E+00  0.15851168049E+04  0.15851168049E+04  0.50400001928E-02 0. -1.
       -1   -1    0    0    0  501  0.00000000000E+00  0.00000000000E+00 -0.90874862033E+03  0.90874862034E+03  0.50400001928E-02 0.  1.
    10030    2    1    2    0    0  0.00000000000E+00  0.00000000000E+00  0.67636818454E+03  0.24938654252E+04  0.24003938923E+04 0.  0.
        4    1    3    3  502    0 -0.37148382653E+03  0.51239587591E+03 -0.72129098311E+03  0.95958952799E+03  0.12699999809E+01 0.  1.
       -4    1    3    3    0  502  0.37148382653E+03 -0.51239587591E+03  0.13976591676E+04  0.15342758972E+04  0.12699999809E+01 0. -1.
</event>
<event>
 5   0  0.5690124E-07  0.2406412E+04  0.7818609E-02  0.8437107E-01
        1   -1    0    0  501    0  0.00000000000E+00  0.00000000000E+00  0.11842715517E+04  0.11842715517E+04  0.50400001928E-02 0. -1.
       -1   -1    0    0    0  501  0.00000000000E+00  0.00000000000E+00 -0.12224434854E+04  0.12224434854E+04  0.50400001928E-02 0.  1.
    10030    2    1    2    0    0  0.00000000000E+00  0.00000000000E+00 -0.38171933686E+02  0.24067150371E+04  0.24064123033E+04 0.  0.
        2    1    3    3  502    0 -0.58290954243E+03  0.10152668525E+04 -0.29688830797E+03  0.12077636291E+04  0.25500000920E-02 0. -1.
       -2    1    3    3    0  502  0.58290954243E+03 -0.10152668525E+04  0.25871637428E+03  0.11989514080E+04  0.25500000920E-02 0.  1.
</event>
<event>
 5   0  0.1291468E-06  0.2388783E+04  0.7818609E-02  0.8443715E-01
       -2   -1    0    0    0  501  0.00000000000E+00  0.00000000000E+00  0.10504409689E+04  0.10504409689E+04  0.25500000920E-02 0.  1.
        2   -1    0    0  501    0  0.00000000000E+00  0.00000000000E+00 -0.13580690514E+04  0.13580690514E+04  0.25500000920E-02 0. -1.
    10030    2    1    2    0    0  0.00000000000E+00  0.00000000000E+00 -0.30762808247E+03  0.24085100202E+04  0.23887832636E+04 0.  0.
        4    1    3    3  502    0 -0.32630524954E+03  0.45366480091E+03 -0.12181272224E+04  0.13401949150E+04  0.12699999809E+01 0. -1.
       -4    1    3    3    0  502  0.32630524954E+03 -0.45366480091E+03  0.91049913988E+03  0.10683151052E+04  0.12699999809E+01 0.  1.
</event>
<event>
 5   0  0.5452384E-07  0.2400256E+04  0.7818609E-02  0.8439408E-01
        1   -1    0    0  501    0  0.00000000000E+00  0.00000000000E+00  0.18099167294E+04  0.18099167294E+04  0.50400001928E-02 0. -1.
       -1   -1    0    0    0  501  0.00000000000E+00  0.00000000000E+00 -0.79578621910E+03  0.79578621912E+03  0.50400001928E-02 0.  1.
    10030    2    1    2    0    0  0.00000000000E+00  0.00000000000E+00  0.10141305103E+04  0.26057029486E+04  0.24002556456E+04 0.  0.
        5    1    3    3  502    0  0.57932145534E+03 -0.10434329957E+04  0.64403492924E+03  0.13561595943E+04  0.46999998093E+01 0.  1.
       -5    1    3    3    0  502 -0.57932145534E+03  0.10434329957E+04  0.37009558108E+03  0.12495433543E+04  0.46999998093E+01 0. -1.
</event>
<event>
 5   0  0.1291468E-06  0.2399349E+04  0.7818609E-02  0.8439747E-01
        2   -1    0    0  501    0  0.00000000000E+00  0.00000000000E+00  0.15108773485E+04  0.15108773485E+04  0.25500000920E-02 0. -1.
       -2   -1    0    0    0  501  0.00000000000E+00  0.00000000000E+00 -0.95257187662E+03  0.95257187662E+03  0.25500000920E-02 0.  1.
    10030    2    1    2    0    0  0.00000000000E+00  0.00000000000E+00  0.55830547192E+03  0.24634492252E+04  0.23993493045E+04 0.  0.
        4    1    3    3  502    0  0.15297775893E+03 -0.11864393890E+04  0.37199552811E+03  0.12527661012E+04  0.12699999809E+01 0.  1.
       -4    1    3    3    0  502 -0.15297775893E+03  0.11864393890E+04  0.18630994381E+03  0.12106831239E+04  0.12699999809E+01 0. -1.
</event>
<event>
 5   0  0.1291468E-06  0.2399642E+04  0.7818609E-02  0.8439637E-01
       -2   -1    0    0    0  501  0.00000000000E+00  0.00000000000E+00  0.64535176305E+03  0.64535176306E+03  0.25500000920E-02 0. -1.
        2   -1    0    0  501    0  0.00000000000E+00  0.00000000000E+00 -0.22306761382E+04  0.22306761382E+04  0.25500000920E-02 0.  1.
    10030    2    1    2    0    0  0.00000000000E+00  0.00000000000E+00 -0.15853243751E+04  0.28760279012E+04  0.23996422888E+04 0.  0.
        4    1    3    3  502    0 -0.29747599527E+03 -0.10170802756E+04 -0.14670646205E+04  0.18097581243E+04  0.12699999809E+01 0.  1.
       -4    1    3    3    0  502  0.29747599527E+03  0.10170802756E+04 -0.11825975460E+03  0.10662697769E+04  0.12699999809E+01 0. -1.
</event>
<event>
 5   0  0.1308662E-06  0.2399906E+04  0.7818609E-02  0.8439539E-01
        2   -1    0    0  501    0  0.00000000000E+00  0.00000000000E+00  0.93370449683E+03  0.93370449683E+03  0.25500000920E-02 0.  1.
       -2   -1    0    0    0  501  0.00000000000E+00  0.00000000000E+00 -0.15421225366E+04  0.15421225366E+04  0.25500000920E-02 0. -1.
    10030    2    1    2    0    0  0.00000000000E+00  0.00000000000E+00 -0.60841803977E+03  0.24758270334E+04  0.23999056207E+04 0.  0.
        3    1    3    3  502    0 -0.59459400505E+03 -0.10139531981E+04 -0.55318090678E+03  0.12990967033E+04  0.10100000352E+00 0. -1.
       -3    1    3    3    0  502  0.59459400505E+03  0.10139531981E+04 -0.55237132992E+02  0.11767303301E+04  0.10100000352E+00 0.  1.
</event>
<event>
 5   0  0.5690124E-07  0.2398813E+04  0.7818609E-02  0.8439948E-01
        1   -1    0    0  501    0  0.00000000000E+00  0.00000000000E+00  0.19906672014E+04  0.19906672014E+04  0.50400001928E-02 0. -1.
       -1   -1    0    0    0  501  0.00000000000E+00  0.00000000000E+00 -0.72266019413E+03  0.72266019415E+03  0.50400001928E-02 0.  1.
    10030    2    1    2    0    0  0.00000000000E+00  0.00000000000E+00  0.12680070073E+04  0.27133273956E+04  0.23988129950E+04 0.  0.
        2    1    3    3  502    0 -0.19391487464E+02 -0.10072147446E+03  0.19856972028E+04  0.19883445945E+04  0.25500000920E-02 0. -1.
       -2    1    3    3    0  502  0.19391487464E+02  0.10072147446E+03 -0.71769019549E+03  0.72498280111E+03  0.25500000920E-02 0.  1.
</event>
<event>
 5   0  0.5527286E-07  0.2399349E+04  0.7818609E-02  0.8439747E-01
       -1   -1    0    0    0  501  0.00000000000E+00  0.00000000000E+00  0.72026820962E+03  0.72026820964E+03  0.50400001928E-02 0. -1.
        1   -1    0    0  501    0  0.00000000000E+00  0.00000000000E+00 -0.19981709933E+04  0.19981709933E+04  0.50400001928E-02 0.  1.
    10030    2    1    2    0    0  0.00000000000E+00  0.00000000000E+00 -0.12779027837E+04  0.27184392030E+04  0.23993491150E+04 0.  0.
        1    1    3    3  502    0  0.40071190620E+03 -0.95050142152E+03  0.55041967582E+02  0.10329823824E+04  0.50400001928E-02 0. -1.
       -1    1    3    3    0  502 -0.40071190620E+03  0.95050142152E+03 -0.13329447513E+04  0.16854568206E+04  0.50400001928E-02 0.  1.
</event>
<event>
 5   0  0.5452384E-07  0.2404869E+04  0.7818609E-02  0.8437683E-01
       -1   -1    0    0    0  501  0.00000000000E+00  0.00000000000E+00  0.10496935562E+04  0.10496935562E+04  0.50400001928E-02 0. -1.
        1   -1    0    0  501    0  0.00000000000E+00  0.00000000000E+00 -0.13774013532E+04  0.13774013533E+04  0.50400001928E-02 0.  1.
    10030    2    1    2    0    0  0.00000000000E+00  0.00000000000E+00 -0.32770779704E+03  0.24270949095E+04  0.24048694974E+04 0.  0.
        5    1    3    3  502    0  0.18298715783E+03  0.66592529723E+03 -0.11572711163E+04  0.13476792379E+04  0.46999998093E+01 0.  1.
       -5    1    3    3    0  502 -0.18298715783E+03 -0.66592529723E+03  0.82956331930E+03  0.10794156716E+04  0.46999998093E+01 0. -1.
</event>
<event>
 5   0  0.1275948E-06  0.2398846E+04  0.7818609E-02  0.8439936E-01
       -2   -1    0    0    0  501  0.00000000000E+00  0.00000000000E+00  0.86628024250E+03  0.86628024250E+03  0.25500000920E-02 0.  1.
        2   -1    0    0  501    0  0.00000000000E+00  0.00000000000E+00 -0.16606819091E+04  0.16606819091E+04  0.25500000920E-02 0. -1.
    10030    2    1    2    0    0  0.00000000000E+00  0.00000000000E+00 -0.79440166660E+03  0.25269621516E+04  0.23988463285E+04 0.  0.
        1    1    3    3  502    0  0.81281565819E+03 -0.85250290049E+03 -0.63552578782E+03  0.13384033460E+04  0.50400001928E-02 0. -1.
       -1    1    3    3    0  502 -0.81281565819E+03  0.85250290049E+03 -0.15887587878E+03  0.11885588056E+04  0.50400001928E-02 0.  1.
</event>
<event>
 5   0  0.1307477E-06  0.2400718E+04  0.7818609E-02  0.8439235E-01
        2   -1    0    0  501    0  0.00000000000E+00  0.00000000000E+00  0.21791918303E+04  0.21791918303E+04  0.25500000920E-02 0.  1.
       -2   -1    0    0    0  501  0.00000000000E+00  0.00000000000E+00 -0.66119103565E+03  0.66119103566E+03  0.25500000920E-02 0. -1.
    10030    2    1    2    0    0  0.00000000000E+00  0.00000000000E+00  0.15180007946E+04  0.28403828659E+04  0.24007183118E+04 0.  0.
        5    1    3    3  502    0 -0.89704469540E+03 -0.55936767840E+03  0.14316838455E+04  0.17796971958E+04  0.46999998093E+01 0.  1.
       -5    1    3    3    0  502  0.89704469540E+03  0.55936767840E+03  0.86316949132E+02  0.10606856702E+04  0.46999998093E+01 0. -1.
</event>
<event>
 5   0  0.1291468E-06  0.2400099E+04  0.7818609E-02  0.8439466E-01
       -2   -1    0    0    0  501  0.00000000000E+00  0.00000000000E+00  0.10733444743E+04  0.10733444743E+04  0.25500000920E-02 0. -1.
        2   -1    0    0  501    0  0.00000000000E+00  0.00000000000E+00 -0.13417119847E+04  0.13417119847E+04  0.25500000920E-02 0.  1.
    10030    2    1    2    0    0  0.00000000000E+00  0.00000000000E+00 -0.26836751041E+03  0.24150564590E+04  0.24000992854E+04 0.  0.
        4    1    3    3  502    0 -0.73094307382E+03 -0.53248378086E+03 -0.92796028280E+03  0.12957347928E+04  0.12699999809E+01 0. -1.
       -4    1    3    3    0  502  0.73094307382E+03  0.53248378086E+03  0.65959277239E+03  0.11193216662E+04  0.12699999809E+01 0.  1.
</event>
<event>
 5   0  0.5452384E-07  0.2399631E+04  0.7818609E-02  0.8439642E-01
        1   -1    0    0  501    0  0.00000000000E+00  0.00000000000E+00  0.11229761371E+04  0.11229761371E+04  0.50400001928E-02 0. -1.
       -1   -1    0    0    0  501  0.00000000000E+00  0.00000000000E+00 -0.12819126269E+04  0.12819126269E+04  0.50400001928E-02 0.  1.
    10030    2    1    2    0    0  0.00000000000E+00  0.00000000000E+00 -0.15893648978E+03  0.24048887640E+04  0.23996310465E+04 0.  0.
        5    1    3    3  502    0  0.54409973573E+03 -0.60371194863E+03 -0.96402466419E+03  0.12609037562E+04  0.46999998093E+01 0.  1.
       -5    1    3    3    0  502 -0.54409973573E+03  0.60371194863E+03  0.80508817441E+03  0.11439850077E+04  0.46999998093E+01 0. -1.
</event>
<event>
 5   0  0.5527286E-07  0.2401144E+04  0.7818609E-02  0.8439075E-01
        1   -1    0    0  501    0  0.00000000000E+00  0.00000000000E+00  0.16161880777E+04  0.16161880777E+04  0.50400001928E-02 0. -1.
       -1   -1    0    0    0  501  0.00000000000E+00  0.00000000000E+00 -0.89183492093E+03  0.89183492095E+03  0.50400001928E-02 0.  1.
    10030    2    1    2    0    0  0.00000000000E+00  0.00000000000E+00  0.72435315677E+03  0.25080229987E+04  0.24011438662E+04 0.  0.
        1    1    3    3  502    0 -0.26661237876E+03 -0.70224335239E+03  0.13404247585E+04  0.15365436602E+04  0.50400001928E-02 0. -1.
       -1    1    3    3    0  502  0.26661237876E+03  0.70224335239E+03 -0.61607160175E+03  0.97147933843E+03  0.50400001928E-02 0.  1.
</event>
<event>
 5   0  0.5690124E-07  0.2400416E+04  0.7818609E-02  0.8439348E-01
       -1   -1    0    0    0  501  0.00000000000E+00  0.00000000000E+00  0.80709591619E+03  0.80709591621E+03  0.50400001928E-02 0.  1.
        1   -1    0    0  501    0  0.00000000000E+00  0.00000000000E+00 -0.17847931300E+04  0.17847931300E+04  0.50400001928E-02 0. -1.
    10030    2    1    2    0    0  0.00000000000E+00  0.00000000000E+00 -0.97769721381E+03  0.25918890462E+04  0.24004160027E+04 0.  0.
        2    1    3    3  502    0  0.11026722994E+04  0.33521063012E+02 -0.99930464238E+03  0.14884957607E+04  0.25500000920E-02 0. -1.
       -2    1    3    3    0  502 -0.11026722994E+04 -0.33521063012E+02  0.21607428572E+02  0.11033932855E+04  0.25500000920E-02 0.  1.
</event>
<event>
 5   0  0.5690124E-07  0.2402209E+04  0.7818609E-02  0.8438677E-01
       -1   -1    0    0    0  501  0.00000000000E+00  0.00000000000E+00  0.15091700488E+04  0.15091700489E+04  0.50400001928E-02 0. -1.
        1   -1    0    0  501    0  0.00000000000E+00  0.00000000000E+00 -0.95592398724E+03  0.95592398725E+03  0.50400001928E-02 0.  1.
    10030    2    1    2    0    0  0.00000000000E+00  0.00000000000E+00  0.55324606160E+03  0.24650940361E+04  0.24022088590E+04 0.  0.
        2    1    3    3  502    0 -0.16006754533E+03  0.46365766789E+02  0.14972489824E+04  0.15064945797E+04  0.25500000920E-02 0. -1.
       -2    1    3    3    0  502  0.16006754533E+03 -0.46365766789E+02 -0.94400292078E+03  0.95859945641E+03  0.25500000920E-02 0.  1.
</event>
<event>
 5   0  0.5452384E-07  0.2399484E+04  0.7818609E-02  0.8439697E-01
        1   -1    0    0  501    0  0.00000000000E+00  0.00000000000E+00  0.14501064989E+04  0.14501064989E+04  0.50400001928E-02 0.  1.
       -1   -1    0    0    0  501  0.00000000000E+00  0.00000000000E+00 -0.99260383698E+03  0.99260383700E+03  0.50400001928E-02 0. -1.
    10030    2    1    2    0    0  0.00000000000E+00  0.00000000000E+00  0.45750266188E+03  0.24427103359E+04  0.23994843403E+04 0.  0.
        5    1    3    3  502    0  0.24271669973E+03  0.83394310301E+03  0.10713002317E+04  0.13791587188E+04  0.46999998093E+01 0.  1.
       -5    1    3    3    0  502 -0.24271669973E+03 -0.83394310301E+03 -0.61379756980E+03  0.10635516170E+04  0.46999998093E+01 0. -1.
</event>
<event>
 5   0  0.1275948E-06  0.2397904E+04  0.7818609E-02  0.8440289E-01
       -2   -1    0    0    0  501  0.00000000000E+00  0.00000000000E+00  0.68598940194E+03  0.68598940195E+03  0.25500000920E-02 0. -1.
        2   -1    0    0  501    0  0.00000000000E+00  0.00000000000E+00 -0.20954937068E+04  0.20954937068E+04  0.25500000920E-02 0.  1.
    10030    2    1    2    0    0  0.00000000000E+00  0.00000000000E+00 -0.14095043048E+04  0.27814831087E+04  0.23979044808E+04 0.  0.
        1    1    3    3  502    0 -0.99586520887E+03  0.43912322419E+03 -0.12140465693E+03  0.10951327824E+04  0.50400001928E-02 0. -1.
       -1    1    3    3    0  502  0.99586520887E+03 -0.43912322419E+03 -0.12880996479E+04  0.16863503264E+04  0.50400001928E-02 0.  1.
</event>
<event>
 5   0  0.5363690E-07  0.2399683E+04  0.7818609E-02  0.8439622E-01
       -1   -1    0    0    0  501  0.00000000000E+00  0.00000000000E+00  0.14240691362E+04  0.14240691363E+04  0.50400001928E-02 0.  1.
        1   -1    0    0  501    0  0.00000000000E+00  0.00000000000E+00 -0.10109200171E+04  0.10109200172E+04  0.50400001928E-02 0. -1.
    10030    2    1    2    0    0  0.00000000000E+00  0.00000000000E+00  0.41314911910E+03  0.24349891534E+04  0.23996833088E+04 0.  0.
        4    1    3    3  502    0  0.12192380942E+03  0.10868858944E+04 -0.29407282488E+03  0.11325488078E+04  0.12699999809E+01 0. -1.
       -4    1    3    3    0  502 -0.12192380942E+03 -0.10868858944E+04  0.70722194398E+03  0.13024403456E+04  0.12699999809E+01 0.  1.
</event>
<event>
 5   0  0.5527286E-07  0.2400662E+04  0.7818609E-02  0.8439256E-01
       -1   -1    0    0    0  501  0.00000000000E+00  0.00000000000E+00  0.10347763124E+04  0.10347763124E+04  0.50400001928E-02 0. -1.
        1   -1    0    0  501    0  0.00000000000E+00  0.00000000000E+00 -0.13923730726E+04  0.13923730726E+04  0.50400001928E-02 0.  1.
    10030    2    1    2    0    0  0.00000000000E+00  0.00000000000E+00 -0.35759676015E+03  0.24271493850E+04  0.24006621366E+04 0.  0.
        1    1    3    3  502    0 -0.92530560439E+03  0.62841172253E+03 -0.61915291262E+03  0.12784530041E+04  0.50400001928E-02 0.  1.
       -1    1    3    3    0  502  0.92530560439E+03 -0.62841172253E+03  0.26155615247E+03  0.11486963809E+04  0.50400001928E-02 0. -1.
</event>
<event>
 5   0  0.1291468E-06  0.2399251E+04  0.7818609E-02  0.8439784E-01
        2   -1    0    0  501    0  0.00000000000E+00  0.00000000000E+00  0.16551224801E+04  0.16551224801E+04  0.25500000920E-02 0. -1.
       -2   -1    0    0    0  501  0.00000000000E+00  0.00000000000E+00 -0.86948324682E+03  0.86948324682E+03  0.25500000920E-02 0.  1.
    10030    2    1    2    0    0  0.00000000000E+00  0.00000000000E+00  0.78563923326E+03  0.25246057269E+04  0.23992509397E+04 0.  0.
        4    1    3    3  502    0 -0.83790624010E+03  0.82272989036E+03  0.65084201471E+03  0.13425975870E+04  0.12699999809E+01 0. -1.
       -4    1    3    3    0  502  0.83790624010E+03 -0.82272989036E+03  0.13479721855E+03  0.11820081399E+04  0.12699999809E+01 0.  1.
</event>
<event>
 5   0  0.5452384E-07  0.2399290E+04  0.7818609E-02  0.8439770E-01
        1   -1    0    0  501    0  0.00000000000E+00  0.00000000000E+00  0.14454248216E+04  0.14454248216E+04  0.50400001928E-02 0. -1.
       -1   -1    0    0    0  501  0.00000000000E+00  0.00000000000E+00 -0.99565731439E+03  0.99565731440E+03  0.50400001928E-02 0.  1.
    10030    2    1    2    0    0  0.00000000000E+00  0.00000000000E+00  0.44976750723E+03  0.24410821360E+04  0.23992897250E+04 0.  0.
        5    1    3    3  502    0  0.63176495069E+03 -0.99750823248E+03  0.44065347230E+03  0.12602964728E+04  0.46999998093E+01 0. -1.
       -5    1    3    3    0  502 -0.63176495069E+03  0.99750823248E+03  0.91140349285E+01  0.11807856632E+04  0.46999998093E+01 0.  1.
</event>
<event>
 5   0  0.5452384E-07  0.2402102E+04  0.7818609E-02  0.8438717E-01
        1   -1    0    0  501    0  0.00000000000E+00  0.00000000000E+00  0.17097143736E+04  0.17097143736E+04  0.50400001928E-02 0.  1.
       -1   -1    0    0    0  501  0.00000000000E+00  0.00000000000E+00 -0.84372171310E+03  0.84372171311E+03  0.50400001928E-02 0. -1.
    10030    2    1    2    0    0  0.00000000000E+00  0.00000000000E+00  0.86599266050E+03  0.25534360867E+04  0.24021016966E+04 0.  0.
        5    1    3    3  502    0 -0.91784254472E+03 -0.63545469173E+03  0.90392303013E+03  0.14364318768E+04  0.46999998093E+01 0. -1.
       -5    1    3    3    0  502  0.91784254472E+03  0.63545469173E+03 -0.37930369625E+02  0.11170042100E+04  0.46999998093E+01 0.  1.
</event>
<event>
 5   0  0.5690124E-07  0.2399706E+04  0.7818609E-02  0.8439613E-01
       -1   -1    0    0    0  501  0.00000000000E+00  0.00000000000E+00  0.87108478919E+03  0.87108478920E+03  0.50400001928E-02 0.  1.
        1   -1    0    0  501    0  0.00000000000E+00  0.00000000000E+00 -0.16527068458E+04  0.16527068458E+04  0.50400001928E-02 0. -1.
    10030    2    1    2    0    0  0.00000000000E+00  0.00000000000E+00 -0.78162205661E+03  0.25237916350E+04  0.23997064774E+04 0.  0.
        2    1    3    3  502    0 -0.66177737108E+03  0.50850815664E+03 -0.12974288495E+04  0.15426767172E+04  0.25500000920E-02 0. -1.
       -2    1    3    3    0  502  0.66177737108E+03 -0.50850815664E+03  0.51580679294E+03  0.98111491778E+03  0.25500000920E-02 0.  1.
</event>
<event>
 5   0  0.1275948E-06  0.2400192E+04  0.7818609E-02  0.8439432E-01
       -2   -1    0    0    0  501  0.00000000000E+00  0.00000000000E+00  0.67810537894E+03  0.67810537894E+03  0.25500000920E-02 0.  1.
        2   -1    0    0  501    0  0.00000000000E+00  0.00000000000E+00 -0.21239034906E+04  0.21239034906E+04  0.25500000920E-02 0. -1.
    10030    2    1    2    0    0  0.00000000000E+00  0.00000000000E+00 -0.14457981117E+04  0.28020088695E+04  0.24001919768E+04 0.  0.
        1    1    3    3  502    0 -0.79422590412E+03  0.57485787296E+03  0.85041678936E+02  0.98411810677E+03  0.50400001928E-02 0.  1.
       -1    1    3    3    0  502  0.79422590412E+03 -0.57485787296E+03 -0.15308397906E+04  0.18178907628E+04  0.50400001928E-02 0. -1.
</event>
<event>
 5   0  0.5363690E-07  0.2404253E+04  0.7818609E-02  0.8437913E-01
       -1   -1    0    0    0  501  0.00000000000E+00  0.00000000000E+00  0.10017819901E+04  0.10017819901E+04  0.50400001928E-02 0. -1.
        1   -1    0    0  501    0  0.00000000000E+00  0.00000000000E+00 -0.14425381033E+04  0.14425381033E+04  0.50400001928E-02 0.  1.
    10030    2    1    2    0    0  0.00000000000E+00  0.00000000000E+00 -0.44075611316E+03  0.24443200934E+04  0.24042534741E+04 0.  0.
        4    1    3    3  502    0 -0.45819128702E+03 -0.37392658745E+03 -0.12844074707E+04  0.14140242261E+04  0.12699999809E+01 0.  1.
       -4    1    3    3    0  502  0.45819128702E+03  0.37392658745E+03  0.84365135751E+03  0.10302958673E+04  0.12699999809E+01 0. -1.
</event>
<event>
 5   0  0.1275948E-06  0.2400212E+04  0.7818609E-02  0.8439424E-01
       -2   -1    0    0    0  501  0.00000000000E+00  0.00000000000E+00  0.12200849294E+04  0.12200849294E+04  0.25500000920E-02 0.  1.
        2   -1    0    0  501    0  0.00000000000E+00  0.00000000000E+00 -0.11804542978E+04  0.11804542978E+04  0.25500000920E-02 0. -1.
    10030    2    1    2    0    0  0.00000000000E+00  0.00000000000E+00  0.39630631564E+02  0.24005392272E+04  0.24002120728E+04 0.  0.
        1    1    3    3  502    0  0.61060313721E+03 -0.70135233330E+03  0.77855118088E+03  0.12127956249E+04  0.50400001928E-02 0.  1.
       -1    1    3    3    0  502 -0.61060313721E+03  0.70135233330E+03 -0.73892054931E+03  0.11877436023E+04  0.50400001928E-02 0. -1.
</event>
<event>
 5   0  0.1308662E-06  0.2401470E+04  0.7818609E-02  0.8438953E-01
        2   -1    0    0  501    0  0.00000000000E+00  0.00000000000E+00  0.15653898598E+04  0.15653898598E+04  0.25500000920E-02 0.  1.
       -2   -1    0    0    0  501  0.00000000000E+00  0.00000000000E+00 -0.92102589209E+03  0.92102589209E+03  0.25500000920E-02 0. -1.
    10030    2    1    2    0    0  0.00000000000E+00  0.00000000000E+00  0.64436396768E+03  0.24864157519E+04  0.24014700432E+04 0.  0.
        3    1    3    3  502    0  0.27017718327E+03 -0.79086751690E+03 -0.57046120222E+03  0.10118760463E+04  0.10100000352E+00 0. -1.
       -3    1    3    3    0  502 -0.27017718327E+03  0.79086751690E+03  0.12148251699E+04  0.14745397056E+04  0.10100000352E+00 0.  1.
</event>
<event>
 5   0  0.1308662E-06  0.2402271E+04  0.7818609E-02  0.8438654E-01
        2   -1    0    0  501    0  0.00000000000E+00  0.00000000000E+00  0.16784109143E+04  0.16784109143E+04  0.25500000920E-02 0.  1.
       -2   -1    0    0    0  501  0.00000000000E+00  0.00000000000E+00 -0.85957916516E+03  0.85957916517E+03  0.25500000920E-02 0. -1.
    10030    2    1    2    0    0  0.00000000000E+00  0.00000000000E+00  0.81883174914E+03  0.25379900795E+04  0.24022714689E+04 0.  0.
        3    1    3    3  502    0  0.13414416736E+03 -0.10727463873E+03 -0.84653722313E+03  0.86378688697E+03  0.10100000352E+00 0. -1.
       -3    1    3    3    0  502 -0.13414416736E+03  0.10727463873E+03  0.16653689723E+04  0.16742031925E+04  0.10100000352E+00 0.  1.
</event>
<event>
 5   0  0.5527286E-07  0.2399635E+04  0.7818609E-02  0.8439640E-01
       -1   -1    0    0    0  501  0.00000000000E+00  0.00000000000E+00  0.12493099916E+04  0.12493099916E+04  0.50400001928E-02 0.  1.
        1   -1    0    0  501    0  0.00000000000E+00  0.00000000000E+00 -0.11522858905E+04  0.11522858905E+04  0.50400001928E-02 0. -1.
    10030    2    1    2    0    0  0.00000000000E+00  0.00000000000E+00  0.97024101142E+02  0.24015958821E+04  0.23996352025E+04 0.  0.
        1    1    3    3  502    0 -0.10199949201E+04 -0.26952975999E+03 -0.52337968569E+03  0.11776936036E+04  0.50400001928E-02 0. -1.
       -1    1    3    3    0  502  0.10199949201E+04  0.26952975999E+03  0.62040378683E+03  0.12239022785E+04  0.50400001928E-02 0.  1.
</event>
<event>
 5   0  0.5452384E-07  0.2401091E+04  0.7818609E-02  0.8439095E-01
       -1   -1    0    0    0  501  0.00000000000E+00  0.00000000000E+00  0.12098322624E+04  0.12098322624E+04  0.50400001928E-02 0.  1.
        1   -1    0    0  501    0  0.00000000000E+00  0.00000000000E+00 -0.11913297927E+04  0.11913297928E+04  0.50400001928E-02 0. -1.
    10030    2    1    2    0    0  0.00000000000E+00  0.00000000000E+00  0.18502469612E+02  0.24011620551E+04  0.24010907675E+04 0.  0.
        5    1    3    3  502    0  0.64335227518E+03  0.98791234213E+03 -0.21750245463E+03  0.11988337472E+04  0.46999998093E+01 0. -1.
       -5    1    3    3    0  502 -0.64335227518E+03 -0.98791234213E+03  0.23600492424E+03  0.12023283079E+04  0.46999998093E+01 0.  1.
</event>
<event>
 5   0  0.1308662E-06  0.2400177E+04  0.7818609E-02  0.8439437E-01
       -2   -1    0    0    0  501  0.00000000000E+00  0.00000000000E+00  0.10568124687E+04  0.10568124687E+04  0.25500000920E-02 0. -1.
        2   -1    0    0  501    0  0.00000000000E+00  0.00000000000E+00 -0.13627885360E+04  0.13627885360E+04  0.25500000920E-02 0.  1.
    10030    2    1    2    0    0  0.00000000000E+00  0.00000000000E+00 -0.30597606728E+03  0.24196010047E+04  0.24001765910E+04 0.  0.
        3    1    3    3  502    0 -0.48145699645E+03  0.11918858843E+03 -0.12546288792E+04  0.13491109642E+04  0.10100000352E+00 0.  1.
       -3    1    3    3    0  502  0.48145699645E+03 -0.11918858843E+03  0.94865281190E+03  0.10704900405E+04  0.10100000352E+00 0. -1.
</event>
<event>
 5   0  0.5452384E-07  0.2398208E+04  0.7818609E-02  0.8440175E-01
        1   -1    0    0  501    0  0.00000000000E+00  0.00000000000E+00  0.14008049226E+04  0.14008049226E+04  0.50400001928E-02 0. -1.
       -1   -1    0    0    0  501  0.00000000000E+00  0.00000000000E+00 -0.10264460750E+04  0.10264460750E+04  0.50400001928E-02 0.  1.
    10030    2    1    2    0    0  0.00000000000E+00  0.00000000000E+00  0.37435884758E+03  0.24272509976E+04  0.23982082601E+04 0.  0.
        5    1    3    3  502    0  0.89460576796E+03 -0.79133991723E+03  0.29472192927E+03  0.12302119534E+04  0.46999998093E+01 0. -1.
       -5    1    3    3    0  502 -0.89460576796E+03  0.79133991723E+03  0.79636918312E+02  0.11970390442E+04  0.46999998093E+01 0.  1.
</event>
<event>
 5   0  0.1336057E-06  0.2399862E+04  0.7818609E-02  0.8439555E-01
       -2   -1    0    0    0  501  0.00000000000E+00  0.00000000000E+00  0.10256936212E+04  0.10256936212E+04  0.25500000920E-02 0. -1.
        2   -1    0    0  501    0  0.00000000000E+00  0.00000000000E+00 -0.14037670840E+04  0.14037670840E+04  0.25500000920E-02 0.  1.
    10030    2    1    2    0    0  0.00000000000E+00  0.00000000000E+00 -0.37807346280E+03  0.24294607053E+04  0.23998624492E+04 0.  0.
        2    1    3    3  502    0 -0.20212790428E+03  0.19390675083E+03  0.99213520570E+03  0.10309159928E+04  0.25500000920E-02 0. -1.
       -2    1    3    3    0  502  0.20212790428E+03 -0.19390675083E+03 -0.13702086685E+04  0.13985447125E+04  0.25500000920E-02 0.  1.
</event>
<event>
 5   0  0.5510176E-07  0.2400213E+04  0.7818609E-02  0.8439424E-01
        1   -1    0    0  501    0  0.00000000000E+00  0.00000000000E+00  0.17801473099E+04  0.17801473099E+04  0.50400001928E-02 0.  1.
       -1   -1    0    0    0  501  0.00000000000E+00  0.00000000000E+00 -0.80906511722E+03  0.80906511723E+03  0.50400001928E-02 0. -1.
    10030    2    1    2    0    0  0.00000000000E+00  0.00000000000E+00  0.97108219268E+03  0.25892124271E+04  0.24002125672E+04 0.  0.
        3    1    3    3  502    0  0.66476782570E+03  0.27259681960E+03  0.15224986145E+04  0.16835163586E+04  0.10100000352E+00 0.  1.
       -3    1    3    3    0  502 -0.66476782570E+03 -0.27259681960E+03 -0.55141642184E+03  0.90569606857E+03  0.10100000352E+00 0. -1.
</event>
<event>
 5   0  0.5527286E-07  0.2400585E+04  0.7818609E-02  0.8439285E-01
       -1   -1    0    0    0  501  0.00000000000E+00  0.00000000000E+00  0.14988141494E+04  0.14988141494E+04  0.50400001928E-02 0.  1.
        1   -1    0    0  501    0  0.00000000000E+00  0.00000000000E+00 -0.96122780263E+03  0.96122780265E+03  0.50400001928E-02 0. -1.
    10030    2    1    2    0    0  0.00000000000E+00  0.00000000000E+00  0.53758634677E+03  0.24600419521E+04  0.24005847883E+04 0.  0.
        1    1    3    3  502    0  0.68979885196E+03  0.69176429118E+03  0.98344769641E+03  0.13861925055E+04  0.50400001928E-02 0.  1.
       -1    1    3    3    0  502 -0.68979885196E+03 -0.69176429118E+03 -0.44586134965E+03  0.10738494465E+04  0.50400001928E-02 0. -1.
</event>
<event>
 5   0  0.5363690E-07  0.2400375E+04  0.7818609E-02  0.8439363E-01
        1   -1    0    0  501    0  0.00000000000E+00  0.00000000000E+00  0.18340723607E+04  0.18340723608E+04  0.50400001928E-02 0.  1.
       -1   -1    0    0    0  501  0.00000000000E+00  0.00000000000E+00 -0.78538320381E+03  0.78538320383E+03  0.50400001928E-02 0. -1.
    10030    2    1    2    0    0  0.00000000000E+00  0.00000000000E+00  0.10486891569E+04  0.26194555646E+04  0.24003746597E+04 0.  0.
        4    1    3    3  502    0  0.89367108712E+03  0.75736329536E+03  0.23935638625E+03  0.11956338343E+04  0.12699999809E+01 0.  1.
       -4    1    3    3    0  502 -0.89367108712E+03 -0.75736329536E+03  0.80933277068E+03  0.14238217303E+04  0.12699999809E+01 0. -1.
</event>
<event>
 5   0  0.1291468E-06  0.2399921E+04  0.7818609E-02  0.8439533E-01
       -2   -1    0    0    0  501  0.00000000000E+00  0.00000000000E+00  0.68981319513E+03  0.68981319513E+03  0.25500000920E-02 0.  1.
        2   -1    0    0  501    0  0.00000000000E+00  0.00000000000E+00 -0.20873836794E+04  0.20873836794E+04  0.25500000920E-02 0. -1.
    10030    2    1    2    0    0  0.00000000000E+00  0.00000000000E+00 -0.13975704843E+04  0.27771968745E+04  0.23999206698E+04 0.  0.
        4    1    3    3  502    0  0.79094946823E+03 -0.30200988413E+03 -0.16828113210E+04  0.18837904837E+04  0.12699999809E+01 0. -1.
       -4    1    3    3    0  502 -0.79094946823E+03  0.30200988413E+03  0.28524083672E+03  0.89340639086E+03  0.12699999809E+01 0.  1.
</event>
<event>
 5   0  0.5510176E-07  0.2399813E+04  0.7818609E-02  0.8439574E-01
       -1   -1    0    0    0  501  0.00000000000E+00  0.00000000000E+00  0.89810528159E+03  0.89810528161E+03  0.50400001928E-02 0. -1.
        1   -1    0    0  501    0  0.00000000000E+00  0.00000000000E+00 -0.16031253559E+04  0.16031253559E+04  0.50400001928E-02 0.  1.
    10030    2    1    2    0    0  0.00000000000E+00  0.00000000000E+00 -0.70502007426E+03  0.25012306375E+04  0.23998127837E+04 0.  0.
        3    1    3    3  502    0  0.15945465110E+02  0.87853958056E+03 -0.12041648031E+04  0.14906706328E+04  0.10100000352E+00 0.  1.
       -3    1    3    3    0  502 -0.15945465110E+02 -0.87853958056E+03  0.49914472881E+03  0.10105600046E+04  0.10100000352E+00 0. -1.
</event>
<event>
 5   0  0.5452384E-07  0.2399211E+04  0.7818609E-02  0.8439799E-01
       -1   -1    0    0    0  501  0.00000000000E+00  0.00000000000E+00  0.17312515533E+04  0.17312515533E+04  0.50400001928E-02 0. -1.
        1   -1    0    0  501    0  0.00000000000E+00  0.00000000000E+00 -0.83122135490E+03  0.83122135491E+03  0.50400001928E-02 0.  1.
    10030    2    1    2    0    0  0.00000000000E+00  0.00000000000E+00  0.90003019841E+03  0.25624729082E+04  0.23992109218E+04 0.  0.
        5    1    3    3  502    0 -0.43367263979E+03 -0.61297267851E+03  0.14492104153E+04  0.16321888313E+04  0.46999998093E+01 0. -1.
       -5    1    3    3    0  502  0.43367263979E+03  0.61297267851E+03 -0.54918021693E+03  0.93028407692E+03  0.46999998093E+01 0.  1.
</event>
<event>
 5   0  0.5363690E-07  0.2400484E+04  0.7818609E-02  0.8439322E-01
        1   -1    0    0  501    0  0.00000000000E+00  0.00000000000E+00  0.58293082558E+03  0.58293082561E+03  0.50400001928E-02 0. -1.
       -1   -1    0    0    0  501  0.00000000000E+00  0.00000000000E+00 -0.24712729775E+04  0.24712729775E+04  0.50400001928E-02 0.  1.
    10030    2    1    2    0    0  0.00000000000E+00  0.00000000000E+00 -0.18883421519E+04  0.30542038031E+04  0.24004842820E+04 0.  0.
        4    1    3    3  502    0  0.35488654311E+03  0.10301288299E+04 -0.15847345770E+04  0.19231472011E+04  0.12699999809E+01 0. -1.
       -4    1    3    3    0  502 -0.35488654311E+03 -0.10301288299E+04 -0.30360757496E+03  0.11310566021E+04  0.12699999809E+01 0.  1.
</event>
<event>
 5   0  0.1336057E-06  0.2400052E+04  0.7818609E-02  0.8439484E-01
        2   -1    0    0  501    0  0.00000000000E+00  0.00000000000E+00  0.27711721175E+04  0.27711721175E+04  0.25500000920E-02 0.  1.
       -2   -1    0    0    0  501  0.00000000000E+00  0.00000000000E+00 -0.51965804317E+03  0.51965804318E+03  0.25500000920E-02 0. -1.
    10030    2    1    2    0    0  0.00000000000E+00  0.00000000000E+00  0.22515140743E+04  0.32908301606E+04  0.24000515660E+04 0.  0.
        2    1    3    3  502    0 -0.42204182848E+03  0.64894567947E+03  0.23830438704E+04  0.25056232534E+04  0.25500000920E-02 0.  1.
       -2    1    3    3    0  502  0.42204182848E+03 -0.64894567947E+03 -0.13152979609E+03  0.78520690723E+03  0.25500000920E-02 0. -1.
</event>
<event>
 5   0  0.1291468E-06  0.2400615E+04  0.7818609E-02  0.8439274E-01
       -2   -1    0    0    0  501  0.00000000000E+00  0.00000000000E+00  0.57917818391E+03  0.57917818391E+03  0.25500000920E-02 0.  1.
        2   -1    0    0  501    0  0.00000000000E+00  0.00000000000E+00 -0.24875550437E+04  0.24875550437E+04  0.25500000920E-02 0. -1.
    10030    2    1    2    0    0  0.00000000000E+00  0.00000000000E+00 -0.19083768598E+04  0.30667332276E+04  0.24006145985E+04 0.  0.
        4    1    3    3  502    0  0.82875214765E+03  0.76514684143E+03 -0.14785091748E+04  0.18596426549E+04  0.12699999809E+01 0.  1.
       -4    1    3    3    0  502 -0.82875214765E+03 -0.76514684143E+03 -0.42986768500E+03  0.12070905727E+04  0.12699999809E+01 0. -1.
</event>
<event>
 5   0  0.1291468E-06  0.2399413E+04  0.7818609E-02  0.8439723E-01
        2   -1    0    0  501    0  0.00000000000E+00  0.00000000000E+00  0.18894807159E+04  0.18894807159E+04  0.25500000920E-02 0.  1.
       -2   -1    0    0    0  501  0.00000000000E+00  0.00000000000E+00 -0.76174118643E+03  0.76174118643E+03  0.25500000920E-02 0. -1.
    10030    2    1    2    0    0  0.00000000000E+00  0.00000000000E+00  0.11277395294E+04  0.26512219023E+04  0.23994126633E+04 0.  0.
        4    1    3    3  502    0 -0.99668769966E+02 -0.28956577423E+03  0.18455651898E+04  0.18708005463E+04  0.12699999809E+01 0.  1.
       -4    1    3    3    0  502  0.99668769966E+02  0.28956577423E+03 -0.71782566037E+03  0.78042135600E+03  0.12699999809E+01 0. -1.
</event>
<event>
 5   0  0.5363690E-07  0.2401306E+04  0.7818609E-02  0.8439015E-01
       -1   -1    0    0    0  501  0.00000000000E+00  0.00000000000E+00  0.75733159578E+03  0.75733159580E+03  0.50400001928E-02 0.  1.
        1   -1    0    0  501    0  0.00000000000E+00  0.00000000000E+00 -0.19034827555E+04  0.19034827555E+04  0.50400001928E-02 0. -1.
    10030    2    1    2    0    0  0.00000000000E+00  0.00000000000E+00 -0.11461511598E+04  0.26608143513E+04  0.24013060053E+04 0.  0.
        4    1    3    3  502    0 -0.67133416938E+03 -0.19707686377E+03  0.50809449850E+03  0.86469097920E+03  0.12699999809E+01 0.  1.
       -4    1    3    3    0  502  0.67133416938E+03  0.19707686377E+03 -0.16542456582E+04  0.17961233721E+04  0.12699999809E+01 0. -1.
</event>
<event>
 5   0  0.1336057E-06  0.2407743E+04  0.7818609E-02  0.8436610E-01
        2   -1    0    0  501    0  0.00000000000E+00  0.00000000000E+00  0.13466526950E+04  0.13466526950E+04  0.25500000920E-02 0.  1.
       -2   -1    0    0    0  501  0.00000000000E+00  0.00000000000E+00 -0.10762291147E+04  0.10762291147E+04  0.25500000920E-02 0. -1.
    10030    2    1    2    0    0  0.00000000000E+00  0.00000000000E+00  0.27042358024E+03  0.24228818097E+04  0.24077432071E+04 0.  0.
        2    1    3    3  502    0 -0.78414475524E+02  0.10993902821E+04 -0.35208390529E+03  0.11570526776E+04  0.25500000920E-02 0. -1.
       -2    1    3    3    0  502  0.78414475524E+02 -0.10993902821E+04  0.62250748553E+03  0.12658291322E+04  0.25500000920E-02 0.  1.
</event>
<event>
 5   0  0.1291468E-06  0.2400307E+04  0.7818609E-02  0.8439389E-01
       -2   -1    0    0    0  501  0.00000000000E+00  0.00000000000E+00  0.12224478183E+04  0.12224478183E+04  0.25500000920E-02 0.  1.
        2   -1    0    0  501    0  0.00000000000E+00  0.00000000000E+00 -0.11782652936E+04  0.11782652936E+04  0.25500000920E-02 0. -1.
    10030    2    1    2    0    0  0.00000000000E+00  0.00000000000E+00  0.44182524718E+02  0.24007131118E+04  0.24003065117E+04 0.  0.
        4    1    3    3  502    0  0.14062588652E+03  0.11703584084E+04 -0.20345033028E+03  0.11962057072E+04  0.12699999809E+01 0. -1.
       -4    1    3    3    0  502 -0.14062588652E+03 -0.11703584084E+04  0.24763285500E+03  0.12045074047E+04  0.12699999809E+01 0.  1.
</event>
<event>
 5   0  0.1307477E-06  0.2400240E+04  0.7818609E-02  0.8439414E-01
        2   -1    0    0  501    0  0.00000000000E+00  0.00000000000E+00  0.16683982855E+04  0.16683982855E+04  0.25500000920E-02 0.  1.
       -2   -1    0    0    0  501  0.00000000000E+00  0.00000000000E+00 -0.86327607900E+03  0.86327607900E+03  0.25500000920E-02 0. -1.
    10030    2    1    2    0    0  0.00000000000E+00  0.00000000000E+00  0.80512220654E+03  0.25316743645E+04  0.24002402631E+04 0.  0.
        5    1    3    3  502    0 -0.35779538121E+03  0.23007562642E+03 -0.78108024471E+03  0.88941596982E+03  0.46999998093E+01 0. -1.
       -5    1    3    3    0  502  0.35779538121E+03 -0.23007562642E+03  0.15862024513E+04  0.16422583947E+04  0.46999998093E+01 0.  1.
</event>
<event>
 5   0  0.5690124E-07  0.2397572E+04  0.7818609E-02  0.8440413E-01
        1   -1    0    0  501    0  0.00000000000E+00  0.00000000000E+00  0.95622776339E+03  0.95622776341E+03  0.50400001928E-02 0.  1.
       -1   -1    0    0    0  501  0.00000000000E+00  0.00000000000E+00 -0.15028714344E+04  0.15028714344E+04  0.50400001928E-02 0. -1.
    10030    2    1    2    0    0  0.00000000000E+00  0.00000000000E+00 -0.54664367100E+03  0.24590991978E+04  0.23975715968E+04 0.  0.
        2    1    3    3  502    0  0.11858923980E+04  0.11846375521E+03 -0.40591801556E+03  0.12590249705E+04  0.25500000920E-02 0.  1.
       -2    1    3    3    0  502 -0.11858923980E+04 -0.11846375521E+03 -0.14072565544E+03  0.12000742273E+04  0.25500000920E-02 0. -1.
</event>
<event>
 5   0  0.1307477E-06  0.2398192E+04  0.7818609E-02  0.8440181E-01
       -2   -1    0    0    0  501  0.00000000000E+00  0.00000000000E+00  0.83891115415E+03  0.83891115415E+03  0.25500000920E-02 0.  1.
        2   -1    0    0  501    0  0.00000000000E+00  0.00000000000E+00 -0.17139248248E+04  0.17139248248E+04  0.25500000920E-02 0. -1.
    10030    2    1    2    0    0  0.00000000000E+00  0.00000000000E+00 -0.87501367063E+03  0.25528359789E+04  0.23981915294E+04 0.  0.
        5    1    3    3  502    0  0.90731494916E+03 -0.75986775184E+03 -0.64278707585E+03  0.13467801350E+04  0.46999998093E+01 0.  1.
       -5    1    3    3    0  502 -0.90731494916E+03  0.75986775184E+03 -0.23222659477E+03  0.12060558439E+04  0.46999998093E+01 0. -1.
</event>
<event>
 5   0  0.5452384E-07  0.2411621E+04  0.7818609E-02  0.8435166E-01
        1   -1    0    0  501    0  0.00000000000E+00  0.00000000000E+00  0.12803172308E+04  0.12803172308E+04  0.50400001928E-02 0.  1.
       -1   -1    0    0    0  501  0.00000000000E+00  0.00000000000E+00 -0.11356398566E+04  0.11356398566E+04  0.50400001928E-02 0. -1.
    10030    2    1    2    0    0  0.00000000000E+00  0.00000000000E+00  0.14467737420E+03  0.24159570874E+04  0.24116212608E+04 0.  0.
        5    1    3    3  502    0 -0.10938892251E+04 -0.29422418796E+02 -0.43502805328E+03  0.11775953518E+04  0.46999998093E+01 0. -1.
       -5    1    3    3    0  502  0.10938892251E+04  0.29422418796E+02  0.57970542747E+03  0.12383617356E+04  0.46999998093E+01 0.  1.
</event>
<event>
 5   0  0.5690124E-07  0.2400628E+04  0.7818609E-02  0.8439269E-01
       -1   -1    0    0    0  501  0.00000000000E+00  0.00000000000E+00  0.12146618584E+04  0.12146618584E+04  0.50400001928E-02 0.  1.
        1   -1    0    0  501    0  0.00000000000E+00  0.00000000000E+00 -0.11861354156E+04  0.11861354156E+04  0.50400001928E-02 0. -1.
    10030    2    1    2    0    0  0.00000000000E+00  0.00000000000E+00  0.28526442846E+02  0.24007972740E+04  0.24006277914E+04 0.  0.
        2    1    3    3  502    0  0.57094032354E+03 -0.39235550663E+02 -0.10409137118E+04  0.11878609501E+04  0.25500000920E-02 0. -1.
       -2    1    3    3    0  502 -0.57094032354E+03  0.39235550663E+02  0.10694401546E+04  0.12129363239E+04  0.25500000920E-02 0.  1.
</event>
<event>
 5   0  0.1275948E-06  0.2400545E+04  0.7818609E-02  0.8439300E-01
        2   -1    0    0  501    0  0.00000000000E+00  0.00000000000E+00  0.18607762140E+04  0.18607762140E+04  0.25500000920E-02 0. -1.
       -2   -1    0    0    0  501  0.00000000000E+00  0.00000000000E+00 -0.77422186261E+03  0.77422186261E+03  0.25500000920E-02 0.  1.
    10030    2    1    2    0    0  0.00000000000E+00  0.00000000000E+00  0.10865543513E+04  0.26349980766E+04  0.24005446268E+04 0.  0.
        1    1    3    3  502    0 -0.96787369322E+03 -0.61698292723E+03  0.92856635625E+03  0.14763749173E+04  0.50400001928E-02 0. -1.
       -1    1    3    3    0  502  0.96787369322E+03  0.61698292723E+03  0.15798799510E+03  0.11586231592E+04  0.50400001928E-02 0.  1.
</event>
<event>
 5   0  0.5363690E-07  0.2399141E+04  0.7818609E-02  0.8439825E-01
        1   -1    0    0  501    0  0.00000000000E+00  0.00000000000E+00  0.10677064196E+04  0.10677064196E+04  0.50400001928E-02 0.  1.
       -1   -1    0    0    0  501  0.00000000000E+00  0.00000000000E+00 -0.13477197368E+04  0.13477197368E+04  0.50400001928E-02 0. -1.
    10030    2    1    2    0    0  0.00000000000E+00  0.00000000000E+00 -0.28001331717E+03  0.24154261564E+04  0.23991406919E+04 0.  0.
        4    1    3    3  502    0 -0.36880667965E+03 -0.56045494092E+03 -0.11411607027E+04  0.13237739498E+04  0.12699999809E+01 0. -1.
       -4    1    3    3    0  502  0.36880667965E+03  0.56045494092E+03  0.86114738554E+03  0.10916522067E+04  0.12699999809E+01 0.  1.
</event>
<event>
 5   0  0.1308662E-06  0.2399354E+04  0.7818609E-02  0.8439745E-01
        2   -1    0    0  501    0  0.00000000000E+00  0.00000000000E+00  0.16524348398E+04  0.16524348398E+04  0.25500000920E-02 0. -1.
       -2   -1    0    0    0  501  0.00000000000E+00  0.00000000000E+00 -0.87097227039E+03  0.87097227040E+03  0.25500000920E-02 0.  1.
    10030    2    1    2    0    0  0.00000000000E+00  0.00000000000E+00  0.78146256945E+03  0.25234071102E+04  0.23993540165E+04 0.  0.
        3    1    3    3  502    0 -0.11753741053E+03 -0.10062585971E+03 -0.86043443478E+03  0.87423568519E+03  0.10100000352E+00 0.  1.
       -3    1    3    3    0  502  0.11753741053E+03  0.10062585971E+03  0.16418970042E+04  0.16491714250E+04  0.10100000352E+00 0. -1.
</event>
<event>
 5   0  0.5452384E-07  0.2397358E+04  0.7818609E-02  0.8440493E-01
        1   -1    0    0  501    0  0.00000000000E+00  0.00000000000E+00  0.14427191103E+04  0.14427191103E+04  0.50400001928E-02 0.  1.
       -1   -1    0    0    0  501  0.00000000000E+00  0.00000000000E+00 -0.99591917415E+03  0.99591917417E+03  0.50400001928E-02 0. -1.
    10030    2    1    2    0    0  0.00000000000E+00  0.00000000000E+00  0.44679993617E+03  0.24386382845E+04  0.23973582335E+04 0.  0.
        5    1    3    3  502    0  0.14354054984E+03 -0.10390099453E+04 -0.36681847860E+03  0.11111811023E+04  0.46999998093E+01 0. -1.
       -5    1    3    3    0  502 -0.14354054984E+03  0.10390099453E+04  0.81361841478E+03  0.13274571822E+04  0.46999998093E+01 0.  1.
</event>
<event>
 5   0  0.5510176E-07  0.2395531E+04  0.7818609E-02  0.8441179E-01
       -1   -1    0    0    0  501  0.00000000000E+00  0.00000000000E+00  0.11045117417E+04  0.11045117417E+04  0.50400001928E-02 0.  1.
        1   -1    0    0  501    0  0.00000000000E+00  0.00000000000E+00 -0.12988923461E+04  0.12988923461E+04  0.50400001928E-02 0. -1.
    10030    2    1    2    0    0  0.00000000000E+00  0.00000000000E+00 -0.19438060437E+03  0.24034040878E+04  0.23955307115E+04 0.  0.
        3    1    3    3  502    0  0.34479833102E+02  0.86800600562E+03  0.73015238623E+03  0.11347888799E+04  0.10100000352E+00 0.  1.
       -3    1    3    3    0  502 -0.34479833102E+02 -0.86800600562E+03 -0.92453299061E+03  0.12686152079E+04  0.10100000352E+00 0. -1.
</event>
<event>
 5   0  0.4483375E-07  0.2400055E+04  0.7818609E-02  0.8439483E-01
       -3   -1    0    0    0  501  0.00000000000E+00  0.00000000000E+00  0.27458690472E+04  0.27458690491E+04  0.10100000352E+00 0. -1.
        3   -1    0    0  501    0  0.00000000000E+00  0.00000000000E+00 -0.52444806586E+03  0.52444807559E+03  0.10100000352E+00 0.  1.
    10030    2    1    2    0    0  0.00000000000E+00  0.00000000000E+00  0.22214209813E+04  0.32703171246E+04  0.24000547743E+04 0.  0.
        4    1    3    3  502    0 -0.93841661819E+02 -0.19864992371E+03  0.27182309821E+04  0.27270954025E+04  0.12699999809E+01 0. -1.
       -4    1    3    3    0  502  0.93841661819E+02  0.19864992371E+03 -0.49681000072E+03  0.54322172213E+03  0.12699999809E+01 0.  1.
</event>
<event>
 5   0  0.1336057E-06  0.2398001E+04  0.7818609E-02  0.8440252E-01
        2   -1    0    0  501    0  0.00000000000E+00  0.00000000000E+00  0.12821104865E+04  0.12821104865E+04  0.25500000920E-02 0. -1.
       -2   -1    0    0    0  501  0.00000000000E+00  0.00000000000E+00 -0.11212777264E+04  0.11212777264E+04  0.25500000920E-02 0.  1.
    10030    2    1    2    0    0  0.00000000000E+00  0.00000000000E+00  0.16083276004E+03  0.24033882129E+04  0.23980007767E+04 0.  0.
        2    1    3    3  502    0  0.51539715905E+03  0.23712147367E+03 -0.97824318164E+03  0.11308494804E+04  0.25500000920E-02 0.  1.
       -2    1    3    3    0  502 -0.51539715905E+03 -0.23712147367E+03  0.11390759417E+04  0.12725387325E+04  0.25500000920E-02 0. -1.
</event>
<event>
 5   0  0.1307477E-06  0.2398874E+04  0.7818609E-02  0.8439925E-01
        2   -1    0    0  501    0  0.00000000000E+00  0.00000000000E+00  0.13008734733E+04  0.13008734733E+04  0.25500000920E-02 0. -1.
       -2   -1    0    0    0  501  0.00000000000E+00  0.00000000000E+00 -0.11059101102E+04  0.11059101102E+04  0.25500000920E-02 0.  1.
    10030    2    1    2    0    0  0.00000000000E+00  0.00000000000E+00  0.19496336308E+03  0.24067835835E+04  0.23988740077E+04 0.  0.
        5    1    3    3  502    0 -0.72163187310E+01 -0.72524702300E+03  0.10559281532E+04  0.12810314885E+04  0.46999998093E+01 0. -1.
       -5    1    3    3    0  502  0.72163187310E+01  0.72524702300E+03 -0.86096479017E+03  0.11257520951E+04  0.46999998093E+01 0.  1.
</event>
<event>
 5   0  0.5363690E-07  0.2397161E+04  0.7818609E-02  0.8440567E-01
        1   -1    0    0  501    0  0.00000000000E+00  0.00000000000E+00  0.20928776445E+04  0.20928776445E+04  0.50400001928E-02 0.  1.
       -1   -1    0    0    0  501  0.00000000000E+00  0.00000000000E+00 -0.68642105121E+03  0.68642105122E+03  0.50400001928E-02 0. -1.
    10030    2    1    2    0    0  0.00000000000E+00  0.00000000000E+00  0.14064565933E+04  0.27792986957E+04  0.23971610482E+04 0.  0.
        4    1    3    3  502    0  0.10913870267E+04  0.49068824945E+03  0.62380168265E+03  0.13494557245E+04  0.12699999809E+01 0. -1.
       -4    1    3    3    0  502 -0.10913870267E+04 -0.49068824945E+03  0.78265491063E+03  0.14298429712E+04  0.12699999809E+01 0.  1.
</event>
<event>
 5   0  0.1291468E-06  0.2399935E+04  0.7818609E-02  0.8439528E-01
       -2   -1    0    0    0  501  0.00000000000E+00  0.00000000000E+00  0.27896195855E+04  0.27896195855E+04  0.25500000920E-02 0.  1.
        2   -1    0    0  501    0  0.00000000000E+00  0.00000000000E+00 -0.51617149711E+03  0.51617149712E+03  0.25500000920E-02 0. -1.
    10030    2    1    2    0    0  0.00000000000E+00  0.00000000000E+00  0.22734480884E+04  0.33057910826E+04  0.23999350973E+04 0.  0.
        4    1    3    3  502    0  0.64917229073E+03 -0.98970481472E+03  0.14086796771E+04  0.18399240009E+04  0.12699999809E+01 0.  1.
       -4    1    3    3    0  502 -0.64917229073E+03  0.98970481472E+03  0.86476841126E+03  0.14658670817E+04  0.12699999809E+01 0. -1.
</event>
<event>
 5   0  0.5452384E-07  0.2399958E+04  0.7818609E-02  0.8439519E-01
        1   -1    0    0  501    0  0.00000000000E+00  0.00000000000E+00  0.68197612171E+03  0.68197612173E+03  0.50400001928E-02 0.  1.
       -1   -1    0    0    0  501  0.00000000000E+00  0.00000000000E+00 -0.21114366908E+04  0.21114366908E+04  0.50400001928E-02 0. -1.
    10030    2    1    2    0    0  0.00000000000E+00  0.00000000000E+00 -0.14294605691E+04  0.27934128126E+04  0.23999578377E+04 0.  0.
        5    1    3    3  502    0  0.66872583562E+03 -0.58590850668E+03  0.22326890143E+03  0.91670830353E+03  0.46999998093E+01 0.  1.
       -5    1    3    3    0  502 -0.66872583562E+03  0.58590850668E+03 -0.16527294706E+04  0.18767045090E+04  0.46999998093E+01 0. -1.
</event>
<event>
 5   0  0.1336057E-06  0.2396187E+04  0.7818609E-02  0.8440933E-01
       -2   -1    0    0    0  501  0.00000000000E+00  0.00000000000E+00  0.53098355246E+03  0.53098355247E+03  0.25500000920E-02 0. -1.
        2   -1    0    0  501    0  0.00000000000E+00  0.00000000000E+00 -0.27033369599E+04  0.27033369599E+04  0.25500000920E-02 0.  1.
    10030    2    1    2    0    0  0.00000000000E+00  0.00000000000E+00 -0.21723534075E+04  0.32343205124E+04  0.23961865224E+04 0.  0.
        2    1    3    3  502    0 -0.61303463830E+03 -0.80704213302E+03 -0.22369163178E+03  0.10378662815E+04  0.25500000920E-02 0. -1.
       -2    1    3    3    0  502  0.61303463830E+03  0.80704213302E+03 -0.19486617757E+04  0.21964542309E+04  0.25500000920E-02 0.  1.
</event>
<event>
 5   0  0.1308662E-06  0.2399897E+04  0.7818609E-02  0.8439542E-01
       -2   -1    0    0    0  501  0.00000000000E+00  0.00000000000E+00  0.11327593645E+04  0.11327593645E+04  0.25500000920E-02 0.  1.
        2   -1    0    0  501    0  0.00000000000E+00  0.00000000000E+00 -0.12711230660E+04  0.12711230660E+04  0.25500000920E-02 0. -1.
    10030    2    1    2    0    0  0.00000000000E+00  0.00000000000E+00 -0.13836370154E+03  0.24038824305E+04  0.23998971282E+04 0.  0.
        3    1    3    3  502    0 -0.11197477230E+04  0.39189156676E+02 -0.49943652846E+03  0.12267059995E+04  0.10100000352E+00 0. -1.
       -3    1    3    3    0  502  0.11197477230E+04 -0.39189156676E+02  0.36107282692E+03  0.11771764310E+04  0.10100000352E+00 0.  1.
</event>
<event>
 5   0  0.5690124E-07  0.2396524E+04  0.7818609E-02  0.8440806E-01
        1   -1    0    0  501    0  0.00000000000E+00  0.00000000000E+00  0.19181985080E+04  0.19181985080E+04  0.50400001928E-02 0. -1.
       -1   -1    0    0    0  501  0.00000000000E+00  0.00000000000E+00 -0.74853116524E+03  0.74853116526E+03  0.50400001928E-02 0.  1.
    10030    2    1    2    0    0  0.00000000000E+00  0.00000000000E+00  0.11696673427E+04  0.26667296732E+04  0.23965236192E+04 0.  0.
        2    1    3    3  502    0  0.19656847388E+02  0.44180780416E+03  0.18240640300E+04  0.18769097243E+04  0.25500000920E-02 0. -1.
       -2    1    3    3    0  502 -0.19656847388E+02 -0.44180780416E+03 -0.65439668728E+03  0.78981994897E+03  0.25500000920E-02 0.  1.
</event>
<event>
 5   0  0.5452384E-07  0.2400378E+04  0.7818609E-02  0.8439362E-01
       -1   -1    0    0    0  501  0.00000000000E+00  0.00000000000E+00  0.15372065333E+04  0.15372065333E+04  0.50400001928E-02 0.  1.
        1   -1    0    0  501    0  0.00000000000E+00  0.00000000000E+00 -0.93705958700E+03  0.93705958702E+03  0.50400001928E-02 0. -1.
    10030    2    1    2    0    0  0.00000000000E+00  0.00000000000E+00  0.60014694626E+03  0.24742661203E+04  0.24003784029E+04 0.  0.
        5    1    3    3  502    0  0.67672130284E+03  0.38862993149E+03  0.12399785709E+04  0.14651122454E+04  0.46999998093E+01 0.  1.
       -5    1    3    3    0  502 -0.67672130284E+03 -0.38862993149E+03 -0.63983162462E+03  0.10091538749E+04  0.46999998093E+01 0. -1.
</event>
<event>
 5   0  0.1308662E-06  0.2400201E+04  0.7818609E-02  0.8439428E-01
        2   -1    0    0  501    0  0.00000000000E+00  0.00000000000E+00  0.16497901018E+04  0.16497901018E+04  0.25500000920E-02 0.  1.
       -2   -1    0    0    0  501  0.00000000000E+00  0.00000000000E+00 -0.87298468650E+03  0.87298468650E+03  0.25500000920E-02 0. -1.
    10030    2    1    2    0    0  0.00000000000E+00  0.00000000000E+00  0.77680541527E+03  0.25227747883E+04  0.24002012372E+04 0.  0.
        3    1    3    3  502    0  0.29751450237E+03  0.35793298002E+03 -0.77425651225E+03  0.90338477642E+03  0.10100000352E+00 0. -1.
       -3    1    3    3    0  502 -0.29751450237E+03 -0.35793298002E+03  0.15510619275E+04  0.16193900119E+04  0.10100000352E+00 0.  1.
</event>
<event>
 5   0  0.1308662E-06  0.2400098E+04  0.7818609E-02  0.8439467E-01
        2   -1    0    0  501    0  0.00000000000E+00  0.00000000000E+00  0.21669969760E+04  0.21669969760E+04  0.25500000920E-02 0. -1.
       -2   -1    0    0    0  501  0.00000000000E+00  0.00000000000E+00 -0.66456817743E+03  0.66456817743E+03  0.25500000920E-02 0.  1.
    10030    2    1    2    0    0  0.00000000000E+00  0.00000000000E+00  0.15024287986E+04  0.28315651535E+04  0.24000976904E+04 0.  0.
        3    1    3    3  502    0 -0.50288645543E+03 -0.18149823887E+03  0.20187301951E+04  0.20883266049E+04  0.10100000352E+00 0. -1.
       -3    1    3    3    0  502  0.50288645543E+03  0.18149823887E+03 -0.51630139655E+03  0.74323854855E+03  0.10100000352E+00 0.  1.
</event>
<event>
 5   0  0.1336057E-06  0.2399821E+04  0.7818609E-02  0.8439570E-01
       -2   -1    0    0    0  501  0.00000000000E+00  0.00000000000E+00  0.88168810306E+03  0.88168810306E+03  0.25500000920E-02 0. -1.
        2   -1    0    0  501    0  0.00000000000E+00  0.00000000000E+00 -0.16329874392E+04  0.16329874392E+04  0.25500000920E-02 0.  1.
    10030    2    1    2    0    0  0.00000000000E+00  0.00000000000E+00 -0.75129933617E+03  0.25146755423E+04  0.23998213247E+04 0.  0.
        2    1    3    3  502    0  0.82969274060E+03  0.66986533050E+03 -0.95214001224E+03  0.14295734356E+04  0.25500000920E-02 0. -1.
       -2    1    3    3    0  502 -0.82969274060E+03 -0.66986533050E+03  0.20084067607E+03  0.10851021067E+04  0.25500000920E-02 0.  1.
</event>
<event>
 5   0  0.5527286E-07  0.2400539E+04  0.7818609E-02  0.8439302E-01
       -1   -1    0    0    0  501  0.00000000000E+00  0.00000000000E+00  0.90857519301E+03  0.90857519303E+03  0.50400001928E-02 0. -1.
        1   -1    0    0  501    0  0.00000000000E+00  0.00000000000E+00 -0.15856110848E+04  0.15856110848E+04  0.50400001928E-02 0.  1.
    10030    2    1    2    0    0  0.00000000000E+00  0.00000000000E+00 -0.67703589181E+03  0.24941862779E+04  0.24005390207E+04 0.  0.
        1    1    3    3  502    0  0.42721516119E+03 -0.71549969718E+03  0.55900606443E+03  0.10034641950E+04  0.50400001928E-02 0. -1.
       -1    1    3    3    0  502 -0.42721516119E+03  0.71549969718E+03 -0.12360419562E+04  0.14907220828E+04  0.50400001928E-02 0.  1.
</event>
<event>
 5   0  0.1291468E-06  0.2402877E+04  0.7818609E-02  0.8438427E-01
        2   -1    0    0  501    0  0.00000000000E+00  0.00000000000E+00  0.30883414221E+04  0.30883414221E+04  0.25500000920E-02 0. -1.
       -2   -1    0    0    0  501  0.00000000000E+00  0.00000000000E+00 -0.46738821636E+03  0.46738821636E+03  0.25500000920E-02 0.  1.
    10030    2    1    2    0    0  0.00000000000E+00  0.00000000000E+00  0.26209532058E+04  0.35557296385E+04  0.24028769330E+04 0.  0.
        4    1    3    3  502    0  0.33625888529E+03  0.10059777965E+04  0.21454600677E+04  0.23933369759E+04  0.12699999809E+01 0. -1.
       -4    1    3    3    0  502 -0.33625888529E+03 -0.10059777965E+04  0.47549313805E+03  0.11623926626E+04  0.12699999809E+01 0.  1.
</event>
<event>
 5   0  0.1308662E-06  0.2401179E+04  0.7818609E-02  0.8439062E-01
        2   -1    0    0  501    0  0.00000000000E+00  0.00000000000E+00  0.15908224501E+04  0.15908224501E+04  0.25500000920E-02 0.  1.
       -2   -1    0    0    0  501  0.00000000000E+00  0.00000000000E+00 -0.90608206914E+03  0.90608206914E+03  0.25500000920E-02 0. -1.
    10030    2    1    2    0    0  0.00000000000E+00  0.00000000000E+00  0.68474038093E+03  0.24969045192E+04  0.24011794578E+04 0.  0.
        3    1    3    3  502    0  0.53319248294E+03 -0.44246059160E+03  0.13619426627E+04  0.15280554393E+04  0.10100000352E+00 0.  1.
       -3    1    3    3    0  502 -0.53319248294E+03  0.44246059160E+03 -0.67720228176E+03  0.96884907989E+03  0.10100000352E+00 0. -1.
</event>
<event>
 5   0  0.5690124E-07  0.2402080E+04  0.7818609E-02  0.8438725E-01
        1   -1    0    0  501    0  0.00000000000E+00  0.00000000000E+00  0.14629216941E+04  0.14629216941E+04  0.50400001928E-02 0.  1.
       -1   -1    0    0    0  501  0.00000000000E+00  0.00000000000E+00 -0.98603877235E+03  0.98603877236E+03  0.50400001928E-02 0. -1.
    10030    2    1    2    0    0  0.00000000000E+00  0.00000000000E+00  0.47688292175E+03  0.24489604665E+04  0.24020803578E+04 0.  0.
        2    1    3    3  502    0 -0.58350266706E+03 -0.73471821695E+03  0.10028825524E+04  0.13733388637E+04  0.25500000920E-02 0.  1.
       -2    1    3    3    0  502  0.58350266706E+03  0.73471821695E+03 -0.52599963064E+03  0.10756216027E+04  0.25500000920E-02 0. -1.
</event>
<event>
 5   0  0.5527286E-07  0.2400904E+04  0.7818609E-02  0.8439165E-01
       -1   -1    0    0    0  501  0.00000000000E+00  0.00000000000E+00  0.12352344011E+04  0.12352344011E+04  0.50400001928E-02 0.  1.
        1   -1    0    0  501    0  0.00000000000E+00  0.00000000000E+00 -0.11666493089E+04  0.11666493089E+04  0.50400001928E-02 0. -1.
    10030    2    1    2    0    0  0.00000000000E+00  0.00000000000E+00  0.68585092215E+02  0.24018837101E+04  0.24009042967E+04 0.  0.
        1    1    3    3  502    0  0.65308476331E+03 -0.10045051023E+04 -0.40136405223E+02  0.11988165579E+04  0.50400001928E-02 0. -1.
       -1    1    3    3    0  502 -0.65308476331E+03  0.10045051023E+04  0.10872149744E+03  0.12030671521E+04  0.50400001928E-02 0.  1.
</event>
<event>
 5   0  0.1275948E-06  0.2400931E+04  0.7818609E-02  0.8439155E-01
       -2   -1    0    0    0  501  0.00000000000E+00  0.00000000000E+00  0.14645624063E+04  0.14645624063E+04  0.25500000920E-02 0.  1.
        2   -1    0    0  501    0  0.00000000000E+00  0.00000000000E+00 -0.98399150739E+03  0.98399150739E+03  0.25500000920E-02 0. -1.
    10030    2    1    2    0    0  0.00000000000E+00  0.00000000000E+00  0.48057089895E+03  0.24485539137E+04  0.24009306278E+04 0.  0.
        1    1    3    3  502    0  0.97750758552E+03 -0.19113987741E+03  0.92369798453E+03  0.13584084434E+04  0.50400001928E-02 0.  1.
       -1    1    3    3    0  502 -0.97750758552E+03  0.19113987741E+03 -0.44312708558E+03  0.10901454703E+04  0.50400001928E-02 0. -1.
</event>
<event>
 5   0  0.5452384E-07  0.2400620E+04  0.7818609E-02  0.8439271E-01
        1   -1    0    0  501    0  0.00000000000E+00  0.00000000000E+00  0.22542793174E+04  0.22542793175E+04  0.50400001928E-02 0. -1.
       -1   -1    0    0    0  501  0.00000000000E+00  0.00000000000E+00 -0.63911536544E+03  0.63911536546E+03  0.50400001928E-02 0.  1.
    10030    2    1    2    0    0  0.00000000000E+00  0.00000000000E+00  0.16151639520E+04  0.28933946829E+04  0.24006203780E+04 0.  0.
        5    1    3    3  502    0  0.17333485565E+03 -0.10661161940E+04  0.17659861000E+03  0.10944669343E+04  0.46999998093E+01 0.  1.
       -5    1    3    3    0  502 -0.17333485565E+03  0.10661161940E+04  0.14385653420E+04  0.17989277486E+04  0.46999998093E+01 0. -1.
</event>
<event>
 5   0  0.5527286E-07  0.2399602E+04  0.7818609E-02  0.8439652E-01
        1   -1    0    0  501    0  0.00000000000E+00  0.00000000000E+00  0.56423591216E+03  0.56423591218E+03  0.50400001928E-02 0.  1.
       -1   -1    0    0    0  501  0.00000000000E+00  0.00000000000E+00 -0.25512782147E+04  0.25512782147E+04  0.50400001928E-02 0. -1.
    10030    2    1    2    0    0  0.00000000000E+00  0.00000000000E+00 -0.19870423025E+04  0.31155141269E+04  0.23996022926E+04 0.  0.
        1    1    3    3  502    0  0.61425913742E+03 -0.73106965280E+03 -0.19367189840E+04  0.21593187694E+04  0.50400001928E-02 0. -1.
       -1    1    3    3    0  502 -0.61425913742E+03  0.73106965280E+03 -0.50323318548E+02  0.95619535743E+03  0.50400001928E-02 0.  1.
</event>
<event>
 5   0  0.1308662E-06  0.2399861E+04  0.7818609E-02  0.8439555E-01
       -2   -1    0    0    0  501  0.00000000000E+00  0.00000000000E+00  0.10541001319E+04  0.10541001319E+04  0.25500000920E-02 0.  1.
        2   -1    0    0  501    0  0.00000000000E+00  0.00000000000E+00 -0.13659362048E+04  0.13659362048E+04  0.25500000920E-02 0. -1.
    10030    2    1    2    0    0  0.00000000000E+00  0.00000000000E+00 -0.31183607290E+03  0.24200363368E+04  0.23998612741E+04 0.  0.
        3    1    3    3  502    0  0.10769207459E+04 -0.52778434712E+03 -0.11661715615E+03  0.12049540162E+04  0.10100000352E+00 0.  1.
       -3    1    3    3    0  502 -0.10769207459E+04  0.52778434712E+03 -0.19521891675E+03  0.12150823205E+04  0.10100000352E+00 0. -1.
</event>
<event>
 5   0  0.5527286E-07  0.2399869E+04  0.7818609E-02  0.8439553E-01
       -1   -1    0    0    0  501  0.00000000000E+00  0.00000000000E+00  0.16902613428E+04  0.16902613428E+04  0.50400001928E-02 0. -1.
        1   -1    0    0  501    0  0.00000000000E+00  0.00000000000E+00 -0.85184630660E+03  0.85184630661E+03  0.50400001928E-02 0.  1.
    10030    2    1    2    0    0  0.00000000000E+00  0.00000000000E+00  0.83841503623E+03  0.25421076495E+04  0.23998690648E+04 0.  0.
        1    1    3    3  502    0  0.10386545984E+03  0.63664207934E+02  0.16836936881E+04  0.16880952581E+04  0.50400001928E-02 0. -1.
       -1    1    3    3    0  502 -0.10386545984E+03 -0.63664207934E+02 -0.84527865190E+03  0.85401239130E+03  0.50400001928E-02 0.  1.
</event>
<event>
 5   0  0.5527286E-07  0.2400305E+04  0.7818609E-02  0.8439389E-01
       -1   -1    0    0    0  501  0.00000000000E+00  0.00000000000E+00  0.61456237684E+03  0.61456237686E+03  0.50400001928E-02 0. -1.
        1   -1    0    0  501    0  0.00000000000E+00  0.00000000000E+00 -0.23437258009E+04  0.23437258009E+04  0.50400001928E-02 0.  1.
    10030    2    1    2    0    0  0.00000000000E+00  0.00000000000E+00 -0.17291634240E+04  0.29582881777E+04  0.24003047297E+04 0.  0.
        1    1    3    3  502    0  0.89425402420E+03  0.56356793631E+03 -0.16406235367E+03  0.10696801085E+04  0.50400001928E-02 0.  1.
       -1    1    3    3    0  502 -0.89425402420E+03 -0.56356793631E+03 -0.15651010704E+04  0.18886080692E+04  0.50400001928E-02 0. -1.
</event>
<event>
 5   0  0.5690124E-07  0.2400434E+04  0.7818609E-02  0.8439341E-01
        1   -1    0    0  501    0  0.00000000000E+00  0.00000000000E+00  0.15923462950E+04  0.15923462950E+04  0.50400001928E-02 0.  1.
       -1   -1    0    0    0  501  0.00000000000E+00  0.00000000000E+00 -0.90465292401E+03  0.90465292403E+03  0.50400001928E-02 0. -1.
    10030    2    1    2    0    0  0.00000000000E+00  0.00000000000E+00  0.68769337095E+03  0.24969992190E+04  0.24004339039E+04 0.  0.
        2    1    3    3  502    0 -0.59794137991E+03 -0.31722591367E+03  0.13748564693E+04  0.15324478736E+04  0.25500000920E-02 0.  1.
       -2    1    3    3    0  502  0.59794137991E+03  0.31722591367E+03 -0.68716309836E+03  0.96455134538E+03  0.25500000920E-02 0. -1.
</event>
<event>
 5   0  0.1275948E-06  0.2399404E+04  0.7818609E-02  0.8439727E-01
       -2   -1    0    0    0  501  0.00000000000E+00  0.00000000000E+00  0.70650322221E+03  0.70650322221E+03  0.25500000920E-02 0.  1.
        2   -1    0    0  501    0  0.00000000000E+00  0.00000000000E+00 -0.20371956187E+04  0.20371956187E+04  0.25500000920E-02 0. -1.
    10030    2    1    2    0    0  0.00000000000E+00  0.00000000000E+00 -0.13306923965E+04  0.27436988409E+04  0.23994043168E+04 0.  0.
        1    1    3    3  502    0  0.25310454700E+03  0.11080017852E+04 -0.11045949737E+04  0.15848848298E+04  0.50400001928E-02 0. -1.
       -1    1    3    3    0  502 -0.25310454700E+03 -0.11080017852E+04 -0.22609742277E+03  0.11588140111E+04  0.50400001928E-02 0.  1.
</event>
<event>
 5   0  0.4483375E-07  0.2399806E+04  0.7818609E-02  0.8439576E-01
        3   -1    0    0  501    0  0.00000000000E+00  0.00000000000E+00  0.16102000229E+04  0.16102000260E+04  0.10100000352E+00 0.  1.
       -3   -1    0    0    0  501  0.00000000000E+00  0.00000000000E+00 -0.89415458008E+03  0.89415458578E+03  0.10100000352E+00 0. -1.
    10030    2    1    2    0    0  0.00000000000E+00  0.00000000000E+00  0.71604544277E+03  0.25043546118E+04  0.23998064392E+04 0.  0.
        4    1    3    3  502    0  0.10370350216E+04 -0.48995838002E+03 -0.98473865141E+01  0.11469958300E+04  0.12699999809E+01 0. -1.
       -4    1    3    3    0  502 -0.10370350216E+04  0.48995838002E+03  0.72589282929E+03  0.13573587818E+04  0.12699999809E+01 0.  1.
</event>
<event>
 5   0  0.1308662E-06  0.2399935E+04  0.7818609E-02  0.8439528E-01
        2   -1    0    0  501    0  0.00000000000E+00  0.00000000000E+00  0.94953738837E+03  0.94953738838E+03  0.25500000920E-02 0. -1.
       -2   -1    0    0    0  501  0.00000000000E+00  0.00000000000E+00 -0.15164463569E+04  0.15164463569E+04  0.25500000920E-02 0.  1.
    10030    2    1    2    0    0  0.00000000000E+00  0.00000000000E+00 -0.56690896848E+03  0.24659837452E+04  0.23999354269E+04 0.  0.
        3    1    3    3  502    0  0.10094691165E+04  0.23559294963E+03  0.33765665650E+03  0.10902036337E+04  0.10100000352E+00 0. -1.
       -3    1    3    3    0  502 -0.10094691165E+04 -0.23559294963E+03 -0.90456562498E+03  0.13757801115E+04  0.10100000352E+00 0.  1.
</event>
<event>
 5   0  0.1336057E-06  0.2400440E+04  0.7818609E-02  0.8439339E-01
        2   -1    0    0  501    0  0.00000000000E+00  0.00000000000E+00  0.15099270943E+04  0.15099270943E+04  0.25500000920E-02 0. -1.
       -2   -1    0    0    0  501  0.00000000000E+00  0.00000000000E+00 -0.95403835818E+03  0.95403835818E+03  0.25500000920E-02 0.  1.
    10030    2    1    2    0    0  0.00000000000E+00  0.00000000000E+00  0.55588873610E+03  0.24639654525E+04  0.24004402646E+04 0.  0.
        2    1    3    3  502    0 -0.21537257317E+03 -0.10162386160E+04 -0.33913218482E+03  0.10927657154E+04  0.25500000920E-02 0.  1.
       -2    1    3    3    0  502  0.21537257317E+03  0.10162386160E+04  0.89502092092E+03  0.13711997371E+04  0.25500000920E-02 0. -1.
</event>
<event>
 5   0  0.1275948E-06  0.2399259E+04  0.7818609E-02  0.8439781E-01
        2   -1    0    0  501    0  0.00000000000E+00  0.00000000000E+00  0.15558684761E+04  0.15558684761E+04  0.25500000920E-02 0.  1.
       -2   -1    0    0    0  501  0.00000000000E+00  0.00000000000E+00 -0.92495692084E+03  0.92495692084E+03  0.25500000920E-02 0. -1.
    10030    2    1    2    0    0  0.00000000000E+00  0.00000000000E+00  0.63091155529E+03  0.24808253970E+04  0.23992593148E+04 0.  0.
        1    1    3    3  502    0  0.16828401759E+02 -0.71177658991E+03 -0.68287410944E+03  0.98652225440E+03  0.50400001928E-02 0. -1.
       -1    1    3    3    0  502 -0.16828401759E+02  0.71177658991E+03  0.13137856647E+04  0.14943031426E+04  0.50400001928E-02 0.  1.
</event>
<event>
 5   0  0.1308662E-06  0.2400492E+04  0.7818609E-02  0.8439320E-01
       -2   -1    0    0    0  501  0.00000000000E+00  0.00000000000E+00  0.87969510199E+03  0.87969510199E+03  0.25500000920E-02 0.  1.
        2   -1    0    0  501    0  0.00000000000E+00  0.00000000000E+00 -0.16376014731E+04  0.16376014731E+04  0.25500000920E-02 0. -1.
    10030    2    1    2    0    0  0.00000000000E+00  0.00000000000E+00 -0.75790637111E+03  0.25172965751E+04  0.24004916121E+04 0.  0.
        3    1    3    3  502    0  0.99921433208E+03  0.59753253568E+03 -0.73011465978E+02  0.11665355104E+04  0.10100000352E+00 0.  1.
       -3    1    3    3    0  502 -0.99921433208E+03 -0.59753253568E+03 -0.68489490513E+03  0.13507610647E+04  0.10100000352E+00 0. -1.
</event>
<event>
 5   0  0.5527286E-07  0.2399648E+04  0.7818609E-02  0.8439635E-01
        1   -1    0    0  501    0  0.00000000000E+00  0.00000000000E+00  0.89731659734E+03  0.89731659735E+03  0.50400001928E-02 0.  1.
       -1   -1    0    0    0  501  0.00000000000E+00  0.00000000000E+00 -0.16043141154E+04  0.16043141154E+04  0.50400001928E-02 0. -1.
    10030    2    1    2    0    0  0.00000000000E+00  0.00000000000E+00 -0.70699751810E+03  0.25016307128E+04  0.23996480435E+04 0.  0.
        1    1    3    3  502    0  0.11921874840E+04 -0.23329863092E+02 -0.21471553772E+03  0.12115931832E+04  0.50400001928E-02 0.  1.
       -1    1    3    3    0  502 -0.11921874840E+04  0.23329863092E+02 -0.49228198038E+03  0.12900375296E+04  0.50400001928E-02 0. -1.
</event>
<event>
 5   0  0.4483375E-07  0.2399862E+04  0.7818609E-02  0.8439555E-01
        3   -1    0    0  501    0  0.00000000000E+00  0.00000000000E+00  0.11963016695E+04  0.11963016737E+04  0.10100000352E+00 0. -1.
       -3   -1    0    0    0  501  0.00000000000E+00  0.00000000000E+00 -0.12035717477E+04  0.12035717519E+04  0.10100000352E+00 0.  1.
    10030    2    1    2    0    0  0.00000000000E+00  0.00000000000E+00 -0.72700782347E+01  0.23998734257E+04  0.23998624138E+04 0.  0.
        2    1    3    3  502    0 -0.11418429057E+04  0.28543989286E+03 -0.23720354790E+03  0.12006442757E+04  0.25500000920E-02 0.  1.
       -2    1    3    3    0  502  0.11418429057E+04 -0.28543989286E+03  0.22993346966E+03  0.11992291500E+04  0.25500000920E-02 0. -1.
</event>
<event>
 5   0  0.4483375E-07  0.2400149E+04  0.7818609E-02  0.8439448E-01
        3   -1    0    0  501    0  0.00000000000E+00  0.00000000000E+00  0.10385427386E+04  0.10385427436E+04  0.10100000352E+00 0.  1.
       -3   -1    0    0    0  501  0.00000000000E+00  0.00000000000E+00 -0.13867299152E+04  0.13867299189E+04  0.10100000352E+00 0. -1.
    10030    2    1    2    0    0  0.00000000000E+00  0.00000000000E+00 -0.34818717658E+03  0.24252726625E+04  0.24001485740E+04 0.  0.
        5    1    3    3  502    0  0.31526133445E+03  0.93121345529E+03  0.52130204344E+03  0.11128010239E+04  0.46999998093E+01 0.  1.
       -5    1    3    3    0  502 -0.31526133445E+03 -0.93121345529E+03 -0.86948922001E+03  0.13124716386E+04  0.46999998093E+01 0. -1.
</event>
<event>
 5   0  0.1291468E-06  0.2401375E+04  0.7818609E-02  0.8438989E-01
       -2   -1    0    0    0  501  0.00000000000E+00  0.00000000000E+00  0.13296671766E+04  0.13296671766E+04  0.25500000920E-02 0.  1.
        2   -1    0    0  501    0  0.00000000000E+00  0.00000000000E+00 -0.10842189399E+04  0.10842189399E+04  0.25500000920E-02 0. -1.
    10030    2    1    2    0    0  0.00000000000E+00  0.00000000000E+00  0.24544823669E+03  0.24138861165E+04  0.24013748867E+04 0.  0.
        4    1    3    3  502    0 -0.67853466597E+02  0.52622966048E+03  0.12054277037E+04  0.13170342859E+04  0.12699999809E+01 0.  1.
       -4    1    3    3    0  502  0.67853466597E+02 -0.52622966048E+03 -0.95997946698E+03  0.10968518307E+04  0.12699999809E+01 0. -1.
</event>
<event>
 5   0  0.1336057E-06  0.2400350E+04  0.7818609E-02  0.8439373E-01
       -2   -1    0    0    0  501  0.00000000000E+00  0.00000000000E+00  0.87550457284E+03  0.87550457285E+03  0.25500000920E-02 0. -1.
        2   -1    0    0  501    0  0.00000000000E+00  0.00000000000E+00 -0.16452450755E+04  0.16452450755E+04  0.25500000920E-02 0.  1.
    10030    2    1    2    0    0  0.00000000000E+00  0.00000000000E+00 -0.76974050262E+03  0.25207496483E+04  0.24003496304E+04 0.  0.
        2    1    3    3  502    0  0.51880859545E+01 -0.85987478402E+03 -0.12641290152E+04  0.15288668116E+04  0.25500000920E-02 0.  1.
       -2    1    3    3    0  502 -0.51880859545E+01  0.85987478402E+03  0.49438851259E+03  0.99188283674E+03  0.25500000920E-02 0. -1.
</event>
<event>
 5   0  0.5690124E-07  0.2399704E+04  0.7818609E-02  0.8439614E-01
        1   -1    0    0  501    0  0.00000000000E+00  0.00000000000E+00  0.17096551079E+04  0.17096551079E+04  0.50400001928E-02 0.  1.
       -1   -1    0    0    0  501  0.00000000000E+00  0.00000000000E+00 -0.84206745026E+03  0.84206745028E+03  0.50400001928E-02 0. -1.
    10030    2    1    2    0    0  0.00000000000E+00  0.00000000000E+00  0.86758765763E+03  0.25517225582E+04  0.23997040797E+04 0.  0.
        2    1    3    3  502    0 -0.49741169371E+03 -0.23538941228E+03 -0.69996661464E+03  0.89038184509E+03  0.25500000920E-02 0. -1.
       -2    1    3    3    0  502  0.49741169371E+03  0.23538941228E+03  0.15675542723E+04  0.16613407131E+04  0.25500000920E-02 0.  1.
</event>
<event>
 5   0  0.5690124E-07  0.2400121E+04  0.7818609E-02  0.8439458E-01
        1   -1    0    0  501    0  0.00000000000E+00  0.00000000000E+00  0.13294221082E+04  0.13294221082E+04  0.50400001928E-02 0. -1.
       -1   -1    0    0    0  501  0.00000000000E+00  0.00000000000E+00 -0.10832868196E+04  0.10832868197E+04  0.50400001928E-02 0.  1.
    10030    2    1    2    0    0  0.00000000000E+00  0.00000000000E+00  0.24613528857E+03  0.24127089279E+04  0.24001212033E+04 0.  0.
        2    1    3    3  502    0 -0.91746582401E+03  0.32975607966E+03 -0.58036145475E+03  0.11345933318E+04  0.25500000920E-02 0.  1.
       -2    1    3    3    0  502  0.91746582401E+03 -0.32975607966E+03  0.82649674332E+03  0.12781155961E+04  0.25500000920E-02 0. -1.
</event>
<event>
 5   0  0.1275948E-06  0.2391558E+04  0.7818609E-02  0.8442671E-01
        2   -1    0    0  501    0  0.00000000000E+00  0.00000000000E+00  0.13748860113E+04  0.13748860113E+04  0.25500000920E-02 0.  1.
       -2   -1    0    0    0  501  0.00000000000E+00  0.00000000000E+00 -0.10400046352E+04  0.10400046352E+04  0.25500000920E-02 0. -1.
    10030    2    1    2    0    0  0.00000000000E+00  0.00000000000E+00  0.33488137608E+03  0.24148906466E+04  0.23915583411E+04 0.  0.
        1    1    3    3  502    0 -0.10040065755E+04 -0.60236470424E+03  0.41274156956E+03  0.12414620589E+04  0.50400001928E-02 0.  1.
       -1    1    3    3    0  502  0.10040065755E+04  0.60236470424E+03 -0.77860193486E+02  0.11734285876E+04  0.50400001928E-02 0. -1.
</event>
<event>
 5   0  0.5527286E-07  0.2397683E+04  0.7818609E-02  0.8440372E-01
        1   -1    0    0  501    0  0.00000000000E+00  0.00000000000E+00  0.16986706712E+04  0.16986706712E+04  0.50400001928E-02 0. -1.
       -1   -1    0    0    0  501  0.00000000000E+00  0.00000000000E+00 -0.84608548904E+03  0.84608548905E+03  0.50400001928E-02 0.  1.
    10030    2    1    2    0    0  0.00000000000E+00  0.00000000000E+00  0.85258518214E+03  0.25447561602E+04  0.23976827193E+04 0.  0.
        1    1    3    3  502    0  0.86035726866E+03  0.37047968036E+03 -0.36776465963E+03  0.10063402348E+04  0.50400001928E-02 0. -1.
       -1    1    3    3    0  502 -0.86035726866E+03 -0.37047968036E+03  0.12203498418E+04  0.15384159254E+04  0.50400001928E-02 0.  1.
</event>
<event>
 5   0  0.5452384E-07  0.2398557E+04  0.7818609E-02  0.8440044E-01
        1   -1    0    0  501    0  0.00000000000E+00  0.00000000000E+00  0.12967434248E+04  0.12967434249E+04  0.50400001928E-02 0.  1.
       -1   -1    0    0    0  501  0.00000000000E+00  0.00000000000E+00 -0.11091389693E+04  0.11091389693E+04  0.50400001928E-02 0. -1.
    10030    2    1    2    0    0  0.00000000000E+00  0.00000000000E+00  0.18760445555E+03  0.24058823942E+04  0.23985567875E+04 0.  0.
        5    1    3    3  502    0 -0.51218695768E+03 -0.12385921238E+03 -0.98678556586E+03  0.11186797697E+04  0.46999998093E+01 0. -1.
       -5    1    3    3    0  502  0.51218695768E+03  0.12385921238E+03  0.11743900214E+04  0.12872026245E+04  0.46999998093E+01 0.  1.
</event>
<event>
 5   0  0.5527286E-07  0.2401344E+04  0.7818609E-02  0.8439001E-01
        1   -1    0    0  501    0  0.00000000000E+00  0.00000000000E+00  0.84896719703E+03  0.84896719704E+03  0.50400001928E-02 0.  1.
       -1   -1    0    0    0  501  0.00000000000E+00  0.00000000000E+00 -0.16980784040E+04  0.16980784040E+04  0.50400001928E-02 0. -1.
    10030    2    1    2    0    0  0.00000000000E+00  0.00000000000E+00 -0.84911120693E+03  0.25470456010E+04  0.24013436763E+04 0.  0.
        1    1    3    3  502    0  0.70687766245E+03 -0.93781564370E+03 -0.15951698527E+03  0.11851666043E+04  0.50400001928E-02 0.  1.
       -1    1    3    3    0  502 -0.70687766245E+03  0.93781564370E+03 -0.68959422167E+03  0.13618789968E+04  0.50400001928E-02 0. -1.
</event>
<event>
 5   0  0.5510176E-07  0.2399444E+04  0.7818609E-02  0.8439712E-01
       -1   -1    0    0    0  501  0.00000000000E+00  0.00000000000E+00  0.98566126959E+03  0.98566126960E+03  0.50400001928E-02 0.  1.
        1   -1    0    0  501    0  0.00000000000E+00  0.00000000000E+00 -0.14602708112E+04  0.14602708112E+04  0.50400001928E-02 0. -1.
    10030    2    1    2    0    0  0.00000000000E+00  0.00000000000E+00 -0.47460954157E+03  0.24459320808E+04  0.23994435869E+04 0.  0.
        3    1    3    3  502    0 -0.41240007092E+03  0.23904242266E+03  0.88498801081E+03  0.10051959450E+04  0.10100000352E+00 0.  1.
       -3    1    3    3    0  502  0.41240007092E+03 -0.23904242266E+03 -0.13595975524E+04  0.14407361358E+04  0.10100000352E+00 0. -1.
</event>
<event>
 5   0  0.1308662E-06  0.2398358E+04  0.7818609E-02  0.8440118E-01
        2   -1    0    0  501    0  0.00000000000E+00  0.00000000000E+00  0.81190963671E+03  0.81190963671E+03  0.25500000920E-02 0. -1.
       -2   -1    0    0    0  501  0.00000000000E+00  0.00000000000E+00 -0.17711706365E+04  0.17711706365E+04  0.25500000920E-02 0.  1.
    10030    2    1    2    0    0  0.00000000000E+00  0.00000000000E+00 -0.95926099975E+03  0.25830802732E+04  0.23983581951E+04 0.  0.
        3    1    3    3  502    0 -0.62486726657E+03 -0.99995677917E+03 -0.71475128317E+03  0.13788553470E+04  0.10100000352E+00 0.  1.
       -3    1    3    3    0  502  0.62486726657E+03  0.99995677917E+03 -0.24450971658E+03  0.12042249261E+04  0.10100000352E+00 0. -1.
</event>
<event>
 5   0  0.1275948E-06  0.2408050E+04  0.7818609E-02  0.8436496E-01
       -2   -1    0    0    0  501  0.00000000000E+00  0.00000000000E+00  0.11851381962E+04  0.11851381962E+04  0.25500000920E-02 0.  1.
        2   -1    0    0  501    0  0.00000000000E+00  0.00000000000E+00 -0.12232130948E+04  0.12232130948E+04  0.25500000920E-02 0. -1.
    10030    2    1    2    0    0  0.00000000000E+00  0.00000000000E+00 -0.38074898576E+02  0.24083512910E+04  0.24080502991E+04 0.  0.
        1    1    3    3  502    0  0.61753102225E+03 -0.78853767820E+03 -0.68735770492E+03  0.12147414737E+04  0.50400001928E-02 0. -1.
       -1    1    3    3    0  502 -0.61753102225E+03  0.78853767820E+03  0.64928280635E+03  0.11936098173E+04  0.50400001928E-02 0.  1.
</event>
<event>
 5   0  0.4483375E-07  0.2400202E+04  0.7818609E-02  0.8439428E-01
       -3   -1    0    0    0  501  0.00000000000E+00  0.00000000000E+00  0.72430010957E+03  0.72430011661E+03  0.10100000352E+00 0. -1.
        3   -1    0    0  501    0  0.00000000000E+00  0.00000000000E+00 -0.19884605069E+04  0.19884605095E+04  0.10100000352E+00 0.  1.
    10030    2    1    2    0    0  0.00000000000E+00  0.00000000000E+00 -0.12641603974E+04  0.27127606261E+04  0.24002018049E+04 0.  0.
        1    1    3    3  502    0 -0.59822540320E+03 -0.96264055834E+03 -0.18611964752E+03  0.11485604036E+04  0.50400001928E-02 0. -1.
       -1    1    3    3    0  502  0.59822540320E+03  0.96264055834E+03 -0.10780407498E+04  0.15642002225E+04  0.50400001928E-02 0.  1.
</event>
<event>
 5   0  0.1291468E-06  0.2400327E+04  0.7818609E-02  0.8439381E-01
       -2   -1    0    0    0  501  0.00000000000E+00  0.00000000000E+00  0.54724274225E+03  0.54724274226E+03  0.25500000920E-02 0. -1.
        2   -1    0    0  501    0  0.00000000000E+00  0.00000000000E+00 -0.26320900870E+04  0.26320900870E+04  0.25500000920E-02 0.  1.
    10030    2    1    2    0    0  0.00000000000E+00  0.00000000000E+00 -0.20848473448E+04  0.31793328293E+04  0.24003268086E+04 0.  0.
        4    1    3    3  502    0 -0.17325316828E+03 -0.30010630751E+03  0.47953758122E+03  0.59164039824E+03  0.12699999809E+01 0. -1.
       -4    1    3    3    0  502  0.17325316828E+03  0.30010630751E+03 -0.25643849260E+04  0.25876924310E+04  0.12699999809E+01 0.  1.
</event>
<event>
 5   0  0.5690124E-07  0.2400288E+04  0.7818609E-02  0.8439396E-01
       -1   -1    0    0    0  501  0.00000000000E+00  0.00000000000E+00  0.95900122023E+03  0.95900122024E+03  0.50400001928E-02 0. -1.
        1   -1    0    0  501    0  0.00000000000E+00  0.00000000000E+00 -0.15019231907E+04  0.15019231907E+04  0.50400001928E-02 0.  1.
    10030    2    1    2    0    0  0.00000000000E+00  0.00000000000E+00 -0.54292197047E+03  0.24609244109E+04  0.24002884598E+04 0.  0.
        2    1    3    3  502    0 -0.38010732705E+03 -0.92103241608E+03  0.41444146250E+03  0.10791404067E+04  0.25500000920E-02 0. -1.
       -2    1    3    3    0  502  0.38010732705E+03  0.92103241608E+03 -0.95736343298E+03  0.13817840042E+04  0.25500000920E-02 0.  1.
</event>
<event>
 5   0  0.1307477E-06  0.2395432E+04  0.7818609E-02  0.8441216E-01
        2   -1    0    0  501    0  0.00000000000E+00  0.00000000000E+00  0.16728223263E+04  0.16728223263E+04  0.25500000920E-02 0. -1.
       -2   -1    0    0    0  501  0.00000000000E+00  0.00000000000E+00 -0.85754693014E+03  0.85754693014E+03  0.25500000920E-02 0.  1.
    10030    2    1    2    0    0  0.00000000000E+00  0.00000000000E+00  0.81527539612E+03  0.25303692564E+04  0.23954320283E+04 0.  0.
        5    1    3    3  502    0 -0.40377143424E+02  0.62141568924E+03 -0.67308437766E+03  0.91698006630E+03  0.46999998093E+01 0.  1.
       -5    1    3    3    0  502  0.40377143424E+02 -0.62141568924E+03  0.14883597738E+04  0.16133891901E+04  0.46999998093E+01 0. -1.
</event>
<event>
 5   0  0.1307477E-06  0.2400199E+04  0.7818609E-02  0.8439429E-01
       -2   -1    0    0    0  501  0.00000000000E+00  0.00000000000E+00  0.96286956974E+03  0.96286956974E+03  0.25500000920E-02 0.  1.
        2   -1    0    0  501    0  0.00000000000E+00  0.00000000000E+00 -0.14957774274E+04  0.14957774274E+04  0.25500000920E-02 0. -1.
    10030    2    1    2    0    0  0.00000000000E+00  0.00000000000E+00 -0.53290785766E+03  0.24586469972E+04  0.24001987984E+04 0.  0.
        5    1    3    3  502    0 -0.81336477353E+03 -0.55266457645E+03  0.43820460509E+03  0.10765898731E+04  0.46999998093E+01 0.  1.
       -5    1    3    3    0  502  0.81336477353E+03  0.55266457645E+03 -0.97111246275E+03  0.13820571241E+04  0.46999998093E+01 0. -1.
</event>
<event>
 5   0  0.1308662E-06  0.2407050E+04  0.7818609E-02  0.8436869E-01
       -2   -1    0    0    0  501  0.00000000000E+00  0.00000000000E+00  0.12572264232E+04  0.12572264232E+04  0.25500000920E-02 0.  1.
        2   -1    0    0  501    0  0.00000000000E+00  0.00000000000E+00 -0.11521174780E+04  0.11521174780E+04  0.25500000920E-02 0. -1.
    10030    2    1    2    0    0  0.00000000000E+00  0.00000000000E+00  0.10510894525E+03  0.24093439012E+04  0.24070500917E+04 0.  0.
        3    1    3    3  502    0  0.92708369687E+03  0.50367283824E+03 -0.52705002748E+03  0.11793863873E+04  0.10100000352E+00 0. -1.
       -3    1    3    3    0  502 -0.92708369687E+03 -0.50367283824E+03  0.63215897272E+03  0.12299575139E+04  0.10100000352E+00 0.  1.
</event>
<event>
 5   0  0.1307477E-06  0.2398796E+04  0.7818609E-02  0.8439955E-01
       -2   -1    0    0    0  501  0.00000000000E+00  0.00000000000E+00  0.20213463442E+04  0.20213463442E+04  0.25500000920E-02 0. -1.
        2   -1    0    0  501    0  0.00000000000E+00  0.00000000000E+00 -0.71168164395E+03  0.71168164395E+03  0.25500000920E-02 0.  1.
    10030    2    1    2    0    0  0.00000000000E+00  0.00000000000E+00  0.13096647002E+04  0.27330279881E+04  0.23987956055E+04 0.  0.
        5    1    3    3  502    0  0.10349101073E+04  0.40978061447E+02  0.13439311772E+04  0.16967295691E+04  0.46999998093E+01 0. -1.
       -5    1    3    3    0  502 -0.10349101073E+04 -0.40978061447E+02 -0.34266476996E+02  0.10362984190E+04  0.46999998093E+01 0.  1.
</event>
<event>
 5   0  0.1336057E-06  0.2393316E+04  0.7818609E-02  0.8442010E-01
        2   -1    0    0  501    0  0.00000000000E+00  0.00000000000E+00  0.22628164161E+04  0.22628164161E+04  0.25500000920E-02 0. -1.
       -2   -1    0    0    0  501  0.00000000000E+00  0.00000000000E+00 -0.63283521306E+03  0.63283521306E+03  0.25500000920E-02 0.  1.
    10030    2    1    2    0    0  0.00000000000E+00  0.00000000000E+00  0.16299812030E+04  0.28956516291E+04  0.23933156154E+04 0.  0.
        2    1    3    3  502    0 -0.79004398148E+03  0.87264215690E+03  0.10753733726E+04  0.15943969760E+04  0.25500000920E-02 0. -1.
       -2    1    3    3    0  502  0.79004398148E+03 -0.87264215690E+03  0.55460783044E+03  0.13012546531E+04  0.25500000920E-02 0.  1.
</event>
<event>
 5   0  0.1307477E-06  0.2391102E+04  0.7818609E-02  0.8442842E-01
        2   -1    0    0  501    0  0.00000000000E+00  0.00000000000E+00  0.14449891811E+04  0.14449891811E+04  0.25500000920E-02 0.  1.
       -2   -1    0    0    0  501  0.00000000000E+00  0.00000000000E+00 -0.98917129885E+03  0.98917129886E+03  0.25500000920E-02 0. -1.
    10030    2    1    2    0    0  0.00000000000E+00  0.00000000000E+00  0.45581788221E+03  0.24341604799E+04  0.23911016917E+04 0.  0.
        5    1    3    3  502    0 -0.42213609143E+03  0.67312027942E+03 -0.68150321333E+03  0.10467848442E+04  0.46999998093E+01 0. -1.
       -5    1    3    3    0  502  0.42213609143E+03 -0.67312027942E+03  0.11373210955E+04  0.13873756357E+04  0.46999998093E+01 0.  1.
</event>
<event>
 5   0  0.1336057E-06  0.2398804E+04  0.7818609E-02  0.8439952E-01
        2   -1    0    0  501    0  0.00000000000E+00  0.00000000000E+00  0.11742364264E+04  0.11742364264E+04  0.25500000920E-02 0. -1.
       -2   -1    0    0    0  501  0.00000000000E+00  0.00000000000E+00 -0.12251067492E+04  0.12251067492E+04  0.25500000920E-02 0.  1.
    10030    2    1    2    0    0  0.00000000000E+00  0.00000000000E+00 -0.50870322845E+02  0.23993431756E+04  0.23988038445E+04 0.  0.
        2    1    3    3  502    0 -0.72415043677E+03  0.35183460861E+03 -0.91467021094E+03  0.12185249450E+04  0.25500000920E-02 0.  1.
       -2    1    3    3    0  502  0.72415043677E+03 -0.35183460861E+03  0.86379988810E+03  0.11808182305E+04  0.25500000920E-02 0. -1.
</event>
<event>
 5   0  0.1291468E-06  0.2399632E+04  0.7818609E-02  0.8439641E-01
       -2   -1    0    0    0  501  0.00000000000E+00  0.00000000000E+00  0.74484602780E+03  0.74484602781E+03  0.25500000920E-02 0. -1.
        2   -1    0    0  501    0  0.00000000000E+00  0.00000000000E+00 -0.19326927100E+04  0.19326927100E+04  0.25500000920E-02 0.  1.
    10030    2    1    2    0    0  0.00000000000E+00  0.00000000000E+00 -0.11878466822E+04  0.26775387378E+04  0.23996320452E+04 0.  0.
        4    1    3    3  502    0 -0.41611179409E+03  0.82998540345E+03 -0.14418907608E+04  0.17149563767E+04  0.12699999809E+01 0.  1.
       -4    1    3    3    0  502  0.41611179409E+03 -0.82998540345E+03  0.25404407859E+03  0.96258236109E+03  0.12699999809E+01 0. -1.
</event>
<event>
 5   0  0.1275948E-06  0.2400090E+04  0.7818609E-02  0.8439470E-01
        2   -1    0    0  501    0  0.00000000000E+00  0.00000000000E+00  0.11850996494E+04  0.11850996494E+04  0.25500000920E-02 0. -1.
       -2   -1    0    0    0  501  0.00000000000E+00  0.00000000000E+00 -0.12151788769E+04  0.12151788769E+04  0.25500000920E-02 0.  1.
    10030    2    1    2    0    0  0.00000000000E+00  0.00000000000E+00 -0.30079227570E+02  0.24002785263E+04  0.24000900491E+04 0.  0.
        1    1    3    3  502    0  0.27564841941E+03  0.22789631645E+03 -0.11606378755E+04  0.12144953933E+04  0.50400001928E-02 0.  1.
       -1    1    3    3    0  502 -0.27564841941E+03 -0.22789631645E+03  0.11305586479E+04  0.11857831330E+04  0.50400001928E-02 0. -1.
</event>
<event>
 5   0  0.5527286E-07  0.2398570E+04  0.7818609E-02  0.8440039E-01
        1   -1    0    0  501    0  0.00000000000E+00  0.00000000000E+00  0.10496152727E+04  0.10496152727E+04  0.50400001928E-02 0. -1.
       -1   -1    0    0    0  501  0.00000000000E+00  0.00000000000E+00 -0.13702966817E+04  0.13702966817E+04  0.50400001928E-02 0.  1.
    10030    2    1    2    0    0  0.00000000000E+00  0.00000000000E+00 -0.32068140899E+03  0.24199119544E+04  0.23985698449E+04 0.  0.
        1    1    3    3  502    0 -0.11283455932E+03 -0.84998461722E+03 -0.10062994971E+04  0.13220605755E+04  0.50400001928E-02 0.  1.
       -1    1    3    3    0  502  0.11283455932E+03  0.84998461722E+03  0.68561808815E+03  0.10978513789E+04  0.50400001928E-02 0. -1.
</event>
<event>
 5   0  0.5452384E-07  0.2398347E+04  0.7818609E-02  0.8440123E-01
       -1   -1    0    0    0  501  0.00000000000E+00  0.00000000000E+00  0.75576383274E+03  0.75576383276E+03  0.50400001928E-02 0. -1.
        1   -1    0    0  501    0  0.00000000000E+00  0.00000000000E+00 -0.19027333121E+04  0.19027333121E+04  0.50400001928E-02 0.  1.
    10030    2    1    2    0    0  0.00000000000E+00  0.00000000000E+00 -0.11469694794E+04  0.26584971449E+04  0.23983469479E+04 0.  0.
        5    1    3    3  502    0  0.91997504416E+02 -0.65732041755E+03 -0.16805474122E+04  0.18068744746E+04  0.46999998093E+01 0.  1.
       -5    1    3    3    0  502 -0.91997504416E+02  0.65732041755E+03  0.53357793285E+03  0.85162267030E+03  0.46999998093E+01 0. -1.
</event>
<event>
 5   0  0.5690124E-07  0.2400396E+04  0.7818609E-02  0.8439355E-01
       -1   -1    0    0    0  501  0.00000000000E+00  0.00000000000E+00  0.94806749876E+03  0.94806749878E+03  0.50400001928E-02 0.  1.
        1   -1    0    0  501    0  0.00000000000E+00  0.00000000000E+00 -0.15193810752E+04  0.15193810752E+04  0.50400001928E-02 0. -1.
    10030    2    1    2    0    0  0.00000000000E+00  0.00000000000E+00 -0.57131357641E+03  0.24674485740E+04  0.24003964803E+04 0.  0.
        2    1    3    3  502    0  0.24785732482E+03 -0.12818712566E+03 -0.14855732565E+04  0.15115532055E+04  0.25500000920E-02 0. -1.
       -2    1    3    3    0  502 -0.24785732482E+03  0.12818712566E+03  0.91425968012E+03  0.95589536842E+03  0.25500000920E-02 0.  1.
</event>
<event>
 5   0  0.5452384E-07  0.2404225E+04  0.7818609E-02  0.8437924E-01
        1   -1    0    0  501    0  0.00000000000E+00  0.00000000000E+00  0.12547285448E+04  0.12547285449E+04  0.50400001928E-02 0. -1.
       -1   -1    0    0    0  501  0.00000000000E+00  0.00000000000E+00 -0.11517026852E+04  0.11517026852E+04  0.50400001928E-02 0.  1.
    10030    2    1    2    0    0  0.00000000000E+00  0.00000000000E+00  0.10302585964E+03  0.24064312301E+04  0.24042248101E+04 0.  0.
        5    1    3    3  502    0  0.78177265717E+03  0.48077122881E+03 -0.72556460524E+03  0.11699468143E+04  0.46999998093E+01 0.  1.
       -5    1    3    3    0  502 -0.78177265717E+03 -0.48077122881E+03  0.82859046487E+03  0.12364844158E+04  0.46999998093E+01 0. -1.
</event>
<event>
 5   0  0.1275948E-06  0.2398768E+04  0.7818609E-02  0.8439965E-01
       -2   -1    0    0    0  501  0.00000000000E+00  0.00000000000E+00  0.15235893465E+04  0.15235893465E+04  0.25500000920E-02 0.  1.
        2   -1    0    0  501    0  0.00000000000E+00  0.00000000000E+00 -0.94416633163E+03  0.94416633163E+03  0.25500000920E-02 0. -1.
    10030    2    1    2    0    0  0.00000000000E+00  0.00000000000E+00  0.57942301488E+03  0.24677556781E+04  0.23987678205E+04 0.  0.
        1    1    3    3  502    0 -0.10519572287E+04 -0.41106147768E+03 -0.12555103342E+03  0.11363752072E+04  0.50400001928E-02 0.  1.
       -1    1    3    3    0  502  0.10519572287E+04  0.41106147768E+03  0.70497404830E+03  0.13313804709E+04  0.50400001928E-02 0. -1.
</event>
<event>
 5   0  0.1291468E-06  0.2399762E+04  0.7818609E-02  0.8439593E-01
        2   -1    0    0  501    0  0.00000000000E+00  0.00000000000E+00  0.16348809597E+04  0.16348809597E+04  0.25500000920E-02 0.  1.
       -2   -1    0    0    0  501  0.00000000000E+00  0.00000000000E+00 -0.88062317941E+03  0.88062317941E+03  0.25500000920E-02 0. -1.
    10030    2    1    2    0    0  0.00000000000E+00  0.00000000000E+00  0.75425778030E+03  0.25155041391E+04  0.23997617121E+04 0.  0.
        4    1    3    3  502    0 -0.72595011872E+03 -0.94774863385E+03  0.25098613551E+03  0.12199289737E+04  0.12699999809E+01 0. -1.
       -4    1    3    3    0  502  0.72595011872E+03  0.94774863385E+03  0.50327164479E+03  0.12955751654E+04  0.12699999809E+01 0.  1.
</event>
<event>
 5   0  0.5363690E-07  0.2400348E+04  0.7818609E-02  0.8439373E-01
       -1   -1    0    0    0  501  0.00000000000E+00  0.00000000000E+00  0.90126881555E+03  0.90126881556E+03  0.50400001928E-02 0.  1.
        1   -1    0    0  501    0  0.00000000000E+00  0.00000000000E+00 -0.15982108429E+04  0.15982108429E+04  0.50400001928E-02 0. -1.
    10030    2    1    2    0    0  0.00000000000E+00  0.00000000000E+00 -0.69694202732E+03  0.24994796584E+04  0.24003479693E+04 0.  0.
        4    1    3    3  502    0 -0.17778390695E+03 -0.70660828394E+03 -0.13415413288E+04  0.15266424383E+04  0.12699999809E+01 0. -1.
       -4    1    3    3    0  502  0.17778390695E+03  0.70660828394E+03  0.64459930151E+03  0.97283722015E+03  0.12699999809E+01 0.  1.
</event>
<event>
 5   0  0.5690124E-07  0.2400585E+04  0.7818609E-02  0.8439285E-01
        1   -1    0    0  501    0  0.00000000000E+00  0.00000000000E+00  0.14729949289E+04  0.14729949289E+04  0.50400001928E-02 0.  1.
       -1   -1    0    0    0  501  0.00000000000E+00  0.00000000000E+00 -0.97807658003E+03  0.97807658004E+03  0.50400001928E-02 0. -1.
    10030    2    1    2    0    0  0.00000000000E+00  0.00000000000E+00  0.49491834889E+03  0.24510715090E+04  0.24005847975E+04 0.  0.
        2    1    3    3  502    0  0.20884588400E+02 -0.13759856913E+03  0.14647286863E+04  0.14713258160E+04  0.25500000920E-02 0.  1.
       -2    1    3    3    0  502 -0.20884588400E+02  0.13759856913E+03 -0.96981033745E+03  0.97974569297E+03  0.25500000920E-02 0. -1.
</event>
<event>
 5   0  0.5690124E-07  0.2399377E+04  0.7818609E-02  0.8439737E-01
       -1   -1    0    0    0  501  0.00000000000E+00  0.00000000000E+00  0.72364951486E+03  0.72364951488E+03  0.50400001928E-02 0. -1.
        1   -1    0    0  501    0  0.00000000000E+00  0.00000000000E+00 -0.19888799066E+04  0.19888799066E+04  0.50400001928E-02 0.  1.
    10030    2    1    2    0    0  0.00000000000E+00  0.00000000000E+00 -0.12652303917E+04  0.27125294214E+04  0.23993765686E+04 0.  0.
        2    1    3    3  502    0  0.94753951787E+03 -0.64074090116E+03 -0.22363779285E+03  0.11655015670E+04  0.25500000920E-02 0. -1.
       -2    1    3    3    0  502 -0.94753951787E+03  0.64074090116E+03 -0.10415925988E+04  0.15470278544E+04  0.25500000920E-02 0.  1.
</event>
<event>
 5   0  0.1336057E-06  0.2396635E+04  0.7818609E-02  0.8440765E-01
       -2   -1    0    0    0  501  0.00000000000E+00  0.00000000000E+00  0.17586551025E+04  0.17586551025E+04  0.25500000920E-02 0.  1.
        2   -1    0    0  501    0  0.00000000000E+00  0.00000000000E+00 -0.81651285214E+03  0.81651285215E+03  0.25500000920E-02 0. -1.
    10030    2    1    2    0    0  0.00000000000E+00  0.00000000000E+00  0.94214225040E+03  0.25751679547E+04  0.23966347187E+04 0.  0.
        2    1    3    3  502    0 -0.10455158796E+04 -0.14466218173E+03 -0.13858797837E+03  0.10645361568E+04  0.25500000920E-02 0. -1.
       -2    1    3    3    0  502  0.10455158796E+04  0.14466218173E+03  0.10807302288E+04  0.15106317979E+04  0.25500000920E-02 0.  1.
</event>
<event>
 5   0  0.5527286E-07  0.2400454E+04  0.7818609E-02  0.8439334E-01
       -1   -1    0    0    0  501  0.00000000000E+00  0.00000000000E+00  0.10649402622E+04  0.10649402622E+04  0.50400001928E-02 0. -1.
        1   -1    0    0  501    0  0.00000000000E+00  0.00000000000E+00 -0.13526997655E+04  0.13526997655E+04  0.50400001928E-02 0.  1.
    10030    2    1    2    0    0  0.00000000000E+00  0.00000000000E+00 -0.28775950328E+03  0.24176400277E+04  0.24004536595E+04 0.  0.
        1    1    3    3  502    0  0.51289432014E+03  0.25509954854E+03 -0.12061386513E+04  0.13352553350E+04  0.50400001928E-02 0.  1.
       -1    1    3    3    0  502 -0.51289432014E+03 -0.25509954854E+03  0.91837914807E+03  0.10823846927E+04  0.50400001928E-02 0. -1.
</event>
<event>
 5   0  0.5363690E-07  0.2399902E+04  0.7818609E-02  0.8439540E-01
       -1   -1    0    0    0  501  0.00000000000E+00  0.00000000000E+00  0.82626821128E+03  0.82626821130E+03  0.50400001928E-02 0.  1.
        1   -1    0    0  501    0  0.00000000000E+00  0.00000000000E+00 -0.17426326935E+04  0.17426326935E+04  0.50400001928E-02 0. -1.
    10030    2    1    2    0    0  0.00000000000E+00  0.00000000000E+00 -0.91636448220E+03  0.25689009048E+04  0.23999016635E+04 0.  0.
        4    1    3    3  502    0 -0.91396308113E+03  0.62403907039E+03 -0.95466191970E+03  0.14615520069E+04  0.12699999809E+01 0. -1.
       -4    1    3    3    0  502  0.91396308113E+03 -0.62403907039E+03  0.38297437500E+02  0.11073488979E+04  0.12699999809E+01 0.  1.
</event>
<event>
 5   0  0.5510176E-07  0.2382421E+04  0.7818609E-02  0.8446114E-01
       -1   -1    0    0    0  501  0.00000000000E+00  0.00000000000E+00  0.10499511326E+04  0.10499511327E+04  0.50400001928E-02 0.  1.
        1   -1    0    0  501    0  0.00000000000E+00  0.00000000000E+00 -0.13514746714E+04  0.13514746715E+04  0.50400001928E-02 0. -1.
    10030    2    1    2    0    0  0.00000000000E+00  0.00000000000E+00 -0.30152353880E+03  0.24014258041E+04  0.23824209217E+04 0.  0.
        3    1    3    3  502    0 -0.19822278305E+03 -0.10788360378E+04  0.31748986358E+03  0.11419191266E+04  0.10100000352E+00 0.  1.
       -3    1    3    3    0  502  0.19822278305E+03  0.10788360378E+04 -0.61901340238E+03  0.12595066775E+04  0.10100000352E+00 0. -1.
</event>
<event>
 5   0  0.5363690E-07  0.2399523E+04  0.7818609E-02  0.8439682E-01
       -1   -1    0    0    0  501  0.00000000000E+00  0.00000000000E+00  0.68771567915E+03  0.68771567917E+03  0.50400001928E-02 0.  1.
        1   -1    0    0  501    0  0.00000000000E+00  0.00000000000E+00 -0.20930559729E+04  0.20930559729E+04  0.50400001928E-02 0. -1.
    10030    2    1    2    0    0  0.00000000000E+00  0.00000000000E+00 -0.14053402938E+04  0.27807716521E+04  0.23995227942E+04 0.  0.
        4    1    3    3  502    0  0.41570905459E+03  0.57202536618E+03 -0.18258917269E+04  0.19580370908E+04  0.12699999809E+01 0. -1.
       -4    1    3    3    0  502 -0.41570905459E+03 -0.57202536618E+03  0.42055143311E+03  0.82273456133E+03  0.12699999809E+01 0.  1.
</event>
<event>
 5   0  0.1291468E-06  0.2398782E+04  0.7818609E-02  0.8439960E-01
       -2   -1    0    0    0  501  0.00000000000E+00  0.00000000000E+00  0.62722943036E+03  0.62722943036E+03  0.25500000920E-02 0.  1.
        2   -1    0    0  501    0  0.00000000000E+00  0.00000000000E+00 -0.22934801169E+04  0.22934801169E+04  0.25500000920E-02 0. -1.
    10030    2    1    2    0    0  0.00000000000E+00  0.00000000000E+00 -0.16662506865E+04  0.29207095472E+04  0.23987815467E+04 0.  0.
        4    1    3    3  502    0  0.24108672645E+03 -0.46565226870E+03 -0.21465226614E+04  0.22096415985E+04  0.12699999809E+01 0. -1.
       -4    1    3    3    0  502 -0.24108672645E+03  0.46565226870E+03  0.48027197486E+03  0.71106794876E+03  0.12699999809E+01 0.  1.
</event>
<event>
 5   0  0.1336057E-06  0.2401702E+04  0.7818609E-02  0.8438867E-01
        2   -1    0    0  501    0  0.00000000000E+00  0.00000000000E+00  0.18005431284E+04  0.18005431284E+04  0.25500000920E-02 0. -1.
       -2   -1    0    0    0  501  0.00000000000E+00  0.00000000000E+00 -0.80089342544E+03  0.80089342545E+03  0.25500000920E-02 0.  1.
    10030    2    1    2    0    0  0.00000000000E+00  0.00000000000E+00  0.99964970293E+03  0.26014365538E+04  0.24017020246E+04 0.  0.
        2    1    3    3  502    0 -0.78577490656E+03 -0.67913067885E+03 -0.15311939763E+03  0.10498124750E+04  0.25500000920E-02 0.  1.
       -2    1    3    3    0  502  0.78577490656E+03  0.67913067885E+03  0.11527691006E+04  0.15516240788E+04  0.25500000920E-02 0. -1.
</event>
<event>
 5   0  0.1307477E-06  0.2401063E+04  0.7818609E-02  0.8439106E-01
        2   -1    0    0  501    0  0.00000000000E+00  0.00000000000E+00  0.81592227025E+03  0.81592227026E+03  0.25500000920E-02 0.  1.
       -2   -1    0    0    0  501  0.00000000000E+00  0.00000000000E+00 -0.17664384081E+04  0.17664384081E+04  0.25500000920E-02 0. -1.
    10030    2    1    2    0    0  0.00000000000E+00  0.00000000000E+00 -0.95051613783E+03  0.25823606783E+04  0.24010634612E+04 0.  0.
        5    1    3    3  502    0  0.95369318247E+03  0.25622382482E+03 -0.12095017860E+04  0.15614409995E+04  0.46999998093E+01 0. -1.
       -5    1    3    3    0  502 -0.95369318247E+03 -0.25622382482E+03  0.25898564813E+03  0.10209196788E+04  0.46999998093E+01 0.  1.
</event>
<event>
 5   0  0.1308662E-06  0.2399539E+04  0.7818609E-02  0.8439676E-01
        2   -1    0    0  501    0  0.00000000000E+00  0.00000000000E+00  0.12411211583E+04  0.12411211583E+04  0.25500000920E-02 0. -1.
       -2   -1    0    0    0  501  0.00000000000E+00  0.00000000000E+00 -0.11597960239E+04  0.11597960239E+04  0.25500000920E-02 0.  1.
    10030    2    1    2    0    0  0.00000000000E+00  0.00000000000E+00  0.81325134455E+02  0.24009171822E+04  0.23995394430E+04 0.  0.
        3    1    3    3  502    0 -0.26347502407E+02  0.11994104784E+04  0.27705695520E+02  0.12000197091E+04  0.10100000352E+00 0. -1.
       -3    1    3    3    0  502  0.26347502407E+02 -0.11994104784E+04  0.53619438936E+02  0.12008974731E+04  0.10100000352E+00 0.  1.
</event>
<event>
 5   0  0.1275948E-06  0.2399050E+04  0.7818609E-02  0.8439859E-01
        2   -1    0    0  501    0  0.00000000000E+00  0.00000000000E+00  0.20689014927E+04  0.20689014927E+04  0.25500000920E-02 0. -1.
       -2   -1    0    0    0  501  0.00000000000E+00  0.00000000000E+00 -0.69547042509E+03  0.69547042509E+03  0.25500000920E-02 0.  1.
    10030    2    1    2    0    0  0.00000000000E+00  0.00000000000E+00  0.13734310676E+04  0.27643719178E+04  0.23990496457E+04 0.  0.
        1    1    3    3  502    0  0.54287684826E+03  0.67892937120E+02 -0.54332971068E+03  0.77105894575E+03  0.50400001928E-02 0.  1.
       -1    1    3    3    0  502 -0.54287684826E+03 -0.67892937120E+02  0.19167607783E+04  0.19933129720E+04  0.50400001928E-02 0. -1.
</event>
<event>
 5   0  0.5510176E-07  0.2399476E+04  0.7818609E-02  0.8439700E-01
        1   -1    0    0  501    0  0.00000000000E+00  0.00000000000E+00  0.11279042520E+04  0.11279042520E+04  0.50400001928E-02 0.  1.
       -1   -1    0    0    0  501  0.00000000000E+00  0.00000000000E+00 -0.12761462656E+04  0.12761462656E+04  0.50400001928E-02 0. -1.
    10030    2    1    2    0    0  0.00000000000E+00  0.00000000000E+00 -0.14824201360E+03  0.24040505177E+04  0.23994756087E+04 0.  0.
        3    1    3    3  502    0  0.74113874228E+03 -0.86055800252E+03  0.31329968875E+03  0.11781355678E+04  0.10100000352E+00 0.  1.
       -3    1    3    3    0  502 -0.74113874228E+03  0.86055800252E+03 -0.46154170235E+03  0.12259149498E+04  0.10100000352E+00 0. -1.
</event>
<event>
 5   0  0.5510176E-07  0.2396977E+04  0.7818609E-02  0.8440636E-01
        1   -1    0    0  501    0  0.00000000000E+00  0.00000000000E+00  0.16054102562E+04  0.16054102562E+04  0.50400001928E-02 0. -1.
       -1   -1    0    0    0  501  0.00000000000E+00  0.00000000000E+00 -0.89470879589E+03  0.89470879591E+03  0.50400001928E-02 0.  1.
    10030    2    1    2    0    0  0.00000000000E+00  0.00000000000E+00  0.71070146027E+03  0.25001190521E+04  0.23969769938E+04 0.  0.
        3    1    3    3  502    0  0.15478189699E+03  0.69999178046E+03  0.13571096923E+04  0.15348265881E+04  0.10100000352E+00 0. -1.
       -3    1    3    3    0  502 -0.15478189699E+03 -0.69999178046E+03 -0.64640823205E+03  0.96529246398E+03  0.10100000352E+00 0.  1.
</event>
<event>
 5   0  0.1307477E-06  0.2400182E+04  0.7818609E-02  0.8439435E-01
       -2   -1    0    0    0  501  0.00000000000E+00  0.00000000000E+00  0.16873317701E+04  0.16873317701E+04  0.25500000920E-02 0. -1.
        2   -1    0    0  501    0  0.00000000000E+00  0.00000000000E+00 -0.85354815610E+03  0.85354815611E+03  0.25500000920E-02 0.  1.
    10030    2    1    2    0    0  0.00000000000E+00  0.00000000000E+00  0.83378361400E+03  0.25408799262E+04  0.24001824273E+04 0.  0.
        5    1    3    3  502    0 -0.63180562570E+03  0.70685246445E+03  0.11958070853E+04  0.15260391313E+04  0.46999998093E+01 0. -1.
       -5    1    3    3    0  502  0.63180562570E+03 -0.70685246445E+03 -0.36202347129E+03  0.10148407949E+04  0.46999998093E+01 0.  1.
</event>
<event>
 5   0  0.5363690E-07  0.2399583E+04  0.7818609E-02  0.8439660E-01
       -1   -1    0    0    0  501  0.00000000000E+00  0.00000000000E+00  0.10457432932E+04  0.10457432932E+04  0.50400001928E-02 0.  1.
        1   -1    0    0  501    0  0.00000000000E+00  0.00000000000E+00 -0.13765326540E+04  0.13765326540E+04  0.50400001928E-02 0. -1.
    10030    2    1    2    0    0  0.00000000000E+00  0.00000000000E+00 -0.33078936078E+03  0.24222759472E+04  0.23995831228E+04 0.  0.
        4    1    3    3  502    0 -0.10397730384E+04 -0.35653862541E+03  0.32003807574E+03  0.11448466036E+04  0.12699999809E+01 0.  1.
       -4    1    3    3    0  502  0.10397730384E+04  0.35653862541E+03 -0.65082743651E+03  0.12774293436E+04  0.12699999809E+01 0. -1.
</event>
<event>
 5   0  0.1275948E-06  0.2397742E+04  0.7818609E-02  0.8440349E-01
        2   -1    0    0  501    0  0.00000000000E+00  0.00000000000E+00  0.10105921144E+04  0.10105921144E+04  0.25500000920E-02 0.  1.
       -2   -1    0    0    0  501  0.00000000000E+00  0.00000000000E+00 -0.14222274472E+04  0.14222274472E+04  0.25500000920E-02 0. -1.
    10030    2    1    2    0    0  0.00000000000E+00  0.00000000000E+00 -0.41163533274E+03  0.24328195616E+04  0.23977421405E+04 0.  0.
        1    1    3    3  502    0  0.71800681165E+03 -0.65336178930E+03  0.50794825628E+03  0.10956399228E+04  0.50400001928E-02 0.  1.
       -1    1    3    3    0  502 -0.71800681165E+03  0.65336178930E+03 -0.91958358902E+03  0.13371796388E+04  0.50400001928E-02 0. -1.
</event>
<event>
 5   0  0.1308662E-06  0.2399976E+04  0.7818609E-02  0.8439512E-01
       -2   -1    0    0    0  501  0.00000000000E+00  0.00000000000E+00  0.80279082711E+03  0.80279082711E+03  0.25500000920E-02 0.  1.
        2   -1    0    0  501    0  0.00000000000E+00  0.00000000000E+00 -0.17937072949E+04  0.17937072949E+04  0.25500000920E-02 0. -1.
    10030    2    1    2    0    0  0.00000000000E+00  0.00000000000E+00 -0.99091646776E+03  0.25964981220E+04  0.23999764689E+04 0.  0.
        3    1    3    3  502    0  0.59295215078E+03 -0.93937296598E+03 -0.44708999721E+01  0.11108707492E+04  0.10100000352E+00 0.  1.
       -3    1    3    3    0  502 -0.59295215078E+03  0.93937296598E+03 -0.98644556779E+03  0.14856273728E+04  0.10100000352E+00 0. -1.
</event>
<event>
 5   0  0.5510176E-07  0.2400887E+04  0.7818609E-02  0.8439172E-01
       -1   -1    0    0    0  501  0.00000000000E+00  0.00000000000E+00  0.89298158934E+03  0.89298158935E+03  0.50400001928E-02 0.  1.
        1   -1    0    0  501    0  0.00000000000E+00  0.00000000000E+00 -0.16137668547E+04  0.16137668548E+04  0.50400001928E-02 0. -1.
    10030    2    1    2    0    0  0.00000000000E+00  0.00000000000E+00 -0.72078526541E+03  0.25067484441E+04  0.24008865786E+04 0.  0.
        3    1    3    3  502    0 -0.90450921256E+03 -0.75432515508E+03 -0.60283972133E+03  0.13230869567E+04  0.10100000352E+00 0.  1.
       -3    1    3    3    0  502  0.90450921256E+03  0.75432515508E+03 -0.11794554409E+03  0.11836614874E+04  0.10100000352E+00 0. -1.
</event>
<event>
 5   0  0.1308662E-06  0.2398036E+04  0.7818609E-02  0.8440239E-01
        2   -1    0    0  501    0  0.00000000000E+00  0.00000000000E+00  0.10993323209E+04  0.10993323209E+04  0.25500000920E-02 0.  1.
       -2   -1    0    0    0  501  0.00000000000E+00  0.00000000000E+00 -0.13077431598E+04  0.13077431598E+04  0.25500000920E-02 0. -1.
    10030    2    1    2    0    0  0.00000000000E+00  0.00000000000E+00 -0.20841083887E+03  0.24070754807E+04  0.23980361323E+04 0.  0.
        3    1    3    3  502    0 -0.75425536625E+03 -0.47496489029E+03  0.70078485369E+03  0.11338395944E+04  0.10100000352E+00 0.  1.
       -3    1    3    3    0  502  0.75425536625E+03  0.47496489029E+03 -0.90919569257E+03  0.12732358863E+04  0.10100000352E+00 0. -1.
</event>
<event>
 5   0  0.1275948E-06  0.2399760E+04  0.7818609E-02  0.8439593E-01
       -2   -1    0    0    0  501  0.00000000000E+00  0.00000000000E+00  0.11297013385E+04  0.11297013386E+04  0.25500000920E-02 0. -1.
        2   -1    0    0  501    0  0.00000000000E+00  0.00000000000E+00 -0.12744183245E+04  0.12744183245E+04  0.25500000920E-02 0.  1.
    10030    2    1    2    0    0  0.00000000000E+00  0.00000000000E+00 -0.14471698597E+03  0.24041196631E+04  0.23997600606E+04 0.  0.
        1    1    3    3  502    0  0.14808568346E+03  0.26180915966E+03  0.10913190445E+04  0.11320117768E+04  0.50400001928E-02 0. -1.
       -1    1    3    3    0  502 -0.14808568346E+03 -0.26180915966E+03 -0.12360360305E+04  0.12721078863E+04  0.50400001928E-02 0.  1.
</event>
<event>
 5   0  0.5690124E-07  0.2400504E+04  0.7818609E-02  0.8439315E-01
       -1   -1    0    0    0  501  0.00000000000E+00  0.00000000000E+00  0.10770646474E+04  0.10770646474E+04  0.50400001928E-02 0. -1.
        1   -1    0    0  501    0  0.00000000000E+00  0.00000000000E+00 -0.13375292044E+04  0.13375292044E+04  0.50400001928E-02 0.  1.
    10030    2    1    2    0    0  0.00000000000E+00  0.00000000000E+00 -0.26046455702E+03  0.24145938519E+04  0.24005044645E+04 0.  0.
        2    1    3    3  502    0 -0.36398538201E+03 -0.11246170393E+04 -0.33967683100E+03  0.12298899109E+04  0.25500000920E-02 0. -1.
       -2    1    3    3    0  502  0.36398538201E+03  0.11246170393E+04  0.79212273980E+02  0.11847039410E+04  0.25500000920E-02 0.  1.
</event>
<event>
 5   0  0.1291468E-06  0.2399242E+04  0.7818609E-02  0.8439788E-01
       -2   -1    0    0    0  501  0.00000000000E+00  0.00000000000E+00  0.10802872317E+04  0.10802872317E+04  0.25500000920E-02 0.  1.
        2   -1    0    0  501    0  0.00000000000E+00  0.00000000000E+00 -0.13321366175E+04  0.13321366175E+04  0.25500000920E-02 0. -1.
    10030    2    1    2    0    0  0.00000000000E+00  0.00000000000E+00 -0.25184938581E+03  0.24124238492E+04  0.23992416958E+04 0.  0.
        4    1    3    3  502    0  0.73130486779E+03 -0.20667836363E+03 -0.10592302273E+04  0.13036460574E+04  0.12699999809E+01 0. -1.
       -4    1    3    3    0  502 -0.73130486779E+03  0.20667836363E+03  0.80738084144E+03  0.11087777918E+04  0.12699999809E+01 0.  1.
</event>
<event>
 5   0  0.1336057E-06  0.2400356E+04  0.7818609E-02  0.8439370E-01
       -2   -1    0    0    0  501  0.00000000000E+00  0.00000000000E+00  0.84088584225E+03  0.84088584225E+03  0.25500000920E-02 0. -1.
        2   -1    0    0  501    0  0.00000000000E+00  0.00000000000E+00 -0.17129877913E+04  0.17129877913E+04  0.25500000920E-02 0.  1.
    10030    2    1    2    0    0  0.00000000000E+00  0.00000000000E+00 -0.87210194903E+03  0.25538736335E+04  0.24003559583E+04 0.  0.
        2    1    3    3  502    0  0.42983027266E+03  0.10973740329E+04 -0.19473371908E+03  0.11945313109E+04  0.25500000920E-02 0.  1.
       -2    1    3    3    0  502 -0.42983027266E+03 -0.10973740329E+04 -0.67736822995E+03  0.13593423227E+04  0.25500000920E-02 0. -1.
</event>
<event>
 5   0  0.5510176E-07  0.2405910E+04  0.7818609E-02  0.8437294E-01
       -1   -1    0    0    0  501  0.00000000000E+00  0.00000000000E+00  0.20219330501E+04  0.20219330501E+04  0.50400001928E-02 0.  1.
        1   -1    0    0  501    0  0.00000000000E+00  0.00000000000E+00 -0.71570187319E+03  0.71570187321E+03  0.50400001928E-02 0. -1.
    10030    2    1    2    0    0  0.00000000000E+00  0.00000000000E+00  0.13062311769E+04  0.27376349233E+04  0.24059104484E+04 0.  0.
        3    1    3    3  502    0 -0.11341272339E+04  0.39510746364E+03  0.57471935309E+03  0.13314115950E+04  0.10100000352E+00 0.  1.
       -3    1    3    3    0  502  0.11341272339E+04 -0.39510746364E+03  0.73151182382E+03  0.14062233283E+04  0.10100000352E+00 0. -1.
</event>
<event>
 5   0  0.5363690E-07  0.2401975E+04  0.7818609E-02  0.8438765E-01
       -1   -1    0    0    0  501  0.00000000000E+00  0.00000000000E+00  0.78945326017E+03  0.78945326019E+03  0.50400001928E-02 0.  1.
        1   -1    0    0  501    0  0.00000000000E+00  0.00000000000E+00 -0.18270500081E+04  0.18270500081E+04  0.50400001928E-02 0. -1.
    10030    2    1    2    0    0  0.00000000000E+00  0.00000000000E+00 -0.10375967479E+04  0.26165032683E+04  0.24019746755E+04 0.  0.
        4    1    3    3  502    0 -0.14450928287E+03  0.89443777517E+03  0.33994209636E+03  0.96771075651E+03  0.12699999809E+01 0.  1.
       -4    1    3    3    0  502  0.14450928287E+03 -0.89443777517E+03 -0.13775388443E+04  0.16487925118E+04  0.12699999809E+01 0. -1.
</event>
<event>
 5   0  0.5452384E-07  0.2400015E+04  0.7818609E-02  0.8439498E-01
       -1   -1    0    0    0  501  0.00000000000E+00  0.00000000000E+00  0.25445406421E+04  0.25445406421E+04  0.50400001928E-02 0. -1.
        1   -1    0    0  501    0  0.00000000000E+00  0.00000000000E+00 -0.56592467146E+03  0.56592467148E+03  0.50400001928E-02 0.  1.
    10030    2    1    2    0    0  0.00000000000E+00  0.00000000000E+00  0.19786159707E+04  0.31104653136E+04  0.24000152724E+04 0.  0.
        5    1    3    3  502    0  0.16237459694E+03  0.36919395355E+02  0.25294822713E+04  0.25349617753E+04  0.46999998093E+01 0. -1.
       -5    1    3    3    0  502 -0.16237459694E+03 -0.36919395355E+02 -0.55086630060E+03  0.57550353833E+03  0.46999998093E+01 0.  1.
</event>
<event>
 5   0  0.5363690E-07  0.2406103E+04  0.7818609E-02  0.8437222E-01
        1   -1    0    0  501    0  0.00000000000E+00  0.00000000000E+00  0.27312362792E+04  0.27312362792E+04  0.50400001928E-02 0.  1.
       -1   -1    0    0    0  501  0.00000000000E+00  0.00000000000E+00 -0.52991844605E+03  0.52991844607E+03  0.50400001928E-02 0. -1.
    10030    2    1    2    0    0  0.00000000000E+00  0.00000000000E+00  0.22013178332E+04  0.32611547253E+04  0.24061026453E+04 0.  0.
        4    1    3    3  502    0  0.10435022604E+04 -0.36481103391E+03  0.45725608927E+03  0.11962728794E+04  0.12699999809E+01 0. -1.
       -4    1    3    3    0  502 -0.10435022604E+04  0.36481103391E+03  0.17440617439E+04  0.20648818459E+04  0.12699999809E+01 0.  1.
</event>
<event>
 5   0  0.5527286E-07  0.2400269E+04  0.7818609E-02  0.8439403E-01
       -1   -1    0    0    0  501  0.00000000000E+00  0.00000000000E+00  0.16841290554E+04  0.16841290554E+04  0.50400001928E-02 0. -1.
        1   -1    0    0  501    0  0.00000000000E+00  0.00000000000E+00 -0.85523302084E+03  0.85523302085E+03  0.50400001928E-02 0.  1.
    10030    2    1    2    0    0  0.00000000000E+00  0.00000000000E+00  0.82889603456E+03  0.25393620763E+04  0.24002689679E+04 0.  0.
        1    1    3    3  502    0  0.11280153905E+04  0.31958997002E+03  0.14313760939E+03  0.11811201656E+04  0.50400001928E-02 0.  1.
       -1    1    3    3    0  502 -0.11280153905E+04 -0.31958997002E+03  0.68575842517E+03  0.13582419107E+04  0.50400001928E-02 0. -1.
</event>
<event>
 5   0  0.1307477E-06  0.2399292E+04  0.7818609E-02  0.8439769E-01
        2   -1    0    0  501    0  0.00000000000E+00  0.00000000000E+00  0.10587736602E+04  0.10587736602E+04  0.25500000920E-02 0. -1.
       -2   -1    0    0    0  501  0.00000000000E+00  0.00000000000E+00 -0.13592613796E+04  0.13592613796E+04  0.25500000920E-02 0.  1.
    10030    2    1    2    0    0  0.00000000000E+00  0.00000000000E+00 -0.30048771934E+03  0.24180350398E+04  0.23992916839E+04 0.  0.
        5    1    3    3  502    0  0.11504954506E+04  0.73013620086E+02 -0.48473618233E+03  0.12505846740E+04  0.46999998093E+01 0.  1.
       -5    1    3    3    0  502 -0.11504954506E+04 -0.73013620086E+02  0.18424846299E+03  0.11674503658E+04  0.46999998093E+01 0. -1.
</event>
<event>
 5   0  0.5363690E-07  0.2399480E+04  0.7818609E-02  0.8439698E-01
       -1   -1    0    0    0  501  0.00000000000E+00  0.00000000000E+00  0.12762328450E+04  0.12762328450E+04  0.50400001928E-02 0. -1.
        1   -1    0    0  501    0  0.00000000000E+00  0.00000000000E+00 -0.11278318839E+04  0.11278318839E+04  0.50400001928E-02 0.  1.
    10030    2    1    2    0    0  0.00000000000E+00  0.00000000000E+00  0.14840096114E+03  0.24040647289E+04  0.23994800219E+04 0.  0.
        4    1    3    3  502    0 -0.21226453735E+03  0.11400797767E+04 -0.23385464088E+03  0.11830163723E+04  0.12699999809E+01 0.  1.
       -4    1    3    3    0  502  0.21226453735E+03 -0.11400797767E+04  0.38225560202E+03  0.12210483566E+04  0.12699999809E+01 0. -1.
</event>
<event>
 5   0  0.4483375E-07  0.2390070E+04  0.7818609E-02  0.8443231E-01
        4   -1    0    0  501    0  0.00000000000E+00  0.00000000000E+00  0.10435404945E+04  0.10435412673E+04  0.12699999809E+01 0.  1.
       -4   -1    0    0    0  501  0.00000000000E+00  0.00000000000E+00 -0.13685209075E+04  0.13685214968E+04  0.12699999809E+01 0. -1.
    10030    2    1    2    0    0  0.00000000000E+00  0.00000000000E+00 -0.32498041298E+03  0.24120627641E+04  0.23900699800E+04 0.  0.
        1    1    3    3  502    0  0.71243967935E+03  0.67773342601E+03 -0.84786802440E+03  0.12983732438E+04  0.50400001928E-02 0. -1.
       -1    1    3    3    0  502 -0.71243967935E+03 -0.67773342601E+03  0.52288761142E+03  0.11136895203E+04  0.50400001928E-02 0.  1.
</event>
<event>
 5   0  0.1308662E-06  0.2399885E+04  0.7818609E-02  0.8439546E-01
       -2   -1    0    0    0  501  0.00000000000E+00  0.00000000000E+00  0.93646820609E+03  0.93646820609E+03  0.25500000920E-02 0.  1.
        2   -1    0    0  501    0  0.00000000000E+00  0.00000000000E+00 -0.15375455907E+04  0.15375455907E+04  0.25500000920E-02 0. -1.
    10030    2    1    2    0    0  0.00000000000E+00  0.00000000000E+00 -0.60107738464E+03  0.24740137968E+04  0.23998854649E+04 0.  0.
        3    1    3    3  502    0 -0.64500836304E+03  0.63239145681E+02  0.74051942965E+03  0.98407520740E+03  0.10100000352E+00 0.  1.
       -3    1    3    3    0  502  0.64500836304E+03 -0.63239145681E+02 -0.13415968143E+04  0.14899385894E+04  0.10100000352E+00 0. -1.
</event>
<event>
 5   0  0.1308662E-06  0.2399690E+04  0.7818609E-02  0.8439620E-01
       -2   -1    0    0    0  501  0.00000000000E+00  0.00000000000E+00  0.86821290641E+03  0.86821290642E+03  0.25500000920E-02 0. -1.
        2   -1    0    0  501    0  0.00000000000E+00  0.00000000000E+00 -0.16581503650E+04  0.16581503650E+04  0.25500000920E-02 0.  1.
    10030    2    1    2    0    0  0.00000000000E+00  0.00000000000E+00 -0.78993745860E+03  0.25263632714E+04  0.23996896030E+04 0.  0.
        3    1    3    3  502    0  0.37302086115E+03  0.11307200181E+04 -0.55096333475E+03  0.13119576703E+04  0.10100000352E+00 0.  1.
       -3    1    3    3    0  502 -0.37302086115E+03 -0.11307200181E+04 -0.23897412385E+03  0.12144056012E+04  0.10100000352E+00 0. -1.
</event>
<event>
 5   0  0.5452384E-07  0.2400530E+04  0.7818609E-02  0.8439305E-01
       -1   -1    0    0    0  501  0.00000000000E+00  0.00000000000E+00  0.10408748588E+04  0.10408748588E+04  0.50400001928E-02 0.  1.
        1   -1    0    0  501    0  0.00000000000E+00  0.00000000000E+00 -0.13840621755E+04  0.13840621755E+04  0.50400001928E-02 0. -1.
    10030    2    1    2    0    0  0.00000000000E+00  0.00000000000E+00 -0.34318731665E+03  0.24249370343E+04  0.24005295428E+04 0.  0.
        5    1    3    3  502    0 -0.10446469714E+04 -0.95606572288E+02 -0.76077817193E+03  0.12958523945E+04  0.46999998093E+01 0. -1.
       -5    1    3    3    0  502  0.10446469714E+04  0.95606572288E+02  0.41759085528E+03  0.11290846398E+04  0.46999998093E+01 0.  1.
</event>
<event>
 5   0  0.1307477E-06  0.2402260E+04  0.7818609E-02  0.8438658E-01
        2   -1    0    0  501    0  0.00000000000E+00  0.00000000000E+00  0.12928399794E+04  0.12928399794E+04  0.25500000920E-02 0.  1.
       -2   -1    0    0    0  501  0.00000000000E+00  0.00000000000E+00 -0.11159254521E+04  0.11159254521E+04  0.25500000920E-02 0. -1.
    10030    2    1    2    0    0  0.00000000000E+00  0.00000000000E+00  0.17691452725E+03  0.24087654315E+04  0.24022598015E+04 0.  0.
        5    1    3    3  502    0  0.65445219353E+03  0.27068015009E+02 -0.92107145074E+03  0.11302367267E+04  0.46999998093E+01 0. -1.
       -5    1    3    3    0  502 -0.65445219353E+03 -0.27068015009E+02  0.10979859780E+04  0.12785287048E+04  0.46999998093E+01 0.  1.
</event>
<event>
 5   0  0.1308662E-06  0.2400390E+04  0.7818609E-02  0.8439357E-01
        2   -1    0    0  501    0  0.00000000000E+00  0.00000000000E+00  0.18418501235E+04  0.18418501235E+04  0.25500000920E-02 0.  1.
       -2   -1    0    0    0  501  0.00000000000E+00  0.00000000000E+00 -0.78207699307E+03  0.78207699307E+03  0.25500000920E-02 0. -1.
    10030    2    1    2    0    0  0.00000000000E+00  0.00000000000E+00  0.10597731304E+04  0.26239271165E+04  0.24003904734E+04 0.  0.
        3    1    3    3  502    0  0.17337411275E+03  0.76798005099E+03 -0.46035245710E+03  0.91201772826E+03  0.10100000352E+00 0. -1.
       -3    1    3    3    0  502 -0.17337411275E+03 -0.76798005099E+03  0.15201255875E+04  0.17119093883E+04  0.10100000352E+00 0.  1.
</event>
<event>
 5   0  0.5510176E-07  0.2400180E+04  0.7818609E-02  0.8439436E-01
        1   -1    0    0  501    0  0.00000000000E+00  0.00000000000E+00  0.11799508574E+04  0.11799508575E+04  0.50400001928E-02 0. -1.
       -1   -1    0    0    0  501  0.00000000000E+00  0.00000000000E+00 -0.12205726535E+04  0.12205726535E+04  0.50400001928E-02 0.  1.
    10030    2    1    2    0    0  0.00000000000E+00  0.00000000000E+00 -0.40621796077E+02  0.24005235110E+04  0.24001797842E+04 0.  0.
        3    1    3    3  502    0  0.24518872178E+02 -0.32642837834E+03 -0.11750580203E+04  0.12198024523E+04  0.10100000352E+00 0.  1.
       -3    1    3    3    0  502 -0.24518872178E+02  0.32642837834E+03  0.11344362243E+04  0.11807210587E+04  0.10100000352E+00 0. -1.
</event>
<event>
 5   0  0.5510176E-07  0.2398509E+04  0.7818609E-02  0.8440062E-01
       -1   -1    0    0    0  501  0.00000000000E+00  0.00000000000E+00  0.93058654544E+03  0.93058654545E+03  0.50400001928E-02 0.  1.
        1   -1    0    0  501    0  0.00000000000E+00  0.00000000000E+00 -0.15454891916E+04  0.15454891916E+04  0.50400001928E-02 0. -1.
    10030    2    1    2    0    0  0.00000000000E+00  0.00000000000E+00 -0.61490264620E+03  0.24760757371E+04  0.23985090768E+04 0.  0.
        3    1    3    3  502    0 -0.10611288791E+04  0.55402405248E+03 -0.23247838764E+03  0.12194192715E+04  0.10100000352E+00 0.  1.
       -3    1    3    3    0  502  0.10611288791E+04 -0.55402405248E+03 -0.38242425856E+03  0.12566564656E+04  0.10100000352E+00 0. -1.
</event>
<event>
 5   0  0.5363690E-07  0.2400148E+04  0.7818609E-02  0.8439448E-01
        1   -1    0    0  501    0  0.00000000000E+00  0.00000000000E+00  0.16536539174E+04  0.16536539174E+04  0.50400001928E-02 0.  1.
       -1   -1    0    0    0  501  0.00000000000E+00  0.00000000000E+00 -0.87090642347E+03  0.87090642348E+03  0.50400001928E-02 0. -1.
    10030    2    1    2    0    0  0.00000000000E+00  0.00000000000E+00  0.78274749391E+03  0.25245603409E+04  0.24001481778E+04 0.  0.
        4    1    3    3  502    0  0.36913936214E+03 -0.48306291100E+03  0.14796865209E+04  0.15997148051E+04  0.12699999809E+01 0.  1.
       -4    1    3    3    0  502 -0.36913936214E+03  0.48306291100E+03 -0.69693902702E+03  0.92484553572E+03  0.12699999809E+01 0. -1.
</event>
<event>
 5   0  0.1275948E-06  0.2400294E+04  0.7818609E-02  0.8439394E-01
       -2   -1    0    0    0  501  0.00000000000E+00  0.00000000000E+00  0.57704732381E+03  0.57704732382E+03  0.25500000920E-02 0.  1.
        2   -1    0    0  501    0  0.00000000000E+00  0.00000000000E+00 -0.24960738774E+04  0.24960738774E+04  0.25500000920E-02 0. -1.
    10030    2    1    2    0    0  0.00000000000E+00  0.00000000000E+00 -0.19190265536E+04  0.30731212012E+04  0.24002939412E+04 0.  0.
        1    1    3    3  502    0 -0.38953645597E+03 -0.10272575132E+03 -0.24069218464E+04  0.24404024269E+04  0.50400001928E-02 0. -1.
       -1    1    3    3    0  502  0.38953645597E+03  0.10272575132E+03  0.48789529285E+03  0.63271877428E+03  0.50400001928E-02 0.  1.
</event>
<event>
 5   0  0.4483375E-07  0.2399481E+04  0.7818609E-02  0.8439698E-01
       -4   -1    0    0    0  501  0.00000000000E+00  0.00000000000E+00  0.13378920479E+04  0.13378926507E+04  0.12699999809E+01 0.  1.
        4   -1    0    0  501    0  0.00000000000E+00  0.00000000000E+00 -0.10758534673E+04  0.10758542169E+04  0.12699999809E+01 0. -1.
    10030    2    1    2    0    0  0.00000000000E+00  0.00000000000E+00  0.26203858061E+03  0.24137468676E+04  0.23994811363E+04 0.  0.
        2    1    3    3  502    0  0.54022626701E+03 -0.10430213520E+04  0.37668315091E+03  0.12335429285E+04  0.25500000920E-02 0.  1.
       -2    1    3    3    0  502 -0.54022626701E+03  0.10430213520E+04 -0.11464457030E+03  0.11802039391E+04  0.25500000920E-02 0. -1.
</event>
<event>
 5   0  0.1336057E-06  0.2400829E+04  0.7818609E-02  0.8439193E-01
       -2   -1    0    0    0  501  0.00000000000E+00  0.00000000000E+00  0.12106424396E+04  0.12106424396E+04  0.25500000920E-02 0.  1.
        2   -1    0    0  501    0  0.00000000000E+00  0.00000000000E+00 -0.11902725025E+04  0.11902725025E+04  0.25500000920E-02 0. -1.
    10030    2    1    2    0    0  0.00000000000E+00  0.00000000000E+00  0.20369937057E+02  0.24009149421E+04  0.24008285289E+04 0.  0.
        2    1    3    3  502    0  0.46761910021E+03 -0.79098508904E+03 -0.76228660054E+03  0.11939036374E+04  0.25500000920E-02 0. -1.
       -2    1    3    3    0  502 -0.46761910021E+03  0.79098508904E+03  0.78265653760E+03  0.12070113048E+04  0.25500000920E-02 0.  1.
</event>
<event>
 5   0  0.1308662E-06  0.2400140E+04  0.7818609E-02  0.8439451E-01
       -2   -1    0    0    0  501  0.00000000000E+00  0.00000000000E+00  0.11620978543E+04  0.11620978543E+04  0.25500000920E-02 0.  1.
        2   -1    0    0  501    0  0.00000000000E+00  0.00000000000E+00 -0.12392826733E+04  0.12392826733E+04  0.25500000920E-02 0. -1.
    10030    2    1    2    0    0  0.00000000000E+00  0.00000000000E+00 -0.77184818993E+02  0.24013805275E+04  0.24001397755E+04 0.  0.
        3    1    3    3  502    0 -0.85048040351E+02  0.59249571397E+01 -0.12362489998E+04  0.12391851654E+04  0.10100000352E+00 0. -1.
       -3    1    3    3    0  502  0.85048040351E+02 -0.59249571397E+01  0.11590641809E+04  0.11621953622E+04  0.10100000352E+00 0.  1.
</event>
<event>
 5   0  0.5690124E-07  0.2396720E+04  0.7818609E-02  0.8440733E-01
       -1   -1    0    0    0  501  0.00000000000E+00  0.00000000000E+00  0.69956214422E+03  0.69956214424E+03  0.50400001928E-02 0.  1.
        1   -1    0    0  501    0  0.00000000000E+00  0.00000000000E+00 -0.20528078650E+04  0.20528078650E+04  0.50400001928E-02 0. -1.
    10030    2    1    2    0    0  0.00000000000E+00  0.00000000000E+00 -0.13532457208E+04  0.27523700092E+04  0.23967199851E+04 0.  0.
        2    1    3    3  502    0  0.13185924606E+03  0.14091571363E+03 -0.20348450946E+04  0.20439761883E+04  0.25500000920E-02 0. -1.
       -2    1    3    3    0  502 -0.13185924606E+03 -0.14091571363E+03  0.68159937385E+03  0.70839382095E+03  0.25500000920E-02 0.  1.
</event>
<event>
 5   0  0.5527286E-07  0.2397590E+04  0.7818609E-02  0.8440406E-01
       -1   -1    0    0    0  501  0.00000000000E+00  0.00000000000E+00  0.84217329062E+03  0.84217329063E+03  0.50400001928E-02 0.  1.
        1   -1    0    0  501    0  0.00000000000E+00  0.00000000000E+00 -0.17064297364E+04  0.17064297364E+04  0.50400001928E-02 0. -1.
    10030    2    1    2    0    0  0.00000000000E+00  0.00000000000E+00 -0.86425644576E+03  0.25486030270E+04  0.23975900787E+04 0.  0.
        1    1    3    3  502    0 -0.97136843440E+02 -0.11175540267E+04 -0.88154224120E+03  0.14267022436E+04  0.50400001928E-02 0. -1.
       -1    1    3    3    0  502  0.97136843440E+02  0.11175540267E+04  0.17285795438E+02  0.11219007834E+04  0.50400001928E-02 0.  1.
</event>
<event>
 5   0  0.1308662E-06  0.2400032E+04  0.7818609E-02  0.8439491E-01
        2   -1    0    0  501    0  0.00000000000E+00  0.00000000000E+00  0.14807270694E+04  0.14807270694E+04  0.25500000920E-02 0. -1.
       -2   -1    0    0    0  501  0.00000000000E+00  0.00000000000E+00 -0.97252134950E+03  0.97252134950E+03  0.25500000920E-02 0.  1.
    10030    2    1    2    0    0  0.00000000000E+00  0.00000000000E+00  0.50820571989E+03  0.24532484189E+04  0.24000322396E+04 0.  0.
        3    1    3    3  502    0 -0.11550525489E+04  0.23565872781E+03  0.24722907391E+02  0.11791067208E+04  0.10100000352E+00 0.  1.
       -3    1    3    3    0  502  0.11550525489E+04 -0.23565872781E+03  0.48348281249E+03  0.12741416981E+04  0.10100000352E+00 0. -1.
</event>
<event>
 5   0  0.1307477E-06  0.2399647E+04  0.7818609E-02  0.8439636E-01
        2   -1    0    0  501    0  0.00000000000E+00  0.00000000000E+00  0.15519740205E+04  0.15519740205E+04  0.25500000920E-02 0. -1.
       -2   -1    0    0    0  501  0.00000000000E+00  0.00000000000E+00 -0.92757744477E+03  0.92757744477E+03  0.25500000920E-02 0.  1.
    10030    2    1    2    0    0  0.00000000000E+00  0.00000000000E+00  0.62439657575E+03  0.24795514653E+04  0.23996467209E+04 0.  0.
        5    1    3    3  502    0 -0.11225090696E+04 -0.39070089146E+03  0.48160949334E+03  0.12824365840E+04  0.46999998093E+01 0.  1.
       -5    1    3    3    0  502  0.11225090696E+04  0.39070089146E+03  0.14278708242E+03  0.11971148813E+04  0.46999998093E+01 0. -1.
</event>
<event>
 5   0  0.5510176E-07  0.2396321E+04  0.7818609E-02  0.8440882E-01
       -1   -1    0    0    0  501  0.00000000000E+00  0.00000000000E+00  0.66920739178E+03  0.66920739180E+03  0.50400001928E-02 0. -1.
        1   -1    0    0  501    0  0.00000000000E+00  0.00000000000E+00 -0.21452065056E+04  0.21452065056E+04  0.50400001928E-02 0.  1.
    10030    2    1    2    0    0  0.00000000000E+00  0.00000000000E+00 -0.14759991138E+04  0.28144138974E+04  0.23963205549E+04 0.  0.
        3    1    3    3  502    0 -0.46860793277E+03 -0.11025646669E+04 -0.71615938276E+03  0.13957530266E+04  0.10100000352E+00 0.  1.
       -3    1    3    3    0  502  0.46860793277E+03  0.11025646669E+04 -0.75983973108E+03  0.14186608709E+04  0.10100000352E+00 0. -1.
</event>
<event>
 5   0  0.5363690E-07  0.2400245E+04  0.7818609E-02  0.8439412E-01
        1   -1    0    0  501    0  0.00000000000E+00  0.00000000000E+00  0.17959866580E+04  0.17959866580E+04  0.50400001928E-02 0. -1.
       -1   -1    0    0    0  501  0.00000000000E+00  0.00000000000E+00 -0.80195111535E+03  0.80195111536E+03  0.50400001928E-02 0.  1.
    10030    2    1    2    0    0  0.00000000000E+00  0.00000000000E+00  0.99403554261E+03  0.25979377733E+04  0.24002445738E+04 0.  0.
        4    1    3    3  502    0 -0.23147277245E+02  0.45235732671E+03 -0.70588187539E+03  0.83870959359E+03  0.12699999809E+01 0.  1.
       -4    1    3    3    0  502  0.23147277245E+02 -0.45235732671E+03  0.16999174180E+04  0.17592281797E+04  0.12699999809E+01 0. -1.
</event>
<event>
 5   0  0.5690124E-07  0.2400259E+04  0.7818609E-02  0.8439407E-01
        1   -1    0    0  501    0  0.00000000000E+00  0.00000000000E+00  0.10428135276E+04  0.10428135277E+04  0.50400001928E-02 0. -1.
       -1   -1    0    0    0  501  0.00000000000E+00  0.00000000000E+00 -0.13811779110E+04  0.13811779110E+04  0.50400001928E-02 0.  1.
    10030    2    1    2    0    0  0.00000000000E+00  0.00000000000E+00 -0.33836438336E+03  0.24239914387E+04  0.24002591608E+04 0.  0.
        2    1    3    3  502    0  0.51910331042E+03  0.10185072187E+04  0.19978733014E+03  0.11604913523E+04  0.25500000920E-02 0. -1.
       -2    1    3    3    0  502 -0.51910331042E+03 -0.10185072187E+04 -0.53815171350E+03  0.12635000864E+04  0.25500000920E-02 0.  1.
</event>
<event>
 5   0  0.1291468E-06  0.2400132E+04  0.7818609E-02  0.8439454E-01
       -2   -1    0    0    0  501  0.00000000000E+00  0.00000000000E+00  0.12677519471E+04  0.12677519471E+04  0.25500000920E-02 0.  1.
        2   -1    0    0  501    0  0.00000000000E+00  0.00000000000E+00 -0.11359937086E+04  0.11359937086E+04  0.25500000920E-02 0. -1.
    10030    2    1    2    0    0  0.00000000000E+00  0.00000000000E+00  0.13175823853E+03  0.24037456557E+04  0.24001318597E+04 0.  0.
        4    1    3    3  502    0  0.27434838683E+02 -0.46000641824E+03 -0.10438497386E+04  0.11410444623E+04  0.12699999809E+01 0. -1.
       -4    1    3    3    0  502 -0.27434838683E+02  0.46000641824E+03  0.11756079771E+04  0.12627011935E+04  0.12699999809E+01 0.  1.
</event>
<event>
 5   0  0.5452384E-07  0.2400422E+04  0.7818609E-02  0.8439346E-01
        1   -1    0    0  501    0  0.00000000000E+00  0.00000000000E+00  0.11161811412E+04  0.11161811412E+04  0.50400001928E-02 0.  1.
       -1   -1    0    0    0  501  0.00000000000E+00  0.00000000000E+00 -0.12905665263E+04  0.12905665264E+04  0.50400001928E-02 0. -1.
    10030    2    1    2    0    0  0.00000000000E+00  0.00000000000E+00 -0.17438538519E+03  0.24067476675E+04  0.24004216447E+04 0.  0.
        5    1    3    3  502    0  0.11428265902E+04  0.32667832980E+03  0.79716984967E+02  0.11912800822E+04  0.46999998093E+01 0. -1.
       -5    1    3    3    0  502 -0.11428265902E+04 -0.32667832980E+03 -0.25410237015E+03  0.12154675853E+04  0.46999998093E+01 0.  1.
</event>
<event>
 5   0  0.1307477E-06  0.2400182E+04  0.7818609E-02  0.8439435E-01
       -2   -1    0    0    0  501  0.00000000000E+00  0.00000000000E+00  0.67950044378E+03  0.67950044379E+03  0.25500000920E-02 0. -1.
        2   -1    0    0  501    0  0.00000000000E+00  0.00000000000E+00 -0.21195253266E+04  0.21195253266E+04  0.25500000920E-02 0.  1.
    10030    2    1    2    0    0  0.00000000000E+00  0.00000000000E+00 -0.14400248828E+04  0.27990257704E+04  0.24001819931E+04 0.  0.
        5    1    3    3  502    0 -0.87151687010E+03 -0.73409468791E+03 -0.11590877662E+04  0.16254055511E+04  0.46999998093E+01 0.  1.
       -5    1    3    3    0  502  0.87151687010E+03  0.73409468791E+03 -0.28093711659E+03  0.11736202193E+04  0.46999998093E+01 0. -1.
</event>
<event>
 5   0  0.5690124E-07  0.2400174E+04  0.7818609E-02  0.8439438E-01
       -1   -1    0    0    0  501  0.00000000000E+00  0.00000000000E+00  0.14177182880E+04  0.14177182880E+04  0.50400001928E-02 0. -1.
        1   -1    0    0  501    0  0.00000000000E+00  0.00000000000E+00 -0.10158638372E+04  0.10158638372E+04  0.50400001928E-02 0.  1.
    10030    2    1    2    0    0  0.00000000000E+00  0.00000000000E+00  0.40185445077E+03  0.24335821253E+04  0.24001739439E+04 0.  0.
        2    1    3    3  502    0 -0.44678308633E+03  0.43669147685E+03 -0.83797828957E+03  0.10452378610E+04  0.25500000920E-02 0.  1.
       -2    1    3    3    0  502  0.44678308633E+03 -0.43669147685E+03  0.12398327403E+04  0.13883442643E+04  0.25500000920E-02 0. -1.
</event>
<event>
 5   0  0.1275948E-06  0.2399350E+04  0.7818609E-02  0.8439747E-01
       -2   -1    0    0    0  501  0.00000000000E+00  0.00000000000E+00  0.68910689119E+03  0.68910689119E+03  0.25500000920E-02 0.  1.
        2   -1    0    0  501    0  0.00000000000E+00  0.00000000000E+00 -0.20885299383E+04  0.20885299383E+04  0.25500000920E-02 0. -1.
    10030    2    1    2    0    0  0.00000000000E+00  0.00000000000E+00 -0.13994230471E+04  0.27776368295E+04  0.23993502228E+04 0.  0.
        1    1    3    3  502    0  0.10095049911E+04  0.74187430511E+02  0.45715251219E+02  0.10132590913E+04  0.50400001928E-02 0.  1.
       -1    1    3    3    0  502 -0.10095049911E+04 -0.74187430511E+02 -0.14451382983E+04  0.17643777382E+04  0.50400001928E-02 0. -1.
</event>
<event>
 5   0  0.5452384E-07  0.2400513E+04  0.7818609E-02  0.8439312E-01
        1   -1    0    0  501    0  0.00000000000E+00  0.00000000000E+00  0.15224326767E+04  0.15224326767E+04  0.50400001928E-02 0. -1.
       -1   -1    0    0    0  501  0.00000000000E+00  0.00000000000E+00 -0.94625899434E+03  0.94625899435E+03  0.50400001928E-02 0.  1.
    10030    2    1    2    0    0  0.00000000000E+00  0.00000000000E+00  0.57617368238E+03  0.24686916711E+04  0.24005129566E+04 0.  0.
        5    1    3    3  502    0  0.10981505767E+03  0.86488656838E+03  0.11364437198E+04  0.14323458177E+04  0.46999998093E+01 0. -1.
       -5    1    3    3    0  502 -0.10981505767E+03 -0.86488656838E+03 -0.56027003744E+03  0.10363458534E+04  0.46999998093E+01 0.  1.
</event>
<event>
 5   0  0.5690124E-07  0.2398781E+04  0.7818609E-02  0.8439960E-01
       -1   -1    0    0    0  501  0.00000000000E+00  0.00000000000E+00  0.88607648362E+03  0.88607648363E+03  0.50400001928E-02 0.  1.
        1   -1    0    0  501    0  0.00000000000E+00  0.00000000000E+00 -0.16234908708E+04  0.16234908708E+04  0.50400001928E-02 0. -1.
    10030    2    1    2    0    0  0.00000000000E+00  0.00000000000E+00 -0.73741438714E+03  0.25095673544E+04  0.23987805919E+04 0.  0.
        2    1    3    3  502    0 -0.63160131554E+03 -0.36055448016E+03 -0.13664938508E+04  0.15479745474E+04  0.25500000920E-02 0. -1.
       -2    1    3    3    0  502  0.63160131554E+03  0.36055448016E+03  0.62907946366E+03  0.96159280705E+03  0.25500000920E-02 0.  1.
</event>
<event>
 5   0  0.1336057E-06  0.2401336E+04  0.7818609E-02  0.8439003E-01
       -2   -1    0    0    0  501  0.00000000000E+00  0.00000000000E+00  0.12049326766E+04  0.12049326766E+04  0.25500000920E-02 0. -1.
        2   -1    0    0  501    0  0.00000000000E+00  0.00000000000E+00 -0.11964186208E+04  0.11964186208E+04  0.25500000920E-02 0.  1.
    10030    2    1    2    0    0  0.00000000000E+00  0.00000000000E+00  0.85140558229E+01  0.24013512973E+04  0.24013362039E+04 0.  0.
        2    1    3    3  502    0 -0.14440394022E+03 -0.81239307730E+03  0.87648317094E+03  0.12037681500E+04  0.25500000920E-02 0. -1.
       -2    1    3    3    0  502  0.14440394022E+03  0.81239307730E+03 -0.86796911512E+03  0.11975831473E+04  0.25500000920E-02 0.  1.
</event>
<event>
 5   0  0.1336057E-06  0.2399925E+04  0.7818609E-02  0.8439532E-01
       -2   -1    0    0    0  501  0.00000000000E+00  0.00000000000E+00  0.20574707687E+04  0.20574707687E+04  0.25500000920E-02 0. -1.
        2   -1    0    0  501    0  0.00000000000E+00  0.00000000000E+00 -0.69984449191E+03  0.69984449191E+03  0.25500000920E-02 0.  1.
    10030    2    1    2    0    0  0.00000000000E+00  0.00000000000E+00  0.13576262768E+04  0.27573152607E+04  0.23999246528E+04 0.  0.
        2    1    3    3  502    0 -0.17856409170E+03  0.10801593383E+04  0.12431646700E+04  0.16565288189E+04  0.25500000920E-02 0. -1.
       -2    1    3    3    0  502  0.17856409170E+03 -0.10801593383E+04  0.11446160681E+03  0.11007864418E+04  0.25500000920E-02 0.  1.
</event>
<event>
 5   0  0.1291468E-06  0.2400845E+04  0.7818609E-02  0.8439187E-01
       -2   -1    0    0    0  501  0.00000000000E+00  0.00000000000E+00  0.93415620173E+03  0.93415620173E+03  0.25500000920E-02 0. -1.
        2   -1    0    0  501    0  0.00000000000E+00  0.00000000000E+00 -0.15425840867E+04  0.15425840867E+04  0.25500000920E-02 0.  1.
    10030    2    1    2    0    0  0.00000000000E+00  0.00000000000E+00 -0.60842788494E+03  0.24767402884E+04  0.24008452605E+04 0.  0.
        4    1    3    3  502    0  0.96159027976E+03  0.11567370125E+03 -0.10358417311E+04  0.14180994239E+04  0.12699999809E+01 0.  1.
       -4    1    3    3    0  502 -0.96159027976E+03 -0.11567370125E+03  0.42741384611E+03  0.10586408645E+04  0.12699999809E+01 0. -1.
</event>
<event>
 5   0  0.1336057E-06  0.2400944E+04  0.7818609E-02  0.8439150E-01
        2   -1    0    0  501    0  0.00000000000E+00  0.00000000000E+00  0.95518179332E+03  0.95518179332E+03  0.25500000920E-02 0. -1.
       -2   -1    0    0    0  501  0.00000000000E+00  0.00000000000E+00 -0.15087520921E+04  0.15087520921E+04  0.25500000920E-02 0.  1.
    10030    2    1    2    0    0  0.00000000000E+00  0.00000000000E+00 -0.55357029879E+03  0.24639338854E+04  0.24009435887E+04 0.  0.
        2    1    3    3  502    0 -0.36123782904E+03  0.42478409631E+03 -0.13677842830E+04  0.14770809533E+04  0.25500000920E-02 0.  1.
       -2    1    3    3    0  502  0.36123782904E+03 -0.42478409631E+03  0.81421398423E+03  0.98685293217E+03  0.25500000920E-02 0. -1.
</event>
<event>
 5   0  0.1336057E-06  0.2399727E+04  0.7818609E-02  0.8439606E-01
        2   -1    0    0  501    0  0.00000000000E+00  0.00000000000E+00  0.24053094218E+04  0.24053094218E+04  0.25500000920E-02 0.  1.
       -2   -1    0    0    0  501  0.00000000000E+00  0.00000000000E+00 -0.59853940084E+03  0.59853940084E+03  0.25500000920E-02 0. -1.
    10030    2    1    2    0    0  0.00000000000E+00  0.00000000000E+00  0.18067700210E+04  0.30038488227E+04  0.23997270346E+04 0.  0.
        2    1    3    3  502    0  0.69067888259E+03  0.71173569891E+03  0.58046294846E+02  0.99346585061E+03  0.25500000920E-02 0. -1.
       -2    1    3    3    0  502 -0.69067888259E+03 -0.71173569891E+03  0.17487237261E+04  0.20103829721E+04  0.25500000920E-02 0.  1.
</event>
<event>
 5   0  0.1308662E-06  0.2400344E+04  0.7818609E-02  0.8439375E-01
       -2   -1    0    0    0  501  0.00000000000E+00  0.00000000000E+00  0.23247985140E+04  0.23247985140E+04  0.25500000920E-02 0.  1.
        2   -1    0    0  501    0  0.00000000000E+00  0.00000000000E+00 -0.61958610783E+03  0.61958610784E+03  0.25500000920E-02 0. -1.
    10030    2    1    2    0    0  0.00000000000E+00  0.00000000000E+00  0.17052124061E+04  0.29443846218E+04  0.24003440276E+04 0.  0.
        3    1    3    3  502    0  0.75843952881E+03  0.37141753292E+03  0.18986680104E+04  0.20780090776E+04  0.10100000352E+00 0.  1.
       -3    1    3    3    0  502 -0.75843952881E+03 -0.37141753292E+03 -0.19345560424E+03  0.86637554423E+03  0.10100000352E+00 0. -1.
</event>
<event>
 5   0  0.5363690E-07  0.2399420E+04  0.7818609E-02  0.8439721E-01
       -1   -1    0    0    0  501  0.00000000000E+00  0.00000000000E+00  0.80019539337E+03  0.80019539339E+03  0.50400001928E-02 0.  1.
        1   -1    0    0  501    0  0.00000000000E+00  0.00000000000E+00 -0.17986904099E+04  0.17986904099E+04  0.50400001928E-02 0. -1.
    10030    2    1    2    0    0  0.00000000000E+00  0.00000000000E+00 -0.99849501649E+03  0.25988858033E+04  0.23994197466E+04 0.  0.
        4    1    3    3  502    0 -0.99157434744E+03 -0.62851328159E+03 -0.23161653251E+03  0.11966187625E+04  0.12699999809E+01 0. -1.
       -4    1    3    3    0  502  0.99157434744E+03  0.62851328159E+03 -0.76687848398E+03  0.14022670408E+04  0.12699999809E+01 0.  1.
</event>
<event>
 5   0  0.5527286E-07  0.2399821E+04  0.7818609E-02  0.8439571E-01
       -1   -1    0    0    0  501  0.00000000000E+00  0.00000000000E+00  0.17910873917E+04  0.17910873917E+04  0.50400001928E-02 0.  1.
        1   -1    0    0  501    0  0.00000000000E+00  0.00000000000E+00 -0.80386089279E+03  0.80386089281E+03  0.50400001928E-02 0. -1.
    10030    2    1    2    0    0  0.00000000000E+00  0.00000000000E+00  0.98722649895E+03  0.25949482845E+04  0.23998209182E+04 0.  0.
        1    1    3    3  502    0 -0.92795972572E+03  0.33014967406E+03  0.12346667145E+04  0.15794017715E+04  0.50400001928E-02 0.  1.
       -1    1    3    3    0  502  0.92795972572E+03 -0.33014967406E+03 -0.24744021558E+03  0.10155465130E+04  0.50400001928E-02 0. -1.
</event>
<event>
 5   0  0.5510176E-07  0.2397779E+04  0.7818609E-02  0.8440336E-01
        1   -1    0    0  501    0  0.00000000000E+00  0.00000000000E+00  0.11520770260E+04  0.11520770260E+04  0.50400001928E-02 0. -1.
       -1   -1    0    0    0  501  0.00000000000E+00  0.00000000000E+00 -0.12476039822E+04  0.12476039822E+04  0.50400001928E-02 0.  1.
    10030    2    1    2    0    0  0.00000000000E+00  0.00000000000E+00 -0.95526956203E+02  0.23996810082E+04  0.23977788767E+04 0.  0.
        3    1    3    3  502    0 -0.77895005727E+03  0.72632408669E+03  0.50315118830E+03  0.11779095887E+04  0.10100000352E+00 0. -1.
       -3    1    3    3    0  502  0.77895005727E+03 -0.72632408669E+03 -0.59867814450E+03  0.12217714195E+04  0.10100000352E+00 0.  1.
</event>
<event>
 5   0  0.5690124E-07  0.2400064E+04  0.7818609E-02  0.8439479E-01
       -1   -1    0    0    0  501  0.00000000000E+00  0.00000000000E+00  0.14687792549E+04  0.14687792549E+04  0.50400001928E-02 0.  1.
        1   -1    0    0  501    0  0.00000000000E+00  0.00000000000E+00 -0.98045857642E+03  0.98045857644E+03  0.50400001928E-02 0. -1.
    10030    2    1    2    0    0  0.00000000000E+00  0.00000000000E+00  0.48832067845E+03  0.24492378313E+04  0.24000643469E+04 0.  0.
        2    1    3    3  502    0  0.14228693168E+03 -0.81292811892E+03  0.11332040255E+04  0.14018734111E+04  0.25500000920E-02 0.  1.
       -2    1    3    3    0  502 -0.14228693168E+03  0.81292811892E+03 -0.64488334700E+03  0.10473644202E+04  0.25500000920E-02 0. -1.
</event>
<event>
 5   0  0.5527286E-07  0.2397848E+04  0.7818609E-02  0.8440310E-01
       -1   -1    0    0    0  501  0.00000000000E+00  0.00000000000E+00  0.18023008271E+04  0.18023008271E+04  0.50400001928E-02 0.  1.
        1   -1    0    0  501    0  0.00000000000E+00  0.00000000000E+00 -0.79754666458E+03  0.79754666460E+03  0.50400001928E-02 0. -1.
    10030    2    1    2    0    0  0.00000000000E+00  0.00000000000E+00  0.10047541626E+04  0.25998474917E+04  0.23978482131E+04 0.  0.
        1    1    3    3  502    0 -0.35484137386E+03 -0.61134798352E+03  0.15523354895E+04  0.17056975786E+04  0.50400001928E-02 0.  1.
       -1    1    3    3    0  502  0.35484137386E+03  0.61134798352E+03 -0.54758132695E+03  0.89414991316E+03  0.50400001928E-02 0. -1.
</event>
<event>
 5   0  0.1291468E-06  0.2399874E+04  0.7818609E-02  0.8439551E-01
        2   -1    0    0  501    0  0.00000000000E+00  0.00000000000E+00  0.24139679590E+04  0.24139679590E+04  0.25500000920E-02 0. -1.
       -2   -1    0    0    0  501  0.00000000000E+00  0.00000000000E+00 -0.59646557324E+03  0.59646557324E+03  0.25500000920E-02 0.  1.
    10030    2    1    2    0    0  0.00000000000E+00  0.00000000000E+00  0.18175023858E+04  0.30104335323E+04  0.23998739821E+04 0.  0.
        4    1    3    3  502    0  0.45612669352E+03 -0.32644976799E+03 -0.42188862538E+03  0.70186368811E+03  0.12699999809E+01 0.  1.
       -4    1    3    3    0  502 -0.45612669352E+03  0.32644976799E+03  0.22393910112E+04  0.23085698442E+04  0.12699999809E+01 0. -1.
</event>
<event>
 5   0  0.1291468E-06  0.2400551E+04  0.7818609E-02  0.8439297E-01
        2   -1    0    0  501    0  0.00000000000E+00  0.00000000000E+00  0.16233344177E+04  0.16233344177E+04  0.25500000920E-02 0.  1.
       -2   -1    0    0    0  501  0.00000000000E+00  0.00000000000E+00 -0.88747061706E+03  0.88747061706E+03  0.25500000920E-02 0. -1.
    10030    2    1    2    0    0  0.00000000000E+00  0.00000000000E+00  0.73586380069E+03  0.25108050348E+04  0.24005512679E+04 0.  0.
        4    1    3    3  502    0 -0.57675063606E+03  0.87381506394E+03 -0.24593630112E+03  0.10754907435E+04  0.12699999809E+01 0.  1.
       -4    1    3    3    0  502  0.57675063606E+03 -0.87381506394E+03  0.98180010181E+03  0.14353142914E+04  0.12699999809E+01 0. -1.
</event>
<event>
 5   0  0.1336057E-06  0.2400194E+04  0.7818609E-02  0.8439431E-01
        2   -1    0    0  501    0  0.00000000000E+00  0.00000000000E+00  0.11560929914E+04  0.11560929914E+04  0.25500000920E-02 0. -1.
       -2   -1    0    0    0  501  0.00000000000E+00  0.00000000000E+00 -0.12457755140E+04  0.12457755140E+04  0.25500000920E-02 0.  1.
    10030    2    1    2    0    0  0.00000000000E+00  0.00000000000E+00 -0.89682522599E+02  0.24018685055E+04  0.24001936094E+04 0.  0.
        2    1    3    3  502    0 -0.66408891982E+03 -0.83881730127E+02 -0.10416197266E+04  0.12381526129E+04  0.25500000920E-02 0. -1.
       -2    1    3    3    0  502  0.66408891982E+03  0.83881730127E+02  0.95193720401E+03  0.11637158925E+04  0.25500000920E-02 0.  1.
</event>
<event>
 5   0  0.4483375E-07  0.2400412E+04  0.7818609E-02  0.8439349E-01
       -3   -1    0    0    0  501  0.00000000000E+00  0.00000000000E+00  0.12821259399E+04  0.12821259439E+04  0.10100000352E+00 0.  1.
        3   -1    0    0  501    0  0.00000000000E+00  0.00000000000E+00 -0.11235204905E+04  0.11235204950E+04  0.10100000352E+00 0. -1.
    10030    2    1    2    0    0  0.00000000000E+00  0.00000000000E+00  0.15860544944E+03  0.24056464389E+04  0.24004122772E+04 0.  0.
        2    1    3    3  502    0 -0.87810930840E+03  0.81470778325E+03  0.38388270266E+01  0.11978478477E+04  0.25500000920E-02 0.  1.
       -2    1    3    3    0  502  0.87810930840E+03 -0.81470778325E+03  0.15476662241E+03  0.12077985912E+04  0.25500000920E-02 0. -1.
</event>
<event>
 5   0  0.5363690E-07  0.2400112E+04  0.7818609E-02  0.8439462E-01
       -1   -1    0    0    0  501  0.00000000000E+00  0.00000000000E+00  0.12282815646E+04  0.12282815646E+04  0.50400001928E-02 0. -1.
        1   -1    0    0  501    0  0.00000000000E+00  0.00000000000E+00 -0.11724793264E+04  0.11724793264E+04  0.50400001928E-02 0.  1.
    10030    2    1    2    0    0  0.00000000000E+00  0.00000000000E+00  0.55802238151E+02  0.24007608910E+04  0.24001122820E+04 0.  0.
        4    1    3    3  502    0  0.60443982975E+03 -0.25796389029E+03 -0.97648190634E+03  0.11770350049E+04  0.12699999809E+01 0.  1.
       -4    1    3    3    0  502 -0.60443982975E+03  0.25796389029E+03  0.10322841445E+04  0.12237258861E+04  0.12699999809E+01 0. -1.
</event>
<event>
 5   0  0.5510176E-07  0.2404194E+04  0.7818609E-02  0.8437935E-01
       -1   -1    0    0    0  501  0.00000000000E+00  0.00000000000E+00  0.12944678495E+04  0.12944678495E+04  0.50400001928E-02 0.  1.
        1   -1    0    0  501    0  0.00000000000E+00  0.00000000000E+00 -0.11163176753E+04  0.11163176753E+04  0.50400001928E-02 0. -1.
    10030    2    1    2    0    0  0.00000000000E+00  0.00000000000E+00  0.17815017423E+03  0.24107855248E+04  0.24041941191E+04 0.  0.
        3    1    3    3  502    0  0.69456983170E+03 -0.64645687664E+02  0.10707540269E+04  0.12779360361E+04  0.10100000352E+00 0.  1.
       -3    1    3    3    0  502 -0.69456983170E+03  0.64645687664E+02 -0.89260385270E+03  0.11328494887E+04  0.10100000352E+00 0. -1.
</event>
<event>
 5   0  0.5363690E-07  0.2400825E+04  0.7818609E-02  0.8439195E-01
        1   -1    0    0  501    0  0.00000000000E+00  0.00000000000E+00  0.11721844553E+04  0.11721844553E+04  0.50400001928E-02 0. -1.
       -1   -1    0    0    0  501  0.00000000000E+00  0.00000000000E+00 -0.12293202883E+04  0.12293202883E+04  0.50400001928E-02 0.  1.
    10030    2    1    2    0    0  0.00000000000E+00  0.00000000000E+00 -0.57135832998E+02  0.24015047437E+04  0.24008249687E+04 0.  0.
        4    1    3    3  502    0  0.79776463643E+03 -0.82657026502E+03  0.31987207148E+03  0.11924623991E+04  0.12699999809E+01 0. -1.
       -4    1    3    3    0  502 -0.79776463643E+03  0.82657026502E+03 -0.37700790448E+03  0.12090423446E+04  0.12699999809E+01 0.  1.
</event>
<event>
 5   0  0.5363690E-07  0.2399103E+04  0.7818609E-02  0.8439839E-01
       -1   -1    0    0    0  501  0.00000000000E+00  0.00000000000E+00  0.10197620787E+04  0.10197620787E+04  0.50400001928E-02 0. -1.
        1   -1    0    0  501    0  0.00000000000E+00  0.00000000000E+00 -0.14110388818E+04  0.14110388818E+04  0.50400001928E-02 0.  1.
    10030    2    1    2    0    0  0.00000000000E+00  0.00000000000E+00 -0.39127680315E+03  0.24308009605E+04  0.23991031184E+04 0.  0.
        4    1    3    3  502    0 -0.11150295136E+04 -0.35769622219E+03  0.67962241417E+02  0.11729696854E+04  0.12699999809E+01 0. -1.
       -4    1    3    3    0  502  0.11150295136E+04  0.35769622219E+03 -0.45923904457E+03  0.12578312751E+04  0.12699999809E+01 0.  1.
</event>
<event>
 5   0  0.1275948E-06  0.2398913E+04  0.7818609E-02  0.8439911E-01
       -2   -1    0    0    0  501  0.00000000000E+00  0.00000000000E+00  0.84486469677E+03  0.84486469677E+03  0.25500000920E-02 0.  1.
        2   -1    0    0  501    0  0.00000000000E+00  0.00000000000E+00 -0.17028711749E+04  0.17028711749E+04  0.25500000920E-02 0. -1.
    10030    2    1    2    0    0  0.00000000000E+00  0.00000000000E+00 -0.85800647811E+03  0.25477358716E+04  0.23989128694E+04 0.  0.
        1    1    3    3  502    0 -0.19498561257E+03 -0.21441812774E+03  0.80711976298E+03  0.85757613914E+03  0.50400001928E-02 0.  1.
       -1    1    3    3    0  502  0.19498561257E+03  0.21441812774E+03 -0.16651262411E+04  0.16901597325E+04  0.50400001928E-02 0. -1.
</event>
<event>
 5   0  0.1336057E-06  0.2399772E+04  0.7818609E-02  0.8439589E-01
        2   -1    0    0  501    0  0.00000000000E+00  0.00000000000E+00  0.11379558138E+04  0.11379558138E+04  0.25500000920E-02 0. -1.
       -2   -1    0    0    0  501  0.00000000000E+00  0.00000000000E+00 -0.12651861604E+04  0.12651861604E+04  0.25500000920E-02 0.  1.
    10030    2    1    2    0    0  0.00000000000E+00  0.00000000000E+00 -0.12723034663E+03  0.24031419741E+04  0.23997716114E+04 0.  0.
        2    1    3    3  502    0 -0.30588518135E+03 -0.68532979212E+03 -0.10011368871E+04  0.12512065117E+04  0.25500000920E-02 0.  1.
       -2    1    3    3    0  502  0.30588518135E+03  0.68532979212E+03  0.87390654049E+03  0.11519354624E+04  0.25500000920E-02 0. -1.
</event>
<event>
 5   0  0.1308662E-06  0.2400493E+04  0.7818609E-02  0.8439319E-01
       -2   -1    0    0    0  501  0.00000000000E+00  0.00000000000E+00  0.12855599420E+04  0.12855599420E+04  0.25500000920E-02 0. -1.
        2   -1    0    0  501    0  0.00000000000E+00  0.00000000000E+00 -0.11205950771E+04  0.11205950771E+04  0.25500000920E-02 0.  1.
    10030    2    1    2    0    0  0.00000000000E+00  0.00000000000E+00  0.16496486489E+03  0.24061550192E+04  0.24004934013E+04 0.  0.
        3    1    3    3  502    0 -0.11844655678E+04  0.53416724454E+02  0.26941653114E+03  0.12158936241E+04  0.10100000352E+00 0. -1.
       -3    1    3    3    0  502  0.11844655678E+04 -0.53416724454E+02 -0.10445166625E+03  0.11902613950E+04  0.10100000352E+00 0.  1.
</event>
<event>
 5   0  0.1307477E-06  0.2399908E+04  0.7818609E-02  0.8439538E-01
       -2   -1    0    0    0  501  0.00000000000E+00  0.00000000000E+00  0.81550220641E+03  0.81550220641E+03  0.25500000920E-02 0.  1.
        2   -1    0    0  501    0  0.00000000000E+00  0.00000000000E+00 -0.17656474145E+04  0.17656474145E+04  0.25500000920E-02 0. -1.
    10030    2    1    2    0    0  0.00000000000E+00  0.00000000000E+00 -0.95014520811E+03  0.25811496209E+04  0.23999078001E+04 0.  0.
        5    1    3    3  502    0 -0.33495940772E+03 -0.33456900835E+03  0.71079917388E+03  0.85404436756E+03  0.46999998093E+01 0.  1.
       -5    1    3    3    0  502  0.33495940772E+03  0.33456900835E+03 -0.16609443820E+04  0.17271052534E+04  0.46999998093E+01 0. -1.
</event>
<event>
 5   0  0.5452384E-07  0.2401197E+04  0.7818609E-02  0.8439055E-01
        1   -1    0    0  501    0  0.00000000000E+00  0.00000000000E+00  0.10804048142E+04  0.10804048143E+04  0.50400001928E-02 0. -1.
       -1   -1    0    0    0  501  0.00000000000E+00  0.00000000000E+00 -0.13341638174E+04  0.13341638174E+04  0.50400001928E-02 0.  1.
    10030    2    1    2    0    0  0.00000000000E+00  0.00000000000E+00 -0.25375900318E+03  0.24145686317E+04  0.24011972109E+04 0.  0.
        5    1    3    3  502    0 -0.35965326390E+03 -0.10765751743E+04 -0.52027454230E+03  0.12486281534E+04  0.46999998093E+01 0.  1.
       -5    1    3    3    0  502  0.35965326390E+03  0.10765751743E+04  0.26651553912E+03  0.11659404782E+04  0.46999998093E+01 0. -1.
</event>
<event>
 5   0  0.5690124E-07  0.2399172E+04  0.7818609E-02  0.8439814E-01
       -1   -1    0    0    0  501  0.00000000000E+00  0.00000000000E+00  0.49357815576E+03  0.49357815578E+03  0.50400001928E-02 0. -1.
        1   -1    0    0  501    0  0.00000000000E+00  0.00000000000E+00 -0.29154587645E+04  0.29154587645E+04  0.50400001928E-02 0.  1.
    10030    2    1    2    0    0  0.00000000000E+00  0.00000000000E+00 -0.24218806088E+04  0.34090369203E+04  0.23991721574E+04 0.  0.
        2    1    3    3  502    0  0.16294006416E+03 -0.51038961405E+03  0.31412675999E+03  0.62106573242E+03  0.25500000920E-02 0. -1.
       -2    1    3    3    0  502 -0.16294006416E+03  0.51038961405E+03 -0.27360073687E+04  0.27879711879E+04  0.25500000920E-02 0.  1.
</event>
<event>
 5   0  0.5452384E-07  0.2399341E+04  0.7818609E-02  0.8439750E-01
       -1   -1    0    0    0  501  0.00000000000E+00  0.00000000000E+00  0.81729757476E+03  0.81729757478E+03  0.50400001928E-02 0.  1.
        1   -1    0    0  501    0  0.00000000000E+00  0.00000000000E+00 -0.17609372601E+04  0.17609372601E+04  0.50400001928E-02 0. -1.
    10030    2    1    2    0    0  0.00000000000E+00  0.00000000000E+00 -0.94363968529E+03  0.25782348348E+04  0.23993413696E+04 0.  0.
        5    1    3    3  502    0  0.38347279041E+03  0.39121502895E+03 -0.16186758481E+04  0.17088692668E+04  0.46999998093E+01 0. -1.
       -5    1    3    3    0  502 -0.38347279041E+03 -0.39121502895E+03  0.67503616277E+03  0.86936556805E+03  0.46999998093E+01 0.  1.
</event>
<event>
 5   0  0.1336057E-06  0.2394052E+04  0.7818609E-02  0.8441734E-01
       -2   -1    0    0    0  501  0.00000000000E+00  0.00000000000E+00  0.77096053850E+03  0.77096053850E+03  0.25500000920E-02 0. -1.
        2   -1    0    0  501    0  0.00000000000E+00  0.00000000000E+00 -0.18585540432E+04  0.18585540432E+04  0.25500000920E-02 0.  1.
    10030    2    1    2    0    0  0.00000000000E+00  0.00000000000E+00 -0.10875935047E+04  0.26295145817E+04  0.23940524856E+04 0.  0.
        2    1    3    3  502    0 -0.53982347770E+03 -0.43658000832E+03 -0.16148234133E+04  0.17577446194E+04  0.25500000920E-02 0.  1.
       -2    1    3    3    0  502  0.53982347770E+03  0.43658000832E+03  0.52722990859E+03  0.87176996235E+03  0.25500000920E-02 0. -1.
</event>
<event>
 5   0  0.1275948E-06  0.2402574E+04  0.7818609E-02  0.8438541E-01
       -2   -1    0    0    0  501  0.00000000000E+00  0.00000000000E+00  0.51022689875E+03  0.51022689876E+03  0.25500000920E-02 0.  1.
        2   -1    0    0  501    0  0.00000000000E+00  0.00000000000E+00 -0.28283302523E+04  0.28283302523E+04  0.25500000920E-02 0. -1.
    10030    2    1    2    0    0  0.00000000000E+00  0.00000000000E+00 -0.23181033536E+04  0.33385571511E+04  0.24025737644E+04 0.  0.
        1    1    3    3  502    0 -0.75623658667E+03  0.92767242999E+03 -0.10158494809E+04  0.15698471519E+04  0.50400001928E-02 0. -1.
       -1    1    3    3    0  502  0.75623658667E+03 -0.92767242999E+03 -0.13022538727E+04  0.17687099992E+04  0.50400001928E-02 0.  1.
</event>
<event>
 5   0  0.1275948E-06  0.2400401E+04  0.7818609E-02  0.8439353E-01
       -2   -1    0    0    0  501  0.00000000000E+00  0.00000000000E+00  0.16468174474E+04  0.16468174474E+04  0.25500000920E-02 0. -1.
        2   -1    0    0  501    0  0.00000000000E+00  0.00000000000E+00 -0.87470632394E+03  0.87470632394E+03  0.25500000920E-02 0.  1.
    10030    2    1    2    0    0  0.00000000000E+00  0.00000000000E+00  0.77211112345E+03  0.25215237713E+04  0.24004013295E+04 0.  0.
        1    1    3    3  502    0  0.32390021394E+03 -0.10954353729E+04  0.77286374203E+03  0.13792057021E+04  0.50400001928E-02 0.  1.
       -1    1    3    3    0  502 -0.32390021394E+03  0.10954353729E+04 -0.75261858222E+00  0.11423180693E+04  0.50400001928E-02 0. -1.
</event>
<event>
 5   0  0.1308662E-06  0.2400885E+04  0.7818609E-02  0.8439172E-01
       -2   -1    0    0    0  501  0.00000000000E+00  0.00000000000E+00  0.72245603344E+03  0.72245603344E+03  0.25500000920E-02 0. -1.
        2   -1    0    0  501    0  0.00000000000E+00  0.00000000000E+00 -0.19946707916E+04  0.19946707916E+04  0.25500000920E-02 0.  1.
    10030    2    1    2    0    0  0.00000000000E+00  0.00000000000E+00 -0.12722147581E+04  0.27171268250E+04  0.24008847937E+04 0.  0.
        3    1    3    3  502    0  0.83257222735E+03 -0.75290643071E+03 -0.11176100133E+04  0.15840128658E+04  0.10100000352E+00 0.  1.
       -3    1    3    3    0  502 -0.83257222735E+03  0.75290643071E+03 -0.15460474486E+03  0.11331139592E+04  0.10100000352E+00 0. -1.
</event>
<event>
 5   0  0.5363690E-07  0.2400269E+04  0.7818609E-02  0.8439403E-01
       -1   -1    0    0    0  501  0.00000000000E+00  0.00000000000E+00  0.94798109049E+03  0.94798109051E+03  0.50400001928E-02 0.  1.
        1   -1    0    0  501    0  0.00000000000E+00  0.00000000000E+00 -0.15193575555E+04  0.15193575555E+04  0.50400001928E-02 0. -1.
    10030    2    1    2    0    0  0.00000000000E+00  0.00000000000E+00 -0.57137646501E+03  0.24673386460E+04  0.24002685119E+04 0.  0.
        4    1    3    3  502    0 -0.42879825702E+02 -0.76070020950E+03  0.66748531274E+03  0.10129371865E+04  0.12699999809E+01 0.  1.
       -4    1    3    3    0  502  0.42879825702E+02  0.76070020950E+03 -0.12388617778E+04  0.14544014595E+04  0.12699999809E+01 0. -1.
</event>
<event>
 5   0  0.1308662E-06  0.2400966E+04  0.7818609E-02  0.8439142E-01
        2   -1    0    0  501    0  0.00000000000E+00  0.00000000000E+00  0.18265014862E+04  0.18265014862E+04  0.25500000920E-02 0. -1.
       -2   -1    0    0    0  501  0.00000000000E+00  0.00000000000E+00 -0.78902723674E+03  0.78902723675E+03  0.25500000920E-02 0.  1.
    10030    2    1    2    0    0  0.00000000000E+00  0.00000000000E+00  0.10374742495E+04  0.26155287230E+04  0.24009659894E+04 0.  0.
        3    1    3    3  502    0  0.21121744021E+03  0.26726720940E+03 -0.73527069511E+03  0.81035027831E+03  0.10100000352E+00 0.  1.
       -3    1    3    3    0  502 -0.21121744021E+03 -0.26726720940E+03  0.17727449446E+04  0.18051784447E+04  0.10100000352E+00 0. -1.
</event>
<event>
 5   0  0.5690124E-07  0.2399082E+04  0.7818609E-02  0.8439847E-01
       -1   -1    0    0    0  501  0.00000000000E+00  0.00000000000E+00  0.99755341307E+03  0.99755341309E+03  0.50400001928E-02 0.  1.
        1   -1    0    0  501    0  0.00000000000E+00  0.00000000000E+00 -0.14424270752E+04  0.14424270752E+04  0.50400001928E-02 0. -1.
    10030    2    1    2    0    0  0.00000000000E+00  0.00000000000E+00 -0.44487366213E+03  0.24399804883E+04  0.23990815343E+04 0.  0.
        2    1    3    3  502    0 -0.20017772850E+03 -0.69223695484E+02 -0.14232575863E+04  0.14389319650E+04  0.25500000920E-02 0. -1.
       -2    1    3    3    0  502  0.20017772850E+03  0.69223695484E+02  0.97838392413E+03  0.10010485233E+04  0.25500000920E-02 0.  1.
</event>
<event>
 5   0  0.1307477E-06  0.2400902E+04  0.7818609E-02  0.8439166E-01
        2   -1    0    0  501    0  0.00000000000E+00  0.00000000000E+00  0.13263876163E+04  0.13263876163E+04  0.25500000920E-02 0.  1.
       -2   -1    0    0    0  501  0.00000000000E+00  0.00000000000E+00 -0.10864714010E+04  0.10864714010E+04  0.25500000920E-02 0. -1.
    10030    2    1    2    0    0  0.00000000000E+00  0.00000000000E+00  0.23991621534E+03  0.24128590173E+04  0.24009016737E+04 0.  0.
        5    1    3    3  502    0  0.11767775830E+04  0.12957742426E+03  0.31960380571E+03  0.12262807473E+04  0.46999998093E+01 0. -1.
       -5    1    3    3    0  502 -0.11767775830E+04 -0.12957742426E+03 -0.79687590367E+02  0.11865782699E+04  0.46999998093E+01 0.  1.
</event>
<event>
 5   0  0.1308662E-06  0.2399884E+04  0.7818609E-02  0.8439547E-01
        2   -1    0    0  501    0  0.00000000000E+00  0.00000000000E+00  0.19041808102E+04  0.19041808102E+04  0.25500000920E-02 0. -1.
       -2   -1    0    0    0  501  0.00000000000E+00  0.00000000000E+00 -0.75615736611E+03  0.75615736612E+03  0.25500000920E-02 0.  1.
    10030    2    1    2    0    0  0.00000000000E+00  0.00000000000E+00  0.11480234441E+04  0.26603381763E+04  0.23998836189E+04 0.  0.
        3    1    3    3  502    0  0.51725987688E+03 -0.24702371628E+03 -0.59456915170E+03  0.82588799664E+03  0.10100000352E+00 0.  1.
       -3    1    3    3    0  502 -0.51725987688E+03  0.24702371628E+03  0.17425925958E+04  0.18344501797E+04  0.10100000352E+00 0. -1.
</event>
<event>
 5   0  0.5690124E-07  0.2399893E+04  0.7818609E-02  0.8439543E-01
        1   -1    0    0  501    0  0.00000000000E+00  0.00000000000E+00  0.83684556116E+03  0.83684556117E+03  0.50400001928E-02 0.  1.
       -1   -1    0    0    0  501  0.00000000000E+00  0.00000000000E+00 -0.17205947042E+04  0.17205947042E+04  0.50400001928E-02 0. -1.
    10030    2    1    2    0    0  0.00000000000E+00  0.00000000000E+00 -0.88374914306E+03  0.25574402654E+04  0.23998933650E+04 0.  0.
        2    1    3    3  502    0 -0.19030138823E+03  0.10190106207E+04 -0.10859302238E+04  0.15012800253E+04  0.25500000920E-02 0. -1.
       -2    1    3    3    0  502  0.19030138823E+03 -0.10190106207E+04  0.20218108074E+03  0.10561602401E+04  0.25500000920E-02 0.  1.
</event>
<event>
 5   0  0.5690124E-07  0.2398300E+04  0.7818609E-02  0.8440140E-01
        1   -1    0    0  501    0  0.00000000000E+00  0.00000000000E+00  0.10456724915E+04  0.10456724915E+04  0.50400001928E-02 0.  1.
       -1   -1    0    0    0  501  0.00000000000E+00  0.00000000000E+00 -0.13751536059E+04  0.13751536059E+04  0.50400001928E-02 0. -1.
    10030    2    1    2    0    0  0.00000000000E+00  0.00000000000E+00 -0.32948111446E+03  0.24208260974E+04  0.23982996454E+04 0.  0.
        2    1    3    3  502    0 -0.32129316399E+03 -0.11486208974E+04 -0.29000709937E+03  0.12274621709E+04  0.25500000920E-02 0.  1.
       -2    1    3    3    0  502  0.32129316399E+03  0.11486208974E+04 -0.39474015094E+02  0.11933639265E+04  0.25500000920E-02 0. -1.
</event>
<event>
 5   0  0.5452384E-07  0.2400913E+04  0.7818609E-02  0.8439162E-01
        1   -1    0    0  501    0  0.00000000000E+00  0.00000000000E+00  0.22326132628E+04  0.22326132628E+04  0.50400001928E-02 0.  1.
       -1   -1    0    0    0  501  0.00000000000E+00  0.00000000000E+00 -0.64547500028E+03  0.64547500030E+03  0.50400001928E-02 0. -1.
    10030    2    1    2    0    0  0.00000000000E+00  0.00000000000E+00  0.15871382625E+04  0.28780882631E+04  0.24009131983E+04 0.  0.
        5    1    3    3  502    0  0.43424020207E+03 -0.10974498873E+03  0.21286881550E+04  0.21753031667E+04  0.46999998093E+01 0.  1.
       -5    1    3    3    0  502 -0.43424020207E+03  0.10974498873E+03 -0.54154989252E+03  0.70278509641E+03  0.46999998093E+01 0. -1.
</event>
<event>
 5   0  0.1336057E-06  0.2401066E+04  0.7818609E-02  0.8439104E-01
       -2   -1    0    0    0  501  0.00000000000E+00  0.00000000000E+00  0.92059569907E+03  0.92059569907E+03  0.25500000920E-02 0.  1.
        2   -1    0    0  501    0  0.00000000000E+00  0.00000000000E+00 -0.15655948805E+04  0.15655948805E+04  0.25500000920E-02 0. -1.
    10030    2    1    2    0    0  0.00000000000E+00  0.00000000000E+00 -0.64499918142E+03  0.24861905796E+04  0.24010663577E+04 0.  0.
        2    1    3    3  502    0 -0.11301997959E+03  0.18455563203E+03 -0.15452309327E+04  0.15603118061E+04  0.25500000920E-02 0. -1.
       -2    1    3    3    0  502  0.11301997959E+03 -0.18455563203E+03  0.90023175125E+03  0.92587877342E+03  0.25500000920E-02 0.  1.
</event>
<event>
 5   0  0.1336057E-06  0.2410605E+04  0.7818609E-02  0.8435544E-01
        2   -1    0    0  501    0  0.00000000000E+00  0.00000000000E+00  0.18607619399E+04  0.18607619399E+04  0.25500000920E-02 0.  1.
       -2   -1    0    0    0  501  0.00000000000E+00  0.00000000000E+00 -0.78073090656E+03  0.78073090656E+03  0.25500000920E-02 0. -1.
    10030    2    1    2    0    0  0.00000000000E+00  0.00000000000E+00  0.10800310333E+04  0.26414928465E+04  0.24106051989E+04 0.  0.
        2    1    3    3  502    0 -0.93787583676E+03 -0.52886425315E+03 -0.53575545264E+02  0.10780439799E+04  0.25500000920E-02 0. -1.
       -2    1    3    3    0  502  0.93787583676E+03  0.52886425315E+03  0.11336065786E+04  0.15634488666E+04  0.25500000920E-02 0.  1.
</event>
<event>
 5   0  0.5510176E-07  0.2399243E+04  0.7818609E-02  0.8439787E-01
        1   -1    0    0  501    0  0.00000000000E+00  0.00000000000E+00  0.12550300202E+04  0.12550300202E+04  0.50400001928E-02 0.  1.
       -1   -1    0    0    0  501  0.00000000000E+00  0.00000000000E+00 -0.11466591920E+04  0.11466591921E+04  0.50400001928E-02 0. -1.
    10030    2    1    2    0    0  0.00000000000E+00  0.00000000000E+00  0.10837082812E+03  0.24016892122E+04  0.23992429714E+04 0.  0.
        3    1    3    3  502    0  0.53807808543E+03 -0.64149860841E+03 -0.80578492048E+03  0.11620403775E+04  0.10100000352E+00 0. -1.
       -3    1    3    3    0  502 -0.53807808543E+03  0.64149860841E+03  0.91415574859E+03  0.12396488348E+04  0.10100000352E+00 0.  1.
</event>
<event>
 5   0  0.1291468E-06  0.2399897E+04  0.7818609E-02  0.8439542E-01
       -2   -1    0    0    0  501  0.00000000000E+00  0.00000000000E+00  0.10619824272E+04  0.10619824272E+04  0.25500000920E-02 0. -1.
        2   -1    0    0  501    0  0.00000000000E+00  0.00000000000E+00 -0.13558377969E+04  0.13558377969E+04  0.25500000920E-02 0.  1.
    10030    2    1    2    0    0  0.00000000000E+00  0.00000000000E+00 -0.29385536968E+03  0.24178202241E+04  0.23998965931E+04 0.  0.
        4    1    3    3  502    0 -0.39255793710E+03  0.39510476950E+02  0.99476640363E+03  0.10701516820E+04  0.12699999809E+01 0. -1.
       -4    1    3    3    0  502  0.39255793710E+03 -0.39510476950E+02 -0.12886217733E+04  0.13476685421E+04  0.12699999809E+01 0.  1.
</event>
<event>
 5   0  0.5527286E-07  0.2399019E+04  0.7818609E-02  0.8439871E-01
       -1   -1    0    0    0  501  0.00000000000E+00  0.00000000000E+00  0.61133504224E+03  0.61133504226E+03  0.50400001928E-02 0. -1.
        1   -1    0    0  501    0  0.00000000000E+00  0.00000000000E+00 -0.23535747878E+04  0.23535747878E+04  0.50400001928E-02 0.  1.
    10030    2    1    2    0    0  0.00000000000E+00  0.00000000000E+00 -0.17422397455E+04  0.29649098300E+04  0.23990187513E+04 0.  0.
        1    1    3    3  502    0 -0.99304150117E+03 -0.45483199980E+03 -0.25836648295E+03  0.11223888856E+04  0.50400001928E-02 0. -1.
       -1    1    3    3    0  502  0.99304150117E+03  0.45483199980E+03 -0.14838732626E+04  0.18425209444E+04  0.50400001928E-02 0.  1.
</event>
<event>
 5   0  0.1336057E-06  0.2401889E+04  0.7818609E-02  0.8438797E-01
       -2   -1    0    0    0  501  0.00000000000E+00  0.00000000000E+00  0.12779302631E+04  0.12779302631E+04  0.25500000920E-02 0.  1.
        2   -1    0    0  501    0  0.00000000000E+00  0.00000000000E+00 -0.11285969739E+04  0.11285969740E+04  0.25500000920E-02 0. -1.
    10030    2    1    2    0    0  0.00000000000E+00  0.00000000000E+00  0.14933328914E+03  0.24065272370E+04  0.24018894461E+04 0.  0.
        2    1    3    3  502    0  0.10398474828E+04 -0.25350115550E+03 -0.47110765852E+03  0.11693964465E+04  0.25500000920E-02 0. -1.
       -2    1    3    3    0  502 -0.10398474828E+04  0.25350115550E+03  0.62044094765E+03  0.12371307905E+04  0.25500000920E-02 0.  1.
</event>
<event>
 5   0  0.5510176E-07  0.2403750E+04  0.7818609E-02  0.8438101E-01
       -1   -1    0    0    0  501  0.00000000000E+00  0.00000000000E+00  0.98754242811E+03  0.98754242813E+03  0.50400001928E-02 0.  1.
        1   -1    0    0  501    0  0.00000000000E+00  0.00000000000E+00 -0.14627256732E+04  0.14627256732E+04  0.50400001928E-02 0. -1.
    10030    2    1    2    0    0  0.00000000000E+00  0.00000000000E+00 -0.47518324510E+03  0.24502681014E+04  0.24037501226E+04 0.  0.
        3    1    3    3  502    0 -0.11712146617E+03  0.14928844727E+03  0.97217774955E+03  0.99052211750E+03  0.10100000352E+00 0.  1.
       -3    1    3    3    0  502  0.11712146617E+03 -0.14928844727E+03 -0.14473609947E+04  0.14597459839E+04  0.10100000352E+00 0. -1.
</event>
<event>
 5   0  0.1275948E-06  0.2399607E+04  0.7818609E-02  0.8439651E-01
        2   -1    0    0  501    0  0.00000000000E+00  0.00000000000E+00  0.14599542046E+04  0.14599542046E+04  0.25500000920E-02 0. -1.
       -2   -1    0    0    0  501  0.00000000000E+00  0.00000000000E+00 -0.98600957392E+03  0.98600957392E+03  0.25500000920E-02 0.  1.
    10030    2    1    2    0    0  0.00000000000E+00  0.00000000000E+00  0.47394463072E+03  0.24459637786E+04  0.23996073206E+04 0.  0.
        1    1    3    3  502    0  0.11662701120E+04 -0.12566775223E+03  0.49393449660E+03  0.12727724247E+04  0.50400001928E-02 0. -1.
       -1    1    3    3    0  502 -0.11662701120E+04  0.12566775223E+03 -0.19989865880E+02  0.11731913539E+04  0.50400001928E-02 0.  1.
</event>
<event>
 5   0  0.1307477E-06  0.2399551E+04  0.7818609E-02  0.8439672E-01
       -2   -1    0    0    0  501  0.00000000000E+00  0.00000000000E+00  0.88238063115E+03  0.88238063115E+03  0.25500000920E-02 0. -1.
        2   -1    0    0  501    0  0.00000000000E+00  0.00000000000E+00 -0.16313381010E+04  0.16313381010E+04  0.25500000920E-02 0.  1.
    10030    2    1    2    0    0  0.00000000000E+00  0.00000000000E+00 -0.74895746989E+03  0.25137187322E+04  0.23995509107E+04 0.  0.
        5    1    3    3  502    0 -0.47048890500E+03  0.67332702882E+02  0.77954503419E+03  0.91302029164E+03  0.46999998093E+01 0. -1.
       -5    1    3    3    0  502  0.47048890500E+03 -0.67332702882E+02 -0.15285025041E+04  0.16006984406E+04  0.46999998093E+01 0.  1.
</event>
<event>
 5   0  0.5527286E-07  0.2400843E+04  0.7818609E-02  0.8439188E-01
       -1   -1    0    0    0  501  0.00000000000E+00  0.00000000000E+00  0.86178910633E+03  0.86178910635E+03  0.50400001928E-02 0. -1.
        1   -1    0    0  501    0  0.00000000000E+00  0.00000000000E+00 -0.16721170141E+04  0.16721170141E+04  0.50400001928E-02 0.  1.
    10030    2    1    2    0    0  0.00000000000E+00  0.00000000000E+00 -0.81032790773E+03  0.25339061204E+04  0.24008433745E+04 0.  0.
        1    1    3    3  502    0  0.29688125984E+03  0.41323395332E+02 -0.16319845705E+04  0.16592829005E+04  0.50400001928E-02 0.  1.
       -1    1    3    3    0  502 -0.29688125984E+03 -0.41323395332E+02  0.82165666274E+03  0.87462321996E+03  0.50400001928E-02 0. -1.
</event>
<event>
 5   0  0.5363690E-07  0.2399621E+04  0.7818609E-02  0.8439646E-01
       -1   -1    0    0    0  501  0.00000000000E+00  0.00000000000E+00  0.23808856864E+04  0.23808856864E+04  0.50400001928E-02 0.  1.
        1   -1    0    0  501    0  0.00000000000E+00  0.00000000000E+00 -0.60462576972E+03  0.60462576974E+03  0.50400001928E-02 0. -1.
    10030    2    1    2    0    0  0.00000000000E+00  0.00000000000E+00  0.17762599166E+04  0.29855114561E+04  0.23996206707E+04 0.  0.
        4    1    3    3  502    0 -0.40369533189E+03 -0.93706331648E+03  0.16735147544E+04  0.19600282718E+04  0.12699999809E+01 0.  1.
       -4    1    3    3    0  502  0.40369533189E+03  0.93706331648E+03  0.10274516225E+03  0.10254831843E+04  0.12699999809E+01 0. -1.
</event>
<event>
 5   0  0.5363690E-07  0.2401080E+04  0.7818609E-02  0.8439099E-01
       -1   -1    0    0    0  501  0.00000000000E+00  0.00000000000E+00  0.75215605247E+03  0.75215605249E+03  0.50400001928E-02 0. -1.
        1   -1    0    0  501    0  0.00000000000E+00  0.00000000000E+00 -0.19162204083E+04  0.19162204083E+04  0.50400001928E-02 0.  1.
    10030    2    1    2    0    0  0.00000000000E+00  0.00000000000E+00 -0.11640643558E+04  0.26683764608E+04  0.24010804051E+04 0.  0.
        4    1    3    3  502    0  0.11120946378E+04  0.25908941295E+03 -0.99399201082E+03  0.15139034110E+04  0.12699999809E+01 0.  1.
       -4    1    3    3    0  502 -0.11120946378E+04 -0.25908941295E+03 -0.17007234499E+03  0.11544730498E+04  0.12699999809E+01 0. -1.
</event>
<event>
 5   0  0.1336057E-06  0.2399647E+04  0.7818609E-02  0.8439636E-01
       -2   -1    0    0    0  501  0.00000000000E+00  0.00000000000E+00  0.96310797960E+03  0.96310797960E+03  0.25500000920E-02 0.  1.
        2   -1    0    0  501    0  0.00000000000E+00  0.00000000000E+00 -0.14947197443E+04  0.14947197443E+04  0.25500000920E-02 0. -1.
    10030    2    1    2    0    0  0.00000000000E+00  0.00000000000E+00 -0.53161176472E+03  0.24578277239E+04  0.23996470682E+04 0.  0.
        2    1    3    3  502    0  0.19925670879E+03  0.10512152475E+04  0.29033186830E+03  0.11086249710E+04  0.25500000920E-02 0.  1.
       -2    1    3    3    0  502 -0.19925670879E+03 -0.10512152475E+04 -0.82194363302E+03  0.13492027529E+04  0.25500000920E-02 0. -1.
</event>
<event>
 5   0  0.1336057E-06  0.2398827E+04  0.7818609E-02  0.8439943E-01
       -2   -1    0    0    0  501  0.00000000000E+00  0.00000000000E+00  0.16257234781E+04  0.16257234781E+04  0.25500000920E-02 0.  1.
        2   -1    0    0  501    0  0.00000000000E+00  0.00000000000E+00 -0.88489356340E+03  0.88489356341E+03  0.25500000920E-02 0. -1.
    10030    2    1    2    0    0  0.00000000000E+00  0.00000000000E+00  0.74082991466E+03  0.25106170415E+04  0.23988265812E+04 0.  0.
        2    1    3    3  502    0  0.47392978058E+03 -0.97093492659E+02  0.15190843680E+04  0.15942565353E+04  0.25500000920E-02 0.  1.
       -2    1    3    3    0  502 -0.47392978058E+03  0.97093492659E+02 -0.77825445330E+03  0.91636050620E+03  0.25500000920E-02 0. -1.
</event>
<event>
 5   0  0.1291468E-06  0.2400499E+04  0.7818609E-02  0.8439317E-01
       -2   -1    0    0    0  501  0.00000000000E+00  0.00000000000E+00  0.61495748118E+03  0.61495748118E+03  0.25500000920E-02 0. -1.
        2   -1    0    0  501    0  0.00000000000E+00  0.00000000000E+00 -0.23425981783E+04  0.23425981783E+04  0.25500000920E-02 0.  1.
    10030    2    1    2    0    0  0.00000000000E+00  0.00000000000E+00 -0.17276406971E+04  0.29575556595E+04  0.24004985108E+04 0.  0.
        4    1    3    3  502    0 -0.26774911134E+03 -0.17373019557E+03 -0.22893529549E+04  0.23114952591E+04  0.12699999809E+01 0.  1.
       -4    1    3    3    0  502  0.26774911134E+03  0.17373019557E+03  0.56171225783E+03  0.64606040041E+03  0.12699999809E+01 0. -1.
</event>
<event>
 5   0  0.1307477E-06  0.2401981E+04  0.7818609E-02  0.8438762E-01
       -2   -1    0    0    0  501  0.00000000000E+00  0.00000000000E+00  0.12699369157E+04  0.12699369157E+04  0.25500000920E-02 0.  1.
        2   -1    0    0  501    0  0.00000000000E+00  0.00000000000E+00 -0.11357877056E+04  0.11357877057E+04  0.25500000920E-02 0. -1.
    10030    2    1    2    0    0  0.00000000000E+00  0.00000000000E+00  0.13414921001E+03  0.24057246213E+04  0.24019814619E+04 0.  0.
        5    1    3    3  502    0 -0.12256434593E+03  0.77595246255E+03 -0.84276407872E+03  0.11521274345E+04  0.46999998093E+01 0. -1.
       -5    1    3    3    0  502  0.12256434593E+03 -0.77595246255E+03  0.97691328873E+03  0.12535971868E+04  0.46999998093E+01 0.  1.
</event>
<event>
 5   0  0.1336057E-06  0.2400577E+04  0.7818609E-02  0.8439288E-01
        2   -1    0    0  501    0  0.00000000000E+00  0.00000000000E+00  0.15244032217E+04  0.15244032217E+04  0.25500000920E-02 0. -1.
       -2   -1    0    0    0  501  0.00000000000E+00  0.00000000000E+00 -0.94508620008E+03  0.94508620008E+03  0.25500000920E-02 0.  1.
    10030    2    1    2    0    0  0.00000000000E+00  0.00000000000E+00  0.57931702159E+03  0.24694894217E+04  0.24005769708E+04 0.  0.
        2    1    3    3  502    0 -0.11241631598E+04 -0.41320512021E+03  0.37073186444E+03  0.12537636924E+04  0.25500000920E-02 0. -1.
       -2    1    3    3    0  502  0.11241631598E+04  0.41320512021E+03  0.20858515715E+03  0.12157257293E+04  0.25500000920E-02 0.  1.
</event>
<event>
 5   0  0.1275948E-06  0.2402047E+04  0.7818609E-02  0.8438738E-01
        2   -1    0    0  501    0  0.00000000000E+00  0.00000000000E+00  0.14358354773E+04  0.14358354773E+04  0.25500000920E-02 0.  1.
       -2   -1    0    0    0  501  0.00000000000E+00  0.00000000000E+00 -0.10046119638E+04  0.10046119638E+04  0.25500000920E-02 0. -1.
    10030    2    1    2    0    0  0.00000000000E+00  0.00000000000E+00  0.43122351349E+03  0.24404474411E+04  0.24020470425E+04 0.  0.
        1    1    3    3  502    0  0.56340944389E+03 -0.51000672417E+03  0.11604903942E+04  0.13871824016E+04  0.50400001928E-02 0.  1.
       -1    1    3    3    0  502 -0.56340944389E+03  0.51000672417E+03 -0.72926688072E+03  0.10532650395E+04  0.50400001928E-02 0. -1.
</event>
<event>
 5   0  0.1291468E-06  0.2398485E+04  0.7818609E-02  0.8440071E-01
       -2   -1    0    0    0  501  0.00000000000E+00  0.00000000000E+00  0.71971874081E+03  0.71971874081E+03  0.25500000920E-02 0.  1.
        2   -1    0    0  501    0  0.00000000000E+00  0.00000000000E+00 -0.19982566523E+04  0.19982566523E+04  0.25500000920E-02 0. -1.
    10030    2    1    2    0    0  0.00000000000E+00  0.00000000000E+00 -0.12785379115E+04  0.27179753931E+04  0.23984851566E+04 0.  0.
        4    1    3    3  502    0 -0.48094624378E+03 -0.74969434668E+03 -0.15492475690E+04  0.17870424018E+04  0.12699999809E+01 0. -1.
       -4    1    3    3    0  502  0.48094624378E+03  0.74969434668E+03  0.27070965747E+03  0.93093299136E+03  0.12699999809E+01 0.  1.
</event>
<event>
 5   0  0.1291468E-06  0.2418142E+04  0.7818609E-02  0.8432742E-01
       -2   -1    0    0    0  501  0.00000000000E+00  0.00000000000E+00  0.76134389525E+03  0.76134389526E+03  0.25500000920E-02 0. -1.
        2   -1    0    0  501    0  0.00000000000E+00  0.00000000000E+00 -0.19200955015E+04  0.19200955015E+04  0.25500000920E-02 0.  1.
    10030    2    1    2    0    0  0.00000000000E+00  0.00000000000E+00 -0.11587516063E+04  0.26814393968E+04  0.24181422526E+04 0.  0.
        4    1    3    3  502    0 -0.54477667272E+03 -0.17932320092E+02  0.61737068402E+03  0.82356017729E+03  0.12699999809E+01 0. -1.
       -4    1    3    3    0  502  0.54477667272E+03  0.17932320092E+02 -0.17761222903E+04  0.18578792195E+04  0.12699999809E+01 0.  1.
</event>
<event>
 5   0  0.1307477E-06  0.2400108E+04  0.7818609E-02  0.8439463E-01
        2   -1    0    0  501    0  0.00000000000E+00  0.00000000000E+00  0.10246109480E+04  0.10246109481E+04  0.25500000920E-02 0. -1.
       -2   -1    0    0    0  501  0.00000000000E+00  0.00000000000E+00 -0.14055382904E+04  0.14055382904E+04  0.25500000920E-02 0.  1.
    10030    2    1    2    0    0  0.00000000000E+00  0.00000000000E+00 -0.38092734239E+03  0.24301492385E+04  0.24001082645E+04 0.  0.
        5    1    3    3  502    0  0.69519141525E+03  0.83830707533E+03  0.31988680903E+03  0.11350768771E+04  0.46999998093E+01 0. -1.
       -5    1    3    3    0  502 -0.69519141525E+03 -0.83830707533E+03 -0.70081415142E+03  0.12950723614E+04  0.46999998093E+01 0.  1.
</event>
<event>
 5   0  0.5363690E-07  0.2399786E+04  0.7818609E-02  0.8439584E-01
       -1   -1    0    0    0  501  0.00000000000E+00  0.00000000000E+00  0.53907745047E+03  0.53907745050E+03  0.50400001928E-02 0.  1.
        1   -1    0    0  501    0  0.00000000000E+00  0.00000000000E+00 -0.26707545142E+04  0.26707545142E+04  0.50400001928E-02 0. -1.
    10030    2    1    2    0    0  0.00000000000E+00  0.00000000000E+00 -0.21316770637E+04  0.32098319647E+04  0.23997862692E+04 0.  0.
        4    1    3    3  502    0  0.51235350794E+03 -0.28631869823E+01  0.38540384837E+03  0.64113341371E+03  0.12699999809E+01 0.  1.
       -4    1    3    3    0  502 -0.51235350794E+03  0.28631869823E+01 -0.25170809121E+04  0.25686985510E+04  0.12699999809E+01 0. -1.
</event>
<event>
 5   0  0.1307477E-06  0.2399882E+04  0.7818609E-02  0.8439548E-01
       -2   -1    0    0    0  501  0.00000000000E+00  0.00000000000E+00  0.76569360333E+03  0.76569360334E+03  0.25500000920E-02 0.  1.
        2   -1    0    0  501    0  0.00000000000E+00  0.00000000000E+00 -0.18804624063E+04  0.18804624063E+04  0.25500000920E-02 0. -1.
    10030    2    1    2    0    0  0.00000000000E+00  0.00000000000E+00 -0.11147688029E+04  0.26461560096E+04  0.23998816936E+04 0.  0.
        5    1    3    3  502    0 -0.92054022287E+03 -0.75767940681E+03 -0.40796601030E+03  0.12601312396E+04  0.46999998093E+01 0.  1.
       -5    1    3    3    0  502  0.92054022287E+03  0.75767940681E+03 -0.70680279263E+03  0.13860247700E+04  0.46999998093E+01 0. -1.
</event>
<event>
 5   0  0.1308662E-06  0.2399757E+04  0.7818609E-02  0.8439595E-01
        2   -1    0    0  501    0  0.00000000000E+00  0.00000000000E+00  0.16819661488E+04  0.16819661488E+04  0.25500000920E-02 0. -1.
       -2   -1    0    0    0  501  0.00000000000E+00  0.00000000000E+00 -0.85596733880E+03  0.85596733880E+03  0.25500000920E-02 0.  1.
    10030    2    1    2    0    0  0.00000000000E+00  0.00000000000E+00  0.82599880996E+03  0.25379334876E+04  0.23997567279E+04 0.  0.
        3    1    3    3  502    0  0.93312720321E+03  0.40965830809E+03  0.10828420428E+04  0.14869745144E+04  0.10100000352E+00 0. -1.
       -3    1    3    3    0  502 -0.93312720321E+03 -0.40965830809E+03 -0.25684323282E+03  0.10509589731E+04  0.10100000352E+00 0.  1.
</event>
<event>
 5   0  0.4483375E-07  0.2400009E+04  0.7818609E-02  0.8439500E-01
        4   -1    0    0  501    0  0.00000000000E+00  0.00000000000E+00  0.10426732535E+04  0.10426740270E+04  0.12699999809E+01 0.  1.
       -4   -1    0    0    0  501  0.00000000000E+00  0.00000000000E+00 -0.13810747613E+04  0.13810753452E+04  0.12699999809E+01 0. -1.
    10030    2    1    2    0    0  0.00000000000E+00  0.00000000000E+00 -0.33840150774E+03  0.24237493722E+04  0.24000094664E+04 0.  0.
        3    1    3    3  502    0  0.11732591909E+04  0.18023159187E+03  0.85826039695E+01  0.11870527482E+04  0.10100000352E+00 0.  1.
       -3    1    3    3    0  502 -0.11732591909E+04 -0.18023159187E+03 -0.34698411171E+03  0.12366966240E+04  0.10100000352E+00 0. -1.
</event>
<event>
 5   0  0.5527286E-07  0.2396850E+04  0.7818609E-02  0.8440684E-01
       -1   -1    0    0    0  501  0.00000000000E+00  0.00000000000E+00  0.71422434237E+03  0.71422434238E+03  0.50400001928E-02 0. -1.
        1   -1    0    0  501    0  0.00000000000E+00  0.00000000000E+00 -0.20108843858E+04  0.20108843858E+04  0.50400001928E-02 0.  1.
    10030    2    1    2    0    0  0.00000000000E+00  0.00000000000E+00 -0.12966600434E+04  0.27251087282E+04  0.23968500813E+04 0.  0.
        1    1    3    3  502    0  0.53088367444E+03 -0.10427433266E+04 -0.94278020912E+03  0.15026595235E+04  0.50400001928E-02 0.  1.
       -1    1    3    3    0  502 -0.53088367444E+03  0.10427433266E+04 -0.35387983431E+03  0.12224492047E+04  0.50400001928E-02 0. -1.
</event>
<event>
 5   0  0.5452384E-07  0.2400460E+04  0.7818609E-02  0.8439331E-01
        1   -1    0    0  501    0  0.00000000000E+00  0.00000000000E+00  0.16229404782E+04  0.16229404782E+04  0.50400001928E-02 0.  1.
       -1   -1    0    0    0  501  0.00000000000E+00  0.00000000000E+00 -0.88761885484E+03  0.88761885486E+03  0.50400001928E-02 0. -1.
    10030    2    1    2    0    0  0.00000000000E+00  0.00000000000E+00  0.73532162335E+03  0.25105593331E+04  0.24004604298E+04 0.  0.
        5    1    3    3  502    0  0.52540646901E+03 -0.83347400089E+02  0.14928936323E+04  0.15848508555E+04  0.46999998093E+01 0.  1.
       -5    1    3    3    0  502 -0.52540646901E+03  0.83347400089E+02 -0.75757200893E+03  0.92570847759E+03  0.46999998093E+01 0. -1.
</event>
<event>
 5   0  0.5452384E-07  0.2400452E+04  0.7818609E-02  0.8439334E-01
        1   -1    0    0  501    0  0.00000000000E+00  0.00000000000E+00  0.18905640697E+04  0.18905640697E+04  0.50400001928E-02 0. -1.
       -1   -1    0    0    0  501  0.00000000000E+00  0.00000000000E+00 -0.76196460700E+03  0.76196460702E+03  0.50400001928E-02 0.  1.
    10030    2    1    2    0    0  0.00000000000E+00  0.00000000000E+00  0.11285994627E+04  0.26525286767E+04  0.24004523810E+04 0.  0.
        5    1    3    3  502    0  0.75575064524E+03 -0.32129295700E+03 -0.40290623897E+03  0.91473697279E+03  0.46999998093E+01 0.  1.
       -5    1    3    3    0  502 -0.75575064524E+03  0.32129295700E+03  0.15315057016E+04  0.17377917039E+04  0.46999998093E+01 0. -1.
</event>
<event>
 5   0  0.1275948E-06  0.2400242E+04  0.7818609E-02  0.8439413E-01
        2   -1    0    0  501    0  0.00000000000E+00  0.00000000000E+00  0.20672474651E+04  0.20672474651E+04  0.25500000920E-02 0.  1.
       -2   -1    0    0    0  501  0.00000000000E+00  0.00000000000E+00 -0.69671888038E+03  0.69671888038E+03  0.25500000920E-02 0. -1.
    10030    2    1    2    0    0  0.00000000000E+00  0.00000000000E+00  0.13705285847E+04  0.27639663455E+04  0.24002419373E+04 0.  0.
        1    1    3    3  502    0 -0.19180683387E+02  0.78321360882E+03  0.17321490264E+04  0.19010869799E+04  0.50400001928E-02 0.  1.
       -1    1    3    3    0  502  0.19180683387E+02 -0.78321360882E+03 -0.36162044166E+03  0.86287936556E+03  0.50400001928E-02 0. -1.
</event>
<event>
 5   0  0.1275948E-06  0.2401372E+04  0.7818609E-02  0.8438990E-01
        2   -1    0    0  501    0  0.00000000000E+00  0.00000000000E+00  0.27592385416E+04  0.27592385416E+04  0.25500000920E-02 0.  1.
       -2   -1    0    0    0  501  0.00000000000E+00  0.00000000000E+00 -0.52248003919E+03  0.52248003919E+03  0.25500000920E-02 0. -1.
    10030    2    1    2    0    0  0.00000000000E+00  0.00000000000E+00  0.22367585024E+04  0.32817185808E+04  0.24013721589E+04 0.  0.
        1    1    3    3  502    0  0.14966618731E+02  0.11715307403E+04  0.75956169763E+03  0.13962959026E+04  0.50400001928E-02 0. -1.
       -1    1    3    3    0  502 -0.14966618731E+02 -0.11715307403E+04  0.14771968048E+04  0.18854226782E+04  0.50400001928E-02 0.  1.
</event>
<event>
 5   0  0.5363690E-07  0.2400109E+04  0.7818609E-02  0.8439463E-01
        1   -1    0    0  501    0  0.00000000000E+00  0.00000000000E+00  0.15212085595E+04  0.15212085595E+04  0.50400001928E-02 0. -1.
       -1   -1    0    0    0  501  0.00000000000E+00  0.00000000000E+00 -0.94670137830E+03  0.94670137831E+03  0.50400001928E-02 0.  1.
    10030    2    1    2    0    0  0.00000000000E+00  0.00000000000E+00  0.57450718117E+03  0.24679099378E+04  0.24001085308E+04 0.  0.
        4    1    3    3  502    0  0.22577362988E+03 -0.16227561090E+03  0.14876312881E+04  0.15133920735E+04  0.12699999809E+01 0. -1.
       -4    1    3    3    0  502 -0.22577362988E+03  0.16227561090E+03 -0.91312410690E+03  0.95451786434E+03  0.12699999809E+01 0.  1.
</event>
<event>
 5   0  0.1336057E-06  0.2404599E+04  0.7818609E-02  0.8437784E-01
       -2   -1    0    0    0  501  0.00000000000E+00  0.00000000000E+00  0.11472386578E+04  0.11472386578E+04  0.25500000920E-02 0. -1.
        2   -1    0    0  501    0  0.00000000000E+00  0.00000000000E+00 -0.12600028117E+04  0.12600028117E+04  0.25500000920E-02 0.  1.
    10030    2    1    2    0    0  0.00000000000E+00  0.00000000000E+00 -0.11276415391E+03  0.24072414695E+04  0.24045988726E+04 0.  0.
        2    1    3    3  502    0 -0.11277046655E+04  0.26414624071E+03 -0.37927783466E+03  0.12187463744E+04  0.25500000920E-02 0.  1.
       -2    1    3    3    0  502  0.11277046655E+04 -0.26414624071E+03  0.26651368075E+03  0.11884950952E+04  0.25500000920E-02 0. -1.
</event>
<event>
 5   0  0.4483375E-07  0.2396914E+04  0.7818609E-02  0.8440660E-01
        3   -1    0    0  501    0  0.00000000000E+00  0.00000000000E+00  0.88374861635E+03  0.88374862212E+03  0.10100000352E+00 0.  1.
       -3   -1    0    0    0  501  0.00000000000E+00  0.00000000000E+00 -0.16252344480E+04  0.16252344511E+04  0.10100000352E+00 0. -1.
    10030    2    1    2    0    0  0.00000000000E+00  0.00000000000E+00 -0.74148583164E+03  0.25089830733E+04  0.23969136037E+04 0.  0.
        3    1    3    3  502    0 -0.40279238203E+03 -0.66689632419E+03 -0.13239841705E+04  0.15362052285E+04  0.10100000352E+00 0. -1.
       -3    1    3    3    0  502  0.40279238203E+03  0.66689632419E+03  0.58249833885E+03  0.97277784473E+03  0.10100000352E+00 0.  1.
</event>
<event>
 5   0  0.1307477E-06  0.2400607E+04  0.7818609E-02  0.8439276E-01
        2   -1    0    0  501    0  0.00000000000E+00  0.00000000000E+00  0.25060463268E+04  0.25060463268E+04  0.25500000920E-02 0. -1.
       -2   -1    0    0    0  501  0.00000000000E+00  0.00000000000E+00 -0.57490120027E+03  0.57490120028E+03  0.25500000920E-02 0.  1.
    10030    2    1    2    0    0  0.00000000000E+00  0.00000000000E+00  0.19311451265E+04  0.30809475271E+04  0.24006074575E+04 0.  0.
        5    1    3    3  502    0 -0.48323651210E+03 -0.36552552010E+02  0.23748950951E+04  0.24238404275E+04  0.46999998093E+01 0. -1.
       -5    1    3    3    0  502  0.48323651210E+03  0.36552552010E+02 -0.44374996853E+03  0.65710709953E+03  0.46999998093E+01 0.  1.
</event>
<event>
 5   0  0.1307477E-06  0.2399708E+04  0.7818609E-02  0.8439613E-01
       -2   -1    0    0    0  501  0.00000000000E+00  0.00000000000E+00  0.12441093487E+04  0.12441093487E+04  0.25500000920E-02 0. -1.
        2   -1    0    0  501    0  0.00000000000E+00  0.00000000000E+00 -0.11571725169E+04  0.11571725169E+04  0.25500000920E-02 0.  1.
    10030    2    1    2    0    0  0.00000000000E+00  0.00000000000E+00  0.86936831778E+02  0.24012818656E+04  0.23997076041E+04 0.  0.
        5    1    3    3  502    0 -0.11793746683E+03 -0.11906615871E+04 -0.46272049355E+02  0.11973919382E+04  0.46999998093E+01 0. -1.
       -5    1    3    3    0  502  0.11793746683E+03  0.11906615871E+04  0.13320888113E+03  0.12038899274E+04  0.46999998093E+01 0.  1.
</event>
<event>
 5   0  0.5527286E-07  0.2400889E+04  0.7818609E-02  0.8439171E-01
       -1   -1    0    0    0  501  0.00000000000E+00  0.00000000000E+00  0.72809508820E+03  0.72809508822E+03  0.50400001928E-02 0.  1.
        1   -1    0    0  501    0  0.00000000000E+00  0.00000000000E+00 -0.19792288952E+04  0.19792288952E+04  0.50400001928E-02 0. -1.
    10030    2    1    2    0    0  0.00000000000E+00  0.00000000000E+00 -0.12511338070E+04  0.27073239834E+04  0.24008888663E+04 0.  0.
        1    1    3    3  502    0  0.35830286895E+03  0.27187412711E+03  0.62949045378E+03  0.77366318144E+03  0.50400001928E-02 0.  1.
       -1    1    3    3    0  502 -0.35830286895E+03 -0.27187412711E+03 -0.18806242608E+04  0.19336608020E+04  0.50400001928E-02 0. -1.
</event>
<event>
 5   0  0.5363690E-07  0.2401167E+04  0.7818609E-02  0.8439067E-01
       -1   -1    0    0    0  501  0.00000000000E+00  0.00000000000E+00  0.17840931244E+04  0.17840931244E+04  0.50400001928E-02 0. -1.
        1   -1    0    0  501    0  0.00000000000E+00  0.00000000000E+00 -0.80791774537E+03  0.80791774539E+03  0.50400001928E-02 0.  1.
    10030    2    1    2    0    0  0.00000000000E+00  0.00000000000E+00  0.97617537901E+03  0.25920108698E+04  0.24011667952E+04 0.  0.
        4    1    3    3  502    0  0.62818638780E+03  0.83603160150E+03  0.11247354228E+04  0.15357728871E+04  0.12699999809E+01 0. -1.
       -4    1    3    3    0  502 -0.62818638780E+03 -0.83603160150E+03 -0.14856004381E+03  0.10562379827E+04  0.12699999809E+01 0.  1.
</event>
<event>
 5   0  0.1308662E-06  0.2399199E+04  0.7818609E-02  0.8439804E-01
        2   -1    0    0  501    0  0.00000000000E+00  0.00000000000E+00  0.96571972625E+03  0.96571972625E+03  0.25500000920E-02 0.  1.
       -2   -1    0    0    0  501  0.00000000000E+00  0.00000000000E+00 -0.14901204020E+04  0.14901204020E+04  0.25500000920E-02 0. -1.
    10030    2    1    2    0    0  0.00000000000E+00  0.00000000000E+00 -0.52440067578E+03  0.24558401283E+04  0.23991987552E+04 0.  0.
        3    1    3    3  502    0  0.24831169527E+03  0.20234395997E+02 -0.14633474084E+04  0.14844035087E+04  0.10100000352E+00 0. -1.
       -3    1    3    3    0  502 -0.24831169527E+03 -0.20234395997E+02  0.93894673266E+03  0.97143661953E+03  0.10100000352E+00 0.  1.
</event>
<event>
 5   0  0.1275948E-06  0.2399973E+04  0.7818609E-02  0.8439514E-01
       -2   -1    0    0    0  501  0.00000000000E+00  0.00000000000E+00  0.87973909616E+03  0.87973909616E+03  0.25500000920E-02 0.  1.
        2   -1    0    0  501    0  0.00000000000E+00  0.00000000000E+00 -0.16368120070E+04  0.16368120071E+04  0.25500000920E-02 0. -1.
    10030    2    1    2    0    0  0.00000000000E+00  0.00000000000E+00 -0.75707291089E+03  0.25165511032E+04  0.23999729296E+04 0.  0.
        1    1    3    3  502    0  0.96857117554E+03  0.67056565339E+03 -0.61805971586E+03  0.13303331275E+04  0.50400001928E-02 0. -1.
       -1    1    3    3    0  502 -0.96857117554E+03 -0.67056565339E+03 -0.13901319503E+03  0.11862179758E+04  0.50400001928E-02 0.  1.
</event>
<event>
 5   0  0.1307477E-06  0.2401782E+04  0.7818609E-02  0.8438837E-01
       -2   -1    0    0    0  501  0.00000000000E+00  0.00000000000E+00  0.82375469721E+03  0.82375469721E+03  0.25500000920E-02 0. -1.
        2   -1    0    0  501    0  0.00000000000E+00  0.00000000000E+00 -0.17506898793E+04  0.17506898793E+04  0.25500000920E-02 0.  1.
    10030    2    1    2    0    0  0.00000000000E+00  0.00000000000E+00 -0.92693518208E+03  0.25744445765E+04  0.24017818481E+04 0.  0.
        5    1    3    3  502    0 -0.57038679222E+02  0.46329490781E+03 -0.16494546795E+04  0.17142398935E+04  0.46999998093E+01 0.  1.
       -5    1    3    3    0  502  0.57038679222E+02 -0.46329490781E+03  0.72251949745E+03  0.86020468304E+03  0.46999998093E+01 0. -1.
</event>
<event>
 5   0  0.4483375E-07  0.2401064E+04  0.7818609E-02  0.8439105E-01
       -4   -1    0    0    0  501  0.00000000000E+00  0.00000000000E+00  0.98993342662E+03  0.98993424127E+03  0.12699999809E+01 0. -1.
        4   -1    0    0  501    0  0.00000000000E+00  0.00000000000E+00 -0.14559314937E+04  0.14559320476E+04  0.12699999809E+01 0.  1.
    10030    2    1    2    0    0  0.00000000000E+00  0.00000000000E+00 -0.46599806710E+03  0.24458662889E+04  0.24010638693E+04 0.  0.
        5    1    3    3  502    0 -0.10778081976E+04  0.51863523647E+03 -0.33788542568E+03  0.12429165982E+04  0.46999998093E+01 0. -1.
       -5    1    3    3    0  502  0.10778081976E+04 -0.51863523647E+03 -0.12811264141E+03  0.12029496906E+04  0.46999998093E+01 0.  1.
</event>
<event>
 5   0  0.1308662E-06  0.2398913E+04  0.7818609E-02  0.8439911E-01
       -2   -1    0    0    0  501  0.00000000000E+00  0.00000000000E+00  0.70351838455E+03  0.70351838455E+03  0.25500000920E-02 0. -1.
        2   -1    0    0  501    0  0.00000000000E+00  0.00000000000E+00 -0.20450012245E+04  0.20450012245E+04  0.25500000920E-02 0.  1.
    10030    2    1    2    0    0  0.00000000000E+00  0.00000000000E+00 -0.13414828400E+04  0.27485196091E+04  0.23989130521E+04 0.  0.
        3    1    3    3  502    0  0.88911812906E+03 -0.51962722405E+03  0.33818267379E+02  0.10303820577E+04  0.10100000352E+00 0. -1.
       -3    1    3    3    0  502 -0.88911812906E+03  0.51962722405E+03 -0.13753011074E+04  0.17181375514E+04  0.10100000352E+00 0.  1.
</event>
<event>
 5   0  0.1291468E-06  0.2402549E+04  0.7818609E-02  0.8438550E-01
        2   -1    0    0  501    0  0.00000000000E+00  0.00000000000E+00  0.13388901773E+04  0.13388901773E+04  0.25500000920E-02 0. -1.
       -2   -1    0    0    0  501  0.00000000000E+00  0.00000000000E+00 -0.10778030216E+04  0.10778030216E+04  0.25500000920E-02 0.  1.
    10030    2    1    2    0    0  0.00000000000E+00  0.00000000000E+00  0.26108715569E+03  0.24166931988E+04  0.24025485457E+04 0.  0.
        4    1    3    3  502    0 -0.87663763041E+03  0.59892286922E+01  0.95667590356E+03  0.12975977047E+04  0.12699999809E+01 0. -1.
       -4    1    3    3    0  502  0.87663763041E+03 -0.59892286922E+01 -0.69558874786E+03  0.11190954941E+04  0.12699999809E+01 0.  1.
</event>
<event>
 5   0  0.4483375E-07  0.2400700E+04  0.7818609E-02  0.8439241E-01
        3   -1    0    0  501    0  0.00000000000E+00  0.00000000000E+00  0.99674553857E+03  0.99674554369E+03  0.10100000352E+00 0. -1.
       -3   -1    0    0    0  501  0.00000000000E+00  0.00000000000E+00 -0.14455447182E+04  0.14455447217E+04  0.10100000352E+00 0.  1.
    10030    2    1    2    0    0  0.00000000000E+00  0.00000000000E+00 -0.44879917961E+03  0.24422902654E+04  0.24007001139E+04 0.  0.
        2    1    3    3  502    0 -0.84131887030E+03  0.39340679458E+03 -0.99800349781E+03  0.13633038286E+04  0.25500000920E-02 0.  1.
       -2    1    3    3    0  502  0.84131887030E+03 -0.39340679458E+03  0.54920431820E+03  0.10789864367E+04  0.25500000920E-02 0. -1.
</event>
<event>
 5   0  0.1308662E-06  0.2400000E+04  0.7818609E-02  0.8439504E-01
        2   -1    0    0  501    0  0.00000000000E+00  0.00000000000E+00  0.15964253102E+04  0.15964253102E+04  0.25500000920E-02 0. -1.
       -2   -1    0    0    0  501  0.00000000000E+00  0.00000000000E+00 -0.90201506923E+03  0.90201506924E+03  0.25500000920E-02 0.  1.
    10030    2    1    2    0    0  0.00000000000E+00  0.00000000000E+00  0.69441024094E+03  0.24984403794E+04  0.23999997389E+04 0.  0.
        3    1    3    3  502    0 -0.82474932018E+03  0.28611777677E+03  0.12043388265E+04  0.14874497781E+04  0.10100000352E+00 0. -1.
       -3    1    3    3    0  502  0.82474932018E+03 -0.28611777677E+03 -0.50992858553E+03  0.10109906013E+04  0.10100000352E+00 0.  1.
</event>
<event>
 5   0  0.1291468E-06  0.2399178E+04  0.7818609E-02  0.8439811E-01
       -2   -1    0    0    0  501  0.00000000000E+00  0.00000000000E+00  0.10699361382E+04  0.10699361382E+04  0.25500000920E-02 0.  1.
        2   -1    0    0  501    0  0.00000000000E+00  0.00000000000E+00 -0.13449526102E+04  0.13449526102E+04  0.25500000920E-02 0. -1.
    10030    2    1    2    0    0  0.00000000000E+00  0.00000000000E+00 -0.27501647199E+03  0.24148887484E+04  0.23991776939E+04 0.  0.
        4    1    3    3  502    0 -0.52200654673E+03  0.23483344726E+03 -0.11986291384E+04  0.13282887514E+04  0.12699999809E+01 0. -1.
       -4    1    3    3    0  502  0.52200654673E+03 -0.23483344726E+03  0.92361266646E+03  0.10865999969E+04  0.12699999809E+01 0.  1.
</event>
<event>
 5   0  0.1275948E-06  0.2403132E+04  0.7818609E-02  0.8438332E-01
        2   -1    0    0  501    0  0.00000000000E+00  0.00000000000E+00  0.10253129913E+04  0.10253129913E+04  0.25500000920E-02 0.  1.
       -2   -1    0    0    0  501  0.00000000000E+00  0.00000000000E+00 -0.14081171752E+04  0.14081171752E+04  0.25500000920E-02 0. -1.
    10030    2    1    2    0    0  0.00000000000E+00  0.00000000000E+00 -0.38280418386E+03  0.24334301665E+04  0.24031319839E+04 0.  0.
        1    1    3    3  502    0 -0.41226569126E+03 -0.30483428697E+03 -0.12917829428E+04  0.13898165757E+04  0.50400001928E-02 0. -1.
       -1    1    3    3    0  502  0.41226569126E+03  0.30483428697E+03  0.90897875895E+03  0.10436135908E+04  0.50400001928E-02 0.  1.
</event>
<event>
 5   0  0.5363690E-07  0.2406854E+04  0.7818609E-02  0.8436942E-01
        1   -1    0    0  501    0  0.00000000000E+00  0.00000000000E+00  0.11904161160E+04  0.11904161160E+04  0.50400001928E-02 0.  1.
       -1   -1    0    0    0  501  0.00000000000E+00  0.00000000000E+00 -0.12165803518E+04  0.12165803518E+04  0.50400001928E-02 0. -1.
    10030    2    1    2    0    0  0.00000000000E+00  0.00000000000E+00 -0.26164235787E+02  0.24069964677E+04  0.24068542599E+04 0.  0.
        4    1    3    3  502    0 -0.79485192067E+03  0.32611382217E+03  0.82963928161E+03  0.11943377878E+04  0.12699999809E+01 0.  1.
       -4    1    3    3    0  502  0.79485192067E+03 -0.32611382217E+03 -0.85580351740E+03  0.12126586800E+04  0.12699999809E+01 0. -1.
</event>
<event>
 5   0  0.1308662E-06  0.2400428E+04  0.7818609E-02  0.8439343E-01
       -2   -1    0    0    0  501  0.00000000000E+00  0.00000000000E+00  0.48641418055E+03  0.48641418055E+03  0.25500000920E-02 0.  1.
        2   -1    0    0  501    0  0.00000000000E+00  0.00000000000E+00 -0.29614952049E+04  0.29614952049E+04  0.25500000920E-02 0. -1.
    10030    2    1    2    0    0  0.00000000000E+00  0.00000000000E+00 -0.24750810243E+04  0.34479093854E+04  0.24004276813E+04 0.  0.
        3    1    3    3  502    0 -0.72847050623E+03 -0.53950868824E+03 -0.10765778745E+03  0.91286861735E+03  0.10100000352E+00 0.  1.
       -3    1    3    3    0  502  0.72847050623E+03  0.53950868824E+03 -0.23674232369E+04  0.25350407681E+04  0.10100000352E+00 0. -1.
</event>
<event>
 5   0  0.1307477E-06  0.2401093E+04  0.7818609E-02  0.8439095E-01
        2   -1    0    0  501    0  0.00000000000E+00  0.00000000000E+00  0.11769579149E+04  0.11769579149E+04  0.25500000920E-02 0. -1.
       -2   -1    0    0    0  501  0.00000000000E+00  0.00000000000E+00 -0.12246076835E+04  0.12246076836E+04  0.25500000920E-02 0.  1.
    10030    2    1    2    0    0  0.00000000000E+00  0.00000000000E+00 -0.47649768691E+02  0.24015655984E+04  0.24010928393E+04 0.  0.
        5    1    3    3  502    0  0.98850178884E+03  0.27491032057E+03  0.59965821630E+03  0.11884121917E+04  0.46999998093E+01 0. -1.
       -5    1    3    3    0  502 -0.98850178884E+03 -0.27491032057E+03 -0.64730798499E+03  0.12131534068E+04  0.46999998093E+01 0.  1.
</event>
<event>
 5   0  0.5510176E-07  0.2401529E+04  0.7818609E-02  0.8438931E-01
        1   -1    0    0  501    0  0.00000000000E+00  0.00000000000E+00  0.16664692724E+04  0.16664692725E+04  0.50400001928E-02 0.  1.
       -1   -1    0    0    0  501  0.00000000000E+00  0.00000000000E+00 -0.86520360174E+03  0.86520360175E+03  0.50400001928E-02 0. -1.
    10030    2    1    2    0    0  0.00000000000E+00  0.00000000000E+00  0.80126567071E+03  0.25316728742E+04  0.24015288603E+04 0.  0.
        3    1    3    3  502    0  0.45145676840E+03  0.64231781001E+03  0.13584114102E+04  0.15689700291E+04  0.10100000352E+00 0.  1.
       -3    1    3    3    0  502 -0.45145676840E+03 -0.64231781001E+03 -0.55714573944E+03  0.96270284510E+03  0.10100000352E+00 0. -1.
</event>
<event>
 5   0  0.5363690E-07  0.2400262E+04  0.7818609E-02  0.8439406E-01
       -1   -1    0    0    0  501  0.00000000000E+00  0.00000000000E+00  0.14315857747E+04  0.14315857747E+04  0.50400001928E-02 0. -1.
        1   -1    0    0  501    0  0.00000000000E+00  0.00000000000E+00 -0.10060967723E+04  0.10060967723E+04  0.50400001928E-02 0.  1.
    10030    2    1    2    0    0  0.00000000000E+00  0.00000000000E+00  0.42548900235E+03  0.24376825470E+04  0.24002615084E+04 0.  0.
        4    1    3    3  502    0 -0.93663241563E+02 -0.11940045314E+04  0.13478452090E+03  0.12052336303E+04  0.12699999809E+01 0.  1.
       -4    1    3    3    0  502  0.93663241563E+02  0.11940045314E+04  0.29070448146E+03  0.12324489167E+04  0.12699999809E+01 0. -1.
</event>
<event>
 5   0  0.1291468E-06  0.2399074E+04  0.7818609E-02  0.8439850E-01
       -2   -1    0    0    0  501  0.00000000000E+00  0.00000000000E+00  0.95211537954E+03  0.95211537954E+03  0.25500000920E-02 0.  1.
        2   -1    0    0  501    0  0.00000000000E+00  0.00000000000E+00 -0.15112554455E+04  0.15112554455E+04  0.25500000920E-02 0. -1.
    10030    2    1    2    0    0  0.00000000000E+00  0.00000000000E+00 -0.55914006595E+03  0.24633708250E+04  0.23990744483E+04 0.  0.
        4    1    3    3  502    0 -0.81647494585E+03  0.14904163384E+03  0.60969088382E+03  0.10298394693E+04  0.12699999809E+01 0.  1.
       -4    1    3    3    0  502  0.81647494585E+03 -0.14904163384E+03 -0.11688309498E+04  0.14335313557E+04  0.12699999809E+01 0. -1.
</event>
<event>
 5   0  0.5510176E-07  0.2400122E+04  0.7818609E-02  0.8439458E-01
       -1   -1    0    0    0  501  0.00000000000E+00  0.00000000000E+00  0.13564087555E+04  0.13564087555E+04  0.50400001928E-02 0.  1.
        1   -1    0    0  501    0  0.00000000000E+00  0.00000000000E+00 -0.10617345347E+04  0.10617345347E+04  0.50400001928E-02 0. -1.
    10030    2    1    2    0    0  0.00000000000E+00  0.00000000000E+00  0.29467422078E+03  0.24181432902E+04  0.24001216793E+04 0.  0.
        3    1    3    3  502    0  0.54885115228E+03  0.98998058090E+02  0.12179105809E+04  0.13395314092E+04  0.10100000352E+00 0.  1.
       -3    1    3    3    0  502 -0.54885115228E+03 -0.98998058090E+02 -0.92323636017E+03  0.10786118810E+04  0.10100000352E+00 0. -1.
</event>
<event>
 5   0  0.1307477E-06  0.2399753E+04  0.7818609E-02  0.8439596E-01
       -2   -1    0    0    0  501  0.00000000000E+00  0.00000000000E+00  0.18920543633E+04  0.18920543633E+04  0.25500000920E-02 0.  1.
        2   -1    0    0  501    0  0.00000000000E+00  0.00000000000E+00 -0.76092084605E+03  0.76092084605E+03  0.25500000920E-02 0. -1.
    10030    2    1    2    0    0  0.00000000000E+00  0.00000000000E+00  0.11311335172E+04  0.26529752093E+04  0.23997529930E+04 0.  0.
        5    1    3    3  502    0  0.83848998122E+03  0.53108368528E+03  0.13109252676E+04  0.16442817510E+04  0.46999998093E+01 0.  1.
       -5    1    3    3    0  502 -0.83848998122E+03 -0.53108368528E+03 -0.17979175039E+03  0.10086934583E+04  0.46999998093E+01 0. -1.
</event>
<event>
 5   0  0.1336057E-06  0.2402263E+04  0.7818609E-02  0.8438657E-01
        2   -1    0    0  501    0  0.00000000000E+00  0.00000000000E+00  0.15971166421E+04  0.15971166421E+04  0.25500000920E-02 0. -1.
       -2   -1    0    0    0  501  0.00000000000E+00  0.00000000000E+00 -0.90332603187E+03  0.90332603187E+03  0.25500000920E-02 0.  1.
    10030    2    1    2    0    0  0.00000000000E+00  0.00000000000E+00  0.69379061022E+03  0.25004426740E+04  0.24022631319E+04 0.  0.
        2    1    3    3  502    0  0.43278341650E+03 -0.72971892604E+03 -0.53810455258E+03  0.10046629814E+04  0.25500000920E-02 0.  1.
       -2    1    3    3    0  502 -0.43278341650E+03  0.72971892604E+03  0.12318951628E+04  0.14957796926E+04  0.25500000920E-02 0. -1.
</event>
<event>
 5   0  0.1307477E-06  0.2405247E+04  0.7818609E-02  0.8437542E-01
       -2   -1    0    0    0  501  0.00000000000E+00  0.00000000000E+00  0.82210368551E+03  0.82210368551E+03  0.25500000920E-02 0.  1.
        2   -1    0    0  501    0  0.00000000000E+00  0.00000000000E+00 -0.17592709945E+04  0.17592709945E+04  0.25500000920E-02 0. -1.
    10030    2    1    2    0    0  0.00000000000E+00  0.00000000000E+00 -0.93716730897E+03  0.25813746800E+04  0.24052469049E+04 0.  0.
        5    1    3    3  502    0 -0.10973849509E+03 -0.11154464707E+04 -0.75327102883E+00  0.11208416586E+04  0.46999998093E+01 0.  1.
       -5    1    3    3    0  502  0.10973849509E+03  0.11154464707E+04 -0.93641403794E+03  0.14605330214E+04  0.46999998093E+01 0. -1.
</event>
<event>
 5   0  0.5452384E-07  0.2400079E+04  0.7818609E-02  0.8439474E-01
        1   -1    0    0  501    0  0.00000000000E+00  0.00000000000E+00  0.13196751232E+04  0.13196751232E+04  0.50400001928E-02 0. -1.
       -1   -1    0    0    0  501  0.00000000000E+00  0.00000000000E+00 -0.10912496950E+04  0.10912496950E+04  0.50400001928E-02 0.  1.
    10030    2    1    2    0    0  0.00000000000E+00  0.00000000000E+00  0.22842542824E+03  0.24109248182E+04  0.24000792284E+04 0.  0.
        5    1    3    3  502    0  0.50076980318E+03  0.36115407573E+03  0.11478769200E+04  0.13033979345E+04  0.46999998093E+01 0. -1.
       -5    1    3    3    0  502 -0.50076980318E+03 -0.36115407573E+03 -0.91945149180E+03  0.11075268836E+04  0.46999998093E+01 0.  1.
</event>
<event>
 5   0  0.5363690E-07  0.2400570E+04  0.7818609E-02  0.8439290E-01
        1   -1    0    0  501    0  0.00000000000E+00  0.00000000000E+00  0.23471282032E+04  0.23471282032E+04  0.50400001928E-02 0. -1.
       -1   -1    0    0    0  501  0.00000000000E+00  0.00000000000E+00 -0.61380721255E+03  0.61380721257E+03  0.50400001928E-02 0.  1.
    10030    2    1    2    0    0  0.00000000000E+00  0.00000000000E+00  0.17333209907E+04  0.29609354158E+04  0.24005701156E+04 0.  0.
        4    1    3    3  502    0  0.88247603606E+03  0.30591918536E+03 -0.63195368672E+02  0.93613341448E+03  0.12699999809E+01 0.  1.
       -4    1    3    3    0  502 -0.88247603606E+03 -0.30591918536E+03  0.17965163593E+04  0.20248020013E+04  0.12699999809E+01 0. -1.
</event>
<event>
 5   0  0.1308662E-06  0.2399609E+04  0.7818609E-02  0.8439650E-01
        2   -1    0    0  501    0  0.00000000000E+00  0.00000000000E+00  0.15269758854E+04  0.15269758854E+04  0.25500000920E-02 0.  1.
       -2   -1    0    0    0  501  0.00000000000E+00  0.00000000000E+00 -0.94273306655E+03  0.94273306655E+03  0.25500000920E-02 0. -1.
    10030    2    1    2    0    0  0.00000000000E+00  0.00000000000E+00  0.58424281888E+03  0.24697089520E+04  0.23996088506E+04 0.  0.
        3    1    3    3  502    0 -0.11545733833E+04  0.25266597707E+03  0.79567452711E+02  0.11845719831E+04  0.10100000352E+00 0. -1.
       -3    1    3    3    0  502  0.11545733833E+04 -0.25266597707E+03  0.50467536617E+03  0.12851369689E+04  0.10100000352E+00 0.  1.
</event>
<event>
 5   0  0.5690124E-07  0.2400712E+04  0.7818609E-02  0.8439237E-01
        1   -1    0    0  501    0  0.00000000000E+00  0.00000000000E+00  0.13634297353E+04  0.13634297354E+04  0.50400001928E-02 0. -1.
       -1   -1    0    0    0  501  0.00000000000E+00  0.00000000000E+00 -0.10567870650E+04  0.10567870650E+04  0.50400001928E-02 0.  1.
    10030    2    1    2    0    0  0.00000000000E+00  0.00000000000E+00  0.30664267031E+03  0.24202168004E+04  0.24007123180E+04 0.  0.
        2    1    3    3  502    0  0.52383219023E+03 -0.76192511109E+03  0.92499755420E+03  0.13078801603E+04  0.25500000920E-02 0. -1.
       -2    1    3    3    0  502 -0.52383219023E+03  0.76192511109E+03 -0.61835488389E+03  0.11123366401E+04  0.25500000920E-02 0.  1.
</event>
<event>
 5   0  0.1291468E-06  0.2400364E+04  0.7818609E-02  0.8439367E-01
        2   -1    0    0  501    0  0.00000000000E+00  0.00000000000E+00  0.21211631969E+04  0.21211631969E+04  0.25500000920E-02 0. -1.
       -2   -1    0    0    0  501  0.00000000000E+00  0.00000000000E+00 -0.67907900449E+03  0.67907900449E+03  0.25500000920E-02 0.  1.
    10030    2    1    2    0    0  0.00000000000E+00  0.00000000000E+00  0.14420841924E+04  0.28002422014E+04  0.24003644658E+04 0.  0.
        4    1    3    3  502    0 -0.38028612042E+03 -0.30052402528E+03 -0.55982082967E+03  0.74049523793E+03  0.12699999809E+01 0.  1.
       -4    1    3    3    0  502  0.38028612042E+03  0.30052402528E+03  0.20019050221E+04  0.20597469635E+04  0.12699999809E+01 0. -1.
</event>
<event>
 5   0  0.5363690E-07  0.2402063E+04  0.7818609E-02  0.8438732E-01
       -1   -1    0    0    0  501  0.00000000000E+00  0.00000000000E+00  0.99458282849E+03  0.99458282850E+03  0.50400001928E-02 0. -1.
        1   -1    0    0  501    0  0.00000000000E+00  0.00000000000E+00 -0.14503328041E+04  0.14503328041E+04  0.50400001928E-02 0.  1.
    10030    2    1    2    0    0  0.00000000000E+00  0.00000000000E+00 -0.45574997558E+03  0.24449156326E+04  0.24020625325E+04 0.  0.
        4    1    3    3  502    0 -0.10544745763E+04  0.50806027365E+03 -0.50180943815E+03  0.12735211812E+04  0.12699999809E+01 0. -1.
       -4    1    3    3    0  502  0.10544745763E+04 -0.50806027365E+03  0.46059462571E+02  0.11713944514E+04  0.12699999809E+01 0.  1.
</event>
<event>
 5   0  0.5527286E-07  0.2397526E+04  0.7818609E-02  0.8440430E-01
       -1   -1    0    0    0  501  0.00000000000E+00  0.00000000000E+00  0.33418808088E+04  0.33418808089E+04  0.50400001928E-02 0.  1.
        1   -1    0    0  501    0  0.00000000000E+00  0.00000000000E+00 -0.43000731513E+03  0.43000731516E+03  0.50400001928E-02 0. -1.
    10030    2    1    2    0    0  0.00000000000E+00  0.00000000000E+00  0.29118734937E+04  0.37718881240E+04  0.23975263871E+04 0.  0.
        1    1    3    3  502    0  0.25506386200E+03 -0.64236570639E+03  0.29968639358E+04  0.30755299908E+04  0.50400001928E-02 0.  1.
       -1    1    3    3    0  502 -0.25506386200E+03  0.64236570639E+03 -0.84990442092E+02  0.69635813323E+03  0.50400001928E-02 0. -1.
</event>
<event>
 5   0  0.5452384E-07  0.2401436E+04  0.7818609E-02  0.8438966E-01
        1   -1    0    0  501    0  0.00000000000E+00  0.00000000000E+00  0.11851259004E+04  0.11851259004E+04  0.50400001928E-02 0. -1.
       -1   -1    0    0    0  501  0.00000000000E+00  0.00000000000E+00 -0.12165154812E+04  0.12165154812E+04  0.50400001928E-02 0.  1.
    10030    2    1    2    0    0  0.00000000000E+00  0.00000000000E+00 -0.31389580807E+02  0.24016413815E+04  0.24014362410E+04 0.  0.
        5    1    3    3  502    0 -0.74812515748E+03  0.48534697890E+03  0.78839439812E+03  0.11903112022E+04  0.46999998093E+01 0. -1.
       -5    1    3    3    0  502  0.74812515748E+03 -0.48534697890E+03 -0.81978397893E+03  0.12113301793E+04  0.46999998093E+01 0.  1.
</event>
<event>
 5   0  0.5510176E-07  0.2401623E+04  0.7818609E-02  0.8438896E-01
       -1   -1    0    0    0  501  0.00000000000E+00  0.00000000000E+00  0.54361560220E+03  0.54361560222E+03  0.50400001928E-02 0.  1.
        1   -1    0    0  501    0  0.00000000000E+00  0.00000000000E+00 -0.26525150608E+04  0.26525150608E+04  0.50400001928E-02 0. -1.
    10030    2    1    2    0    0  0.00000000000E+00  0.00000000000E+00 -0.21088994586E+04  0.31961306630E+04  0.24016232612E+04 0.  0.
        3    1    3    3  502    0  0.57839459467E+03  0.40581495519E+03  0.23769623438E+03  0.74547004973E+03  0.10100000352E+00 0.  1.
       -3    1    3    3    0  502 -0.57839459467E+03 -0.40581495519E+03 -0.23465956930E+04  0.24506606133E+04  0.10100000352E+00 0. -1.
</event>
<event>
 5   0  0.1336057E-06  0.2400188E+04  0.7818609E-02  0.8439433E-01
        2   -1    0    0  501    0  0.00000000000E+00  0.00000000000E+00  0.12252192687E+04  0.12252192687E+04  0.25500000920E-02 0.  1.
       -2   -1    0    0    0  501  0.00000000000E+00  0.00000000000E+00 -0.11754843316E+04  0.11754843316E+04  0.25500000920E-02 0. -1.
    10030    2    1    2    0    0  0.00000000000E+00  0.00000000000E+00  0.49734937130E+02  0.24007036003E+04  0.24001883702E+04 0.  0.
        2    1    3    3  502    0 -0.19667131442E+02 -0.50499910657E+03 -0.10638583392E+04  0.11777968668E+04  0.25500000920E-02 0. -1.
       -2    1    3    3    0  502  0.19667131442E+02  0.50499910657E+03  0.11135932763E+04  0.12229067335E+04  0.25500000920E-02 0.  1.
</event>
<event>
 5   0  0.5363690E-07  0.2396442E+04  0.7818609E-02  0.8440837E-01
        1   -1    0    0  501    0  0.00000000000E+00  0.00000000000E+00  0.17729180969E+04  0.17729180969E+04  0.50400001928E-02 0. -1.
       -1   -1    0    0    0  501  0.00000000000E+00  0.00000000000E+00 -0.80981378551E+03  0.80981378553E+03  0.50400001928E-02 0.  1.
    10030    2    1    2    0    0  0.00000000000E+00  0.00000000000E+00  0.96310431139E+03  0.25827318824E+04  0.23964419588E+04 0.  0.
        4    1    3    3  502    0 -0.22059703302E+03 -0.59812831342E+03  0.15749690863E+04  0.16991026355E+04  0.12699999809E+01 0. -1.
       -4    1    3    3    0  502  0.22059703302E+03  0.59812831342E+03 -0.61186477493E+03  0.88362924691E+03  0.12699999809E+01 0.  1.
</event>
<event>
 5   0  0.1307477E-06  0.2401488E+04  0.7818609E-02  0.8438947E-01
       -2   -1    0    0    0  501  0.00000000000E+00  0.00000000000E+00  0.89086025411E+03  0.89086025412E+03  0.25500000920E-02 0.  1.
        2   -1    0    0  501    0  0.00000000000E+00  0.00000000000E+00 -0.16184205074E+04  0.16184205074E+04  0.25500000920E-02 0. -1.
    10030    2    1    2    0    0  0.00000000000E+00  0.00000000000E+00 -0.72756025325E+03  0.25092807615E+04  0.24014882923E+04 0.  0.
        5    1    3    3  502    0  0.11442937324E+04 -0.73188620127E+02 -0.73614621371E+03  0.13626070813E+04  0.46999998093E+01 0. -1.
       -5    1    3    3    0  502 -0.11442937324E+04  0.73188620127E+02  0.85859604664E+01  0.11466736802E+04  0.46999998093E+01 0.  1.
</event>
<event>
 5   0  0.1291468E-06  0.2398945E+04  0.7818609E-02  0.8439899E-01
        2   -1    0    0  501    0  0.00000000000E+00  0.00000000000E+00  0.22005363753E+04  0.22005363753E+04  0.25500000920E-02 0. -1.
       -2   -1    0    0    0  501  0.00000000000E+00  0.00000000000E+00 -0.65381087881E+03  0.65381087881E+03  0.25500000920E-02 0.  1.
    10030    2    1    2    0    0  0.00000000000E+00  0.00000000000E+00  0.15467254965E+04  0.28543472541E+04  0.23989452861E+04 0.  0.
        4    1    3    3  502    0  0.95582883198E+03  0.33041922119E+03  0.15407342501E+04  0.18430000705E+04  0.12699999809E+01 0. -1.
       -4    1    3    3    0  502 -0.95582883198E+03 -0.33041922119E+03  0.59912464207E+01  0.10113471836E+04  0.12699999809E+01 0.  1.
</event>
<event>
 5   0  0.5527286E-07  0.2400055E+04  0.7818609E-02  0.8439483E-01
       -1   -1    0    0    0  501  0.00000000000E+00  0.00000000000E+00  0.79640884696E+03  0.79640884697E+03  0.50400001928E-02 0.  1.
        1   -1    0    0  501    0  0.00000000000E+00  0.00000000000E+00 -0.18081995474E+04  0.18081995474E+04  0.50400001928E-02 0. -1.
    10030    2    1    2    0    0  0.00000000000E+00  0.00000000000E+00 -0.10117907005E+04  0.26046083944E+04  0.24000550966E+04 0.  0.
        1    1    3    3  502    0 -0.74879369360E+03  0.12384640337E+03  0.50286311148E+03  0.91044013319E+03  0.50400001928E-02 0.  1.
       -1    1    3    3    0  502  0.74879369360E+03 -0.12384640337E+03 -0.15146538120E+04  0.16941682612E+04  0.50400001928E-02 0. -1.
</event>
<event>
 5   0  0.1307477E-06  0.2399771E+04  0.7818609E-02  0.8439589E-01
       -2   -1    0    0    0  501  0.00000000000E+00  0.00000000000E+00  0.85424949480E+03  0.85424949481E+03  0.25500000920E-02 0. -1.
        2   -1    0    0  501    0  0.00000000000E+00  0.00000000000E+00 -0.16853680428E+04  0.16853680428E+04  0.25500000920E-02 0.  1.
    10030    2    1    2    0    0  0.00000000000E+00  0.00000000000E+00 -0.83111854802E+03  0.25396175376E+04  0.23997706550E+04 0.  0.
        5    1    3    3  502    0  0.91349778927E+03 -0.71610276337E+02  0.40424299100E+03  0.10015192102E+04  0.46999998093E+01 0. -1.
       -5    1    3    3    0  502 -0.91349778927E+03  0.71610276337E+02 -0.12353615390E+04  0.15380983274E+04  0.46999998093E+01 0.  1.
</event>
<event>
 5   0  0.1275948E-06  0.2398871E+04  0.7818609E-02  0.8439926E-01
       -2   -1    0    0    0  501  0.00000000000E+00  0.00000000000E+00  0.92956654008E+03  0.92956654008E+03  0.25500000920E-02 0.  1.
        2   -1    0    0  501    0  0.00000000000E+00  0.00000000000E+00 -0.15476525893E+04  0.15476525893E+04  0.25500000920E-02 0. -1.
    10030    2    1    2    0    0  0.00000000000E+00  0.00000000000E+00 -0.61808604920E+03  0.24772191294E+04  0.23988714536E+04 0.  0.
        1    1    3    3  502    0 -0.49704308394E+03 -0.10548531603E+04 -0.19016130116E+02  0.11662455274E+04  0.50400001928E-02 0. -1.
       -1    1    3    3    0  502  0.49704308394E+03  0.10548531603E+04 -0.59906991909E+03  0.13109736019E+04  0.50400001928E-02 0.  1.
</event>
<event>
 5   0  0.1308662E-06  0.2401770E+04  0.7818609E-02  0.8438841E-01
       -2   -1    0    0    0  501  0.00000000000E+00  0.00000000000E+00  0.10071472530E+04  0.10071472530E+04  0.25500000920E-02 0.  1.
        2   -1    0    0  501    0  0.00000000000E+00  0.00000000000E+00 -0.14318905230E+04  0.14318905230E+04  0.25500000920E-02 0. -1.
    10030    2    1    2    0    0  0.00000000000E+00  0.00000000000E+00 -0.42474327000E+03  0.24390377760E+04  0.24017698531E+04 0.  0.
        3    1    3    3  502    0  0.69990957566E+03 -0.92045824351E+03 -0.54144893595E+03  0.12768256547E+04  0.10100000352E+00 0.  1.
       -3    1    3    3    0  502 -0.69990957566E+03  0.92045824351E+03  0.11670566594E+03  0.11622121213E+04  0.10100000352E+00 0. -1.
</event>
<event>
 5   0  0.5527286E-07  0.2399346E+04  0.7818609E-02  0.8439748E-01
       -1   -1    0    0    0  501  0.00000000000E+00  0.00000000000E+00  0.15562309505E+04  0.15562309505E+04  0.50400001928E-02 0. -1.
        1   -1    0    0  501    0  0.00000000000E+00  0.00000000000E+00 -0.92480821352E+03  0.92480821353E+03  0.50400001928E-02 0.  1.
    10030    2    1    2    0    0  0.00000000000E+00  0.00000000000E+00  0.63142273699E+03  0.24810391641E+04  0.23993458819E+04 0.  0.
        1    1    3    3  502    0  0.11923245014E+03  0.11233649376E+04  0.73325433191E+03  0.13467839750E+04  0.50400001928E-02 0. -1.
       -1    1    3    3    0  502 -0.11923245014E+03 -0.11233649376E+04 -0.10183159492E+03  0.11342551890E+04  0.50400001928E-02 0.  1.
</event>
<event>
 5   0  0.5690124E-07  0.2400742E+04  0.7818609E-02  0.8439226E-01
        1   -1    0    0  501    0  0.00000000000E+00  0.00000000000E+00  0.12673274270E+04  0.12673274270E+04  0.50400001928E-02 0.  1.
       -1   -1    0    0    0  501  0.00000000000E+00  0.00000000000E+00 -0.11369523101E+04  0.11369523101E+04  0.50400001928E-02 0. -1.
    10030    2    1    2    0    0  0.00000000000E+00  0.00000000000E+00  0.13037511695E+03  0.24042797371E+04  0.24007422567E+04 0.  0.
        2    1    3    3  502    0  0.63847135906E+03 -0.11843695082E+03  0.10762383459E+04  0.12569653793E+04  0.25500000920E-02 0.  1.
       -2    1    3    3    0  502 -0.63847135906E+03  0.11843695082E+03 -0.94586322896E+03  0.11473143578E+04  0.25500000920E-02 0. -1.
</event>
<event>
 5   0  0.1275948E-06  0.2399311E+04  0.7818609E-02  0.8439761E-01
       -2   -1    0    0    0  501  0.00000000000E+00  0.00000000000E+00  0.10347911003E+04  0.10347911003E+04  0.25500000920E-02 0. -1.
        2   -1    0    0  501    0  0.00000000000E+00  0.00000000000E+00 -0.13907867868E+04  0.13907867868E+04  0.25500000920E-02 0.  1.
    10030    2    1    2    0    0  0.00000000000E+00  0.00000000000E+00 -0.35599568642E+03  0.24255778871E+04  0.23993113924E+04 0.  0.
        1    1    3    3  502    0 -0.82830855516E+03 -0.79818653031E+03  0.16628432114E+03  0.11622595559E+04  0.50400001928E-02 0. -1.
       -1    1    3    3    0  502  0.82830855516E+03  0.79818653031E+03 -0.52228000756E+03  0.12633183312E+04  0.50400001928E-02 0.  1.
</event>
<event>
 5   0  0.1308662E-06  0.2399546E+04  0.7818609E-02  0.8439674E-01
        2   -1    0    0  501    0  0.00000000000E+00  0.00000000000E+00  0.15605961108E+04  0.15605961108E+04  0.25500000920E-02 0.  1.
       -2   -1    0    0    0  501  0.00000000000E+00  0.00000000000E+00 -0.92237498299E+03  0.92237498299E+03  0.25500000920E-02 0. -1.
    10030    2    1    2    0    0  0.00000000000E+00  0.00000000000E+00  0.63822112784E+03  0.24829710938E+04  0.23995456330E+04 0.  0.
        3    1    3    3  502    0 -0.80499660552E+03 -0.92958830363E+02 -0.59640635088E+03  0.10061617289E+04  0.10100000352E+00 0.  1.
       -3    1    3    3    0  502  0.80499660552E+03  0.92958830363E+02  0.12346274787E+04  0.14768093650E+04  0.10100000352E+00 0. -1.
</event>
<event>
 5   0  0.5452384E-07  0.2399682E+04  0.7818609E-02  0.8439623E-01
       -1   -1    0    0    0  501  0.00000000000E+00  0.00000000000E+00  0.10710710552E+04  0.10710710552E+04  0.50400001928E-02 0. -1.
        1   -1    0    0  501    0  0.00000000000E+00  0.00000000000E+00 -0.13440923652E+04  0.13440923653E+04  0.50400001928E-02 0.  1.
    10030    2    1    2    0    0  0.00000000000E+00  0.00000000000E+00 -0.27302131004E+03  0.24151634205E+04  0.23996820022E+04 0.  0.
        5    1    3    3  502    0 -0.62646384101E+02  0.27999669687E+03  0.10360262799E+04  0.10750326797E+04  0.46999998093E+01 0. -1.
       -5    1    3    3    0  502  0.62646384101E+02 -0.27999669687E+03 -0.13090475899E+04  0.13401307408E+04  0.46999998093E+01 0.  1.
</event>
<event>
 5   0  0.1308662E-06  0.2399903E+04  0.7818609E-02  0.8439540E-01
       -2   -1    0    0    0  501  0.00000000000E+00  0.00000000000E+00  0.17768322789E+04  0.17768322789E+04  0.25500000920E-02 0.  1.
        2   -1    0    0  501    0  0.00000000000E+00  0.00000000000E+00 -0.81036584301E+03  0.81036584301E+03  0.25500000920E-02 0. -1.
    10030    2    1    2    0    0  0.00000000000E+00  0.00000000000E+00  0.96646643588E+03  0.25871981219E+04  0.23999034877E+04 0.  0.
        3    1    3    3  502    0 -0.11744395364E+04  0.24607575205E+03  0.47809954088E+03  0.12916813390E+04  0.10100000352E+00 0. -1.
       -3    1    3    3    0  502  0.11744395364E+04 -0.24607575205E+03  0.48836689501E+03  0.12955167829E+04  0.10100000352E+00 0.  1.
</event>
<event>
 5   0  0.5363690E-07  0.2399549E+04  0.7818609E-02  0.8439672E-01
        1   -1    0    0  501    0  0.00000000000E+00  0.00000000000E+00  0.87194255482E+03  0.87194255484E+03  0.50400001928E-02 0.  1.
       -1   -1    0    0    0  501  0.00000000000E+00  0.00000000000E+00 -0.16508646182E+04  0.16508646182E+04  0.50400001928E-02 0. -1.
    10030    2    1    2    0    0  0.00000000000E+00  0.00000000000E+00 -0.77892206342E+03  0.25228071731E+04  0.23995492184E+04 0.  0.
        4    1    3    3  502    0 -0.97405297246E+03 -0.23591490944E+03 -0.10829031813E+04  0.14755053204E+04  0.12699999809E+01 0. -1.
       -4    1    3    3    0  502  0.97405297246E+03  0.23591490944E+03  0.30398111788E+03  0.10473018527E+04  0.12699999809E+01 0.  1.
</event>
<event>
 5   0  0.5363690E-07  0.2400567E+04  0.7818609E-02  0.8439291E-01
       -1   -1    0    0    0  501  0.00000000000E+00  0.00000000000E+00  0.13035750247E+04  0.13035750247E+04  0.50400001928E-02 0.  1.
        1   -1    0    0  501    0  0.00000000000E+00  0.00000000000E+00 -0.11051761044E+04  0.11051761045E+04  0.50400001928E-02 0. -1.
    10030    2    1    2    0    0  0.00000000000E+00  0.00000000000E+00  0.19839892022E+03  0.24087511291E+04  0.24005665728E+04 0.  0.
        4    1    3    3  502    0  0.34202972673E+03 -0.10688749740E+04  0.52632707040E+03  0.12395563085E+04  0.12699999809E+01 0.  1.
       -4    1    3    3    0  502 -0.34202972673E+03  0.10688749740E+04 -0.32792815018E+03  0.11691948206E+04  0.12699999809E+01 0. -1.
</event>
<event>
 5   0  0.1308662E-06  0.2400217E+04  0.7818609E-02  0.8439422E-01
        2   -1    0    0  501    0  0.00000000000E+00  0.00000000000E+00  0.16795203835E+04  0.16795203835E+04  0.25500000920E-02 0.  1.
       -2   -1    0    0    0  501  0.00000000000E+00  0.00000000000E+00 -0.85754302046E+03  0.85754302046E+03  0.25500000920E-02 0. -1.
    10030    2    1    2    0    0  0.00000000000E+00  0.00000000000E+00  0.82197736308E+03  0.25370634040E+04  0.24002174757E+04 0.  0.
        3    1    3    3  502    0 -0.28832737406E+03  0.86183462264E+03 -0.41751703434E+03  0.10001060322E+04  0.10100000352E+00 0. -1.
       -3    1    3    3    0  502  0.28832737406E+03 -0.86183462264E+03  0.12394943974E+04  0.15369573718E+04  0.10100000352E+00 0.  1.
</event>
<event>
 5   0  0.5510176E-07  0.2400433E+04  0.7818609E-02  0.8439341E-01
        1   -1    0    0  501    0  0.00000000000E+00  0.00000000000E+00  0.95673929353E+03  0.95673929354E+03  0.50400001928E-02 0.  1.
       -1   -1    0    0    0  501  0.00000000000E+00  0.00000000000E+00 -0.15056553905E+04  0.15056553906E+04  0.50400001928E-02 0. -1.
    10030    2    1    2    0    0  0.00000000000E+00  0.00000000000E+00 -0.54891609702E+03  0.24623946841E+04  0.24004330232E+04 0.  0.
        3    1    3    3  502    0  0.48913293926E+03  0.28750430712E+03 -0.13594022487E+04  0.14730526952E+04  0.10100000352E+00 0. -1.
       -3    1    3    3    0  502 -0.48913293926E+03 -0.28750430712E+03  0.81048615163E+03  0.98934198893E+03  0.10100000352E+00 0.  1.
</event>
<event>
 5   0  0.5527286E-07  0.2401632E+04  0.7818609E-02  0.8438893E-01
       -1   -1    0    0    0  501  0.00000000000E+00  0.00000000000E+00  0.76935154720E+03  0.76935154722E+03  0.50400001928E-02 0.  1.
        1   -1    0    0  501    0  0.00000000000E+00  0.00000000000E+00 -0.18742521297E+04  0.18742521297E+04  0.50400001928E-02 0. -1.
    10030    2    1    2    0    0  0.00000000000E+00  0.00000000000E+00 -0.11049005825E+04  0.26436036769E+04  0.24016317585E+04 0.  0.
        1    1    3    3  502    0 -0.90013068783E+03 -0.36326884861E+03  0.22571231265E+03  0.99656688670E+03  0.50400001928E-02 0.  1.
       -1    1    3    3    0  502  0.90013068783E+03  0.36326884861E+03 -0.13306128951E+04  0.16470367902E+04  0.50400001928E-02 0. -1.
</event>
<event>
 5   0  0.5363690E-07  0.2392463E+04  0.7818609E-02  0.8442331E-01
       -1   -1    0    0    0  501  0.00000000000E+00  0.00000000000E+00  0.10517177531E+04  0.10517177531E+04  0.50400001928E-02 0.  1.
        1   -1    0    0  501    0  0.00000000000E+00  0.00000000000E+00 -0.13606024191E+04  0.13606024191E+04  0.50400001928E-02 0. -1.
    10030    2    1    2    0    0  0.00000000000E+00  0.00000000000E+00 -0.30888466598E+03  0.24123201721E+04  0.23924629310E+04 0.  0.
        4    1    3    3  502    0 -0.47481967088E+03 -0.12037467492E+03  0.94595631087E+03  0.10652599388E+04  0.12699999809E+01 0.  1.
       -4    1    3    3    0  502  0.47481967088E+03  0.12037467492E+03 -0.12548409768E+04  0.13470602334E+04  0.12699999809E+01 0. -1.
</event>
<event>
 5   0  0.1336057E-06  0.2398607E+04  0.7818609E-02  0.8440025E-01
       -2   -1    0    0    0  501  0.00000000000E+00  0.00000000000E+00  0.10872933391E+04  0.10872933391E+04  0.25500000920E-02 0.  1.
        2   -1    0    0  501    0  0.00000000000E+00  0.00000000000E+00 -0.13228529005E+04  0.13228529005E+04  0.25500000920E-02 0. -1.
    10030    2    1    2    0    0  0.00000000000E+00  0.00000000000E+00 -0.23555956140E+03  0.24101462396E+04  0.23986072187E+04 0.  0.
        2    1    3    3  502    0 -0.10174609785E+03  0.48931447549E+03  0.97767047755E+03  0.10980075077E+04  0.25500000920E-02 0.  1.
       -2    1    3    3    0  502  0.10174609785E+03 -0.48931447549E+03 -0.12132300390E+04  0.13121387319E+04  0.25500000920E-02 0. -1.
</event>
<event>
 5   0  0.1336057E-06  0.2397476E+04  0.7818609E-02  0.8440449E-01
        2   -1    0    0  501    0  0.00000000000E+00  0.00000000000E+00  0.12498938998E+04  0.12498938998E+04  0.25500000920E-02 0.  1.
       -2   -1    0    0    0  501  0.00000000000E+00  0.00000000000E+00 -0.11496757968E+04  0.11496757968E+04  0.25500000920E-02 0. -1.
    10030    2    1    2    0    0  0.00000000000E+00  0.00000000000E+00  0.10021810303E+03  0.23995696967E+04  0.23974759771E+04 0.  0.
        2    1    3    3  502    0 -0.63501124826E+03 -0.30500996383E+03  0.10208542050E+04  0.12403280499E+04  0.25500000920E-02 0.  1.
       -2    1    3    3    0  502  0.63501124826E+03  0.30500996383E+03 -0.92063610195E+03  0.11592416468E+04  0.25500000920E-02 0. -1.
</event>
<event>
 5   0  0.1336057E-06  0.2400275E+04  0.7818609E-02  0.8439401E-01
        2   -1    0    0  501    0  0.00000000000E+00  0.00000000000E+00  0.11517099754E+04  0.11517099754E+04  0.25500000920E-02 0.  1.
       -2   -1    0    0    0  501  0.00000000000E+00  0.00000000000E+00 -0.12506014165E+04  0.12506014165E+04  0.25500000920E-02 0. -1.
    10030    2    1    2    0    0  0.00000000000E+00  0.00000000000E+00 -0.98891441082E+02  0.24023113919E+04  0.24002750898E+04 0.  0.
        2    1    3    3  502    0 -0.74883555747E+03 -0.75644249722E+03 -0.60432582154E+03  0.12239974029E+04  0.25500000920E-02 0. -1.
       -2    1    3    3    0  502  0.74883555747E+03  0.75644249722E+03  0.50543438045E+03  0.11783139890E+04  0.25500000920E-02 0.  1.
</event>
<event>
 5   0  0.5690124E-07  0.2399707E+04  0.7818609E-02  0.8439613E-01
       -1   -1    0    0    0  501  0.00000000000E+00  0.00000000000E+00  0.71644770694E+03  0.71644770696E+03  0.50400001928E-02 0.  1.
        1   -1    0    0  501    0  0.00000000000E+00  0.00000000000E+00 -0.20094261284E+04  0.20094261284E+04  0.50400001928E-02 0. -1.
    10030    2    1    2    0    0  0.00000000000E+00  0.00000000000E+00 -0.12929784214E+04  0.27258738353E+04  0.23997072671E+04 0.  0.
        2    1    3    3  502    0 -0.76239374233E+03 -0.92602866740E+03 -0.61287999400E+03  0.13469948768E+04  0.25500000920E-02 0. -1.
       -2    1    3    3    0  502  0.76239374233E+03  0.92602866740E+03 -0.68009842742E+03  0.13788789585E+04  0.25500000920E-02 0.  1.
</event>
<event>
 5   0  0.5363690E-07  0.2399665E+04  0.7818609E-02  0.8439629E-01
       -1   -1    0    0    0  501  0.00000000000E+00  0.00000000000E+00  0.79288149683E+03  0.79288149684E+03  0.50400001928E-02 0. -1.
        1   -1    0    0  501    0  0.00000000000E+00  0.00000000000E+00 -0.18156533005E+04  0.18156533005E+04  0.50400001928E-02 0.  1.
    10030    2    1    2    0    0  0.00000000000E+00  0.00000000000E+00 -0.10227718037E+04  0.26085347974E+04  0.23996648988E+04 0.  0.
        4    1    3    3  502    0  0.51055036275E+03 -0.56840623124E+03 -0.15170306817E+04  0.16985673430E+04  0.12699999809E+01 0.  1.
       -4    1    3    3    0  502 -0.51055036275E+03  0.56840623124E+03  0.49425887800E+03  0.90996745436E+03  0.12699999809E+01 0. -1.
</event>
<event>
 5   0  0.5510176E-07  0.2400755E+04  0.7818609E-02  0.8439221E-01
        1   -1    0    0  501    0  0.00000000000E+00  0.00000000000E+00  0.10011955722E+04  0.10011955722E+04  0.50400001928E-02 0. -1.
       -1   -1    0    0    0  501  0.00000000000E+00  0.00000000000E+00 -0.14391857352E+04  0.14391857352E+04  0.50400001928E-02 0.  1.
    10030    2    1    2    0    0  0.00000000000E+00  0.00000000000E+00 -0.43799016294E+03  0.24403813074E+04  0.24007552026E+04 0.  0.
        3    1    3    3  502    0  0.88179206934E+03 -0.32224441327E+03  0.54135365651E+03  0.10837262141E+04  0.10100000352E+00 0. -1.
       -3    1    3    3    0  502 -0.88179206934E+03  0.32224441327E+03 -0.97934381945E+03  0.13566550934E+04  0.10100000352E+00 0.  1.
</event>
<event>
 5   0  0.1307477E-06  0.2398938E+04  0.7818609E-02  0.8439901E-01
        2   -1    0    0  501    0  0.00000000000E+00  0.00000000000E+00  0.15242522355E+04  0.15242522355E+04  0.25500000920E-02 0. -1.
       -2   -1    0    0    0  501  0.00000000000E+00  0.00000000000E+00 -0.94388994650E+03  0.94388994651E+03  0.25500000920E-02 0.  1.
    10030    2    1    2    0    0  0.00000000000E+00  0.00000000000E+00  0.58036228903E+03  0.24681421820E+04  0.23989383994E+04 0.  0.
        5    1    3    3  502    0  0.10113483038E+04  0.61826049370E+03  0.47886418172E+03  0.12784382754E+04  0.46999998093E+01 0. -1.
       -5    1    3    3    0  502 -0.10113483038E+04 -0.61826049370E+03  0.10149810731E+03  0.11897039066E+04  0.46999998093E+01 0.  1.
</event>
<event>
 5   0  0.5363690E-07  0.2399961E+04  0.7818609E-02  0.8439518E-01
       -1   -1    0    0    0  501  0.00000000000E+00  0.00000000000E+00  0.73234591708E+03  0.73234591709E+03  0.50400001928E-02 0.  1.
        1   -1    0    0  501    0  0.00000000000E+00  0.00000000000E+00 -0.19662206018E+04  0.19662206018E+04  0.50400001928E-02 0. -1.
    10030    2    1    2    0    0  0.00000000000E+00  0.00000000000E+00 -0.12338746847E+04  0.26985665189E+04  0.23999613579E+04 0.  0.
        4    1    3    3  502    0 -0.84914868526E+03  0.56907110582E+03  0.89800817790E+02  0.10261389832E+04  0.12699999809E+01 0.  1.
       -4    1    3    3    0  502  0.84914868526E+03 -0.56907110582E+03 -0.13236755025E+04  0.16724275356E+04  0.12699999809E+01 0. -1.
</event>
<event>
 5   0  0.1307477E-06  0.2400611E+04  0.7818609E-02  0.8439275E-01
       -2   -1    0    0    0  501  0.00000000000E+00  0.00000000000E+00  0.18622318535E+04  0.18622318535E+04  0.25500000920E-02 0.  1.
        2   -1    0    0  501    0  0.00000000000E+00  0.00000000000E+00 -0.77365954380E+03  0.77365954381E+03  0.25500000920E-02 0. -1.
    10030    2    1    2    0    0  0.00000000000E+00  0.00000000000E+00  0.10885723097E+04  0.26358913973E+04  0.24006111274E+04 0.  0.
        5    1    3    3  502    0 -0.29360720005E+03  0.26859250164E+03 -0.69911537295E+03  0.80444484867E+03  0.46999998093E+01 0. -1.
       -5    1    3    3    0  502  0.29360720005E+03 -0.26859250164E+03  0.17876876827E+04  0.18314465487E+04  0.46999998093E+01 0.  1.
</event>
<event>
 5   0  0.5363690E-07  0.2400153E+04  0.7818609E-02  0.8439446E-01
       -1   -1    0    0    0  501  0.00000000000E+00  0.00000000000E+00  0.70905515234E+03  0.70905515236E+03  0.50400001928E-02 0.  1.
        1   -1    0    0  501    0  0.00000000000E+00  0.00000000000E+00 -0.20311305540E+04  0.20311305540E+04  0.50400001928E-02 0. -1.
    10030    2    1    2    0    0  0.00000000000E+00  0.00000000000E+00 -0.13220754017E+04  0.27401857064E+04  0.24001529822E+04 0.  0.
        4    1    3    3  502    0 -0.98705810894E+03 -0.52405351102E+03 -0.16173931353E+03  0.11291930797E+04  0.12699999809E+01 0.  1.
       -4    1    3    3    0  502  0.98705810894E+03  0.52405351102E+03 -0.11603360881E+04  0.16109926267E+04  0.12699999809E+01 0. -1.
</event>
<event>
 5   0  0.5452384E-07  0.2402323E+04  0.7818609E-02  0.8438634E-01
        1   -1    0    0  501    0  0.00000000000E+00  0.00000000000E+00  0.12505774155E+04  0.12505774155E+04  0.50400001928E-02 0. -1.
       -1   -1    0    0    0  501  0.00000000000E+00  0.00000000000E+00 -0.11536986730E+04  0.11536986731E+04  0.50400001928E-02 0.  1.
    10030    2    1    2    0    0  0.00000000000E+00  0.00000000000E+00  0.96878742449E+02  0.24042760886E+04  0.24023234627E+04 0.  0.
        5    1    3    3  502    0 -0.39331929034E+03  0.94999433077E+03 -0.57301471258E+03  0.11770969559E+04  0.46999998093E+01 0.  1.
       -5    1    3    3    0  502  0.39331929034E+03 -0.94999433077E+03  0.66989345503E+03  0.12271791327E+04  0.46999998093E+01 0. -1.
</event>
<event>
 5   0  0.5510176E-07  0.2402326E+04  0.7818609E-02  0.8438633E-01
        1   -1    0    0  501    0  0.00000000000E+00  0.00000000000E+00  0.97492427943E+03  0.97492427944E+03  0.50400001928E-02 0. -1.
       -1   -1    0    0    0  501  0.00000000000E+00  0.00000000000E+00 -0.14799026660E+04  0.14799026660E+04  0.50400001928E-02 0.  1.
    10030    2    1    2    0    0  0.00000000000E+00  0.00000000000E+00 -0.50497838657E+03  0.24548269455E+04  0.24023264061E+04 0.  0.
        3    1    3    3  502    0 -0.39515687368E+03  0.23737685128E+03 -0.13859166438E+04  0.14605689570E+04  0.10100000352E+00 0.  1.
       -3    1    3    3    0  502  0.39515687368E+03 -0.23737685128E+03  0.88093825724E+03  0.99425798846E+03  0.10100000352E+00 0. -1.
</event>
<event>
 5   0  0.5510176E-07  0.2400496E+04  0.7818609E-02  0.8439318E-01
        1   -1    0    0  501    0  0.00000000000E+00  0.00000000000E+00  0.12392013469E+04  0.12392013469E+04  0.50400001928E-02 0. -1.
       -1   -1    0    0    0  501  0.00000000000E+00  0.00000000000E+00 -0.11625195326E+04  0.11625195326E+04  0.50400001928E-02 0.  1.
    10030    2    1    2    0    0  0.00000000000E+00  0.00000000000E+00  0.76681814356E+02  0.24017208795E+04  0.24004964242E+04 0.  0.
        3    1    3    3  502    0 -0.11246152492E+04  0.36458294871E+03 -0.16892550944E+03  0.11942428661E+04  0.10100000352E+00 0. -1.
       -3    1    3    3    0  502  0.11246152492E+04 -0.36458294871E+03  0.24560732380E+03  0.12074780134E+04  0.10100000352E+00 0.  1.
</event>
<event>
 5   0  0.1291468E-06  0.2399012E+04  0.7818609E-02  0.8439874E-01
       -2   -1    0    0    0  501  0.00000000000E+00  0.00000000000E+00  0.62638196966E+03  0.62638196966E+03  0.25500000920E-02 0.  1.
        2   -1    0    0  501    0  0.00000000000E+00  0.00000000000E+00 -0.22970242061E+04  0.22970242061E+04  0.25500000920E-02 0. -1.
    10030    2    1    2    0    0  0.00000000000E+00  0.00000000000E+00 -0.16706422365E+04  0.29234061758E+04  0.23990119188E+04 0.  0.
        4    1    3    3  502    0 -0.62363137644E+03  0.98117953738E+03 -0.47551044451E+03  0.12560816749E+04  0.12699999809E+01 0.  1.
       -4    1    3    3    0  502  0.62363137644E+03 -0.98117953738E+03 -0.11951317920E+04  0.16673245009E+04  0.12699999809E+01 0. -1.
</event>
<event>
 5   0  0.1336057E-06  0.2399716E+04  0.7818609E-02  0.8439610E-01
        2   -1    0    0  501    0  0.00000000000E+00  0.00000000000E+00  0.10864751389E+04  0.10864751389E+04  0.25500000920E-02 0. -1.
       -2   -1    0    0    0  501  0.00000000000E+00  0.00000000000E+00 -0.13250729847E+04  0.13250729847E+04  0.25500000920E-02 0.  1.
    10030    2    1    2    0    0  0.00000000000E+00  0.00000000000E+00 -0.23859784578E+03  0.24115481236E+04  0.23997156957E+04 0.  0.
        2    1    3    3  502    0  0.44703934254E+03  0.51884925876E+03  0.87075431895E+03  0.11078184919E+04  0.25500000920E-02 0. -1.
       -2    1    3    3    0  502 -0.44703934254E+03 -0.51884925876E+03 -0.11093521647E+04  0.13037296317E+04  0.25500000920E-02 0.  1.
</event>
<event>
 5   0  0.5510176E-07  0.2399860E+04  0.7818609E-02  0.8439556E-01
       -1   -1    0    0    0  501  0.00000000000E+00  0.00000000000E+00  0.87475842878E+03  0.87475842880E+03  0.50400001928E-02 0. -1.
        1   -1    0    0  501    0  0.00000000000E+00  0.00000000000E+00 -0.16459773115E+04  0.16459773115E+04  0.50400001928E-02 0.  1.
    10030    2    1    2    0    0  0.00000000000E+00  0.00000000000E+00 -0.77121888272E+03  0.25207357403E+04  0.23998604350E+04 0.  0.
        3    1    3    3  502    0  0.10493945225E+04 -0.48087909528E+03 -0.72976949279E+03  0.13656636083E+04  0.10100000352E+00 0.  1.
       -3    1    3    3    0  502 -0.10493945225E+04  0.48087909528E+03 -0.41449389931E+02  0.11550721321E+04  0.10100000352E+00 0. -1.
</event>
<event>
 5   0  0.1308662E-06  0.2407215E+04  0.7818609E-02  0.8436807E-01
       -2   -1    0    0    0  501  0.00000000000E+00  0.00000000000E+00  0.11617088530E+04  0.11617088530E+04  0.25500000920E-02 0. -1.
        2   -1    0    0  501    0  0.00000000000E+00  0.00000000000E+00 -0.12470175236E+04  0.12470175236E+04  0.25500000920E-02 0.  1.
    10030    2    1    2    0    0  0.00000000000E+00  0.00000000000E+00 -0.85308670654E+02  0.24087263766E+04  0.24072152351E+04 0.  0.
        3    1    3    3  502    0 -0.59702974445E+03  0.18049251955E+02 -0.10882509682E+04  0.12413945671E+04  0.10100000352E+00 0.  1.
       -3    1    3    3    0  502  0.59702974445E+03 -0.18049251955E+02  0.10029422975E+04  0.11673318096E+04  0.10100000352E+00 0. -1.
</event>
<event>
 5   0  0.5527286E-07  0.2400331E+04  0.7818609E-02  0.8439380E-01
        1   -1    0    0  501    0  0.00000000000E+00  0.00000000000E+00  0.27422322591E+04  0.27422322591E+04  0.50400001928E-02 0.  1.
       -1   -1    0    0    0  501  0.00000000000E+00  0.00000000000E+00 -0.52526448746E+03  0.52526448748E+03  0.50400001928E-02 0. -1.
    10030    2    1    2    0    0  0.00000000000E+00  0.00000000000E+00  0.22169677717E+04  0.32674967466E+04  0.24003309956E+04 0.  0.
        1    1    3    3  502    0 -0.75971978571E+03 -0.90681276050E+03  0.83313816072E+03  0.14469287233E+04  0.50400001928E-02 0. -1.
       -1    1    3    3    0  502  0.75971978571E+03  0.90681276050E+03  0.13838296110E+04  0.18205680233E+04  0.50400001928E-02 0.  1.
</event>
<event>
 5   0  0.5363690E-07  0.2399281E+04  0.7818609E-02  0.8439773E-01
       -1   -1    0    0    0  501  0.00000000000E+00  0.00000000000E+00  0.99370118448E+03  0.99370118450E+03  0.50400001928E-02 0. -1.
        1   -1    0    0  501    0  0.00000000000E+00  0.00000000000E+00 -0.14482597201E+04  0.14482597201E+04  0.50400001928E-02 0.  1.
    10030    2    1    2    0    0  0.00000000000E+00  0.00000000000E+00 -0.45455853559E+03  0.24419609046E+04  0.23992810584E+04 0.  0.
        4    1    3    3  502    0  0.85318678516E+03 -0.71523581347E+03  0.22748643083E+03  0.11363281429E+04  0.12699999809E+01 0. -1.
       -4    1    3    3    0  502 -0.85318678516E+03  0.71523581347E+03 -0.68204496642E+03  0.13056327617E+04  0.12699999809E+01 0.  1.
</event>
<event>
 5   0  0.5452384E-07  0.2400473E+04  0.7818609E-02  0.8439327E-01
       -1   -1    0    0    0  501  0.00000000000E+00  0.00000000000E+00  0.71365434568E+03  0.71365434570E+03  0.50400001928E-02 0. -1.
        1   -1    0    0  501    0  0.00000000000E+00  0.00000000000E+00 -0.20185789411E+04  0.20185789411E+04  0.50400001928E-02 0.  1.
    10030    2    1    2    0    0  0.00000000000E+00  0.00000000000E+00 -0.13049245954E+04  0.27322332868E+04  0.24004729813E+04 0.  0.
        5    1    3    3  502    0  0.73063135589E+03 -0.23509906776E+03  0.39780776962E+03  0.86450382384E+03  0.46999998093E+01 0. -1.
       -5    1    3    3    0  502 -0.73063135589E+03  0.23509906776E+03 -0.17027323650E+04  0.18677294630E+04  0.46999998093E+01 0.  1.
</event>
<event>
 5   0  0.1308662E-06  0.2410468E+04  0.7818609E-02  0.8435595E-01
        2   -1    0    0  501    0  0.00000000000E+00  0.00000000000E+00  0.22241178500E+04  0.22241178500E+04  0.25500000920E-02 0. -1.
       -2   -1    0    0    0  501  0.00000000000E+00  0.00000000000E+00 -0.65310780530E+03  0.65310780530E+03  0.25500000920E-02 0.  1.
    10030    2    1    2    0    0  0.00000000000E+00  0.00000000000E+00  0.15710100447E+04  0.28772256553E+04  0.24104677785E+04 0.  0.
        3    1    3    3  502    0  0.69590842890E+03  0.83521851114E+03  0.16445738298E+03  0.10995111385E+04  0.10100000352E+00 0.  1.
       -3    1    3    3    0  502 -0.69590842890E+03 -0.83521851114E+03  0.14065526618E+04  0.17777145168E+04  0.10100000352E+00 0. -1.
</event>
<event>
 5   0  0.5527286E-07  0.2400215E+04  0.7818609E-02  0.8439423E-01
       -1   -1    0    0    0  501  0.00000000000E+00  0.00000000000E+00  0.88347276326E+03  0.88347276327E+03  0.50400001928E-02 0.  1.
        1   -1    0    0  501    0  0.00000000000E+00  0.00000000000E+00 -0.16302232098E+04  0.16302232098E+04  0.50400001928E-02 0. -1.
    10030    2    1    2    0    0  0.00000000000E+00  0.00000000000E+00 -0.74675044651E+03  0.25136959730E+04  0.24002148270E+04 0.  0.
        1    1    3    3  502    0 -0.83442270856E+02  0.47671977907E+03 -0.15234929856E+04  0.15985165740E+04  0.50400001928E-02 0. -1.
       -1    1    3    3    0  502  0.83442270856E+02 -0.47671977907E+03  0.77674253908E+03  0.91517939900E+03  0.50400001928E-02 0.  1.
</event>
<event>
 5   0  0.1275948E-06  0.2398149E+04  0.7818609E-02  0.8440197E-01
       -2   -1    0    0    0  501  0.00000000000E+00  0.00000000000E+00  0.93949152313E+03  0.93949152314E+03  0.25500000920E-02 0. -1.
        2   -1    0    0  501    0  0.00000000000E+00  0.00000000000E+00 -0.15303800445E+04  0.15303800445E+04  0.25500000920E-02 0.  1.
    10030    2    1    2    0    0  0.00000000000E+00  0.00000000000E+00 -0.59088852137E+03  0.24698715676E+04  0.23981485183E+04 0.  0.
        1    1    3    3  502    0 -0.43662730430E+03  0.79681026013E+03 -0.11012962346E+04  0.14277266510E+04  0.50400001928E-02 0.  1.
       -1    1    3    3    0  502  0.43662730430E+03 -0.79681026013E+03  0.51040771326E+03  0.10421449166E+04  0.50400001928E-02 0. -1.
</event>
<event>
 5   0  0.5363690E-07  0.2399641E+04  0.7818609E-02  0.8439638E-01
       -1   -1    0    0    0  501  0.00000000000E+00  0.00000000000E+00  0.10661958450E+04  0.10661958450E+04  0.50400001928E-02 0. -1.
        1   -1    0    0  501    0  0.00000000000E+00  0.00000000000E+00 -0.13501916772E+04  0.13501916772E+04  0.50400001928E-02 0.  1.
    10030    2    1    2    0    0  0.00000000000E+00  0.00000000000E+00 -0.28399583225E+03  0.24163875222E+04  0.23996406033E+04 0.  0.
        4    1    3    3  502    0 -0.33892601083E+03 -0.23626820713E+03 -0.12763021934E+04  0.13415075133E+04  0.12699999809E+01 0.  1.
       -4    1    3    3    0  502  0.33892601083E+03  0.23626820713E+03  0.99230636110E+03  0.10748800090E+04  0.12699999809E+01 0. -1.
</event>
<event>
 5   0  0.5452384E-07  0.2402715E+04  0.7818609E-02  0.8438488E-01
        1   -1    0    0  501    0  0.00000000000E+00  0.00000000000E+00  0.19160635950E+04  0.19160635950E+04  0.50400001928E-02 0. -1.
       -1   -1    0    0    0  501  0.00000000000E+00  0.00000000000E+00 -0.75324238281E+03  0.75324238283E+03  0.50400001928E-02 0.  1.
    10030    2    1    2    0    0  0.00000000000E+00  0.00000000000E+00  0.11628212122E+04  0.26693059778E+04  0.24027153872E+04 0.  0.
        5    1    3    3  502    0  0.10642015318E+04 -0.48096752464E+03  0.89442283775E+03  0.14710095047E+04  0.46999998093E+01 0. -1.
       -5    1    3    3    0  502 -0.10642015318E+04  0.48096752464E+03  0.26839837442E+03  0.11982964731E+04  0.46999998093E+01 0.  1.
</event>
<event>
 5   0  0.5690124E-07  0.2397480E+04  0.7818609E-02  0.8440448E-01
        1   -1    0    0  501    0  0.00000000000E+00  0.00000000000E+00  0.15149033885E+04  0.15149033885E+04  0.50400001928E-02 0. -1.
       -1   -1    0    0    0  501  0.00000000000E+00  0.00000000000E+00 -0.94856055123E+03  0.94856055125E+03  0.50400001928E-02 0.  1.
    10030    2    1    2    0    0  0.00000000000E+00  0.00000000000E+00  0.56634283728E+03  0.24634639398E+04  0.23974800048E+04 0.  0.
        2    1    3    3  502    0  0.11385783795E+04 -0.10846236911E+03 -0.85668667255E+02  0.11469367604E+04  0.25500000920E-02 0.  1.
       -2    1    3    3    0  502 -0.11385783795E+04  0.10846236911E+03  0.65201150454E+03  0.13165271793E+04  0.25500000920E-02 0. -1.
</event>
<event>
 5   0  0.5363690E-07  0.2399528E+04  0.7818609E-02  0.8439680E-01
        1   -1    0    0  501    0  0.00000000000E+00  0.00000000000E+00  0.15161373837E+04  0.15161373837E+04  0.50400001928E-02 0. -1.
       -1   -1    0    0    0  501  0.00000000000E+00  0.00000000000E+00 -0.94940813190E+03  0.94940813191E+03  0.50400001928E-02 0.  1.
    10030    2    1    2    0    0  0.00000000000E+00  0.00000000000E+00  0.56672925175E+03  0.24655455156E+04  0.23995275878E+04 0.  0.
        4    1    3    3  502    0  0.84196608581E+03  0.79047375339E+03  0.61738677213E+03  0.13095509474E+04  0.12699999809E+01 0.  1.
       -4    1    3    3    0  502 -0.84196608581E+03 -0.79047375339E+03 -0.50657520381E+02  0.11559945682E+04  0.12699999809E+01 0. -1.
</event>
<event>
 5   0  0.5452384E-07  0.2387648E+04  0.7818609E-02  0.8444142E-01
        1   -1    0    0  501    0  0.00000000000E+00  0.00000000000E+00  0.27726664653E+04  0.27726664654E+04  0.50400001928E-02 0. -1.
       -1   -1    0    0    0  501  0.00000000000E+00  0.00000000000E+00 -0.51402347129E+03  0.51402347132E+03  0.50400001928E-02 0.  1.
    10030    2    1    2    0    0  0.00000000000E+00  0.00000000000E+00  0.22586429941E+04  0.32866899367E+04  0.23876479148E+04 0.  0.
        5    1    3    3  502    0  0.84757057043E+03  0.61678763324E+03  0.34289645558E+03  0.11029065806E+04  0.46999998093E+01 0.  1.
       -5    1    3    3    0  502 -0.84757057043E+03 -0.61678763324E+03  0.19157465385E+04  0.21837833560E+04  0.46999998093E+01 0. -1.
</event>
<event>
 5   0  0.1336057E-06  0.2400306E+04  0.7818609E-02  0.8439389E-01
       -2   -1    0    0    0  501  0.00000000000E+00  0.00000000000E+00  0.95675174290E+03  0.95675174290E+03  0.25500000920E-02 0. -1.
        2   -1    0    0  501    0  0.00000000000E+00  0.00000000000E+00 -0.15054760565E+04  0.15054760565E+04  0.25500000920E-02 0.  1.
    10030    2    1    2    0    0  0.00000000000E+00  0.00000000000E+00 -0.54872431356E+03  0.24622277994E+04  0.24003056813E+04 0.  0.
        2    1    3    3  502    0 -0.34500734279E+03  0.72394098723E+03  0.64155862283E+03  0.10269946865E+04  0.25500000920E-02 0. -1.
       -2    1    3    3    0  502  0.34500734279E+03 -0.72394098723E+03 -0.11902829364E+04  0.14352331129E+04  0.25500000920E-02 0.  1.
</event>
<event>
 5   0  0.5527286E-07  0.2399861E+04  0.7818609E-02  0.8439555E-01
       -1   -1    0    0    0  501  0.00000000000E+00  0.00000000000E+00  0.11856885095E+04  0.11856885095E+04  0.50400001928E-02 0.  1.
        1   -1    0    0  501    0  0.00000000000E+00  0.00000000000E+00 -0.12143440418E+04  0.12143440418E+04  0.50400001928E-02 0. -1.
    10030    2    1    2    0    0  0.00000000000E+00  0.00000000000E+00 -0.28655532214E+02  0.24000325513E+04  0.23998614768E+04 0.  0.
        1    1    3    3  502    0 -0.61237002507E+03  0.84001562855E+02  0.10142300982E+04  0.11877356618E+04  0.50400001928E-02 0.  1.
       -1    1    3    3    0  502  0.61237002507E+03 -0.84001562855E+02 -0.10428856304E+04  0.12122968895E+04  0.50400001928E-02 0. -1.
</event>
<event>
 5   0  0.5527286E-07  0.2397682E+04  0.7818609E-02  0.8440372E-01
        1   -1    0    0  501    0  0.00000000000E+00  0.00000000000E+00  0.88138352172E+03  0.88138352174E+03  0.50400001928E-02 0. -1.
       -1   -1    0    0    0  501  0.00000000000E+00  0.00000000000E+00 -0.16306409980E+04  0.16306409980E+04  0.50400001928E-02 0.  1.
    10030    2    1    2    0    0  0.00000000000E+00  0.00000000000E+00 -0.74925747631E+03  0.25120245198E+04  0.23976823022E+04 0.  0.
        1    1    3    3  502    0  0.26764926052E+03  0.11685765418E+04 -0.37087386428E+03  0.12548922998E+04  0.50400001928E-02 0. -1.
       -1    1    3    3    0  502 -0.26764926052E+03 -0.11685765418E+04 -0.37838361202E+03  0.12571322200E+04  0.50400001928E-02 0.  1.
</event>
<event>
 5   0  0.5527286E-07  0.2399749E+04  0.7818609E-02  0.8439598E-01
       -1   -1    0    0    0  501  0.00000000000E+00  0.00000000000E+00  0.11395531223E+04  0.11395531223E+04  0.50400001928E-02 0.  1.
        1   -1    0    0  501    0  0.00000000000E+00  0.00000000000E+00 -0.12633884439E+04  0.12633884439E+04  0.50400001928E-02 0. -1.
    10030    2    1    2    0    0  0.00000000000E+00  0.00000000000E+00 -0.12383532161E+03  0.24029415663E+04  0.23997485251E+04 0.  0.
        1    1    3    3  502    0  0.70024583948E+03  0.68723127923E+03 -0.75353718723E+03  0.12371133171E+04  0.50400001928E-02 0. -1.
       -1    1    3    3    0  502 -0.70024583948E+03 -0.68723127923E+03  0.62970186562E+03  0.11658282491E+04  0.50400001928E-02 0.  1.
</event>
<event>
 5   0  0.1291468E-06  0.2400113E+04  0.7818609E-02  0.8439461E-01
       -2   -1    0    0    0  501  0.00000000000E+00  0.00000000000E+00  0.76690914941E+03  0.76690914941E+03  0.25500000920E-02 0. -1.
        2   -1    0    0  501    0  0.00000000000E+00  0.00000000000E+00 -0.18778432776E+04  0.18778432776E+04  0.25500000920E-02 0.  1.
    10030    2    1    2    0    0  0.00000000000E+00  0.00000000000E+00 -0.11109341282E+04  0.26447524270E+04  0.24001126563E+04 0.  0.
        4    1    3    3  502    0  0.79025725449E+03  0.15447246676E+03  0.42504204179E+03  0.91051118689E+03  0.12699999809E+01 0. -1.
       -4    1    3    3    0  502 -0.79025725449E+03 -0.15447246676E+03 -0.15359761700E+04  0.17342412401E+04  0.12699999809E+01 0.  1.
</event>
<event>
 5   0  0.5510176E-07  0.2398796E+04  0.7818609E-02  0.8439954E-01
        1   -1    0    0  501    0  0.00000000000E+00  0.00000000000E+00  0.17448118605E+04  0.17448118605E+04  0.50400001928E-02 0.  1.
       -1   -1    0    0    0  501  0.00000000000E+00  0.00000000000E+00 -0.82447602938E+03  0.82447602940E+03  0.50400001928E-02 0. -1.
    10030    2    1    2    0    0  0.00000000000E+00  0.00000000000E+00  0.92033583107E+03  0.25692878899E+04  0.23987959936E+04 0.  0.
        3    1    3    3  502    0 -0.44369022411E+03 -0.22368639527E+03  0.16293857745E+04  0.17034654768E+04  0.10100000352E+00 0.  1.
       -3    1    3    3    0  502  0.44369022411E+03  0.22368639527E+03 -0.70904994344E+03  0.86582241302E+03  0.10100000352E+00 0. -1.
</event>
<event>
 5   0  0.1291468E-06  0.2399234E+04  0.7818609E-02  0.8439790E-01
       -2   -1    0    0    0  501  0.00000000000E+00  0.00000000000E+00  0.89681733213E+03  0.89681733214E+03  0.25500000920E-02 0. -1.
        2   -1    0    0  501    0  0.00000000000E+00  0.00000000000E+00 -0.16046530234E+04  0.16046530234E+04  0.25500000920E-02 0.  1.
    10030    2    1    2    0    0  0.00000000000E+00  0.00000000000E+00 -0.70783569126E+03  0.25014703555E+04  0.23992337472E+04 0.  0.
        4    1    3    3  502    0 -0.82448426524E+03  0.29567163748E+03 -0.12085311086E+04  0.14925632564E+04  0.12699999809E+01 0.  1.
       -4    1    3    3    0  502  0.82448426524E+03 -0.29567163748E+03  0.50069541738E+03  0.10089070992E+04  0.12699999809E+01 0. -1.
</event>
<event>
 5   0  0.1308662E-06  0.2401082E+04  0.7818609E-02  0.8439098E-01
       -2   -1    0    0    0  501  0.00000000000E+00  0.00000000000E+00  0.14948786458E+04  0.14948786458E+04  0.25500000920E-02 0.  1.
        2   -1    0    0  501    0  0.00000000000E+00  0.00000000000E+00 -0.96415785955E+03  0.96415785955E+03  0.25500000920E-02 0. -1.
    10030    2    1    2    0    0  0.00000000000E+00  0.00000000000E+00  0.53072078627E+03  0.24590365054E+04  0.24010822522E+04 0.  0.
        3    1    3    3  502    0 -0.83212550037E+03 -0.10141557376E+03  0.11455110338E+04  0.14194764900E+04  0.10100000352E+00 0.  1.
       -3    1    3    3    0  502  0.83212550037E+03  0.10141557376E+03 -0.61479024750E+03  0.10395600154E+04  0.10100000352E+00 0. -1.
</event>
<event>
 5   0  0.1275948E-06  0.2399364E+04  0.7818609E-02  0.8439742E-01
        2   -1    0    0  501    0  0.00000000000E+00  0.00000000000E+00  0.14611113770E+04  0.14611113770E+04  0.25500000920E-02 0. -1.
       -2   -1    0    0    0  501  0.00000000000E+00  0.00000000000E+00 -0.98502882684E+03  0.98502882685E+03  0.25500000920E-02 0.  1.
    10030    2    1    2    0    0  0.00000000000E+00  0.00000000000E+00  0.47608255016E+03  0.24461402038E+04  0.23993639370E+04 0.  0.
        1    1    3    3  502    0 -0.27503642044E+03  0.48379085538E+03  0.13215581520E+04  0.14339506872E+04  0.50400001928E-02 0. -1.
       -1    1    3    3    0  502  0.27503642044E+03 -0.48379085538E+03 -0.84547560180E+03  0.10121895166E+04  0.50400001928E-02 0.  1.
</event>
<event>
 5   0  0.1291468E-06  0.2399381E+04  0.7818609E-02  0.8439735E-01
        2   -1    0    0  501    0  0.00000000000E+00  0.00000000000E+00  0.16192949591E+04  0.16192949591E+04  0.25500000920E-02 0.  1.
       -2   -1    0    0    0  501  0.00000000000E+00  0.00000000000E+00 -0.88881753622E+03  0.88881753622E+03  0.25500000920E-02 0. -1.
    10030    2    1    2    0    0  0.00000000000E+00  0.00000000000E+00  0.73047742286E+03  0.25081124953E+04  0.23993813836E+04 0.  0.
        4    1    3    3  502    0  0.99052002510E+03  0.55269907929E+03 -0.43171000547E+02  0.11351086030E+04  0.12699999809E+01 0. -1.
       -4    1    3    3    0  502 -0.99052002510E+03 -0.55269907929E+03  0.77364842340E+03  0.13730038923E+04  0.12699999809E+01 0.  1.
</event>
<event>
 5   0  0.5510176E-07  0.2400190E+04  0.7818609E-02  0.8439432E-01
        1   -1    0    0  501    0  0.00000000000E+00  0.00000000000E+00  0.18123007839E+04  0.18123007839E+04  0.50400001928E-02 0. -1.
       -1   -1    0    0    0  501  0.00000000000E+00  0.00000000000E+00 -0.79469613510E+03  0.79469613512E+03  0.50400001928E-02 0.  1.
    10030    2    1    2    0    0  0.00000000000E+00  0.00000000000E+00  0.10176046488E+04  0.26069969190E+04  0.24001903496E+04 0.  0.
        3    1    3    3  502    0  0.38108392015E+03  0.79136163053E+03  0.13970351237E+04  0.16502076632E+04  0.10100000352E+00 0. -1.
       -3    1    3    3    0  502 -0.38108392015E+03 -0.79136163053E+03 -0.37943047498E+03  0.95678925580E+03  0.10100000352E+00 0.  1.
</event>
<event>
 5   0  0.1308662E-06  0.2397980E+04  0.7818609E-02  0.8440260E-01
        2   -1    0    0  501    0  0.00000000000E+00  0.00000000000E+00  0.92147882167E+03  0.92147882167E+03  0.25500000920E-02 0. -1.
       -2   -1    0    0    0  501  0.00000000000E+00  0.00000000000E+00 -0.15600764810E+04  0.15600764810E+04  0.25500000920E-02 0.  1.
    10030    2    1    2    0    0  0.00000000000E+00  0.00000000000E+00 -0.63859765931E+03  0.24815553026E+04  0.23979803480E+04 0.  0.
        3    1    3    3  502    0 -0.96246118317E+01 -0.41856766191E+03 -0.14819708066E+04  0.15399769487E+04  0.10100000352E+00 0.  1.
       -3    1    3    3    0  502  0.96246118317E+01  0.41856766191E+03  0.84337314731E+03  0.94157835391E+03  0.10100000352E+00 0. -1.
</event>
<event>
 5   0  0.5510176E-07  0.2400772E+04  0.7818609E-02  0.8439215E-01
       -1   -1    0    0    0  501  0.00000000000E+00  0.00000000000E+00  0.14309122871E+04  0.14309122871E+04  0.50400001928E-02 0.  1.
        1   -1    0    0  501    0  0.00000000000E+00  0.00000000000E+00 -0.10069984966E+04  0.10069984966E+04  0.50400001928E-02 0. -1.
    10030    2    1    2    0    0  0.00000000000E+00  0.00000000000E+00  0.42391379056E+03  0.24379107837E+04  0.24007719774E+04 0.  0.
        3    1    3    3  502    0  0.52925761303E+03 -0.98487950019E+03 -0.23163625104E+03  0.11418216209E+04  0.10100000352E+00 0. -1.
       -3    1    3    3    0  502 -0.52925761303E+03  0.98487950019E+03  0.65555004160E+03  0.12960891629E+04  0.10100000352E+00 0.  1.
</event>
<event>
 5   0  0.1291468E-06  0.2400708E+04  0.7818609E-02  0.8439239E-01
       -2   -1    0    0    0  501  0.00000000000E+00  0.00000000000E+00  0.93946317935E+03  0.93946317935E+03  0.25500000920E-02 0. -1.
        2   -1    0    0  501    0  0.00000000000E+00  0.00000000000E+00 -0.15336944521E+04  0.15336944521E+04  0.25500000920E-02 0.  1.
    10030    2    1    2    0    0  0.00000000000E+00  0.00000000000E+00 -0.59423127277E+03  0.24731576315E+04  0.24007077841E+04 0.  0.
        4    1    3    3  502    0 -0.11304065417E+04  0.25966805890E+03  0.21410174411E+02  0.11600458865E+04  0.12699999809E+01 0. -1.
       -4    1    3    3    0  502  0.11304065417E+04 -0.25966805890E+03 -0.61564144718E+03  0.13131117450E+04  0.12699999809E+01 0.  1.
</event>
<event>
 5   0  0.1336057E-06  0.2400528E+04  0.7818609E-02  0.8439306E-01
        2   -1    0    0  501    0  0.00000000000E+00  0.00000000000E+00  0.29496961912E+04  0.29496961912E+04  0.25500000920E-02 0. -1.
       -2   -1    0    0    0  501  0.00000000000E+00  0.00000000000E+00 -0.48840079854E+03  0.48840079855E+03  0.25500000920E-02 0.  1.
    10030    2    1    2    0    0  0.00000000000E+00  0.00000000000E+00  0.24612953926E+04  0.34380969897E+04  0.24005282546E+04 0.  0.
        2    1    3    3  502    0 -0.11567906730E+04  0.27976963327E+03  0.10078537279E+04  0.15595527711E+04  0.25500000920E-02 0. -1.
       -2    1    3    3    0  502  0.11567906730E+04 -0.27976963327E+03  0.14534416647E+04  0.18785442186E+04  0.25500000920E-02 0.  1.
</event>
<event>
 5   0  0.1275948E-06  0.2399681E+04  0.7818609E-02  0.8439623E-01
       -2   -1    0    0    0  501  0.00000000000E+00  0.00000000000E+00  0.48260284161E+03  0.48260284162E+03  0.25500000920E-02 0.  1.
        2   -1    0    0  501    0  0.00000000000E+00  0.00000000000E+00 -0.29830255888E+04  0.29830255888E+04  0.25500000920E-02 0. -1.
    10030    2    1    2    0    0  0.00000000000E+00  0.00000000000E+00 -0.25004227471E+04  0.34656284304E+04  0.23996805002E+04 0.  0.
        1    1    3    3  502    0 -0.22066834759E+03  0.44833851156E+03 -0.28255955806E+04  0.28694411173E+04  0.50400001928E-02 0. -1.
       -1    1    3    3    0  502  0.22066834759E+03 -0.44833851156E+03  0.32517283348E+03  0.59618731304E+03  0.50400001928E-02 0.  1.
</event>
<event>
 5   0  0.1308662E-06  0.2399844E+04  0.7818609E-02  0.8439562E-01
       -2   -1    0    0    0  501  0.00000000000E+00  0.00000000000E+00  0.80337011364E+03  0.80337011364E+03  0.25500000920E-02 0. -1.
        2   -1    0    0  501    0  0.00000000000E+00  0.00000000000E+00 -0.17922158955E+04  0.17922158955E+04  0.25500000920E-02 0.  1.
    10030    2    1    2    0    0  0.00000000000E+00  0.00000000000E+00 -0.98884578185E+03  0.25955860091E+04  0.23998439013E+04 0.  0.
        3    1    3    3  502    0  0.52003317911E+03  0.41870532283E+03 -0.15727725584E+04  0.17086141125E+04  0.10100000352E+00 0.  1.
       -3    1    3    3    0  502 -0.52003317911E+03 -0.41870532283E+03  0.58392677659E+03  0.88697189660E+03  0.10100000352E+00 0. -1.
</event>
<event>
 5   0  0.1336057E-06  0.2400770E+04  0.7818609E-02  0.8439215E-01
       -2   -1    0    0    0  501  0.00000000000E+00  0.00000000000E+00  0.12142541967E+04  0.12142541967E+04  0.25500000920E-02 0. -1.
        2   -1    0    0  501    0  0.00000000000E+00  0.00000000000E+00 -0.11866744405E+04  0.11866744405E+04  0.25500000920E-02 0.  1.
    10030    2    1    2    0    0  0.00000000000E+00  0.00000000000E+00  0.27579756165E+02  0.24009286372E+04  0.24007702260E+04 0.  0.
        2    1    3    3  502    0  0.22571722650E+03  0.92104366476E+03  0.74981039660E+03  0.12089190749E+04  0.25500000920E-02 0. -1.
       -2    1    3    3    0  502 -0.22571722650E+03 -0.92104366476E+03 -0.72223064044E+03  0.11920095623E+04  0.25500000920E-02 0.  1.
</event>
<event>
 5   0  0.5690124E-07  0.2397998E+04  0.7818609E-02  0.8440254E-01
        1   -1    0    0  501    0  0.00000000000E+00  0.00000000000E+00  0.20444789349E+04  0.20444789349E+04  0.50400001928E-02 0.  1.
       -1   -1    0    0    0  501  0.00000000000E+00  0.00000000000E+00 -0.70316128934E+03  0.70316128936E+03  0.50400001928E-02 0. -1.
    10030    2    1    2    0    0  0.00000000000E+00  0.00000000000E+00  0.13413176455E+04  0.27476402242E+04  0.23979978681E+04 0.  0.
        2    1    3    3  502    0 -0.43205501412E+03  0.96033763487E+03  0.13762630121E+02  0.10531425916E+04  0.25500000920E-02 0. -1.
       -2    1    3    3    0  502  0.43205501412E+03 -0.96033763487E+03  0.13275550154E+04  0.16944976327E+04  0.25500000920E-02 0.  1.
</event>
<event>
 5   0  0.5690124E-07  0.2400303E+04  0.7818609E-02  0.8439390E-01
       -1   -1    0    0    0  501  0.00000000000E+00  0.00000000000E+00  0.95019848268E+03  0.95019848270E+03  0.50400001928E-02 0.  1.
        1   -1    0    0  501    0  0.00000000000E+00  0.00000000000E+00 -0.15158561392E+04  0.15158561392E+04  0.50400001928E-02 0. -1.
    10030    2    1    2    0    0  0.00000000000E+00  0.00000000000E+00 -0.56565765647E+03  0.24660546219E+04  0.24003034837E+04 0.  0.
        2    1    3    3  502    0 -0.69053457521E+03 -0.79839266308E+03 -0.86951904403E+03  0.13676008964E+04  0.25500000920E-02 0. -1.
       -2    1    3    3    0  502  0.69053457521E+03  0.79839266308E+03  0.30386138756E+03  0.10984537254E+04  0.25500000920E-02 0.  1.
</event>
<event>
 5   0  0.5363690E-07  0.2399595E+04  0.7818609E-02  0.8439655E-01
        1   -1    0    0  501    0  0.00000000000E+00  0.00000000000E+00  0.99978213982E+03  0.99978213983E+03  0.50400001928E-02 0. -1.
       -1   -1    0    0    0  501  0.00000000000E+00  0.00000000000E+00 -0.14398275498E+04  0.14398275498E+04  0.50400001928E-02 0.  1.
    10030    2    1    2    0    0  0.00000000000E+00  0.00000000000E+00 -0.44004540997E+03  0.24396096896E+04  0.23995948564E+04 0.  0.
        4    1    3    3  502    0 -0.14816974655E+03  0.61592974288E+03 -0.12559291648E+04  0.14066568174E+04  0.12699999809E+01 0.  1.
       -4    1    3    3    0  502  0.14816974655E+03 -0.61592974288E+03  0.81588375485E+03  0.10329528722E+04  0.12699999809E+01 0. -1.
</event>
<event>
 5   0  0.5452384E-07  0.2398697E+04  0.7818609E-02  0.8439992E-01
       -1   -1    0    0    0  501  0.00000000000E+00  0.00000000000E+00  0.10540688894E+04  0.10540688894E+04  0.50400001928E-02 0. -1.
        1   -1    0    0  501    0  0.00000000000E+00  0.00000000000E+00 -0.13646512044E+04  0.13646512044E+04  0.50400001928E-02 0.  1.
    10030    2    1    2    0    0  0.00000000000E+00  0.00000000000E+00 -0.31058231505E+03  0.24187200938E+04  0.23986966290E+04 0.  0.
        5    1    3    3  502    0  0.90250822409E+03 -0.38517379413E+03 -0.85063759099E+03  0.12986478920E+04  0.46999998093E+01 0.  1.
       -5    1    3    3    0  502 -0.90250822409E+03  0.38517379413E+03  0.54005527593E+03  0.11200722018E+04  0.46999998093E+01 0. -1.
</event>
<event>
 5   0  0.5452384E-07  0.2398040E+04  0.7818609E-02  0.8440238E-01
        1   -1    0    0  501    0  0.00000000000E+00  0.00000000000E+00  0.11936289575E+04  0.11936289575E+04  0.50400001928E-02 0. -1.
       -1   -1    0    0    0  501  0.00000000000E+00  0.00000000000E+00 -0.12044349875E+04  0.12044349875E+04  0.50400001928E-02 0.  1.
    10030    2    1    2    0    0  0.00000000000E+00  0.00000000000E+00 -0.10806029982E+02  0.23980639450E+04  0.23980395981E+04 0.  0.
        5    1    3    3  502    0  0.62323324671E+03  0.10026166283E+04 -0.21508729706E+03  0.11999768408E+04  0.46999998093E+01 0. -1.
       -5    1    3    3    0  502 -0.62323324671E+03 -0.10026166283E+04  0.20428126708E+03  0.11980871042E+04  0.46999998093E+01 0.  1.
</event>
<event>
 5   0  0.1308662E-06  0.2396432E+04  0.7818609E-02  0.8440840E-01
       -2   -1    0    0    0  501  0.00000000000E+00  0.00000000000E+00  0.89777225280E+03  0.89777225280E+03  0.25500000920E-02 0.  1.
        2   -1    0    0  501    0  0.00000000000E+00  0.00000000000E+00 -0.15992050955E+04  0.15992050955E+04  0.25500000920E-02 0. -1.
    10030    2    1    2    0    0  0.00000000000E+00  0.00000000000E+00 -0.70143284269E+03  0.24969773483E+04  0.23964323160E+04 0.  0.
        3    1    3    3  502    0  0.58449021757E+03  0.90454674361E+03 -0.89800463660E+03  0.14022289269E+04  0.10100000352E+00 0.  1.
       -3    1    3    3    0  502 -0.58449021757E+03 -0.90454674361E+03  0.19657179391E+03  0.10947484214E+04  0.10100000352E+00 0. -1.
</event>
<event>
 5   0  0.1308662E-06  0.2399133E+04  0.7818609E-02  0.8439828E-01
       -2   -1    0    0    0  501  0.00000000000E+00  0.00000000000E+00  0.98853430474E+03  0.98853430475E+03  0.25500000920E-02 0.  1.
        2   -1    0    0  501    0  0.00000000000E+00  0.00000000000E+00 -0.14556500305E+04  0.14556500305E+04  0.25500000920E-02 0. -1.
    10030    2    1    2    0    0  0.00000000000E+00  0.00000000000E+00 -0.46711572578E+03  0.24441843353E+04  0.23991331692E+04 0.  0.
        3    1    3    3  502    0  0.10259819572E+04 -0.55972721547E+03  0.41750682023E+02  0.11694770891E+04  0.10100000352E+00 0.  1.
       -3    1    3    3    0  502 -0.10259819572E+04  0.55972721547E+03 -0.50886640780E+03  0.12747072462E+04  0.10100000352E+00 0. -1.
</event>
<event>
 5   0  0.5452384E-07  0.2397799E+04  0.7818609E-02  0.8440328E-01
       -1   -1    0    0    0  501  0.00000000000E+00  0.00000000000E+00  0.99312232288E+03  0.99312232289E+03  0.50400001928E-02 0. -1.
        1   -1    0    0  501    0  0.00000000000E+00  0.00000000000E+00 -0.14473144472E+04  0.14473144472E+04  0.50400001928E-02 0.  1.
    10030    2    1    2    0    0  0.00000000000E+00  0.00000000000E+00 -0.45419212435E+03  0.24404367701E+04  0.23977992291E+04 0.  0.
        5    1    3    3  502    0  0.50350415537E+03 -0.10467751097E+04 -0.52916241227E+03  0.12764362551E+04  0.46999998093E+01 0.  1.
       -5    1    3    3    0  502 -0.50350415537E+03  0.10467751097E+04  0.74970287915E+02  0.11640005150E+04  0.46999998093E+01 0. -1.
</event>
<event>
 5   0  0.1275948E-06  0.2402662E+04  0.7818609E-02  0.8438508E-01
        2   -1    0    0  501    0  0.00000000000E+00  0.00000000000E+00  0.11353746607E+04  0.11353746607E+04  0.25500000920E-02 0. -1.
       -2   -1    0    0    0  501  0.00000000000E+00  0.00000000000E+00 -0.12711189682E+04  0.12711189682E+04  0.25500000920E-02 0.  1.
    10030    2    1    2    0    0  0.00000000000E+00  0.00000000000E+00 -0.13574430746E+03  0.24064936290E+04  0.24026620797E+04 0.  0.
        1    1    3    3  502    0 -0.24997910315E+03  0.40343242898E+03  0.10374950426E+04  0.11408958060E+04  0.50400001928E-02 0. -1.
       -1    1    3    3    0  502  0.24997910315E+03 -0.40343242898E+03 -0.11732393501E+04  0.12655978229E+04  0.50400001928E-02 0.  1.
</event>
<event>
 5   0  0.5690124E-07  0.2399679E+04  0.7818609E-02  0.8439624E-01
       -1   -1    0    0    0  501  0.00000000000E+00  0.00000000000E+00  0.89926254619E+03  0.89926254620E+03  0.50400001928E-02 0.  1.
        1   -1    0    0  501    0  0.00000000000E+00  0.00000000000E+00 -0.16008842256E+04  0.16008842256E+04  0.50400001928E-02 0. -1.
    10030    2    1    2    0    0  0.00000000000E+00  0.00000000000E+00 -0.70162167939E+03  0.25001467718E+04  0.23996793326E+04 0.  0.
        2    1    3    3  502    0 -0.11211625078E+04 -0.23458931622E+03 -0.72294513234E+03  0.13545062497E+04  0.25500000920E-02 0.  1.
       -2    1    3    3    0  502  0.11211625078E+04  0.23458931622E+03  0.21323452942E+02  0.11456405221E+04  0.25500000920E-02 0. -1.
</event>
<event>
 5   0  0.1308662E-06  0.2400345E+04  0.7818609E-02  0.8439374E-01
        2   -1    0    0  501    0  0.00000000000E+00  0.00000000000E+00  0.14536996954E+04  0.14536996954E+04  0.25500000920E-02 0.  1.
       -2   -1    0    0    0  501  0.00000000000E+00  0.00000000000E+00 -0.99086103610E+03  0.99086103610E+03  0.25500000920E-02 0. -1.
    10030    2    1    2    0    0  0.00000000000E+00  0.00000000000E+00  0.46283865930E+03  0.24445607315E+04  0.24003452971E+04 0.  0.
        3    1    3    3  502    0  0.48402091278E+03 -0.30499897779E+02  0.13494612645E+04  0.14339638079E+04  0.10100000352E+00 0.  1.
       -3    1    3    3    0  502 -0.48402091278E+03  0.30499897779E+02 -0.88662260519E+03  0.10105969236E+04  0.10100000352E+00 0. -1.
</event>
<event>
 5   0  0.1291468E-06  0.2399883E+04  0.7818609E-02  0.8439548E-01
       -2   -1    0    0    0  501  0.00000000000E+00  0.00000000000E+00  0.86595797057E+03  0.86595797057E+03  0.25500000920E-02 0. -1.
        2   -1    0    0  501    0  0.00000000000E+00  0.00000000000E+00 -0.16627354901E+04  0.16627354901E+04  0.25500000920E-02 0.  1.
    10030    2    1    2    0    0  0.00000000000E+00  0.00000000000E+00 -0.79677751950E+03  0.25286934606E+04  0.23998825393E+04 0.  0.
        4    1    3    3  502    0 -0.44318027079E+02 -0.10638917729E+04  0.18450114020E+03  0.10806813016E+04  0.12699999809E+01 0. -1.
       -4    1    3    3    0  502  0.44318027079E+02  0.10638917729E+04 -0.98127865971E+03  0.14480121591E+04  0.12699999809E+01 0.  1.
</event>
<event>
 5   0  0.1307477E-06  0.2402335E+04  0.7818609E-02  0.8438630E-01
        2   -1    0    0  501    0  0.00000000000E+00  0.00000000000E+00  0.12304418147E+04  0.12304418147E+04  0.25500000920E-02 0. -1.
       -2   -1    0    0    0  501  0.00000000000E+00  0.00000000000E+00 -0.11725900549E+04  0.11725900549E+04  0.25500000920E-02 0.  1.
    10030    2    1    2    0    0  0.00000000000E+00  0.00000000000E+00  0.57851759762E+02  0.24030318696E+04  0.24023353929E+04 0.  0.
        5    1    3    3  502    0 -0.13731539378E+03  0.11684332472E+04 -0.21340449348E+03  0.11956819553E+04  0.46999998093E+01 0.  1.
       -5    1    3    3    0  502  0.13731539378E+03 -0.11684332472E+04  0.27125625325E+03  0.12073499142E+04  0.46999998093E+01 0. -1.
</event>
<event>
 5   0  0.5527286E-07  0.2400386E+04  0.7818609E-02  0.8439359E-01
        1   -1    0    0  501    0  0.00000000000E+00  0.00000000000E+00  0.11965588363E+04  0.11965588363E+04  0.50400001928E-02 0.  1.
       -1   -1    0    0    0  501  0.00000000000E+00  0.00000000000E+00 -0.12038382169E+04  0.12038382169E+04  0.50400001928E-02 0. -1.
    10030    2    1    2    0    0  0.00000000000E+00  0.00000000000E+00 -0.72793805599E+01  0.24003970532E+04  0.24003860156E+04 0.  0.
        1    1    3    3  502    0  0.54304195872E+01 -0.92315035102E+02 -0.12002703223E+04  0.12038273970E+04  0.50400001928E-02 0. -1.
       -1    1    3    3    0  502 -0.54304195872E+01  0.92315035102E+02  0.11929909417E+04  0.11965696562E+04  0.50400001928E-02 0.  1.
</event>
<event>
 5   0  0.5510176E-07  0.2399691E+04  0.7818609E-02  0.8439619E-01
        1   -1    0    0  501    0  0.00000000000E+00  0.00000000000E+00  0.77766936994E+03  0.77766936995E+03  0.50400001928E-02 0.  1.
       -1   -1    0    0    0  501  0.00000000000E+00  0.00000000000E+00 -0.18512095879E+04  0.18512095879E+04  0.50400001928E-02 0. -1.
    10030    2    1    2    0    0  0.00000000000E+00  0.00000000000E+00 -0.10735402180E+04  0.26288789579E+04  0.23996908083E+04 0.  0.
        3    1    3    3  502    0 -0.55466523357E+03 -0.55007739113E+03  0.46091797451E+03  0.90701932008E+03  0.10100000352E+00 0.  1.
       -3    1    3    3    0  502  0.55466523357E+03  0.55007739113E+03 -0.15344581925E+04  0.17218596378E+04  0.10100000352E+00 0. -1.
</event>
<event>
 5   0  0.5363690E-07  0.2399979E+04  0.7818609E-02  0.8439511E-01
       -1   -1    0    0    0  501  0.00000000000E+00  0.00000000000E+00  0.58262754841E+03  0.58262754843E+03  0.50400001928E-02 0. -1.
        1   -1    0    0  501    0  0.00000000000E+00  0.00000000000E+00 -0.24715195299E+04  0.24715195299E+04  0.50400001928E-02 0.  1.
    10030    2    1    2    0    0  0.00000000000E+00  0.00000000000E+00 -0.18888919815E+04  0.30541470783E+04  0.23999794704E+04 0.  0.
        4    1    3    3  502    0  0.86885191926E+03  0.82388604136E+03 -0.84358402939E+03  0.14646936520E+04  0.12699999809E+01 0.  1.
       -4    1    3    3    0  502 -0.86885191926E+03 -0.82388604136E+03 -0.10453079521E+04  0.15894534263E+04  0.12699999809E+01 0. -1.
</event>
<event>
 5   0  0.5452384E-07  0.2395512E+04  0.7818609E-02  0.8441186E-01
       -1   -1    0    0    0  501  0.00000000000E+00  0.00000000000E+00  0.56484401840E+03  0.56484401842E+03  0.50400001928E-02 0. -1.
        1   -1    0    0  501    0  0.00000000000E+00  0.00000000000E+00 -0.25398512432E+04  0.25398512432E+04  0.50400001928E-02 0.  1.
    10030    2    1    2    0    0  0.00000000000E+00  0.00000000000E+00 -0.19750072248E+04  0.31046952617E+04  0.23955122896E+04 0.  0.
        5    1    3    3  502    0  0.10644049146E+04 -0.54877425714E+03 -0.95891161436E+03  0.15341592426E+04  0.46999998093E+01 0.  1.
       -5    1    3    3    0  502 -0.10644049146E+04  0.54877425714E+03 -0.10160956105E+04  0.15705360191E+04  0.46999998093E+01 0. -1.
</event>
<event>
 5   0  0.1308662E-06  0.2399782E+04  0.7818609E-02  0.8439585E-01
       -2   -1    0    0    0  501  0.00000000000E+00  0.00000000000E+00  0.78042371599E+03  0.78042371599E+03  0.25500000920E-02 0. -1.
        2   -1    0    0  501    0  0.00000000000E+00  0.00000000000E+00 -0.18448166311E+04  0.18448166311E+04  0.25500000920E-02 0.  1.
    10030    2    1    2    0    0  0.00000000000E+00  0.00000000000E+00 -0.10643929151E+04  0.26252403471E+04  0.23997821989E+04 0.  0.
        3    1    3    3  502    0  0.44967189507E+03 -0.97871245497E+03 -0.11107041329E+04  0.15471737342E+04  0.10100000352E+00 0.  1.
       -3    1    3    3    0  502 -0.44967189507E+03  0.97871245497E+03  0.46311217815E+02  0.10780666129E+04  0.10100000352E+00 0. -1.
</event>
<event>
 5   0  0.5690124E-07  0.2395808E+04  0.7818609E-02  0.8441075E-01
        1   -1    0    0  501    0  0.00000000000E+00  0.00000000000E+00  0.13927070789E+04  0.13927070789E+04  0.50400001928E-02 0. -1.
       -1   -1    0    0    0  501  0.00000000000E+00  0.00000000000E+00 -0.10303487218E+04  0.10303487218E+04  0.50400001928E-02 0.  1.
    10030    2    1    2    0    0  0.00000000000E+00  0.00000000000E+00  0.36235835715E+03  0.24230558007E+04  0.23958079711E+04 0.  0.
        2    1    3    3  502    0  0.11851084536E+04  0.14197714641E+03  0.28399360996E+03  0.12269033896E+04  0.25500000920E-02 0. -1.
       -2    1    3    3    0  502 -0.11851084536E+04 -0.14197714641E+03  0.78364747197E+02  0.11961524111E+04  0.25500000920E-02 0.  1.
</event>
<event>
 5   0  0.5363690E-07  0.2399950E+04  0.7818609E-02  0.8439522E-01
        1   -1    0    0  501    0  0.00000000000E+00  0.00000000000E+00  0.18053229196E+04  0.18053229196E+04  0.50400001928E-02 0.  1.
       -1   -1    0    0    0  501  0.00000000000E+00  0.00000000000E+00 -0.79760774090E+03  0.79760774092E+03  0.50400001928E-02 0. -1.
    10030    2    1    2    0    0  0.00000000000E+00  0.00000000000E+00  0.10077151787E+04  0.26029306605E+04  0.23999496124E+04 0.  0.
        4    1    3    3  502    0  0.10125962199E+04 -0.40874621127E+03 -0.35727316117E+02  0.10925669882E+04  0.12699999809E+01 0. -1.
       -4    1    3    3    0  502 -0.10125962199E+04  0.40874621127E+03  0.10434424948E+04  0.15103636723E+04  0.12699999809E+01 0.  1.
</event>
<event>
 5   0  0.5510176E-07  0.2398512E+04  0.7818609E-02  0.8440061E-01
        1   -1    0    0  501    0  0.00000000000E+00  0.00000000000E+00  0.20479352236E+04  0.20479352236E+04  0.50400001928E-02 0.  1.
       -1   -1    0    0    0  501  0.00000000000E+00  0.00000000000E+00 -0.70227574996E+03  0.70227574997E+03  0.50400001928E-02 0. -1.
    10030    2    1    2    0    0  0.00000000000E+00  0.00000000000E+00  0.13456594736E+04  0.27502109736E+04  0.23985122431E+04 0.  0.
        3    1    3    3  502    0 -0.79164236482E+03 -0.77998367735E+03  0.15602668400E+03  0.11222372775E+04  0.10100000352E+00 0. -1.
       -3    1    3    3    0  502  0.79164236482E+03  0.77998367735E+03  0.11896327896E+04  0.16279736961E+04  0.10100000352E+00 0.  1.
</event>
<event>
 5   0  0.5363690E-07  0.2395913E+04  0.7818609E-02  0.8441035E-01
       -1   -1    0    0    0  501  0.00000000000E+00  0.00000000000E+00  0.10014431886E+04  0.10014431886E+04  0.50400001928E-02 0. -1.
        1   -1    0    0  501    0  0.00000000000E+00  0.00000000000E+00 -0.14330319040E+04  0.14330319040E+04  0.50400001928E-02 0.  1.
    10030    2    1    2    0    0  0.00000000000E+00  0.00000000000E+00 -0.43158871541E+03  0.24344750927E+04  0.23959132200E+04 0.  0.
        4    1    3    3  502    0  0.78243982607E+03 -0.47186067553E+03  0.57142269435E+03  0.10776780999E+04  0.12699999809E+01 0. -1.
       -4    1    3    3    0  502 -0.78243982607E+03  0.47186067553E+03 -0.10030114098E+04  0.13567969928E+04  0.12699999809E+01 0.  1.
</event>
<event>
 5   0  0.1336057E-06  0.2396325E+04  0.7818609E-02  0.8440881E-01
        2   -1    0    0  501    0  0.00000000000E+00  0.00000000000E+00  0.16450754779E+04  0.16450754779E+04  0.25500000920E-02 0. -1.
       -2   -1    0    0    0  501  0.00000000000E+00  0.00000000000E+00 -0.87266080453E+03  0.87266080453E+03  0.25500000920E-02 0.  1.
    10030    2    1    2    0    0  0.00000000000E+00  0.00000000000E+00  0.77241467340E+03  0.25177362825E+04  0.23963245941E+04 0.  0.
        2    1    3    3  502    0  0.48906554751E+03 -0.10922683123E+04  0.44708899260E+03  0.12775459848E+04  0.25500000920E-02 0. -1.
       -2    1    3    3    0  502 -0.48906554751E+03  0.10922683123E+04  0.32532568080E+03  0.12401902977E+04  0.25500000920E-02 0.  1.
</event>
<event>
 5   0  0.1307477E-06  0.2400341E+04  0.7818609E-02  0.8439376E-01
        2   -1    0    0  501    0  0.00000000000E+00  0.00000000000E+00  0.10933758572E+04  0.10933758572E+04  0.25500000920E-02 0.  1.
       -2   -1    0    0    0  501  0.00000000000E+00  0.00000000000E+00 -0.13173966668E+04  0.13173966668E+04  0.25500000920E-02 0. -1.
    10030    2    1    2    0    0  0.00000000000E+00  0.00000000000E+00 -0.22402080960E+03  0.24107725240E+04  0.24003414006E+04 0.  0.
        5    1    3    3  502    0  0.92850370570E+03 -0.63674965959E+03 -0.52953124347E+03  0.12441843466E+04  0.46999998093E+01 0. -1.
       -5    1    3    3    0  502 -0.92850370570E+03  0.63674965959E+03  0.30551043387E+03  0.11665881774E+04  0.46999998093E+01 0.  1.
</event>
<event>
 5   0  0.1308662E-06  0.2399844E+04  0.7818609E-02  0.8439562E-01
       -2   -1    0    0    0  501  0.00000000000E+00  0.00000000000E+00  0.20386854720E+04  0.20386854720E+04  0.25500000920E-02 0. -1.
        2   -1    0    0  501    0  0.00000000000E+00  0.00000000000E+00 -0.70624552449E+03  0.70624552450E+03  0.25500000920E-02 0.  1.
    10030    2    1    2    0    0  0.00000000000E+00  0.00000000000E+00  0.13324399475E+04  0.27449309965E+04  0.23998437370E+04 0.  0.
        3    1    3    3  502    0 -0.60532649281E+03  0.34024718646E+03  0.17855187185E+04  0.19157936776E+04  0.10100000352E+00 0. -1.
       -3    1    3    3    0  502  0.60532649281E+03 -0.34024718646E+03 -0.45307877094E+03  0.82913731895E+03  0.10100000352E+00 0.  1.
</event>
<event>
 5   0  0.1307477E-06  0.2400697E+04  0.7818609E-02  0.8439243E-01
        2   -1    0    0  501    0  0.00000000000E+00  0.00000000000E+00  0.12178672120E+04  0.12178672120E+04  0.25500000920E-02 0. -1.
       -2   -1    0    0    0  501  0.00000000000E+00  0.00000000000E+00 -0.11830820689E+04  0.11830820689E+04  0.25500000920E-02 0.  1.
    10030    2    1    2    0    0  0.00000000000E+00  0.00000000000E+00  0.34785143129E+02  0.24009492809E+04  0.24006972827E+04 0.  0.
        5    1    3    3  502    0  0.29720063943E+03 -0.53588280056E+03 -0.10148573189E+04  0.11855193224E+04  0.46999998093E+01 0.  1.
       -5    1    3    3    0  502 -0.29720063943E+03  0.53588280056E+03  0.10496424620E+04  0.12154299585E+04  0.46999998093E+01 0. -1.
</event>
<event>
 5   0  0.5363690E-07  0.2399786E+04  0.7818609E-02  0.8439584E-01
        1   -1    0    0  501    0  0.00000000000E+00  0.00000000000E+00  0.11410729344E+04  0.11410729344E+04  0.50400001928E-02 0. -1.
       -1   -1    0    0    0  501  0.00000000000E+00  0.00000000000E+00 -0.12617451015E+04  0.12617451015E+04  0.50400001928E-02 0.  1.
    10030    2    1    2    0    0  0.00000000000E+00  0.00000000000E+00 -0.12067216716E+03  0.24028180359E+04  0.23997859783E+04 0.  0.
        4    1    3    3  502    0  0.11530539604E+04  0.90904751371E+02 -0.38002692400E+03  0.12174642439E+04  0.12699999809E+01 0.  1.
       -4    1    3    3    0  502 -0.11530539604E+04 -0.90904751371E+02  0.25935475684E+03  0.11853537920E+04  0.12699999809E+01 0. -1.
</event>
<event>
 5   0  0.5510176E-07  0.2399577E+04  0.7818609E-02  0.8439662E-01
        1   -1    0    0  501    0  0.00000000000E+00  0.00000000000E+00  0.86292134670E+03  0.86292134672E+03  0.50400001928E-02 0. -1.
       -1   -1    0    0    0  501  0.00000000000E+00  0.00000000000E+00 -0.16681623716E+04  0.16681623716E+04  0.50400001928E-02 0.  1.
    10030    2    1    2    0    0  0.00000000000E+00  0.00000000000E+00 -0.80524102488E+03  0.25310837183E+04  0.23995773963E+04 0.  0.
        3    1    3    3  502    0  0.37055170686E+03  0.27668754408E+03  0.76513290277E+03  0.89403184150E+03  0.10100000352E+00 0. -1.
       -3    1    3    3    0  502 -0.37055170686E+03 -0.27668754408E+03 -0.15703739277E+04  0.16370518768E+04  0.10100000352E+00 0.  1.
</event>
<event>
 5   0  0.5510176E-07  0.2400685E+04  0.7818609E-02  0.8439247E-01
        1   -1    0    0  501    0  0.00000000000E+00  0.00000000000E+00  0.93582614297E+03  0.93582614298E+03  0.50400001928E-02 0. -1.
       -1   -1    0    0    0  501  0.00000000000E+00  0.00000000000E+00 -0.15396255640E+04  0.15396255640E+04  0.50400001928E-02 0.  1.
    10030    2    1    2    0    0  0.00000000000E+00  0.00000000000E+00 -0.60379942104E+03  0.24754517070E+04  0.24006847800E+04 0.  0.
        3    1    3    3  502    0 -0.78431371403E+03  0.10462525965E+03 -0.12326334963E+04  0.14647456412E+04  0.10100000352E+00 0.  1.
       -3    1    3    3    0  502  0.78431371403E+03 -0.10462525965E+03  0.62883407529E+03  0.10107060658E+04  0.10100000352E+00 0. -1.
</event>
<event>
 5   0  0.5452384E-07  0.2400583E+04  0.7818609E-02  0.8439285E-01
        1   -1    0    0  501    0  0.00000000000E+00  0.00000000000E+00  0.18802995405E+04  0.18802995405E+04  0.50400001928E-02 0. -1.
       -1   -1    0    0    0  501  0.00000000000E+00  0.00000000000E+00 -0.76620765067E+03  0.76620765069E+03  0.50400001928E-02 0.  1.
    10030    2    1    2    0    0  0.00000000000E+00  0.00000000000E+00  0.11140918898E+04  0.26465071912E+04  0.24005831738E+04 0.  0.
        5    1    3    3  502    0  0.71288532717E+03  0.93612939135E+03  0.29584808653E+03  0.12132979466E+04  0.46999998093E+01 0.  1.
       -5    1    3    3    0  502 -0.71288532717E+03 -0.93612939135E+03  0.81824380331E+03  0.14332092446E+04  0.46999998093E+01 0. -1.
</event>
<event>
 5   0  0.1336057E-06  0.2399979E+04  0.7818609E-02  0.8439512E-01
        2   -1    0    0  501    0  0.00000000000E+00  0.00000000000E+00  0.20603616793E+04  0.20603616793E+04  0.25500000920E-02 0. -1.
       -2   -1    0    0    0  501  0.00000000000E+00  0.00000000000E+00 -0.69889403621E+03  0.69889403622E+03  0.25500000920E-02 0.  1.
    10030    2    1    2    0    0  0.00000000000E+00  0.00000000000E+00  0.13614676431E+04  0.27592557155E+04  0.23999787417E+04 0.  0.
        2    1    3    3  502    0 -0.13754935534E+03  0.62253696385E+03  0.18495340811E+04  0.19563354553E+04  0.25500000920E-02 0. -1.
       -2    1    3    3    0  502  0.13754935534E+03 -0.62253696385E+03 -0.48806643795E+03  0.80292026028E+03  0.25500000920E-02 0.  1.
</event>
<event>
 5   0  0.1308662E-06  0.2398496E+04  0.7818609E-02  0.8440067E-01
        2   -1    0    0  501    0  0.00000000000E+00  0.00000000000E+00  0.18610284264E+04  0.18610284264E+04  0.25500000920E-02 0. -1.
       -2   -1    0    0    0  501  0.00000000000E+00  0.00000000000E+00 -0.77279611372E+03  0.77279611372E+03  0.25500000920E-02 0.  1.
    10030    2    1    2    0    0  0.00000000000E+00  0.00000000000E+00  0.10882323126E+04  0.26338245401E+04  0.23984958081E+04 0.  0.
        3    1    3    3  502    0  0.32292178443E+02  0.68535096376E+03 -0.53597751537E+03  0.87064380518E+03  0.10100000352E+00 0.  1.
       -3    1    3    3    0  502 -0.32292178443E+02 -0.68535096376E+03  0.16242098280E+04  0.17631807349E+04  0.10100000352E+00 0. -1.
</event>
<event>
 5   0  0.1308662E-06  0.2400320E+04  0.7818609E-02  0.8439384E-01
        2   -1    0    0  501    0  0.00000000000E+00  0.00000000000E+00  0.15844703940E+04  0.15844703940E+04  0.25500000920E-02 0. -1.
       -2   -1    0    0    0  501  0.00000000000E+00  0.00000000000E+00 -0.90906367019E+03  0.90906367019E+03  0.25500000920E-02 0.  1.
    10030    2    1    2    0    0  0.00000000000E+00  0.00000000000E+00  0.67540672386E+03  0.24935340642E+04  0.24003203717E+04 0.  0.
        3    1    3    3  502    0  0.25994922632E+03 -0.32358856499E+03  0.15075342081E+04  0.15636312092E+04  0.10100000352E+00 0. -1.
       -3    1    3    3    0  502 -0.25994922632E+03  0.32358856499E+03 -0.83212748421E+03  0.92990285505E+03  0.10100000352E+00 0.  1.
</event>
<event>
 5   0  0.5690124E-07  0.2400140E+04  0.7818609E-02  0.8439451E-01
       -1   -1    0    0    0  501  0.00000000000E+00  0.00000000000E+00  0.13513992650E+04  0.13513992650E+04  0.50400001928E-02 0.  1.
        1   -1    0    0  501    0  0.00000000000E+00  0.00000000000E+00 -0.10656861374E+04  0.10656861374E+04  0.50400001928E-02 0. -1.
    10030    2    1    2    0    0  0.00000000000E+00  0.00000000000E+00  0.28571312758E+03  0.24170854025E+04  0.24001395483E+04 0.  0.
        2    1    3    3  502    0  0.52701982108E+03  0.51647691870E+03 -0.81022334291E+03  0.10958832806E+04  0.25500000920E-02 0. -1.
       -2    1    3    3    0  502 -0.52701982108E+03 -0.51647691870E+03  0.10959364705E+04  0.13212021218E+04  0.25500000920E-02 0.  1.
</event>
<event>
 5   0  0.1291468E-06  0.2400774E+04  0.7818609E-02  0.8439214E-01
       -2   -1    0    0    0  501  0.00000000000E+00  0.00000000000E+00  0.63446402401E+03  0.63446402402E+03  0.25500000920E-02 0. -1.
        2   -1    0    0  501    0  0.00000000000E+00  0.00000000000E+00 -0.22710962313E+04  0.22710962313E+04  0.25500000920E-02 0.  1.
    10030    2    1    2    0    0  0.00000000000E+00  0.00000000000E+00 -0.16366322073E+04  0.29055602553E+04  0.24007739201E+04 0.  0.
        4    1    3    3  502    0 -0.87748355867E+03  0.60046498800E+03 -0.14925857846E+04  0.18325800214E+04  0.12699999809E+01 0.  1.
       -4    1    3    3    0  502  0.87748355867E+03 -0.60046498800E+03 -0.14404642265E+03  0.10729802339E+04  0.12699999809E+01 0. -1.
</event>
<event>
 5   0  0.1308662E-06  0.2401496E+04  0.7818609E-02  0.8438944E-01
        2   -1    0    0  501    0  0.00000000000E+00  0.00000000000E+00  0.17230706431E+04  0.17230706431E+04  0.25500000920E-02 0.  1.
       -2   -1    0    0    0  501  0.00000000000E+00  0.00000000000E+00 -0.83675946186E+03  0.83675946186E+03  0.25500000920E-02 0. -1.
    10030    2    1    2    0    0  0.00000000000E+00  0.00000000000E+00  0.88631118127E+03  0.25598301050E+04  0.24014959205E+04 0.  0.
        3    1    3    3  502    0 -0.10911157062E+04  0.43305147939E+03  0.71224489094E+03  0.13730840699E+04  0.10100000352E+00 0.  1.
       -3    1    3    3    0  502  0.10911157062E+04 -0.43305147939E+03  0.17406629033E+03  0.11867460351E+04  0.10100000352E+00 0. -1.
</event>
<event>
 5   0  0.1308662E-06  0.2399002E+04  0.7818609E-02  0.8439877E-01
        2   -1    0    0  501    0  0.00000000000E+00  0.00000000000E+00  0.11702698007E+04  0.11702698007E+04  0.25500000920E-02 0.  1.
       -2   -1    0    0    0  501  0.00000000000E+00  0.00000000000E+00 -0.12294628360E+04  0.12294628360E+04  0.25500000920E-02 0. -1.
    10030    2    1    2    0    0  0.00000000000E+00  0.00000000000E+00 -0.59193035211E+02  0.23997326367E+04  0.23990024827E+04 0.  0.
        3    1    3    3  502    0 -0.23621550653E+03 -0.34380861776E+03 -0.11545725648E+04  0.12276155541E+04  0.10100000352E+00 0. -1.
       -3    1    3    3    0  502  0.23621550653E+03  0.34380861776E+03  0.10953795296E+04  0.11721170826E+04  0.10100000352E+00 0.  1.
</event>
<event>
 5   0  0.1308662E-06  0.2397904E+04  0.7818609E-02  0.8440289E-01
        2   -1    0    0  501    0  0.00000000000E+00  0.00000000000E+00  0.14676839880E+04  0.14676839880E+04  0.25500000920E-02 0. -1.
       -2   -1    0    0    0  501  0.00000000000E+00  0.00000000000E+00 -0.97942496898E+03  0.97942496898E+03  0.25500000920E-02 0.  1.
    10030    2    1    2    0    0  0.00000000000E+00  0.00000000000E+00  0.48825901900E+03  0.24471089570E+04  0.23979043721E+04 0.  0.
        3    1    3    3  502    0  0.77585794919E+03  0.84135569922E+03  0.60874421247E+03  0.12963041681E+04  0.10100000352E+00 0. -1.
       -3    1    3    3    0  502 -0.77585794919E+03 -0.84135569922E+03 -0.12048519346E+03  0.11508047888E+04  0.10100000352E+00 0.  1.
</event>
<event>
 5   0  0.1307477E-06  0.2400455E+04  0.7818609E-02  0.8439333E-01
        2   -1    0    0  501    0  0.00000000000E+00  0.00000000000E+00  0.20498084864E+04  0.20498084864E+04  0.25500000920E-02 0. -1.
       -2   -1    0    0    0  501  0.00000000000E+00  0.00000000000E+00 -0.70277110310E+03  0.70277110310E+03  0.25500000920E-02 0.  1.
    10030    2    1    2    0    0  0.00000000000E+00  0.00000000000E+00  0.13470373833E+04  0.27525795895E+04  0.24004550995E+04 0.  0.
        5    1    3    3  502    0  0.52145689097E+03 -0.19892105169E+03  0.18919482481E+04  0.19725559909E+04  0.46999998093E+01 0. -1.
       -5    1    3    3    0  502 -0.52145689097E+03  0.19892105169E+03 -0.54491086471E+03  0.78002359864E+03  0.46999998093E+01 0.  1.
</event>
<event>
 5   0  0.5510176E-07  0.2399362E+04  0.7818609E-02  0.8439742E-01
       -1   -1    0    0    0  501  0.00000000000E+00  0.00000000000E+00  0.81991913481E+03  0.81991913483E+03  0.50400001928E-02 0.  1.
        1   -1    0    0  501    0  0.00000000000E+00  0.00000000000E+00 -0.17553373827E+04  0.17553373827E+04  0.50400001928E-02 0. -1.
    10030    2    1    2    0    0  0.00000000000E+00  0.00000000000E+00 -0.93541824792E+03  0.25752565176E+04  0.23993621721E+04 0.  0.
        3    1    3    3  502    0  0.85129916052E+03  0.13609832541E+03  0.42771714766E+03  0.96237985405E+03  0.10100000352E+00 0.  1.
       -3    1    3    3    0  502 -0.85129916052E+03 -0.13609832541E+03 -0.13631353956E+04  0.16128766635E+04  0.10100000352E+00 0. -1.
</event>
<event>
 5   0  0.5690124E-07  0.2400334E+04  0.7818609E-02  0.8439379E-01
       -1   -1    0    0    0  501  0.00000000000E+00  0.00000000000E+00  0.99466505993E+03  0.99466505995E+03  0.50400001928E-02 0. -1.
        1   -1    0    0  501    0  0.00000000000E+00  0.00000000000E+00 -0.14481261742E+04  0.14481261742E+04  0.50400001928E-02 0.  1.
    10030    2    1    2    0    0  0.00000000000E+00  0.00000000000E+00 -0.45346111427E+03  0.24427912342E+04  0.24003337334E+04 0.  0.
        2    1    3    3  502    0 -0.70828114379E+03 -0.79879773724E+03 -0.78475460488E+03  0.13249829409E+04  0.25500000920E-02 0.  1.
       -2    1    3    3    0  502  0.70828114379E+03  0.79879773724E+03  0.33129349061E+03  0.11178082933E+04  0.25500000920E-02 0. -1.
</event>
<event>
 5   0  0.5363690E-07  0.2399852E+04  0.7818609E-02  0.8439559E-01
        1   -1    0    0  501    0  0.00000000000E+00  0.00000000000E+00  0.16562627839E+04  0.16562627839E+04  0.50400001928E-02 0.  1.
       -1   -1    0    0    0  501  0.00000000000E+00  0.00000000000E+00 -0.86931980390E+03  0.86931980392E+03  0.50400001928E-02 0. -1.
    10030    2    1    2    0    0  0.00000000000E+00  0.00000000000E+00  0.78694298001E+03  0.25255825878E+04  0.23998516942E+04 0.  0.
        4    1    3    3  502    0  0.78015188934E+03  0.84555887126E+03  0.34710063425E+02  0.11510052896E+04  0.12699999809E+01 0.  1.
       -4    1    3    3    0  502 -0.78015188934E+03 -0.84555887126E+03  0.75223291658E+03  0.13745772983E+04  0.12699999809E+01 0. -1.
</event>
<event>
 5   0  0.1308662E-06  0.2399628E+04  0.7818609E-02  0.8439643E-01
       -2   -1    0    0    0  501  0.00000000000E+00  0.00000000000E+00  0.58059922170E+03  0.58059922171E+03  0.25500000920E-02 0.  1.
        2   -1    0    0  501    0  0.00000000000E+00  0.00000000000E+00 -0.24794269140E+04  0.24794269140E+04  0.25500000920E-02 0. -1.
    10030    2    1    2    0    0  0.00000000000E+00  0.00000000000E+00 -0.18988276923E+04  0.30600261357E+04  0.23996277516E+04 0.  0.
        3    1    3    3  502    0  0.59454684362E+03 -0.80878177775E+02  0.37553109971E+03  0.70784945147E+03  0.10100000352E+00 0.  1.
       -3    1    3    3    0  502 -0.59454684362E+03  0.80878177775E+02 -0.22743587920E+04  0.23521766842E+04  0.10100000352E+00 0. -1.
</event>
<event>
 5   0  0.1308662E-06  0.2400152E+04  0.7818609E-02  0.8439447E-01
        2   -1    0    0  501    0  0.00000000000E+00  0.00000000000E+00  0.18446119952E+04  0.18446119952E+04  0.25500000920E-02 0.  1.
       -2   -1    0    0    0  501  0.00000000000E+00  0.00000000000E+00 -0.78075070695E+03  0.78075070696E+03  0.25500000920E-02 0. -1.
    10030    2    1    2    0    0  0.00000000000E+00  0.00000000000E+00  0.10638612883E+04  0.26253627022E+04  0.24001517613E+04 0.  0.
        3    1    3    3  502    0 -0.11755368854E+04 -0.22559513997E+03  0.43782311783E+03  0.12745466758E+04  0.10100000352E+00 0.  1.
       -3    1    3    3    0  502  0.11755368854E+04  0.22559513997E+03  0.62603817045E+03  0.13508160264E+04  0.10100000352E+00 0. -1.
</event>
<event>
 5   0  0.1275948E-06  0.2399751E+04  0.7818609E-02  0.8439597E-01
        2   -1    0    0  501    0  0.00000000000E+00  0.00000000000E+00  0.20182823477E+04  0.20182823477E+04  0.25500000920E-02 0. -1.
       -2   -1    0    0    0  501  0.00000000000E+00  0.00000000000E+00 -0.71332990171E+03  0.71332990171E+03  0.25500000920E-02 0.  1.
    10030    2    1    2    0    0  0.00000000000E+00  0.00000000000E+00  0.13049524459E+04  0.27316122494E+04  0.23997509443E+04 0.  0.
        1    1    3    3  502    0  0.29878528535E+03  0.46045326245E+03  0.18669900914E+04  0.19460066431E+04  0.50400001928E-02 0. -1.
       -1    1    3    3    0  502 -0.29878528535E+03 -0.46045326245E+03 -0.56203764545E+03  0.78560560625E+03  0.50400001928E-02 0.  1.
</event>
<event>
 5   0  0.5527286E-07  0.2399000E+04  0.7818609E-02  0.8439878E-01
        1   -1    0    0  501    0  0.00000000000E+00  0.00000000000E+00  0.17634604376E+04  0.17634604376E+04  0.50400001928E-02 0.  1.
       -1   -1    0    0    0  501  0.00000000000E+00  0.00000000000E+00 -0.81589593194E+03  0.81589593195E+03  0.50400001928E-02 0. -1.
    10030    2    1    2    0    0  0.00000000000E+00  0.00000000000E+00  0.94756450570E+03  0.25793563696E+04  0.23989999560E+04 0.  0.
        1    1    3    3  502    0 -0.41280749399E+03  0.52658338274E+03  0.15441669013E+04  0.16828997312E+04  0.50400001928E-02 0.  1.
       -1    1    3    3    0  502  0.41280749399E+03 -0.52658338274E+03 -0.59660239561E+03  0.89645663841E+03  0.50400001928E-02 0. -1.
</event>
<event>
 5   0  0.1336057E-06  0.2399499E+04  0.7818609E-02  0.8439691E-01
       -2   -1    0    0    0  501  0.00000000000E+00  0.00000000000E+00  0.84410315238E+03  0.84410315239E+03  0.25500000920E-02 0. -1.
        2   -1    0    0  501    0  0.00000000000E+00  0.00000000000E+00 -0.17052409447E+04  0.17052409447E+04  0.25500000920E-02 0.  1.
    10030    2    1    2    0    0  0.00000000000E+00  0.00000000000E+00 -0.86113779233E+03  0.25493440971E+04  0.23994993286E+04 0.  0.
        2    1    3    3  502    0  0.71083270316E+03  0.43887582273E+03 -0.13454499096E+04  0.15837078578E+04  0.25500000920E-02 0.  1.
       -2    1    3    3    0  502 -0.71083270316E+03 -0.43887582273E+03  0.48431211728E+03  0.96563623928E+03  0.25500000920E-02 0. -1.
</event>
<event>
 5   0  0.1308662E-06  0.2399992E+04  0.7818609E-02  0.8439507E-01
       -2   -1    0    0    0  501  0.00000000000E+00  0.00000000000E+00  0.96161312231E+03  0.96161312231E+03  0.25500000920E-02 0.  1.
        2   -1    0    0  501    0  0.00000000000E+00  0.00000000000E+00 -0.14974737826E+04  0.14974737826E+04  0.25500000920E-02 0. -1.
    10030    2    1    2    0    0  0.00000000000E+00  0.00000000000E+00 -0.53586066027E+03  0.24590869049E+04  0.23999920330E+04 0.  0.
        3    1    3    3  502    0 -0.10520382674E+04 -0.57381789232E+03 -0.20362399654E+03  0.12155304323E+04  0.10100000352E+00 0. -1.
       -3    1    3    3    0  502  0.10520382674E+04  0.57381789232E+03 -0.33223666374E+03  0.12435564726E+04  0.10100000352E+00 0.  1.
</event>
<event>
 5   0  0.5527286E-07  0.2400107E+04  0.7818609E-02  0.8439464E-01
       -1   -1    0    0    0  501  0.00000000000E+00  0.00000000000E+00  0.52017807272E+03  0.52017807275E+03  0.50400001928E-02 0. -1.
        1   -1    0    0  501    0  0.00000000000E+00  0.00000000000E+00 -0.27685285767E+04  0.27685285767E+04  0.50400001928E-02 0.  1.
    10030    2    1    2    0    0  0.00000000000E+00  0.00000000000E+00 -0.22483505040E+04  0.32887066495E+04  0.24001065471E+04 0.  0.
        1    1    3    3  502    0  0.85011419604E+03  0.23774015569E+03 -0.22381282609E+04  0.24059161748E+04  0.50400001928E-02 0.  1.
       -1    1    3    3    0  502 -0.85011419604E+03 -0.23774015569E+03 -0.10222243137E+02  0.88279047470E+03  0.50400001928E-02 0. -1.
</event>
<event>
 5   0  0.1291468E-06  0.2401063E+04  0.7818609E-02  0.8439106E-01
       -2   -1    0    0    0  501  0.00000000000E+00  0.00000000000E+00  0.21524897229E+04  0.21524897229E+04  0.25500000920E-02 0.  1.
        2   -1    0    0  501    0  0.00000000000E+00  0.00000000000E+00 -0.66958557322E+03  0.66958557323E+03  0.25500000920E-02 0. -1.
    10030    2    1    2    0    0  0.00000000000E+00  0.00000000000E+00  0.14829041497E+04  0.28220752962E+04  0.24010631520E+04 0.  0.
        4    1    3    3  502    0 -0.82435716466E+03 -0.80958137917E+03  0.11246353406E+04  0.16123873625E+04  0.12699999809E+01 0.  1.
       -4    1    3    3    0  502  0.82435716466E+03  0.80958137917E+03  0.35826880910E+03  0.12096879337E+04  0.12699999809E+01 0. -1.
</event>
<event>
 5   0  0.5452384E-07  0.2399643E+04  0.7818609E-02  0.8439637E-01
        1   -1    0    0  501    0  0.00000000000E+00  0.00000000000E+00  0.16818798671E+04  0.16818798671E+04  0.50400001928E-02 0.  1.
       -1   -1    0    0    0  501  0.00000000000E+00  0.00000000000E+00 -0.85593034590E+03  0.85593034592E+03  0.50400001928E-02 0. -1.
    10030    2    1    2    0    0  0.00000000000E+00  0.00000000000E+00  0.82594952116E+03  0.25378102130E+04  0.23996433205E+04 0.  0.
        5    1    3    3  502    0  0.11808507007E+04 -0.10098948485E+03  0.21528211704E+03  0.12045645410E+04  0.46999998093E+01 0. -1.
       -5    1    3    3    0  502 -0.11808507007E+04  0.10098948485E+03  0.61066740412E+03  0.13332456720E+04  0.46999998093E+01 0.  1.
</event>
<event>
 5   0  0.1307477E-06  0.2397412E+04  0.7818609E-02  0.8440473E-01
       -2   -1    0    0    0  501  0.00000000000E+00  0.00000000000E+00  0.79926953316E+03  0.79926953316E+03  0.25500000920E-02 0. -1.
        2   -1    0    0  501    0  0.00000000000E+00  0.00000000000E+00 -0.17977614275E+04  0.17977614275E+04  0.25500000920E-02 0.  1.
    10030    2    1    2    0    0  0.00000000000E+00  0.00000000000E+00 -0.99849189434E+03  0.25970309607E+04  0.23974118853E+04 0.  0.
        5    1    3    3  502    0 -0.10748813073E+04 -0.45167702640E+03 -0.80079820764E+03  0.14144546017E+04  0.46999998093E+01 0.  1.
       -5    1    3    3    0  502  0.10748813073E+04  0.45167702640E+03 -0.19769368671E+03  0.11825763589E+04  0.46999998093E+01 0. -1.
</event>
<event>
 5   0  0.1291468E-06  0.2402340E+04  0.7818609E-02  0.8438628E-01
        2   -1    0    0  501    0  0.00000000000E+00  0.00000000000E+00  0.16324530831E+04  0.16324530832E+04  0.25500000920E-02 0.  1.
       -2   -1    0    0    0  501  0.00000000000E+00  0.00000000000E+00 -0.88382889323E+03  0.88382889324E+03  0.25500000920E-02 0. -1.
    10030    2    1    2    0    0  0.00000000000E+00  0.00000000000E+00  0.74862418992E+03  0.25162819764E+04  0.24023398608E+04 0.  0.
        4    1    3    3  502    0  0.77617626089E+03 -0.72766854468E+03 -0.20967712297E+03  0.10843971633E+04  0.12699999809E+01 0. -1.
       -4    1    3    3    0  502 -0.77617626089E+03  0.72766854468E+03  0.95830131289E+03  0.14318848131E+04  0.12699999809E+01 0.  1.
</event>
<event>
 5   0  0.1308662E-06  0.2402529E+04  0.7818609E-02  0.8438558E-01
       -2   -1    0    0    0  501  0.00000000000E+00  0.00000000000E+00  0.82195436512E+03  0.82195436512E+03  0.25500000920E-02 0.  1.
        2   -1    0    0  501    0  0.00000000000E+00  0.00000000000E+00 -0.17556155416E+04  0.17556155416E+04  0.25500000920E-02 0. -1.
    10030    2    1    2    0    0  0.00000000000E+00  0.00000000000E+00 -0.93366117650E+03  0.25775699067E+04  0.24025285496E+04 0.  0.
        3    1    3    3  502    0 -0.39187976197E+03  0.37835782535E+03  0.68183394520E+03  0.87270953408E+03  0.10100000352E+00 0.  1.
       -3    1    3    3    0  502  0.39187976197E+03 -0.37835782535E+03 -0.16154951217E+04  0.17048603727E+04  0.10100000352E+00 0. -1.
</event>
<event>
 5   0  0.1308662E-06  0.2399236E+04  0.7818609E-02  0.8439790E-01
        2   -1    0    0  501    0  0.00000000000E+00  0.00000000000E+00  0.11051812544E+04  0.11051812544E+04  0.25500000920E-02 0.  1.
       -2   -1    0    0    0  501  0.00000000000E+00  0.00000000000E+00 -0.13021244288E+04  0.13021244288E+04  0.25500000920E-02 0. -1.
    10030    2    1    2    0    0  0.00000000000E+00  0.00000000000E+00 -0.19694317441E+03  0.24073056831E+04  0.23992361364E+04 0.  0.
        3    1    3    3  502    0  0.10186137348E+04 -0.23135707855E+03  0.49341370541E+03  0.11552303378E+04  0.10100000352E+00 0.  1.
       -3    1    3    3    0  502 -0.10186137348E+04  0.23135707855E+03 -0.69035687982E+03  0.12520753453E+04  0.10100000352E+00 0. -1.
</event>
<event>
 5   0  0.1291468E-06  0.2400842E+04  0.7818609E-02  0.8439188E-01
       -2   -1    0    0    0  501  0.00000000000E+00  0.00000000000E+00  0.10719319699E+04  0.10719319699E+04  0.25500000920E-02 0. -1.
        2   -1    0    0  501    0  0.00000000000E+00  0.00000000000E+00 -0.13443119766E+04  0.13443119766E+04  0.25500000920E-02 0.  1.
    10030    2    1    2    0    0  0.00000000000E+00  0.00000000000E+00 -0.27238000662E+03  0.24162439465E+04  0.24008423399E+04 0.  0.
        4    1    3    3  502    0  0.17885722939E+03 -0.30989590557E+03 -0.12893958964E+04  0.13381213590E+04  0.12699999809E+01 0.  1.
       -4    1    3    3    0  502 -0.17885722939E+03  0.30989590557E+03  0.10170158898E+04  0.10781225875E+04  0.12699999809E+01 0. -1.
</event>
<event>
 5   0  0.1308662E-06  0.2399897E+04  0.7818609E-02  0.8439542E-01
        2   -1    0    0  501    0  0.00000000000E+00  0.00000000000E+00  0.19278760334E+04  0.19278760334E+04  0.25500000920E-02 0. -1.
       -2   -1    0    0    0  501  0.00000000000E+00  0.00000000000E+00 -0.74687201416E+03  0.74687201417E+03  0.25500000920E-02 0.  1.
    10030    2    1    2    0    0  0.00000000000E+00  0.00000000000E+00  0.11810040192E+04  0.26747480476E+04  0.23998972112E+04 0.  0.
        3    1    3    3  502    0  0.38797637431E+03 -0.10626534257E+04  0.14452627158E+03  0.11404586023E+04  0.10100000352E+00 0.  1.
       -3    1    3    3    0  502 -0.38797637431E+03  0.10626534257E+04  0.10364777476E+04  0.15342894452E+04  0.10100000352E+00 0. -1.
</event>
<event>
 5   0  0.5452384E-07  0.2399147E+04  0.7818609E-02  0.8439823E-01
       -1   -1    0    0    0  501  0.00000000000E+00  0.00000000000E+00  0.13136352300E+04  0.13136352300E+04  0.50400001928E-02 0. -1.
        1   -1    0    0  501    0  0.00000000000E+00  0.00000000000E+00 -0.10954153313E+04  0.10954153313E+04  0.50400001928E-02 0.  1.
    10030    2    1    2    0    0  0.00000000000E+00  0.00000000000E+00  0.21821989878E+03  0.24090505613E+04  0.23991466572E+04 0.  0.
        5    1    3    3  502    0  0.93582006165E+03  0.68976487651E+03  0.40599805642E+03  0.12314184035E+04  0.46999998093E+01 0. -1.
       -5    1    3    3    0  502 -0.93582006165E+03 -0.68976487651E+03 -0.18777815763E+03  0.11776321578E+04  0.46999998093E+01 0.  1.
</event>
<event>
 5   0  0.1275948E-06  0.2400934E+04  0.7818609E-02  0.8439154E-01
        2   -1    0    0  501    0  0.00000000000E+00  0.00000000000E+00  0.10201326244E+04  0.10201326244E+04  0.25500000920E-02 0. -1.
       -2   -1    0    0    0  501  0.00000000000E+00  0.00000000000E+00 -0.14126795013E+04  0.14126795013E+04  0.25500000920E-02 0.  1.
    10030    2    1    2    0    0  0.00000000000E+00  0.00000000000E+00 -0.39254687692E+03  0.24328121258E+04  0.24009335244E+04 0.  0.
        1    1    3    3  502    0 -0.91995508902E+03 -0.75155493651E+03 -0.20861482638E+02  0.11881024324E+04  0.50400001928E-02 0.  1.
       -1    1    3    3    0  502  0.91995508902E+03  0.75155493651E+03 -0.37168539428E+03  0.12447096934E+04  0.50400001928E-02 0. -1.
</event>
<event>
 5   0  0.5510176E-07  0.2395774E+04  0.7818609E-02  0.8441088E-01
       -1   -1    0    0    0  501  0.00000000000E+00  0.00000000000E+00  0.11435131306E+04  0.11435131306E+04  0.50400001928E-02 0.  1.
        1   -1    0    0  501    0  0.00000000000E+00  0.00000000000E+00 -0.12548459640E+04  0.12548459640E+04  0.50400001928E-02 0. -1.
    10030    2    1    2    0    0  0.00000000000E+00  0.00000000000E+00 -0.11133283342E+03  0.23983590946E+04  0.23957736427E+04 0.  0.
        3    1    3    3  502    0 -0.53167196429E+03  0.81300682580E+03 -0.75733483450E+03  0.12317512891E+04  0.10100000352E+00 0. -1.
       -3    1    3    3    0  502  0.53167196429E+03 -0.81300682580E+03  0.64600200108E+03  0.11666078056E+04  0.10100000352E+00 0.  1.
</event>
<event>
 5   0  0.1291468E-06  0.2406702E+04  0.7818609E-02  0.8436999E-01
       -2   -1    0    0    0  501  0.00000000000E+00  0.00000000000E+00  0.73383262208E+03  0.73383262208E+03  0.25500000920E-02 0.  1.
        2   -1    0    0  501    0  0.00000000000E+00  0.00000000000E+00 -0.19732748232E+04  0.19732748232E+04  0.25500000920E-02 0. -1.
    10030    2    1    2    0    0  0.00000000000E+00  0.00000000000E+00 -0.12394422012E+04  0.27071074453E+04  0.24067018408E+04 0.  0.
        4    1    3    3  502    0  0.40537998435E+03 -0.31962312730E+03 -0.18423962460E+04  0.19133524023E+04  0.12699999809E+01 0. -1.
       -4    1    3    3    0  502 -0.40537998435E+03  0.31962312730E+03  0.60295404485E+03  0.79375504302E+03  0.12699999809E+01 0.  1.
</event>
<event>
 5   0  0.1291468E-06  0.2399739E+04  0.7818609E-02  0.8439601E-01
       -2   -1    0    0    0  501  0.00000000000E+00  0.00000000000E+00  0.14849684117E+04  0.14849684117E+04  0.25500000920E-02 0.  1.
        2   -1    0    0  501    0  0.00000000000E+00  0.00000000000E+00 -0.96950651275E+03  0.96950651275E+03  0.25500000920E-02 0. -1.
    10030    2    1    2    0    0  0.00000000000E+00  0.00000000000E+00  0.51546189892E+03  0.24544749244E+04  0.23997387744E+04 0.  0.
        4    1    3    3  502    0 -0.64281053591E+02 -0.70566336647E+03 -0.73264845153E+03  0.10192488445E+04  0.12699999809E+01 0. -1.
       -4    1    3    3    0  502  0.64281053591E+02  0.70566336647E+03  0.12481103505E+04  0.14352260799E+04  0.12699999809E+01 0.  1.
</event>
<event>
 5   0  0.4483375E-07  0.2397571E+04  0.7818609E-02  0.8440413E-01
        3   -1    0    0  501    0  0.00000000000E+00  0.00000000000E+00  0.15318636673E+04  0.15318636707E+04  0.10100000352E+00 0.  1.
       -3   -1    0    0    0  501  0.00000000000E+00  0.00000000000E+00 -0.93812969807E+03  0.93812970351E+03  0.10100000352E+00 0. -1.
    10030    2    1    2    0    0  0.00000000000E+00  0.00000000000E+00  0.59373396927E+03  0.24699933742E+04  0.23975711131E+04 0.  0.
        3    1    3    3  502    0  0.26750146484E+03 -0.75323649701E+03  0.12172540513E+04  0.14562381981E+04  0.10100000352E+00 0.  1.
       -3    1    3    3    0  502 -0.26750146484E+03  0.75323649701E+03 -0.62352008201E+03  0.10137551761E+04  0.10100000352E+00 0. -1.
</event>
<event>
 5   0  0.1291468E-06  0.2399721E+04  0.7818609E-02  0.8439608E-01
       -2   -1    0    0    0  501  0.00000000000E+00  0.00000000000E+00  0.60902959633E+03  0.60902959633E+03  0.25500000920E-02 0.  1.
        2   -1    0    0  501    0  0.00000000000E+00  0.00000000000E+00 -0.23638681950E+04  0.23638681950E+04  0.25500000920E-02 0. -1.
    10030    2    1    2    0    0  0.00000000000E+00  0.00000000000E+00 -0.17548385986E+04  0.29728977913E+04  0.23997213943E+04 0.  0.
        4    1    3    3  502    0  0.11192245322E+03  0.23676712630E+03  0.57318966978E+03  0.63018514587E+03  0.12699999809E+01 0.  1.
       -4    1    3    3    0  502 -0.11192245322E+03 -0.23676712630E+03 -0.23280282684E+04  0.23427126454E+04  0.12699999809E+01 0. -1.
</event>
<event>
 5   0  0.1275948E-06  0.2400254E+04  0.7818609E-02  0.8439409E-01
        2   -1    0    0  501    0  0.00000000000E+00  0.00000000000E+00  0.17019176979E+04  0.17019176979E+04  0.25500000920E-02 0. -1.
       -2   -1    0    0    0  501  0.00000000000E+00  0.00000000000E+00 -0.84628326385E+03  0.84628326386E+03  0.25500000920E-02 0.  1.
    10030    2    1    2    0    0  0.00000000000E+00  0.00000000000E+00  0.85563443405E+03  0.25482009618E+04  0.24002537068E+04 0.  0.
        1    1    3    3  502    0 -0.48590012977E+03  0.62599260889E+03  0.13846699902E+04  0.15953923230E+04  0.50400001928E-02 0. -1.
       -1    1    3    3    0  502  0.48590012977E+03 -0.62599260889E+03 -0.52903555612E+03  0.95280863879E+03  0.50400001928E-02 0.  1.
</event>
<event>
 5   0  0.5363690E-07  0.2398410E+04  0.7818609E-02  0.8440099E-01
        1   -1    0    0  501    0  0.00000000000E+00  0.00000000000E+00  0.12486915054E+04  0.12486915054E+04  0.50400001928E-02 0. -1.
       -1   -1    0    0    0  501  0.00000000000E+00  0.00000000000E+00 -0.11516792211E+04  0.11516792212E+04  0.50400001928E-02 0.  1.
    10030    2    1    2    0    0  0.00000000000E+00  0.00000000000E+00  0.97012284285E+02  0.24003707266E+04  0.23984095234E+04 0.  0.
        4    1    3    3  502    0 -0.10984974260E+04  0.17058376301E+03  0.49864612591E+03  0.12183780148E+04  0.12699999809E+01 0. -1.
       -4    1    3    3    0  502  0.10984974260E+04 -0.17058376301E+03 -0.40163384162E+03  0.11819927118E+04  0.12699999809E+01 0.  1.
</event>
<event>
 5   0  0.4483375E-07  0.2400747E+04  0.7818609E-02  0.8439224E-01
       -3   -1    0    0    0  501  0.00000000000E+00  0.00000000000E+00  0.85943341017E+03  0.85943341610E+03  0.10100000352E+00 0. -1.
        3   -1    0    0  501    0  0.00000000000E+00  0.00000000000E+00 -0.16765649570E+04  0.16765649600E+04  0.10100000352E+00 0.  1.
    10030    2    1    2    0    0  0.00000000000E+00  0.00000000000E+00 -0.81713154684E+03  0.25359983761E+04  0.24007465087E+04 0.  0.
        5    1    3    3  502    0  0.23442022866E+02  0.71681998303E+03 -0.14253383873E+04  0.15956165030E+04  0.46999998093E+01 0.  1.
       -5    1    3    3    0  502 -0.23442022866E+02 -0.71681998303E+03  0.60820684044E+03  0.94038187311E+03  0.46999998093E+01 0. -1.
</event>
<event>
 5   0  0.5452384E-07  0.2400684E+04  0.7818609E-02  0.8439248E-01
       -1   -1    0    0    0  501  0.00000000000E+00  0.00000000000E+00  0.10357322055E+04  0.10357322055E+04  0.50400001928E-02 0.  1.
        1   -1    0    0  501    0  0.00000000000E+00  0.00000000000E+00 -0.13911129754E+04  0.13911129754E+04  0.50400001928E-02 0. -1.
    10030    2    1    2    0    0  0.00000000000E+00  0.00000000000E+00 -0.35538076988E+03  0.24268451809E+04  0.24006836611E+04 0.  0.
        5    1    3    3  502    0  0.13902658935E+03  0.11680999135E+04 -0.41906557749E+03  0.12487689333E+04  0.46999998093E+01 0. -1.
       -5    1    3    3    0  502 -0.13902658935E+03 -0.11680999135E+04  0.63684807612E+02  0.11780762476E+04  0.46999998093E+01 0.  1.
</event>
<event>
 5   0  0.1291468E-06  0.2400928E+04  0.7818609E-02  0.8439156E-01
       -2   -1    0    0    0  501  0.00000000000E+00  0.00000000000E+00  0.73275711347E+03  0.73275711348E+03  0.25500000920E-02 0. -1.
        2   -1    0    0  501    0  0.00000000000E+00  0.00000000000E+00 -0.19667001608E+04  0.19667001608E+04  0.25500000920E-02 0.  1.
    10030    2    1    2    0    0  0.00000000000E+00  0.00000000000E+00 -0.12339430474E+04  0.26994572743E+04  0.24009277648E+04 0.  0.
        4    1    3    3  502    0 -0.37475309058E+03  0.85288616171E+03  0.23430790153E+03  0.96060214936E+03  0.12699999809E+01 0. -1.
       -4    1    3    3    0  502  0.37475309058E+03 -0.85288616171E+03 -0.14682509489E+04  0.17388551249E+04  0.12699999809E+01 0.  1.
</event>
<event>
 5   0  0.1275948E-06  0.2400306E+04  0.7818609E-02  0.8439389E-01
       -2   -1    0    0    0  501  0.00000000000E+00  0.00000000000E+00  0.75912029521E+03  0.75912029521E+03  0.25500000920E-02 0.  1.
        2   -1    0    0  501    0  0.00000000000E+00  0.00000000000E+00 -0.18974155741E+04  0.18974155741E+04  0.25500000920E-02 0. -1.
    10030    2    1    2    0    0  0.00000000000E+00  0.00000000000E+00 -0.11382952789E+04  0.26565358693E+04  0.24003055395E+04 0.  0.
        1    1    3    3  502    0 -0.15724149216E+02 -0.64618689468E+03 -0.16883122389E+04  0.18078171832E+04  0.50400001928E-02 0. -1.
       -1    1    3    3    0  502  0.15724149216E+02  0.64618689468E+03  0.55001696006E+03  0.84871868609E+03  0.50400001928E-02 0.  1.
</event>
<event>
 5   0  0.1336057E-06  0.2399665E+04  0.7818609E-02  0.8439629E-01
        2   -1    0    0  501    0  0.00000000000E+00  0.00000000000E+00  0.87456528071E+03  0.87456528072E+03  0.25500000920E-02 0.  1.
       -2   -1    0    0    0  501  0.00000000000E+00  0.00000000000E+00 -0.16460729889E+04  0.16460729889E+04  0.25500000920E-02 0. -1.
    10030    2    1    2    0    0  0.00000000000E+00  0.00000000000E+00 -0.77150770821E+03  0.25206382696E+04  0.23996652147E+04 0.  0.
        2    1    3    3  502    0  0.52635555853E+03  0.56320106451E+03  0.58002754043E+03  0.96471631101E+03  0.25500000920E-02 0.  1.
       -2    1    3    3    0  502 -0.52635555853E+03 -0.56320106451E+03 -0.13515352486E+04  0.15559219586E+04  0.25500000920E-02 0. -1.
</event>
<event>
 5   0  0.1307477E-06  0.2384293E+04  0.7818609E-02  0.8445408E-01
        2   -1    0    0  501    0  0.00000000000E+00  0.00000000000E+00  0.15608956496E+04  0.15608956496E+04  0.25500000920E-02 0.  1.
       -2   -1    0    0    0  501  0.00000000000E+00  0.00000000000E+00 -0.91051133061E+03  0.91051133062E+03  0.25500000920E-02 0. -1.
    10030    2    1    2    0    0  0.00000000000E+00  0.00000000000E+00  0.65038431903E+03  0.24714069803E+04  0.23842929140E+04 0.  0.
        5    1    3    3  502    0  0.32140076755E+03 -0.28128093797E+02 -0.86438953751E+03  0.92264890700E+03  0.46999998093E+01 0. -1.
       -5    1    3    3    0  502 -0.32140076755E+03  0.28128093797E+02  0.15147738565E+04  0.15487580733E+04  0.46999998093E+01 0.  1.
</event>
<event>
 5   0  0.1336057E-06  0.2400643E+04  0.7818609E-02  0.8439263E-01
       -2   -1    0    0    0  501  0.00000000000E+00  0.00000000000E+00  0.99949850798E+03  0.99949850799E+03  0.25500000920E-02 0.  1.
        2   -1    0    0  501    0  0.00000000000E+00  0.00000000000E+00 -0.14414941155E+04  0.14414941155E+04  0.25500000920E-02 0. -1.
    10030    2    1    2    0    0  0.00000000000E+00  0.00000000000E+00 -0.44199560751E+03  0.24409926235E+04  0.24006425954E+04 0.  0.
        2    1    3    3  502    0 -0.10487236529E+04 -0.19716485276E+03 -0.77985008234E+03  0.13216888553E+04  0.25500000920E-02 0. -1.
       -2    1    3    3    0  502  0.10487236529E+04  0.19716485276E+03  0.33785447483E+03  0.11193037682E+04  0.25500000920E-02 0.  1.
</event>
<event>
 5   0  0.5510176E-07  0.2398932E+04  0.7818609E-02  0.8439904E-01
        1   -1    0    0  501    0  0.00000000000E+00  0.00000000000E+00  0.26151742178E+04  0.26151742178E+04  0.50400001928E-02 0. -1.
       -1   -1    0    0    0  501  0.00000000000E+00  0.00000000000E+00 -0.55014243021E+03  0.55014243024E+03  0.50400001928E-02 0.  1.
    10030    2    1    2    0    0  0.00000000000E+00  0.00000000000E+00  0.20650317876E+04  0.31653166480E+04  0.23989316786E+04 0.  0.
        3    1    3    3  502    0  0.15781423390E+03 -0.59627455603E+03  0.23898833893E+04  0.24681959612E+04  0.10100000352E+00 0. -1.
       -3    1    3    3    0  502 -0.15781423390E+03  0.59627455603E+03 -0.32485160171E+03  0.69712068677E+03  0.10100000352E+00 0.  1.
</event>
<event>
 5   0  0.1275948E-06  0.2400143E+04  0.7818609E-02  0.8439450E-01
       -2   -1    0    0    0  501  0.00000000000E+00  0.00000000000E+00  0.13361816954E+04  0.13361816954E+04  0.25500000920E-02 0.  1.
        2   -1    0    0  501    0  0.00000000000E+00  0.00000000000E+00 -0.10778259899E+04  0.10778259899E+04  0.25500000920E-02 0. -1.
    10030    2    1    2    0    0  0.00000000000E+00  0.00000000000E+00  0.25835570551E+03  0.24140076853E+04  0.24001427945E+04 0.  0.
        1    1    3    3  502    0 -0.98673787077E+03  0.67899182330E+03  0.54656405264E+02  0.11990282917E+04  0.50400001928E-02 0.  1.
       -1    1    3    3    0  502  0.98673787077E+03 -0.67899182330E+03  0.20369930024E+03  0.12149793935E+04  0.50400001928E-02 0. -1.
</event>
<event>
 5   0  0.5690124E-07  0.2399047E+04  0.7818609E-02  0.8439861E-01
       -1   -1    0    0    0  501  0.00000000000E+00  0.00000000000E+00  0.10150291859E+04  0.10150291859E+04  0.50400001928E-02 0.  1.
        1   -1    0    0  501    0  0.00000000000E+00  0.00000000000E+00 -0.14175515045E+04  0.14175515045E+04  0.50400001928E-02 0. -1.
    10030    2    1    2    0    0  0.00000000000E+00  0.00000000000E+00 -0.40252231857E+03  0.24325806905E+04  0.23990466020E+04 0.  0.
        2    1    3    3  502    0  0.99309510744E+03  0.38542302099E+03  0.35786970584E+03  0.11237702274E+04  0.25500000920E-02 0.  1.
       -2    1    3    3    0  502 -0.99309510744E+03 -0.38542302099E+03 -0.76039202441E+03  0.13088104631E+04  0.25500000920E-02 0. -1.
</event>
<event>
 5   0  0.5363690E-07  0.2398477E+04  0.7818609E-02  0.8440074E-01
       -1   -1    0    0    0  501  0.00000000000E+00  0.00000000000E+00  0.78137936337E+03  0.78137936338E+03  0.50400001928E-02 0.  1.
        1   -1    0    0  501    0  0.00000000000E+00  0.00000000000E+00 -0.18405569063E+04  0.18405569063E+04  0.50400001928E-02 0. -1.
    10030    2    1    2    0    0  0.00000000000E+00  0.00000000000E+00 -0.10591775429E+04  0.26219362696E+04  0.23984771699E+04 0.  0.
        4    1    3    3  502    0 -0.66031620494E+03 -0.25050181330E+03 -0.15891169114E+04  0.17389832719E+04  0.12699999809E+01 0. -1.
       -4    1    3    3    0  502  0.66031620494E+03  0.25050181330E+03  0.52993936853E+03  0.88295299772E+03  0.12699999809E+01 0.  1.
</event>
<event>
 5   0  0.1308662E-06  0.2404535E+04  0.7818609E-02  0.8437808E-01
        2   -1    0    0  501    0  0.00000000000E+00  0.00000000000E+00  0.84471583481E+03  0.84471583481E+03  0.25500000920E-02 0.  1.
       -2   -1    0    0    0  501  0.00000000000E+00  0.00000000000E+00 -0.17111638255E+04  0.17111638255E+04  0.25500000920E-02 0. -1.
    10030    2    1    2    0    0  0.00000000000E+00  0.00000000000E+00 -0.86644799073E+03  0.25558796604E+04  0.24045350315E+04 0.  0.
        3    1    3    3  502    0 -0.22319459214E+03 -0.11525096543E+04 -0.15736493684E+03  0.11844230928E+04  0.10100000352E+00 0.  1.
       -3    1    3    3    0  502  0.22319459214E+03  0.11525096543E+04 -0.70908305389E+03  0.13714565676E+04  0.10100000352E+00 0. -1.
</event>
<event>
 5   0  0.1307477E-06  0.2401214E+04  0.7818609E-02  0.8439049E-01
        2   -1    0    0  501    0  0.00000000000E+00  0.00000000000E+00  0.24821621135E+04  0.24821621135E+04  0.25500000920E-02 0.  1.
       -2   -1    0    0    0  501  0.00000000000E+00  0.00000000000E+00 -0.58072656353E+03  0.58072656354E+03  0.25500000920E-02 0. -1.
    10030    2    1    2    0    0  0.00000000000E+00  0.00000000000E+00  0.19014355500E+04  0.30628886770E+04  0.24012142547E+04 0.  0.
        5    1    3    3  502    0 -0.20306250275E+03 -0.11207771340E+04  0.46657725510E+03  0.12308908112E+04  0.46999998093E+01 0. -1.
       -5    1    3    3    0  502  0.20306250275E+03  0.11207771340E+04  0.14348582949E+04  0.18319978658E+04  0.46999998093E+01 0.  1.
</event>
<event>
 5   0  0.4483375E-07  0.2402980E+04  0.7818609E-02  0.8438389E-01
        3   -1    0    0  501    0  0.00000000000E+00  0.00000000000E+00  0.82473052595E+03  0.82473053214E+03  0.10100000352E+00 0.  1.
       -3   -1    0    0    0  501  0.00000000000E+00  0.00000000000E+00 -0.17503630663E+04  0.17503630692E+04  0.10100000352E+00 0. -1.
    10030    2    1    2    0    0  0.00000000000E+00  0.00000000000E+00 -0.92563254036E+03  0.25750936014E+04  0.24029797036E+04 0.  0.
        5    1    3    3  502    0 -0.33720918931E+03  0.77982728280E+03 -0.13732028074E+04  0.16147905959E+04  0.46999998093E+01 0. -1.
       -5    1    3    3    0  502  0.33720918931E+03 -0.77982728280E+03  0.44757026705E+03  0.96030300546E+03  0.46999998093E+01 0.  1.
</event>
<event>
 5   0  0.1307477E-06  0.2397910E+04  0.7818609E-02  0.8440286E-01
       -2   -1    0    0    0  501  0.00000000000E+00  0.00000000000E+00  0.10531189680E+04  0.10531189680E+04  0.25500000920E-02 0.  1.
        2   -1    0    0  501    0  0.00000000000E+00  0.00000000000E+00 -0.13649866138E+04  0.13649866138E+04  0.25500000920E-02 0. -1.
    10030    2    1    2    0    0  0.00000000000E+00  0.00000000000E+00 -0.31186764586E+03  0.24181055818E+04  0.23979101685E+04 0.  0.
        5    1    3    3  502    0  0.16003212837E+03  0.10222355300E+04 -0.76675418925E+03  0.12878314477E+04  0.46999998093E+01 0. -1.
       -5    1    3    3    0  502 -0.16003212837E+03 -0.10222355300E+04  0.45488654338E+03  0.11302741341E+04  0.46999998093E+01 0.  1.
</event>
<event>
 5   0  0.1275948E-06  0.2399270E+04  0.7818609E-02  0.8439777E-01
       -2   -1    0    0    0  501  0.00000000000E+00  0.00000000000E+00  0.12815921120E+04  0.12815921121E+04  0.25500000920E-02 0. -1.
        2   -1    0    0  501    0  0.00000000000E+00  0.00000000000E+00 -0.11229191457E+04  0.11229191457E+04  0.25500000920E-02 0.  1.
    10030    2    1    2    0    0  0.00000000000E+00  0.00000000000E+00  0.15867296637E+03  0.24045112577E+04  0.23992701553E+04 0.  0.
        1    1    3    3  502    0  0.34376005000E+03  0.40980143492E+03 -0.99679504305E+03  0.11312420368E+04  0.50400001928E-02 0.  1.
       -1    1    3    3    0  502 -0.34376005000E+03 -0.40980143492E+03  0.11554680094E+04  0.12732692209E+04  0.50400001928E-02 0. -1.
</event>
<event>
 5   0  0.5363690E-07  0.2399611E+04  0.7818609E-02  0.8439649E-01
       -1   -1    0    0    0  501  0.00000000000E+00  0.00000000000E+00  0.13632377298E+04  0.13632377298E+04  0.50400001928E-02 0.  1.
        1   -1    0    0  501    0  0.00000000000E+00  0.00000000000E+00 -0.10559664707E+04  0.10559664708E+04  0.50400001928E-02 0. -1.
    10030    2    1    2    0    0  0.00000000000E+00  0.00000000000E+00  0.30727125906E+03  0.24192042006E+04  0.23996110804E+04 0.  0.
        4    1    3    3  502    0  0.27098334054E+03 -0.44100435652E+03 -0.93761401146E+03  0.10709988145E+04  0.12699999809E+01 0. -1.
       -4    1    3    3    0  502 -0.27098334054E+03  0.44100435652E+03  0.12448852705E+04  0.13482053860E+04  0.12699999809E+01 0.  1.
</event>
<event>
 5   0  0.5452384E-07  0.2399885E+04  0.7818609E-02  0.8439547E-01
        1   -1    0    0  501    0  0.00000000000E+00  0.00000000000E+00  0.11608932579E+04  0.11608932579E+04  0.50400001928E-02 0.  1.
       -1   -1    0    0    0  501  0.00000000000E+00  0.00000000000E+00 -0.12403054190E+04  0.12403054190E+04  0.50400001928E-02 0. -1.
    10030    2    1    2    0    0  0.00000000000E+00  0.00000000000E+00 -0.79412161073E+02  0.24011986769E+04  0.23998851628E+04 0.  0.
        5    1    3    3  502    0 -0.51690031248E+03 -0.39333475153E+03  0.96977722365E+03  0.11672138250E+04  0.46999998093E+01 0.  1.
       -5    1    3    3    0  502  0.51690031248E+03  0.39333475153E+03 -0.10491893847E+04  0.12339848519E+04  0.46999998093E+01 0. -1.
</event>
<event>
 5   0  0.1307477E-06  0.2400166E+04  0.7818609E-02  0.8439441E-01
        2   -1    0    0  501    0  0.00000000000E+00  0.00000000000E+00  0.15611259429E+04  0.15611259429E+04  0.25500000920E-02 0.  1.
       -2   -1    0    0    0  501  0.00000000000E+00  0.00000000000E+00 -0.92253897470E+03  0.92253897470E+03  0.25500000920E-02 0. -1.
    10030    2    1    2    0    0  0.00000000000E+00  0.00000000000E+00  0.63858696819E+03  0.24836649176E+04  0.24001662665E+04 0.  0.
        5    1    3    3  502    0 -0.41055091932E+03  0.32534392333E+02 -0.84711438945E+03  0.94193175063E+03  0.46999998093E+01 0. -1.
       -5    1    3    3    0  502  0.41055091932E+03 -0.32534392333E+02  0.14857013576E+04  0.15417331670E+04  0.46999998093E+01 0.  1.
</event>
<event>
 5   0  0.1336057E-06  0.2398834E+04  0.7818609E-02  0.8439940E-01
        2   -1    0    0  501    0  0.00000000000E+00  0.00000000000E+00  0.12750587510E+04  0.12750587510E+04  0.25500000920E-02 0. -1.
       -2   -1    0    0    0  501  0.00000000000E+00  0.00000000000E+00 -0.11282626869E+04  0.11282626869E+04  0.25500000920E-02 0.  1.
    10030    2    1    2    0    0  0.00000000000E+00  0.00000000000E+00  0.14679606412E+03  0.24033214379E+04  0.23988340604E+04 0.  0.
        2    1    3    3  502    0 -0.86975245758E+03  0.79528378017E+03 -0.14985414376E+03  0.11880243654E+04  0.25500000920E-02 0. -1.
       -2    1    3    3    0  502  0.86975245758E+03 -0.79528378017E+03  0.29665020788E+03  0.12152970725E+04  0.25500000920E-02 0.  1.
</event>
<event>
 5   0  0.1308662E-06  0.2400270E+04  0.7818609E-02  0.8439402E-01
       -2   -1    0    0    0  501  0.00000000000E+00  0.00000000000E+00  0.12767521183E+04  0.12767521183E+04  0.25500000920E-02 0. -1.
        2   -1    0    0  501    0  0.00000000000E+00  0.00000000000E+00 -0.11281156178E+04  0.11281156178E+04  0.25500000920E-02 0.  1.
    10030    2    1    2    0    0  0.00000000000E+00  0.00000000000E+00  0.14863650044E+03  0.24048677361E+04  0.24002699887E+04 0.  0.
        3    1    3    3  502    0 -0.74244702105E+02 -0.11606603031E+04  0.37099248775E+03  0.12207702696E+04  0.10100000352E+00 0. -1.
       -3    1    3    3    0  502  0.74244702105E+02  0.11606603031E+04 -0.22235598731E+03  0.11840974665E+04  0.10100000352E+00 0.  1.
</event>
<event>
 5   0  0.5527286E-07  0.2399696E+04  0.7818609E-02  0.8439617E-01
       -1   -1    0    0    0  501  0.00000000000E+00  0.00000000000E+00  0.18494544822E+04  0.18494544822E+04  0.50400001928E-02 0.  1.
        1   -1    0    0  501    0  0.00000000000E+00  0.00000000000E+00 -0.77841068641E+03  0.77841068643E+03  0.50400001928E-02 0. -1.
    10030    2    1    2    0    0  0.00000000000E+00  0.00000000000E+00  0.10710437958E+04  0.26278651687E+04  0.23996959249E+04 0.  0.
        1    1    3    3  502    0  0.17245448145E+03  0.75649577254E+03  0.15377520454E+04  0.17224133520E+04  0.50400001928E-02 0.  1.
       -1    1    3    3    0  502 -0.17245448145E+03 -0.75649577254E+03 -0.46670824957E+03  0.90545181666E+03  0.50400001928E-02 0. -1.
</event>
<event>
 5   0  0.1308662E-06  0.2398525E+04  0.7818609E-02  0.8440056E-01
       -2   -1    0    0    0  501  0.00000000000E+00  0.00000000000E+00  0.12542980294E+04  0.12542980294E+04  0.25500000920E-02 0.  1.
        2   -1    0    0  501    0  0.00000000000E+00  0.00000000000E+00 -0.11466417478E+04  0.11466417478E+04  0.25500000920E-02 0. -1.
    10030    2    1    2    0    0  0.00000000000E+00  0.00000000000E+00  0.10765628160E+03  0.24009397772E+04  0.23985249507E+04 0.  0.
        3    1    3    3  502    0  0.40134731177E+03  0.10830404190E+04 -0.26925718984E+03  0.11859829924E+04  0.10100000352E+00 0.  1.
       -3    1    3    3    0  502 -0.40134731177E+03 -0.10830404190E+04  0.37691347144E+03  0.12149567848E+04  0.10100000352E+00 0. -1.
</event>
<event>
 5   0  0.1307477E-06  0.2399388E+04  0.7818609E-02  0.8439733E-01
        2   -1    0    0  501    0  0.00000000000E+00  0.00000000000E+00  0.12240862233E+04  0.12240862233E+04  0.25500000920E-02 0.  1.
       -2   -1    0    0    0  501  0.00000000000E+00  0.00000000000E+00 -0.11757876884E+04  0.11757876884E+04  0.25500000920E-02 0. -1.
    10030    2    1    2    0    0  0.00000000000E+00  0.00000000000E+00  0.48298534908E+02  0.23998739117E+04  0.23993878476E+04 0.  0.
        5    1    3    3  502    0 -0.23420805830E+03 -0.35821767995E+03 -0.10968231037E+04  0.11773768859E+04  0.46999998093E+01 0. -1.
       -5    1    3    3    0  502  0.23420805830E+03  0.35821767995E+03  0.11451216386E+04  0.12224970257E+04  0.46999998093E+01 0.  1.
</event>
<event>
 5   0  0.5527286E-07  0.2400184E+04  0.7818609E-02  0.8439435E-01
       -1   -1    0    0    0  501  0.00000000000E+00  0.00000000000E+00  0.10646773916E+04  0.10646773916E+04  0.50400001928E-02 0.  1.
        1   -1    0    0  501    0  0.00000000000E+00  0.00000000000E+00 -0.13527296265E+04  0.13527296265E+04  0.50400001928E-02 0. -1.
    10030    2    1    2    0    0  0.00000000000E+00  0.00000000000E+00 -0.28805223491E+03  0.24174070181E+04  0.24001838682E+04 0.  0.
        1    1    3    3  502    0  0.22177445512E+03  0.29864265745E+03 -0.12931996736E+04  0.13456361847E+04  0.50400001928E-02 0. -1.
       -1    1    3    3    0  502 -0.22177445512E+03 -0.29864265745E+03  0.10051474387E+04  0.10717708334E+04  0.50400001928E-02 0.  1.
</event>
<event>
 5   0  0.5690124E-07  0.2399375E+04  0.7818609E-02  0.8439738E-01
        1   -1    0    0  501    0  0.00000000000E+00  0.00000000000E+00  0.16148774286E+04  0.16148774286E+04  0.50400001928E-02 0. -1.
       -1   -1    0    0    0  501  0.00000000000E+00  0.00000000000E+00 -0.89124426849E+03  0.89124426850E+03  0.50400001928E-02 0.  1.
    10030    2    1    2    0    0  0.00000000000E+00  0.00000000000E+00  0.72363316010E+03  0.25061216971E+04  0.23993751291E+04 0.  0.
        2    1    3    3  502    0  0.71003836092E+03 -0.96697077928E+03  0.37012605559E+03  0.12554601782E+04  0.25500000920E-02 0. -1.
       -2    1    3    3    0  502 -0.71003836092E+03  0.96697077928E+03  0.35350710451E+03  0.12506615189E+04  0.25500000920E-02 0.  1.
</event>
<event>
 5   0  0.1291468E-06  0.2400745E+04  0.7818609E-02  0.8439225E-01
        2   -1    0    0  501    0  0.00000000000E+00  0.00000000000E+00  0.12366839245E+04  0.12366839245E+04  0.25500000920E-02 0. -1.
       -2   -1    0    0    0  501  0.00000000000E+00  0.00000000000E+00 -0.11651269946E+04  0.11651269946E+04  0.25500000920E-02 0.  1.
    10030    2    1    2    0    0  0.00000000000E+00  0.00000000000E+00  0.71556929905E+02  0.24018109191E+04  0.24007447380E+04 0.  0.
        4    1    3    3  502    0  0.71920964478E+03 -0.73739502164E+03 -0.58083792011E+03  0.11825346648E+04  0.12699999809E+01 0.  1.
       -4    1    3    3    0  502 -0.71920964478E+03  0.73739502164E+03  0.65239485001E+03  0.12192762543E+04  0.12699999809E+01 0. -1.
</event>
<event>
 5   0  0.1291468E-06  0.2397935E+04  0.7818609E-02  0.8440277E-01
       -2   -1    0    0    0  501  0.00000000000E+00  0.00000000000E+00  0.13147728616E+04  0.13147728616E+04  0.25500000920E-02 0. -1.
        2   -1    0    0  501    0  0.00000000000E+00  0.00000000000E+00 -0.10933621518E+04  0.10933621518E+04  0.25500000920E-02 0.  1.
    10030    2    1    2    0    0  0.00000000000E+00  0.00000000000E+00  0.22141070979E+03  0.24081350134E+04  0.23979348490E+04 0.  0.
        4    1    3    3  502    0 -0.36474705975E+03  0.92700455241E+03 -0.55932338145E+03  0.11424631792E+04  0.12699999809E+01 0.  1.
       -4    1    3    3    0  502  0.36474705975E+03 -0.92700455241E+03  0.78073409123E+03  0.12656718342E+04  0.12699999809E+01 0. -1.
</event>
<event>
 5   0  0.1336057E-06  0.2401998E+04  0.7818609E-02  0.8438756E-01
        2   -1    0    0  501    0  0.00000000000E+00  0.00000000000E+00  0.21830806918E+04  0.21830806918E+04  0.25500000920E-02 0.  1.
       -2   -1    0    0    0  501  0.00000000000E+00  0.00000000000E+00 -0.66071719059E+03  0.66071719060E+03  0.25500000920E-02 0. -1.
    10030    2    1    2    0    0  0.00000000000E+00  0.00000000000E+00  0.15223635012E+04  0.28437978824E+04  0.24019982861E+04 0.  0.
        2    1    3    3  502    0  0.71116621827E+03  0.96591434988E+03  0.68964435043E+03  0.13836029963E+04  0.25500000920E-02 0. -1.
       -2    1    3    3    0  502 -0.71116621827E+03 -0.96591434988E+03  0.83271915081E+03  0.14601948861E+04  0.25500000920E-02 0.  1.
</event>
<event>
 5   0  0.1275948E-06  0.2401114E+04  0.7818609E-02  0.8439087E-01
       -2   -1    0    0    0  501  0.00000000000E+00  0.00000000000E+00  0.47896951982E+03  0.47896951982E+03  0.25500000920E-02 0.  1.
        2   -1    0    0  501    0  0.00000000000E+00  0.00000000000E+00 -0.30092465592E+04  0.30092465592E+04  0.25500000920E-02 0. -1.
    10030    2    1    2    0    0  0.00000000000E+00  0.00000000000E+00 -0.25302770394E+04  0.34882160791E+04  0.24011142243E+04 0.  0.
        1    1    3    3  502    0  0.11338933162E+04  0.32382241278E+03 -0.93782683277E+03  0.15066831704E+04  0.50400001928E-02 0. -1.
       -1    1    3    3    0  502 -0.11338933162E+04 -0.32382241278E+03 -0.15924502066E+04  0.19815329087E+04  0.50400001928E-02 0.  1.
</event>
<event>
 5   0  0.1291468E-06  0.2401122E+04  0.7818609E-02  0.8439084E-01
       -2   -1    0    0    0  501  0.00000000000E+00  0.00000000000E+00  0.93862435250E+03  0.93862435250E+03  0.25500000920E-02 0. -1.
        2   -1    0    0  501    0  0.00000000000E+00  0.00000000000E+00 -0.15355950877E+04  0.15355950877E+04  0.25500000920E-02 0.  1.
    10030    2    1    2    0    0  0.00000000000E+00  0.00000000000E+00 -0.59697073519E+03  0.24742194402E+04  0.24011221917E+04 0.  0.
        4    1    3    3  502    0  0.81430239327E+03 -0.84116705242E+03 -0.57246488768E+03  0.13032145097E+04  0.12699999809E+01 0.  1.
       -4    1    3    3    0  502 -0.81430239327E+03  0.84116705242E+03 -0.24505847513E+02  0.11710049305E+04  0.12699999809E+01 0. -1.
</event>
<event>
 5   0  0.1308662E-06  0.2399863E+04  0.7818609E-02  0.8439555E-01
        2   -1    0    0  501    0  0.00000000000E+00  0.00000000000E+00  0.12735147762E+04  0.12735147762E+04  0.25500000920E-02 0. -1.
       -2   -1    0    0    0  501  0.00000000000E+00  0.00000000000E+00 -0.11305996083E+04  0.11305996083E+04  0.25500000920E-02 0.  1.
    10030    2    1    2    0    0  0.00000000000E+00  0.00000000000E+00  0.14291516784E+03  0.24041143845E+04  0.23998627520E+04 0.  0.
        3    1    3    3  502    0 -0.12658010065E+01  0.10696096033E+04 -0.47335238016E+03  0.11696703774E+04  0.10100000352E+00 0.  1.
       -3    1    3    3    0  502  0.12658010065E+01 -0.10696096033E+04  0.61626754800E+03  0.12344440071E+04  0.10100000352E+00 0. -1.
</event>
<event>
 5   0  0.5510176E-07  0.2398767E+04  0.7818609E-02  0.8439965E-01
        1   -1    0    0  501    0  0.00000000000E+00  0.00000000000E+00  0.10438363512E+04  0.10438363513E+04  0.50400001928E-02 0.  1.
       -1   -1    0    0    0  501  0.00000000000E+00  0.00000000000E+00 -0.13781099611E+04  0.13781099611E+04  0.50400001928E-02 0. -1.
    10030    2    1    2    0    0  0.00000000000E+00  0.00000000000E+00 -0.33427360985E+03  0.24219463124E+04  0.23987674113E+04 0.  0.
        3    1    3    3  502    0 -0.17461460852E+03 -0.36191952164E+03  0.97384709634E+03  0.10534961694E+04  0.10100000352E+00 0.  1.
       -3    1    3    3    0  502  0.17461460852E+03  0.36191952164E+03 -0.13081207062E+04  0.13684501430E+04  0.10100000352E+00 0. -1.
</event>
<event>
 5   0  0.5510176E-07  0.2401433E+04  0.7818609E-02  0.8438967E-01
        1   -1    0    0  501    0  0.00000000000E+00  0.00000000000E+00  0.15581937027E+04  0.15581937028E+04  0.50400001928E-02 0.  1.
       -1   -1    0    0    0  501  0.00000000000E+00  0.00000000000E+00 -0.92525074786E+03  0.92525074788E+03  0.50400001928E-02 0. -1.
    10030    2    1    2    0    0  0.00000000000E+00  0.00000000000E+00  0.63294295489E+03  0.24834444506E+04  0.24014328130E+04 0.  0.
        3    1    3    3  502    0 -0.81730351145E+03  0.35130547338E+03  0.11504355387E+04  0.14542704372E+04  0.10100000352E+00 0.  1.
       -3    1    3    3    0  502  0.81730351145E+03 -0.35130547338E+03 -0.51749258384E+03  0.10291740135E+04  0.10100000352E+00 0. -1.
</event>
<event>
 5   0  0.5363690E-07  0.2399773E+04  0.7818609E-02  0.8439589E-01
        1   -1    0    0  501    0  0.00000000000E+00  0.00000000000E+00  0.11068091168E+04  0.11068091168E+04  0.50400001928E-02 0. -1.
       -1   -1    0    0    0  501  0.00000000000E+00  0.00000000000E+00 -0.13007913630E+04  0.13007913630E+04  0.50400001928E-02 0.  1.
    10030    2    1    2    0    0  0.00000000000E+00  0.00000000000E+00 -0.19398224622E+03  0.24076004798E+04  0.23997731057E+04 0.  0.
        4    1    3    3  502    0 -0.96250714316E+02 -0.81519977443E+03 -0.97500921531E+03  0.12745428416E+04  0.12699999809E+01 0.  1.
       -4    1    3    3    0  502  0.96250714316E+02  0.81519977443E+03  0.78102696908E+03  0.11330576382E+04  0.12699999809E+01 0. -1.
</event>
<event>
 5   0  0.5527286E-07  0.2400245E+04  0.7818609E-02  0.8439412E-01
        1   -1    0    0  501    0  0.00000000000E+00  0.00000000000E+00  0.14653470633E+04  0.14653470633E+04  0.50400001928E-02 0.  1.
       -1   -1    0    0    0  501  0.00000000000E+00  0.00000000000E+00 -0.98290305802E+03  0.98290305803E+03  0.50400001928E-02 0. -1.
    10030    2    1    2    0    0  0.00000000000E+00  0.00000000000E+00  0.48244400524E+03  0.24482501213E+04  0.24002450788E+04 0.  0.
        1    1    3    3  502    0 -0.30997187234E+03  0.68453690103E+03 -0.71323908270E+03  0.10360421418E+04  0.50400001928E-02 0. -1.
       -1    1    3    3    0  502  0.30997187234E+03 -0.68453690103E+03  0.11956830879E+04  0.14122079795E+04  0.50400001928E-02 0.  1.
</event>
<event>
 5   0  0.1275948E-06  0.2399791E+04  0.7818609E-02  0.8439582E-01
       -2   -1    0    0    0  501  0.00000000000E+00  0.00000000000E+00  0.10021765684E+04  0.10021765684E+04  0.25500000920E-02 0. -1.
        2   -1    0    0  501    0  0.00000000000E+00  0.00000000000E+00 -0.14366220657E+04  0.14366220657E+04  0.25500000920E-02 0.  1.
    10030    2    1    2    0    0  0.00000000000E+00  0.00000000000E+00 -0.43444549735E+03  0.24387986341E+04  0.23997908008E+04 0.  0.
        1    1    3    3  502    0 -0.11481345463E+04 -0.34235292114E+03 -0.15034644999E+03  0.12074860306E+04  0.50400001928E-02 0. -1.
       -1    1    3    3    0  502  0.11481345463E+04  0.34235292114E+03 -0.28409904736E+03  0.12313126036E+04  0.50400001928E-02 0.  1.
</event>
<event>
 5   0  0.1291468E-06  0.2400266E+04  0.7818609E-02  0.8439404E-01
        2   -1    0    0  501    0  0.00000000000E+00  0.00000000000E+00  0.22028123227E+04  0.22028123227E+04  0.25500000920E-02 0. -1.
       -2   -1    0    0    0  501  0.00000000000E+00  0.00000000000E+00 -0.65385484603E+03  0.65385484604E+03  0.25500000920E-02 0.  1.
    10030    2    1    2    0    0  0.00000000000E+00  0.00000000000E+00  0.15489574766E+04  0.28566671687E+04  0.24002662453E+04 0.  0.
        4    1    3    3  502    0 -0.20998068818E+03  0.42674496758E+03  0.20858633769E+04  0.21393996347E+04  0.12699999809E+01 0. -1.
       -4    1    3    3    0  502  0.20998068818E+03 -0.42674496758E+03 -0.53690590027E+03  0.71726753405E+03  0.12699999809E+01 0.  1.
</event>
<event>
 5   0  0.1336057E-06  0.2400124E+04  0.7818609E-02  0.8439457E-01
        2   -1    0    0  501    0  0.00000000000E+00  0.00000000000E+00  0.28504862232E+04  0.28504862232E+04  0.25500000920E-02 0. -1.
       -2   -1    0    0    0  501  0.00000000000E+00  0.00000000000E+00 -0.50522922102E+03  0.50522922103E+03  0.25500000920E-02 0.  1.
    10030    2    1    2    0    0  0.00000000000E+00  0.00000000000E+00  0.23452570022E+04  0.33557154443E+04  0.24001241086E+04 0.  0.
        2    1    3    3  502    0  0.84949372247E+03  0.58388532752E+02  0.23549480094E+04  0.25041623215E+04  0.25500000920E-02 0. -1.
       -2    1    3    3    0  502 -0.84949372247E+03 -0.58388532752E+02 -0.96910072191E+01  0.85155312277E+03  0.25500000920E-02 0.  1.
</event>
<event>
 5   0  0.5452384E-07  0.2399318E+04  0.7818609E-02  0.8439759E-01
        1   -1    0    0  501    0  0.00000000000E+00  0.00000000000E+00  0.12554453813E+04  0.12554453813E+04  0.50400001928E-02 0. -1.
       -1   -1    0    0    0  501  0.00000000000E+00  0.00000000000E+00 -0.11463517399E+04  0.11463517399E+04  0.50400001928E-02 0.  1.
    10030    2    1    2    0    0  0.00000000000E+00  0.00000000000E+00  0.10909364137E+03  0.24017971212E+04  0.23993182342E+04 0.  0.
        5    1    3    3  502    0  0.85802097518E+03  0.31510640262E+03  0.83231020853E+03  0.12362258742E+04  0.46999998093E+01 0. -1.
       -5    1    3    3    0  502 -0.85802097518E+03 -0.31510640262E+03 -0.72321656716E+03  0.11655712470E+04  0.46999998093E+01 0.  1.
</event>
<event>
 5   0  0.5510176E-07  0.2402006E+04  0.7818609E-02  0.8438753E-01
       -1   -1    0    0    0  501  0.00000000000E+00  0.00000000000E+00  0.13003864956E+04  0.13003864956E+04  0.50400001928E-02 0. -1.
        1   -1    0    0  501    0  0.00000000000E+00  0.00000000000E+00 -0.11092148111E+04  0.11092148111E+04  0.50400001928E-02 0.  1.
    10030    2    1    2    0    0  0.00000000000E+00  0.00000000000E+00  0.19117168447E+03  0.24096013067E+04  0.24020057961E+04 0.  0.
        3    1    3    3  502    0 -0.54742197050E+03 -0.26107685069E+03  0.11354813698E+04  0.12873033392E+04  0.10100000352E+00 0. -1.
       -3    1    3    3    0  502  0.54742197050E+03  0.26107685069E+03 -0.94430968535E+03  0.11222979675E+04  0.10100000352E+00 0.  1.
</event>
<event>
 5   0  0.1275948E-06  0.2400451E+04  0.7818609E-02  0.8439335E-01
        2   -1    0    0  501    0  0.00000000000E+00  0.00000000000E+00  0.16746990916E+04  0.16746990916E+04  0.25500000920E-02 0. -1.
       -2   -1    0    0    0  501  0.00000000000E+00  0.00000000000E+00 -0.86017905750E+03  0.86017905751E+03  0.25500000920E-02 0.  1.
    10030    2    1    2    0    0  0.00000000000E+00  0.00000000000E+00  0.81452003412E+03  0.25348781491E+04  0.24004508628E+04 0.  0.
        1    1    3    3  502    0 -0.72477798237E+02 -0.55036198789E+03 -0.71647064128E+03  0.90635618208E+03  0.50400001928E-02 0.  1.
       -1    1    3    3    0  502  0.72477798237E+02  0.55036198789E+03  0.15309906754E+04  0.16285219670E+04  0.50400001928E-02 0. -1.
</event>
<event>
 5   0  0.5363690E-07  0.2400516E+04  0.7818609E-02  0.8439310E-01
       -1   -1    0    0    0  501  0.00000000000E+00  0.00000000000E+00  0.96620997599E+03  0.96620997600E+03  0.50400001928E-02 0. -1.
        1   -1    0    0  501    0  0.00000000000E+00  0.00000000000E+00 -0.14910006876E+04  0.14910006876E+04  0.50400001928E-02 0.  1.
    10030    2    1    2    0    0  0.00000000000E+00  0.00000000000E+00 -0.52479071163E+03  0.24572106636E+04  0.24005163933E+04 0.  0.
        4    1    3    3  502    0 -0.75397179644E+03  0.26838333038E+03 -0.11780125367E+04  0.14241552694E+04  0.12699999809E+01 0.  1.
       -4    1    3    3    0  502  0.75397179644E+03 -0.26838333038E+03  0.65322182509E+03  0.10330553942E+04  0.12699999809E+01 0. -1.
</event>
<event>
 5   0  0.5510176E-07  0.2399553E+04  0.7818609E-02  0.8439671E-01
       -1   -1    0    0    0  501  0.00000000000E+00  0.00000000000E+00  0.11406206655E+04  0.11406206655E+04  0.50400001928E-02 0. -1.
        1   -1    0    0  501    0  0.00000000000E+00  0.00000000000E+00 -0.12620001448E+04  0.12620001448E+04  0.50400001928E-02 0.  1.
    10030    2    1    2    0    0  0.00000000000E+00  0.00000000000E+00 -0.12137947931E+03  0.24026208103E+04  0.23995528292E+04 0.  0.
        3    1    3    3  502    0  0.39002092046E+03 -0.19411806686E+03  0.10586238396E+04  0.11447631136E+04  0.10100000352E+00 0. -1.
       -3    1    3    3    0  502 -0.39002092046E+03  0.19411806686E+03 -0.11800033189E+04  0.12578576967E+04  0.10100000352E+00 0.  1.
</event>
<event>
 5   0  0.5527286E-07  0.2401967E+04  0.7818609E-02  0.8438767E-01
        1   -1    0    0  501    0  0.00000000000E+00  0.00000000000E+00  0.18734099926E+04  0.18734099926E+04  0.50400001928E-02 0.  1.
       -1   -1    0    0    0  501  0.00000000000E+00  0.00000000000E+00 -0.76991247464E+03  0.76991247465E+03  0.50400001928E-02 0. -1.
    10030    2    1    2    0    0  0.00000000000E+00  0.00000000000E+00  0.11034975180E+04  0.26433224673E+04  0.24019672966E+04 0.  0.
        1    1    3    3  502    0 -0.68111431517E+03  0.19170274728E+03 -0.51616997598E+03  0.87584136564E+03  0.50400001928E-02 0. -1.
       -1    1    3    3    0  502  0.68111431517E+03 -0.19170274728E+03  0.16196674940E+04  0.17674811017E+04  0.50400001928E-02 0.  1.
</event>
<event>
 5   0  0.5452384E-07  0.2401643E+04  0.7818609E-02  0.8438889E-01
        1   -1    0    0  501    0  0.00000000000E+00  0.00000000000E+00  0.10441670314E+04  0.10441670314E+04  0.50400001928E-02 0.  1.
       -1   -1    0    0    0  501  0.00000000000E+00  0.00000000000E+00 -0.13809789727E+04  0.13809789727E+04  0.50400001928E-02 0. -1.
    10030    2    1    2    0    0  0.00000000000E+00  0.00000000000E+00 -0.33681194130E+03  0.24251460041E+04  0.24016433660E+04 0.  0.
        5    1    3    3  502    0  0.94742190307E+03  0.55860809501E+03  0.31828509973E+03  0.11449798081E+04  0.46999998093E+01 0. -1.
       -5    1    3    3    0  502 -0.94742190307E+03 -0.55860809501E+03 -0.65509704103E+03  0.12801661960E+04  0.46999998093E+01 0.  1.
</event>
<event>
 5   0  0.5510176E-07  0.2399630E+04  0.7818609E-02  0.8439642E-01
        1   -1    0    0  501    0  0.00000000000E+00  0.00000000000E+00  0.11660795057E+04  0.11660795057E+04  0.50400001928E-02 0.  1.
       -1   -1    0    0    0  501  0.00000000000E+00  0.00000000000E+00 -0.12345267122E+04  0.12345267122E+04  0.50400001928E-02 0. -1.
    10030    2    1    2    0    0  0.00000000000E+00  0.00000000000E+00 -0.68447206515E+02  0.24006062179E+04  0.23996302201E+04 0.  0.
        3    1    3    3  502    0 -0.92785901551E+03  0.54056147625E+03  0.50118303603E+03  0.11850373446E+04  0.10100000352E+00 0.  1.
       -3    1    3    3    0  502  0.92785901551E+03 -0.54056147625E+03 -0.56963024255E+03  0.12155688733E+04  0.10100000352E+00 0. -1.
</event>
<event>
 5   0  0.1291468E-06  0.2399083E+04  0.7818609E-02  0.8439847E-01
        2   -1    0    0  501    0  0.00000000000E+00  0.00000000000E+00  0.17407503699E+04  0.17407503699E+04  0.25500000920E-02 0.  1.
       -2   -1    0    0    0  501  0.00000000000E+00  0.00000000000E+00 -0.82659766932E+03  0.82659766932E+03  0.25500000920E-02 0. -1.
    10030    2    1    2    0    0  0.00000000000E+00  0.00000000000E+00  0.91415270057E+03  0.25673480392E+04  0.23990833238E+04 0.  0.
        4    1    3    3  502    0 -0.65880466048E+03  0.15149323884E+03 -0.60334516465E+03  0.90609093511E+03  0.12699999809E+01 0. -1.
       -4    1    3    3    0  502  0.65880466048E+03 -0.15149323884E+03  0.15174978652E+04  0.16612571041E+04  0.12699999809E+01 0.  1.
</event>
<event>
 5   0  0.1275948E-06  0.2400731E+04  0.7818609E-02  0.8439230E-01
       -2   -1    0    0    0  501  0.00000000000E+00  0.00000000000E+00  0.21017358781E+04  0.21017358781E+04  0.25500000920E-02 0. -1.
        2   -1    0    0  501    0  0.00000000000E+00  0.00000000000E+00 -0.68556528781E+03  0.68556528782E+03  0.25500000920E-02 0.  1.
    10030    2    1    2    0    0  0.00000000000E+00  0.00000000000E+00  0.14161705903E+04  0.27873011659E+04  0.24007308572E+04 0.  0.
        1    1    3    3  502    0  0.47850996888E+03  0.10559064657E+04  0.34654875747E+03  0.12099612787E+04  0.50400001928E-02 0.  1.
       -1    1    3    3    0  502 -0.47850996888E+03 -0.10559064657E+04  0.10696218328E+04  0.15773398872E+04  0.50400001928E-02 0. -1.
</event>
<event>
 5   0  0.5363690E-07  0.2401690E+04  0.7818609E-02  0.8438871E-01
        1   -1    0    0  501    0  0.00000000000E+00  0.00000000000E+00  0.14772944160E+04  0.14772944160E+04  0.50400001928E-02 0. -1.
       -1   -1    0    0    0  501  0.00000000000E+00  0.00000000000E+00 -0.97612850058E+03  0.97612850059E+03  0.50400001928E-02 0.  1.
    10030    2    1    2    0    0  0.00000000000E+00  0.00000000000E+00  0.50116591545E+03  0.24534229166E+04  0.24016903908E+04 0.  0.
        4    1    3    3  502    0  0.18102713222E+03 -0.11861096821E+04  0.20053197917E+03  0.12164874385E+04  0.12699999809E+01 0.  1.
       -4    1    3    3    0  502 -0.18102713222E+03  0.11861096821E+04  0.30063393628E+03  0.12369354781E+04  0.12699999809E+01 0. -1.
</event>
<event>
 5   0  0.1307477E-06  0.2399748E+04  0.7818609E-02  0.8439598E-01
       -2   -1    0    0    0  501  0.00000000000E+00  0.00000000000E+00  0.85761327408E+03  0.85761327408E+03  0.25500000920E-02 0. -1.
        2   -1    0    0  501    0  0.00000000000E+00  0.00000000000E+00 -0.16787262938E+04  0.16787262939E+04  0.25500000920E-02 0.  1.
    10030    2    1    2    0    0  0.00000000000E+00  0.00000000000E+00 -0.82111301977E+03  0.25363395679E+04  0.23997482811E+04 0.  0.
        5    1    3    3  502    0  0.88508991857E+03  0.52435407023E+03  0.24212371708E+03  0.10568714867E+04  0.46999998093E+01 0.  1.
       -5    1    3    3    0  502 -0.88508991857E+03 -0.52435407023E+03 -0.10632367369E+04  0.14794680813E+04  0.46999998093E+01 0. -1.
</event>
<event>
 5   0  0.5363690E-07  0.2400357E+04  0.7818609E-02  0.8439370E-01
        1   -1    0    0  501    0  0.00000000000E+00  0.00000000000E+00  0.17281170708E+04  0.17281170709E+04  0.50400001928E-02 0.  1.
       -1   -1    0    0    0  501  0.00000000000E+00  0.00000000000E+00 -0.83352491289E+03  0.83352491291E+03  0.50400001928E-02 0. -1.
    10030    2    1    2    0    0  0.00000000000E+00  0.00000000000E+00  0.89459215796E+03  0.25616419838E+04  0.24003571659E+04 0.  0.
        4    1    3    3  502    0  0.50631914939E+02  0.84945656267E+03 -0.45590841824E+03  0.96539843660E+03  0.12699999809E+01 0. -1.
       -4    1    3    3    0  502 -0.50631914939E+02 -0.84945656267E+03  0.13505005762E+04  0.15962435472E+04  0.12699999809E+01 0.  1.
</event>
<event>
 5   0  0.5527286E-07  0.2397692E+04  0.7818609E-02  0.8440368E-01
        1   -1    0    0  501    0  0.00000000000E+00  0.00000000000E+00  0.88470415237E+03  0.88470415239E+03  0.50400001928E-02 0.  1.
       -1   -1    0    0    0  501  0.00000000000E+00  0.00000000000E+00 -0.16245343852E+04  0.16245343852E+04  0.50400001928E-02 0. -1.
    10030    2    1    2    0    0  0.00000000000E+00  0.00000000000E+00 -0.73983023279E+03  0.25092385376E+04  0.23976924876E+04 0.  0.
        1    1    3    3  502    0  0.66157967556E+03  0.13508538535E+03  0.66677417084E+03  0.94895917898E+03  0.50400001928E-02 0.  1.
       -1    1    3    3    0  502 -0.66157967556E+03 -0.13508538535E+03 -0.14066044036E+04  0.15602793586E+04  0.50400001928E-02 0. -1.
</event>
<event>
 5   0  0.5527286E-07  0.2397892E+04  0.7818609E-02  0.8440293E-01
        1   -1    0    0  501    0  0.00000000000E+00  0.00000000000E+00  0.16301782054E+04  0.16301782054E+04  0.50400001928E-02 0.  1.
       -1   -1    0    0    0  501  0.00000000000E+00  0.00000000000E+00 -0.88178766904E+03  0.88178766906E+03  0.50400001928E-02 0. -1.
    10030    2    1    2    0    0  0.00000000000E+00  0.00000000000E+00  0.74839053639E+03  0.25119658745E+04  0.23978916072E+04 0.  0.
        1    1    3    3  502    0  0.12119585987E+02 -0.42350039426E+03  0.15491458507E+04  0.16060362185E+04  0.50400001928E-02 0.  1.
       -1    1    3    3    0  502 -0.12119585987E+02  0.42350039426E+03 -0.80075531429E+03  0.90592965604E+03  0.50400001928E-02 0. -1.
</event>
<event>
 5   0  0.5510176E-07  0.2402254E+04  0.7818609E-02  0.8438660E-01
        1   -1    0    0  501    0  0.00000000000E+00  0.00000000000E+00  0.13066209105E+04  0.13066209105E+04  0.50400001928E-02 0.  1.
       -1   -1    0    0    0  501  0.00000000000E+00  0.00000000000E+00 -0.11041502892E+04  0.11041502893E+04  0.50400001928E-02 0. -1.
    10030    2    1    2    0    0  0.00000000000E+00  0.00000000000E+00  0.20247062127E+03  0.24107711998E+04  0.24022538220E+04 0.  0.
        3    1    3    3  502    0 -0.15686598111E+03 -0.31200168920E+03 -0.10520799674E+04  0.11085234585E+04  0.10100000352E+00 0. -1.
       -3    1    3    3    0  502  0.15686598111E+03  0.31200168920E+03  0.12545505886E+04  0.13022477413E+04  0.10100000352E+00 0.  1.
</event>
<event>
 5   0  0.1307477E-06  0.2416136E+04  0.7818609E-02  0.8433487E-01
       -2   -1    0    0    0  501  0.00000000000E+00  0.00000000000E+00  0.11534692918E+04  0.11534692918E+04  0.25500000920E-02 0.  1.
        2   -1    0    0  501    0  0.00000000000E+00  0.00000000000E+00 -0.12652508216E+04  0.12652508216E+04  0.25500000920E-02 0. -1.
    10030    2    1    2    0    0  0.00000000000E+00  0.00000000000E+00 -0.11178152982E+03  0.24187201133E+04  0.24161357322E+04 0.  0.
        5    1    3    3  502    0  0.15405781216E+03  0.33733217907E+03 -0.12068505543E+04  0.12625518441E+04  0.46999998093E+01 0. -1.
       -5    1    3    3    0  502 -0.15405781216E+03 -0.33733217907E+03  0.10950690245E+04  0.11561682693E+04  0.46999998093E+01 0.  1.
</event>
<event>
 5   0  0.1275948E-06  0.2399422E+04  0.7818609E-02  0.8439720E-01
       -2   -1    0    0    0  501  0.00000000000E+00  0.00000000000E+00  0.75147019487E+03  0.75147019488E+03  0.25500000920E-02 0. -1.
        2   -1    0    0  501    0  0.00000000000E+00  0.00000000000E+00 -0.19153201987E+04  0.19153201987E+04  0.25500000920E-02 0.  1.
    10030    2    1    2    0    0  0.00000000000E+00  0.00000000000E+00 -0.11638500038E+04  0.26667903936E+04  0.23994216328E+04 0.  0.
        1    1    3    3  502    0 -0.37390390355E+03 -0.10671886938E+04 -0.10273441482E+04  0.15277865807E+04  0.50400001928E-02 0.  1.
       -1    1    3    3    0  502  0.37390390355E+03  0.10671886938E+04 -0.13650585564E+03  0.11390038129E+04  0.50400001928E-02 0. -1.
</event>
<event>
 5   0  0.5363690E-07  0.2400823E+04  0.7818609E-02  0.8439195E-01
        1   -1    0    0  501    0  0.00000000000E+00  0.00000000000E+00  0.11351308587E+04  0.11351308587E+04  0.50400001928E-02 0. -1.
       -1   -1    0    0    0  501  0.00000000000E+00  0.00000000000E+00 -0.12694466838E+04  0.12694466838E+04  0.50400001928E-02 0.  1.
    10030    2    1    2    0    0  0.00000000000E+00  0.00000000000E+00 -0.13431582502E+03  0.24045775425E+04  0.24008232790E+04 0.  0.
        4    1    3    3  502    0  0.70735072169E+03  0.55573682735E+03 -0.86325809922E+03  0.12467576443E+04  0.12699999809E+01 0.  1.
       -4    1    3    3    0  502 -0.70735072169E+03 -0.55573682735E+03  0.72894227420E+03  0.11578198982E+04  0.12699999809E+01 0. -1.
</event>
<event>
 5   0  0.5510176E-07  0.2400842E+04  0.7818609E-02  0.8439188E-01
        1   -1    0    0  501    0  0.00000000000E+00  0.00000000000E+00  0.18875892509E+04  0.18875892509E+04  0.50400001928E-02 0.  1.
       -1   -1    0    0    0  501  0.00000000000E+00  0.00000000000E+00 -0.76341305108E+03  0.76341305110E+03  0.50400001928E-02 0. -1.
    10030    2    1    2    0    0  0.00000000000E+00  0.00000000000E+00  0.11241761998E+04  0.26510023020E+04  0.24008417434E+04 0.  0.
        3    1    3    3  502    0 -0.79188719650E+03 -0.40435600504E+03  0.14526085522E+04  0.17031326216E+04  0.10100000352E+00 0.  1.
       -3    1    3    3    0  502  0.79188719650E+03  0.40435600504E+03 -0.32843235232E+03  0.94786968041E+03  0.10100000352E+00 0. -1.
</event>
<event>
 5   0  0.1307477E-06  0.2400363E+04  0.7818609E-02  0.8439368E-01
       -2   -1    0    0    0  501  0.00000000000E+00  0.00000000000E+00  0.10045469265E+04  0.10045469265E+04  0.25500000920E-02 0. -1.
        2   -1    0    0  501    0  0.00000000000E+00  0.00000000000E+00 -0.14339156979E+04  0.14339156979E+04  0.25500000920E-02 0.  1.
    10030    2    1    2    0    0  0.00000000000E+00  0.00000000000E+00 -0.42936877137E+03  0.24384626243E+04  0.24003629785E+04 0.  0.
        5    1    3    3  502    0  0.60640552509E+03  0.17641539585E+03  0.82208473148E+03  0.10366751895E+04  0.46999998093E+01 0. -1.
       -5    1    3    3    0  502 -0.60640552509E+03 -0.17641539585E+03 -0.12514535029E+04  0.14017874349E+04  0.46999998093E+01 0.  1.
</event>
<event>
 5   0  0.5510176E-07  0.2401712E+04  0.7818609E-02  0.8438863E-01
       -1   -1    0    0    0  501  0.00000000000E+00  0.00000000000E+00  0.15605761809E+04  0.15605761809E+04  0.50400001928E-02 0.  1.
        1   -1    0    0  501    0  0.00000000000E+00  0.00000000000E+00 -0.92405332110E+03  0.92405332111E+03  0.50400001928E-02 0. -1.
    10030    2    1    2    0    0  0.00000000000E+00  0.00000000000E+00  0.63652285977E+03  0.24846295020E+04  0.24017123914E+04 0.  0.
        3    1    3    3  502    0  0.23663837377E+03  0.65975274425E+03 -0.69048407953E+03  0.98389007403E+03  0.10100000352E+00 0. -1.
       -3    1    3    3    0  502 -0.23663837377E+03 -0.65975274425E+03  0.13270069393E+04  0.15007394280E+04  0.10100000352E+00 0.  1.
</event>
<event>
 5   0  0.5510176E-07  0.2402156E+04  0.7818609E-02  0.8438697E-01
       -1   -1    0    0    0  501  0.00000000000E+00  0.00000000000E+00  0.67707013144E+03  0.67707013146E+03  0.50400001928E-02 0. -1.
        1   -1    0    0  501    0  0.00000000000E+00  0.00000000000E+00 -0.21306333145E+04  0.21306333145E+04  0.50400001928E-02 0.  1.
    10030    2    1    2    0    0  0.00000000000E+00  0.00000000000E+00 -0.14535631831E+04  0.28077034460E+04  0.24021558470E+04 0.  0.
        3    1    3    3  502    0  0.35789984376E+03  0.94216700517E+03 -0.14903905474E+04  0.17991761887E+04  0.10100000352E+00 0.  1.
       -3    1    3    3    0  502 -0.35789984376E+03 -0.94216700517E+03  0.36827364355E+02  0.10085272573E+04  0.10100000352E+00 0. -1.
</event>
<event>
 5   0  0.1291468E-06  0.2405273E+04  0.7818609E-02  0.8437532E-01
       -2   -1    0    0    0  501  0.00000000000E+00  0.00000000000E+00  0.91088487216E+03  0.91088487217E+03  0.25500000920E-02 0.  1.
        2   -1    0    0  501    0  0.00000000000E+00  0.00000000000E+00 -0.15878343439E+04  0.15878343439E+04  0.25500000920E-02 0. -1.
    10030    2    1    2    0    0  0.00000000000E+00  0.00000000000E+00 -0.67694947174E+03  0.24987192161E+04  0.24052727774E+04 0.  0.
        4    1    3    3  502    0 -0.19503312031E+03 -0.11017419820E+04  0.11963291402E+03  0.11252497322E+04  0.12699999809E+01 0.  1.
       -4    1    3    3    0  502  0.19503312031E+03  0.11017419820E+04 -0.79658238576E+03  0.13734694838E+04  0.12699999809E+01 0. -1.
</event>
<event>
 5   0  0.1336057E-06  0.2404943E+04  0.7818609E-02  0.8437655E-01
       -2   -1    0    0    0  501  0.00000000000E+00  0.00000000000E+00  0.72881846711E+03  0.72881846712E+03  0.25500000920E-02 0.  1.
        2   -1    0    0  501    0  0.00000000000E+00  0.00000000000E+00 -0.19839481152E+04  0.19839481152E+04  0.25500000920E-02 0. -1.
    10030    2    1    2    0    0  0.00000000000E+00  0.00000000000E+00 -0.12551296480E+04  0.27127665823E+04  0.24049432626E+04 0.  0.
        2    1    3    3  502    0 -0.11547449122E+04  0.33495084819E+03 -0.60769988143E+03  0.13471922761E+04  0.25500000920E-02 0. -1.
       -2    1    3    3    0  502  0.11547449122E+04 -0.33495084819E+03 -0.64742976661E+03  0.13655743062E+04  0.25500000920E-02 0.  1.
</event>
<event>
 5   0  0.5690124E-07  0.2402923E+04  0.7818609E-02  0.8438410E-01
        1   -1    0    0  501    0  0.00000000000E+00  0.00000000000E+00  0.12261383817E+04  0.12261383817E+04  0.50400001928E-02 0. -1.
       -1   -1    0    0    0  501  0.00000000000E+00  0.00000000000E+00 -0.11772813681E+04  0.11772813681E+04  0.50400001928E-02 0.  1.
    10030    2    1    2    0    0  0.00000000000E+00  0.00000000000E+00  0.48857013636E+02  0.24034197498E+04  0.24029231127E+04 0.  0.
        2    1    3    3  502    0 -0.61285518254E+02  0.75402561440E+03 -0.90914499662E+03  0.11827320774E+04  0.25500000920E-02 0.  1.
       -2    1    3    3    0  502  0.61285518254E+02 -0.75402561440E+03  0.95800201025E+03  0.12206876724E+04  0.25500000920E-02 0. -1.
</event>
<event>
 5   0  0.1336057E-06  0.2400749E+04  0.7818609E-02  0.8439223E-01
       -2   -1    0    0    0  501  0.00000000000E+00  0.00000000000E+00  0.55493092431E+03  0.55493092431E+03  0.25500000920E-02 0. -1.
        2   -1    0    0  501    0  0.00000000000E+00  0.00000000000E+00 -0.25965376338E+04  0.25965376338E+04  0.25500000920E-02 0.  1.
    10030    2    1    2    0    0  0.00000000000E+00  0.00000000000E+00 -0.20416067094E+04  0.31514685581E+04  0.24007490740E+04 0.  0.
        2    1    3    3  502    0  0.74904932673E+03 -0.21456126224E+03 -0.22194575909E+04  0.23522549664E+04  0.25500000920E-02 0.  1.
       -2    1    3    3    0  502 -0.74904932673E+03  0.21456126224E+03  0.17785088142E+03  0.79921359170E+03  0.25500000920E-02 0. -1.
</event>
<event>
 5   0  0.5690124E-07  0.2401249E+04  0.7818609E-02  0.8439036E-01
        1   -1    0    0  501    0  0.00000000000E+00  0.00000000000E+00  0.99991544438E+03  0.99991544440E+03  0.50400001928E-02 0.  1.
       -1   -1    0    0    0  501  0.00000000000E+00  0.00000000000E+00 -0.14416216677E+04  0.14416216677E+04  0.50400001928E-02 0. -1.
    10030    2    1    2    0    0  0.00000000000E+00  0.00000000000E+00 -0.44170622330E+03  0.24415371121E+04  0.24012494835E+04 0.  0.
        2    1    3    3  502    0 -0.51728603704E+03 -0.58831030101E+03  0.70425035533E+03  0.10534051535E+04  0.25500000920E-02 0.  1.
       -2    1    3    3    0  502  0.51728603704E+03  0.58831030101E+03 -0.11459565786E+04  0.13881319586E+04  0.25500000920E-02 0. -1.
</event>
<event>
 5   0  0.4483375E-07  0.2399361E+04  0.7818609E-02  0.8439743E-01
        3   -1    0    0  501    0  0.00000000000E+00  0.00000000000E+00  0.10865522967E+04  0.10865523014E+04  0.10100000352E+00 0. -1.
       -3   -1    0    0    0  501  0.00000000000E+00  0.00000000000E+00 -0.13245874164E+04  0.13245874202E+04  0.10100000352E+00 0.  1.
    10030    2    1    2    0    0  0.00000000000E+00  0.00000000000E+00 -0.23803511967E+03  0.24111397216E+04  0.23993611731E+04 0.  0.
        3    1    3    3  502    0 -0.35588090986E+03 -0.11389207638E+04 -0.24389250454E+03  0.12178978989E+04  0.10100000352E+00 0.  1.
       -3    1    3    3    0  502  0.35588090986E+03  0.11389207638E+04  0.58573848706E+01  0.11932418227E+04  0.10100000352E+00 0. -1.
</event>
<event>
 5   0  0.5527286E-07  0.2399558E+04  0.7818609E-02  0.8439669E-01
       -1   -1    0    0    0  501  0.00000000000E+00  0.00000000000E+00  0.47699962489E+03  0.47699962492E+03  0.50400001928E-02 0. -1.
        1   -1    0    0  501    0  0.00000000000E+00  0.00000000000E+00 -0.30177576140E+04  0.30177576140E+04  0.50400001928E-02 0.  1.
    10030    2    1    2    0    0  0.00000000000E+00  0.00000000000E+00 -0.25407579891E+04  0.34947572389E+04  0.23995576675E+04 0.  0.
        1    1    3    3  502    0  0.27223086961E+02 -0.10148376315E+04 -0.33914536172E+03  0.10703532553E+04  0.50400001928E-02 0.  1.
       -1    1    3    3    0  502 -0.27223086961E+02  0.10148376315E+04 -0.22016126274E+04  0.24244039836E+04  0.50400001928E-02 0. -1.
</event>
<event>
 5   0  0.1336057E-06  0.2401160E+04  0.7818609E-02  0.8439070E-01
        2   -1    0    0  501    0  0.00000000000E+00  0.00000000000E+00  0.11131514102E+04  0.11131514102E+04  0.25500000920E-02 0. -1.
       -2   -1    0    0    0  501  0.00000000000E+00  0.00000000000E+00 -0.12948749762E+04  0.12948749762E+04  0.25500000920E-02 0.  1.
    10030    2    1    2    0    0  0.00000000000E+00  0.00000000000E+00 -0.18172356608E+03  0.24080263864E+04  0.24011596413E+04 0.  0.
        2    1    3    3  502    0  0.50598015810E+03 -0.18572628794E+03  0.98499770557E+03  0.11228226282E+04  0.25500000920E-02 0. -1.
       -2    1    3    3    0  502 -0.50598015810E+03  0.18572628794E+03 -0.11667212716E+04  0.12852037582E+04  0.25500000920E-02 0.  1.
</event>
<event>
 5   0  0.1291468E-06  0.2399858E+04  0.7818609E-02  0.8439557E-01
        2   -1    0    0  501    0  0.00000000000E+00  0.00000000000E+00  0.16485399729E+04  0.16485399729E+04  0.25500000920E-02 0.  1.
       -2   -1    0    0    0  501  0.00000000000E+00  0.00000000000E+00 -0.87339651342E+03  0.87339651343E+03  0.25500000920E-02 0. -1.
    10030    2    1    2    0    0  0.00000000000E+00  0.00000000000E+00  0.77514345946E+03  0.25219364863E+04  0.23998575496E+04 0.  0.
        4    1    3    3  502    0 -0.26289157412E+03 -0.80380716519E+03 -0.50697018952E+03  0.98602146250E+03  0.12699999809E+01 0.  1.
       -4    1    3    3    0  502  0.26289157412E+03  0.80380716519E+03  0.12821136490E+04  0.15359150238E+04  0.12699999809E+01 0. -1.
</event>
<event>
 5   0  0.1275948E-06  0.2403104E+04  0.7818609E-02  0.8438342E-01
       -2   -1    0    0    0  501  0.00000000000E+00  0.00000000000E+00  0.59671649037E+03  0.59671649038E+03  0.25500000920E-02 0.  1.
        2   -1    0    0  501    0  0.00000000000E+00  0.00000000000E+00 -0.24194520261E+04  0.24194520261E+04  0.25500000920E-02 0. -1.
    10030    2    1    2    0    0  0.00000000000E+00  0.00000000000E+00 -0.18227355357E+04  0.30161685165E+04  0.24031037611E+04 0.  0.
        1    1    3    3  502    0  0.30953177935E+03  0.81531328092E+03  0.12604371191E+03  0.88115417823E+03  0.50400001928E-02 0. -1.
       -1    1    3    3    0  502 -0.30953177935E+03 -0.81531328092E+03 -0.19487792476E+04  0.21350143382E+04  0.50400001928E-02 0.  1.
</event>
<event>
 5   0  0.1275948E-06  0.2401712E+04  0.7818609E-02  0.8438863E-01
       -2   -1    0    0    0  501  0.00000000000E+00  0.00000000000E+00  0.10646643740E+04  0.10646643740E+04  0.25500000920E-02 0.  1.
        2   -1    0    0  501    0  0.00000000000E+00  0.00000000000E+00 -0.13544693839E+04  0.13544693839E+04  0.25500000920E-02 0. -1.
    10030    2    1    2    0    0  0.00000000000E+00  0.00000000000E+00 -0.28980500982E+03  0.24191337579E+04  0.24017121382E+04 0.  0.
        1    1    3    3  502    0 -0.60053537977E+02  0.10693738136E+04 -0.69187798776E+03  0.12750929106E+04  0.50400001928E-02 0. -1.
       -1    1    3    3    0  502  0.60053537977E+02 -0.10693738136E+04  0.40207297794E+03  0.11440408473E+04  0.50400001928E-02 0.  1.
</event>
<event>
 5   0  0.5690124E-07  0.2399277E+04  0.7818609E-02  0.8439774E-01
        1   -1    0    0  501    0  0.00000000000E+00  0.00000000000E+00  0.19606184074E+04  0.19606184074E+04  0.50400001928E-02 0. -1.
       -1   -1    0    0    0  501  0.00000000000E+00  0.00000000000E+00 -0.73401947035E+03  0.73401947037E+03  0.50400001928E-02 0.  1.
    10030    2    1    2    0    0  0.00000000000E+00  0.00000000000E+00  0.12265989370E+04  0.26946378777E+04  0.23992766285E+04 0.  0.
        2    1    3    3  502    0 -0.61027479260E+03 -0.70481622639E+03 -0.23457424159E+03  0.96136689681E+03  0.25500000920E-02 0.  1.
       -2    1    3    3    0  502  0.61027479260E+03  0.70481622639E+03  0.14611731786E+04  0.17332709809E+04  0.25500000920E-02 0. -1.
</event>
<event>
 5   0  0.4483375E-07  0.2400273E+04  0.7818609E-02  0.8439401E-01
        4   -1    0    0  501    0  0.00000000000E+00  0.00000000000E+00  0.10364754323E+04  0.10364762103E+04  0.12699999809E+01 0.  1.
       -4   -1    0    0    0  501  0.00000000000E+00  0.00000000000E+00 -0.13896384574E+04  0.13896390377E+04  0.12699999809E+01 0. -1.
    10030    2    1    2    0    0  0.00000000000E+00  0.00000000000E+00 -0.35316302514E+03  0.24261152481E+04  0.24002731250E+04 0.  0.
        5    1    3    3  502    0  0.15615135158E+03 -0.46837207728E+03 -0.12822277596E+04  0.13740035534E+04  0.46999998093E+01 0. -1.
       -5    1    3    3    0  502 -0.15615135158E+03  0.46837207728E+03  0.92906473441E+03  0.10521116947E+04  0.46999998093E+01 0.  1.
</event>
<event>
 5   0  0.1275948E-06  0.2395347E+04  0.7818609E-02  0.8441248E-01
       -2   -1    0    0    0  501  0.00000000000E+00  0.00000000000E+00  0.17751911926E+04  0.17751911926E+04  0.25500000920E-02 0. -1.
        2   -1    0    0  501    0  0.00000000000E+00  0.00000000000E+00 -0.80803800921E+03  0.80803800922E+03  0.25500000920E-02 0.  1.
    10030    2    1    2    0    0  0.00000000000E+00  0.00000000000E+00  0.96715318339E+03  0.25832292018E+04  0.23953471208E+04 0.  0.
        1    1    3    3  502    0  0.33885553854E+03 -0.71540516601E+03 -0.48569365974E+03  0.92872275663E+03  0.50400001928E-02 0.  1.
       -1    1    3    3    0  502 -0.33885553854E+03  0.71540516601E+03  0.14528468431E+04  0.16545064452E+04  0.50400001928E-02 0. -1.
</event>
<event>
 5   0  0.1307477E-06  0.2399897E+04  0.7818609E-02  0.8439542E-01
       -2   -1    0    0    0  501  0.00000000000E+00  0.00000000000E+00  0.10334971992E+04  0.10334971992E+04  0.25500000920E-02 0. -1.
        2   -1    0    0  501    0  0.00000000000E+00  0.00000000000E+00 -0.13932079707E+04  0.13932079707E+04  0.25500000920E-02 0.  1.
    10030    2    1    2    0    0  0.00000000000E+00  0.00000000000E+00 -0.35971077149E+03  0.24267051700E+04  0.23998971109E+04 0.  0.
        5    1    3    3  502    0 -0.24106292746E+03 -0.91323665283E+03 -0.92821851963E+03  0.13242825338E+04  0.46999998093E+01 0.  1.
       -5    1    3    3    0  502  0.24106292746E+03  0.91323665283E+03  0.56850774814E+03  0.11024226362E+04  0.46999998093E+01 0. -1.
</event>
<event>
 5   0  0.1291468E-06  0.2396541E+04  0.7818609E-02  0.8440800E-01
        2   -1    0    0  501    0  0.00000000000E+00  0.00000000000E+00  0.22407505783E+04  0.22407505783E+04  0.25500000920E-02 0.  1.
       -2   -1    0    0    0  501  0.00000000000E+00  0.00000000000E+00 -0.64079056347E+03  0.64079056348E+03  0.25500000920E-02 0. -1.
    10030    2    1    2    0    0  0.00000000000E+00  0.00000000000E+00  0.15999600148E+04  0.28815411417E+04  0.23965406950E+04 0.  0.
        4    1    3    3  502    0  0.72894031318E+03 -0.77479827107E+03  0.13683560460E+03  0.10725632553E+04  0.12699999809E+01 0. -1.
       -4    1    3    3    0  502 -0.72894031318E+03  0.77479827107E+03  0.14631244102E+04  0.18089778864E+04  0.12699999809E+01 0.  1.
</event>
<event>
 5   0  0.5527286E-07  0.2396590E+04  0.7818609E-02  0.8440781E-01
        1   -1    0    0  501    0  0.00000000000E+00  0.00000000000E+00  0.10393749976E+04  0.10393749976E+04  0.50400001928E-02 0. -1.
       -1   -1    0    0    0  501  0.00000000000E+00  0.00000000000E+00 -0.13815137050E+04  0.13815137050E+04  0.50400001928E-02 0.  1.
    10030    2    1    2    0    0  0.00000000000E+00  0.00000000000E+00 -0.34213870740E+03  0.24208887026E+04  0.23965899139E+04 0.  0.
        1    1    3    3  502    0 -0.44550739769E+03  0.42397777337E+03  0.86779199322E+03  0.10636244343E+04  0.50400001928E-02 0. -1.
       -1    1    3    3    0  502  0.44550739769E+03 -0.42397777337E+03 -0.12099307006E+04  0.13572642683E+04  0.50400001928E-02 0.  1.
</event>
<event>
 5   0  0.1308662E-06  0.2398958E+04  0.7818609E-02  0.8439894E-01
       -2   -1    0    0    0  501  0.00000000000E+00  0.00000000000E+00  0.80025167010E+03  0.80025167011E+03  0.25500000920E-02 0. -1.
        2   -1    0    0  501    0  0.00000000000E+00  0.00000000000E+00 -0.17978719119E+04  0.17978719119E+04  0.25500000920E-02 0.  1.
    10030    2    1    2    0    0  0.00000000000E+00  0.00000000000E+00 -0.99762024180E+03  0.25981235820E+04  0.23989581073E+04 0.  0.
        3    1    3    3  502    0 -0.92581707577E+03  0.17258458163E+03 -0.13033336123E+04  0.16079804758E+04  0.10100000352E+00 0.  1.
       -3    1    3    3    0  502  0.92581707577E+03 -0.17258458163E+03  0.30571337048E+03  0.99014310616E+03  0.10100000352E+00 0. -1.
</event>
<event>
 5   0  0.1275948E-06  0.2385936E+04  0.7818609E-02  0.8444788E-01
       -2   -1    0    0    0  501  0.00000000000E+00  0.00000000000E+00  0.11466904395E+04  0.11466904395E+04  0.25500000920E-02 0.  1.
        2   -1    0    0  501    0  0.00000000000E+00  0.00000000000E+00 -0.12411131437E+04  0.12411131437E+04  0.25500000920E-02 0. -1.
    10030    2    1    2    0    0  0.00000000000E+00  0.00000000000E+00 -0.94422704272E+02  0.23878035832E+04  0.23859359390E+04 0.  0.
        1    1    3    3  502    0  0.56622155638E+03 -0.27407044426E+03  0.96721472534E+03  0.11537875820E+04  0.50400001928E-02 0.  1.
       -1    1    3    3    0  502 -0.56622155638E+03  0.27407044426E+03 -0.10616374296E+04  0.12340160012E+04  0.50400001928E-02 0. -1.
</event>
<event>
 5   0  0.5363690E-07  0.2400240E+04  0.7818609E-02  0.8439414E-01
        1   -1    0    0  501    0  0.00000000000E+00  0.00000000000E+00  0.14580949214E+04  0.14580949214E+04  0.50400001928E-02 0. -1.
       -1   -1    0    0    0  501  0.00000000000E+00  0.00000000000E+00 -0.98778748298E+03  0.98778748299E+03  0.50400001928E-02 0.  1.
    10030    2    1    2    0    0  0.00000000000E+00  0.00000000000E+00  0.47030743840E+03  0.24458824044E+04  0.24002399150E+04 0.  0.
        4    1    3    3  502    0  0.11798507624E+04  0.21089456439E+03  0.17265256447E+03  0.12109231436E+04  0.12699999809E+01 0.  1.
       -4    1    3    3    0  502 -0.11798507624E+04 -0.21089456439E+03  0.29765487394E+03  0.12349592608E+04  0.12699999809E+01 0. -1.
</event>
<event>
 5   0  0.1308662E-06  0.2401331E+04  0.7818609E-02  0.8439005E-01
       -2   -1    0    0    0  501  0.00000000000E+00  0.00000000000E+00  0.69560845561E+03  0.69560845562E+03  0.25500000920E-02 0. -1.
        2   -1    0    0  501    0  0.00000000000E+00  0.00000000000E+00 -0.20724265668E+04  0.20724265668E+04  0.25500000920E-02 0.  1.
    10030    2    1    2    0    0  0.00000000000E+00  0.00000000000E+00 -0.13768181112E+04  0.27680350224E+04  0.24013308339E+04 0.  0.
        3    1    3    3  502    0  0.40401791663E+03 -0.93519987370E+03 -0.14208719245E+04  0.17483438783E+04  0.10100000352E+00 0.  1.
       -3    1    3    3    0  502 -0.40401791663E+03  0.93519987370E+03  0.44053813317E+02  0.10196911441E+04  0.10100000352E+00 0. -1.
</event>
<event>
 5   0  0.1275948E-06  0.2400309E+04  0.7818609E-02  0.8439388E-01
       -2   -1    0    0    0  501  0.00000000000E+00  0.00000000000E+00  0.89735423402E+03  0.89735423402E+03  0.25500000920E-02 0. -1.
        2   -1    0    0  501    0  0.00000000000E+00  0.00000000000E+00 -0.16051300359E+04  0.16051300359E+04  0.25500000920E-02 0.  1.
    10030    2    1    2    0    0  0.00000000000E+00  0.00000000000E+00 -0.70777580184E+03  0.25024842699E+04  0.24003085084E+04 0.  0.
        1    1    3    3  502    0 -0.34190210056E+03 -0.32726877015E+03 -0.15037263994E+04  0.15764501193E+04  0.50400001928E-02 0.  1.
       -1    1    3    3    0  502  0.34190210056E+03  0.32726877015E+03  0.79595059757E+03  0.92603415060E+03  0.50400001928E-02 0. -1.
</event>
<event>
 5   0  0.5690124E-07  0.2399589E+04  0.7818609E-02  0.8439658E-01
        1   -1    0    0  501    0  0.00000000000E+00  0.00000000000E+00  0.16021833241E+04  0.16021833241E+04  0.50400001928E-02 0.  1.
       -1   -1    0    0    0  501  0.00000000000E+00  0.00000000000E+00 -0.89846557556E+03  0.89846557558E+03  0.50400001928E-02 0. -1.
    10030    2    1    2    0    0  0.00000000000E+00  0.00000000000E+00  0.70371774852E+03  0.25006488997E+04  0.23995887668E+04 0.  0.
        2    1    3    3  502    0 -0.66797954420E+03  0.12035409645E+03 -0.67916418252E+03  0.96018007000E+03  0.25500000920E-02 0. -1.
       -2    1    3    3    0  502  0.66797954420E+03 -0.12035409645E+03  0.13828819310E+04  0.15404688297E+04  0.25500000920E-02 0.  1.
</event>
<event>
 5   0  0.1307477E-06  0.2404542E+04  0.7818609E-02  0.8437805E-01
       -2   -1    0    0    0  501  0.00000000000E+00  0.00000000000E+00  0.15982449699E+04  0.15982449699E+04  0.25500000920E-02 0. -1.
        2   -1    0    0  501    0  0.00000000000E+00  0.00000000000E+00 -0.90440146681E+03  0.90440146681E+03  0.25500000920E-02 0.  1.
    10030    2    1    2    0    0  0.00000000000E+00  0.00000000000E+00  0.69384350309E+03  0.25026464367E+04  0.24045416155E+04 0.  0.
        5    1    3    3  502    0  0.86403650956E+03  0.54624877694E+03 -0.31173776752E+03  0.10687138728E+04  0.46999998093E+01 0.  1.
       -5    1    3    3    0  502 -0.86403650956E+03 -0.54624877694E+03  0.10055812706E+04  0.14339325640E+04  0.46999998093E+01 0. -1.
</event>
<event>
 5   0  0.5527286E-07  0.2400054E+04  0.7818609E-02  0.8439484E-01
       -1   -1    0    0    0  501  0.00000000000E+00  0.00000000000E+00  0.79458698649E+03  0.79458698651E+03  0.50400001928E-02 0. -1.
        1   -1    0    0  501    0  0.00000000000E+00  0.00000000000E+00 -0.18123431285E+04  0.18123431285E+04  0.50400001928E-02 0.  1.
    10030    2    1    2    0    0  0.00000000000E+00  0.00000000000E+00 -0.10177561420E+04  0.26069301150E+04  0.24000535535E+04 0.  0.
        1    1    3    3  502    0  0.73104113243E+03 -0.90652947094E+03 -0.82340177079E+03  0.14262563918E+04  0.50400001928E-02 0.  1.
       -1    1    3    3    0  502 -0.73104113243E+03  0.90652947094E+03 -0.19435437119E+03  0.11806737232E+04  0.50400001928E-02 0. -1.
</event>
<event>
 5   0  0.1275948E-06  0.2401782E+04  0.7818609E-02  0.8438837E-01
        2   -1    0    0  501    0  0.00000000000E+00  0.00000000000E+00  0.18117234155E+04  0.18117234155E+04  0.25500000920E-02 0. -1.
       -2   -1    0    0    0  501  0.00000000000E+00  0.00000000000E+00 -0.79600374214E+03  0.79600374215E+03  0.25500000920E-02 0.  1.
    10030    2    1    2    0    0  0.00000000000E+00  0.00000000000E+00  0.10157196733E+04  0.26077271576E+04  0.24017815208E+04 0.  0.
        1    1    3    3  502    0  0.85008939901E+03  0.59966330777E+03 -0.14348934527E+03  0.10501605883E+04  0.50400001928E-02 0.  1.
       -1    1    3    3    0  502 -0.85008939901E+03 -0.59966330777E+03  0.11592090186E+04  0.15575665693E+04  0.50400001928E-02 0. -1.
</event>
<event>
 5   0  0.1336057E-06  0.2400470E+04  0.7818609E-02  0.8439327E-01
        2   -1    0    0  501    0  0.00000000000E+00  0.00000000000E+00  0.25532958990E+04  0.25532958990E+04  0.25500000920E-02 0.  1.
       -2   -1    0    0    0  501  0.00000000000E+00  0.00000000000E+00 -0.56419803572E+03  0.56419803572E+03  0.25500000920E-02 0. -1.
    10030    2    1    2    0    0  0.00000000000E+00  0.00000000000E+00  0.19890978633E+04  0.31174939347E+04  0.24004703963E+04 0.  0.
        2    1    3    3  502    0  0.97503238190E+03 -0.21188266146E+03  0.12822453543E+03  0.10059940057E+04  0.25500000920E-02 0. -1.
       -2    1    3    3    0  502 -0.97503238190E+03  0.21188266146E+03  0.18608733279E+04  0.21114999290E+04  0.25500000920E-02 0.  1.
</event>
<event>
 5   0  0.5452384E-07  0.2401552E+04  0.7818609E-02  0.8438923E-01
        1   -1    0    0  501    0  0.00000000000E+00  0.00000000000E+00  0.15664293587E+04  0.15664293587E+04  0.50400001928E-02 0. -1.
       -1   -1    0    0    0  501  0.00000000000E+00  0.00000000000E+00 -0.92047788947E+03  0.92047788948E+03  0.50400001928E-02 0.  1.
    10030    2    1    2    0    0  0.00000000000E+00  0.00000000000E+00  0.64595146922E+03  0.24869072482E+04  0.24015524896E+04 0.  0.
        5    1    3    3  502    0  0.41082967636E+03 -0.60850310507E+03 -0.66094370107E+03  0.98788952714E+03  0.46999998093E+01 0.  1.
       -5    1    3    3    0  502 -0.41082967636E+03  0.60850310507E+03  0.13068951703E+04  0.14990177210E+04  0.46999998093E+01 0. -1.
</event>
<event>
 5   0  0.5510176E-07  0.2400256E+04  0.7818609E-02  0.8439408E-01
       -1   -1    0    0    0  501  0.00000000000E+00  0.00000000000E+00  0.74605995058E+03  0.74605995059E+03  0.50400001928E-02 0. -1.
        1   -1    0    0  501    0  0.00000000000E+00  0.00000000000E+00 -0.19305518638E+04  0.19305518638E+04  0.50400001928E-02 0.  1.
    10030    2    1    2    0    0  0.00000000000E+00  0.00000000000E+00 -0.11844919132E+04  0.26766118144E+04  0.24002561764E+04 0.  0.
        3    1    3    3  502    0  0.10039795882E+04 -0.64904418282E+03 -0.47489649642E+03  0.12863747733E+04  0.10100000352E+00 0. -1.
       -3    1    3    3    0  502 -0.10039795882E+04  0.64904418282E+03 -0.70959541680E+03  0.13902370411E+04  0.10100000352E+00 0.  1.
</event>
<event>
 5   0  0.1308662E-06  0.2400762E+04  0.7818609E-02  0.8439218E-01
        2   -1    0    0  501    0  0.00000000000E+00  0.00000000000E+00  0.18645578626E+04  0.18645578626E+04  0.25500000920E-02 0.  1.
       -2   -1    0    0    0  501  0.00000000000E+00  0.00000000000E+00 -0.77279130051E+03  0.77279130051E+03  0.25500000920E-02 0. -1.
    10030    2    1    2    0    0  0.00000000000E+00  0.00000000000E+00  0.10917665621E+04  0.26373491631E+04  0.24007616254E+04 0.  0.
        3    1    3    3  502    0 -0.70577254454E+03 -0.59961919752E+03 -0.29309014399E+03  0.97137011965E+03  0.10100000352E+00 0. -1.
       -3    1    3    3    0  502  0.70577254454E+03  0.59961919752E+03  0.13848567060E+04  0.16659790434E+04  0.10100000352E+00 0.  1.
</event>
<event>
 5   0  0.1307477E-06  0.2402016E+04  0.7818609E-02  0.8438749E-01
       -2   -1    0    0    0  501  0.00000000000E+00  0.00000000000E+00  0.10419658846E+04  0.10419658846E+04  0.25500000920E-02 0. -1.
        2   -1    0    0  501    0  0.00000000000E+00  0.00000000000E+00 -0.13843262320E+04  0.13843262320E+04  0.25500000920E-02 0.  1.
    10030    2    1    2    0    0  0.00000000000E+00  0.00000000000E+00 -0.34236034736E+03  0.24262921166E+04  0.24020164087E+04 0.  0.
        5    1    3    3  502    0  0.45144150980E+03  0.10599687620E+04  0.17146096144E+03  0.11647979071E+04  0.46999998093E+01 0. -1.
       -5    1    3    3    0  502 -0.45144150980E+03 -0.10599687620E+04 -0.51382130880E+03  0.12614942095E+04  0.46999998093E+01 0.  1.
</event>
<event>
 5   0  0.5452384E-07  0.2403839E+04  0.7818609E-02  0.8438068E-01
        1   -1    0    0  501    0  0.00000000000E+00  0.00000000000E+00  0.12361861625E+04  0.12361861625E+04  0.50400001928E-02 0.  1.
       -1   -1    0    0    0  501  0.00000000000E+00  0.00000000000E+00 -0.11686029055E+04  0.11686029056E+04  0.50400001928E-02 0. -1.
    10030    2    1    2    0    0  0.00000000000E+00  0.00000000000E+00  0.67583256950E+02  0.24047890681E+04  0.24038392137E+04 0.  0.
        5    1    3    3  502    0  0.28471104146E+03  0.11655908121E+04  0.10400720288E+03  0.12043678452E+04  0.46999998093E+01 0.  1.
       -5    1    3    3    0  502 -0.28471104146E+03 -0.11655908121E+04 -0.36423945934E+02  0.12004212228E+04  0.46999998093E+01 0. -1.
</event>
<event>
 5   0  0.1275948E-06  0.2402000E+04  0.7818609E-02  0.8438755E-01
       -2   -1    0    0    0  501  0.00000000000E+00  0.00000000000E+00  0.82588277894E+03  0.82588277895E+03  0.25500000920E-02 0.  1.
        2   -1    0    0  501    0  0.00000000000E+00  0.00000000000E+00 -0.17464965540E+04  0.17464965540E+04  0.25500000920E-02 0. -1.
    10030    2    1    2    0    0  0.00000000000E+00  0.00000000000E+00 -0.92061377504E+03  0.25723793329E+04  0.24020003559E+04 0.  0.
        1    1    3    3  502    0 -0.31911008991E+03  0.10567085246E+04  0.46479727317E+02  0.11048187727E+04  0.50400001928E-02 0.  1.
       -1    1    3    3    0  502  0.31911008991E+03 -0.10567085246E+04 -0.96709350236E+03  0.14675605602E+04  0.50400001928E-02 0. -1.
</event>
<event>
 5   0  0.5527286E-07  0.2399278E+04  0.7818609E-02  0.8439774E-01
       -1   -1    0    0    0  501  0.00000000000E+00  0.00000000000E+00  0.14128584196E+04  0.14128584196E+04  0.50400001928E-02 0.  1.
        1   -1    0    0  501    0  0.00000000000E+00  0.00000000000E+00 -0.10185970902E+04  0.10185970902E+04  0.50400001928E-02 0. -1.
    10030    2    1    2    0    0  0.00000000000E+00  0.00000000000E+00  0.39426132938E+03  0.24314555098E+04  0.23992777872E+04 0.  0.
        1    1    3    3  502    0 -0.83107543264E+03 -0.63897343870E+03 -0.39392372093E+03  0.11198880873E+04  0.50400001928E-02 0. -1.
       -1    1    3    3    0  502  0.83107543264E+03  0.63897343870E+03  0.78818505032E+03  0.13115674225E+04  0.50400001928E-02 0.  1.
</event>
<event>
 5   0  0.1308662E-06  0.2399398E+04  0.7818609E-02  0.8439729E-01
       -2   -1    0    0    0  501  0.00000000000E+00  0.00000000000E+00  0.10231688717E+04  0.10231688717E+04  0.25500000920E-02 0. -1.
        2   -1    0    0  501    0  0.00000000000E+00  0.00000000000E+00 -0.14066861537E+04  0.14066861537E+04  0.25500000920E-02 0.  1.
    10030    2    1    2    0    0  0.00000000000E+00  0.00000000000E+00 -0.38351728197E+03  0.24298550254E+04  0.23993978284E+04 0.  0.
        3    1    3    3  502    0  0.93903926235E+03  0.23180343229E+01 -0.94788037310E+03  0.13342703330E+04  0.10100000352E+00 0.  1.
       -3    1    3    3    0  502 -0.93903926235E+03 -0.23180343229E+01  0.56436309113E+03  0.10955846925E+04  0.10100000352E+00 0. -1.
</event>
<event>
 5   0  0.1291468E-06  0.2399714E+04  0.7818609E-02  0.8439611E-01
       -2   -1    0    0    0  501  0.00000000000E+00  0.00000000000E+00  0.23790462217E+04  0.23790462217E+04  0.25500000920E-02 0. -1.
        2   -1    0    0  501    0  0.00000000000E+00  0.00000000000E+00 -0.60514050815E+03  0.60514050815E+03  0.25500000920E-02 0.  1.
    10030    2    1    2    0    0  0.00000000000E+00  0.00000000000E+00  0.17739057135E+04  0.29841867298E+04  0.23997143492E+04 0.  0.
        4    1    3    3  502    0  0.78323267112E+03 -0.75297670819E+03  0.25380135559E+03  0.11157258091E+04  0.12699999809E+01 0.  1.
       -4    1    3    3    0  502 -0.78323267112E+03  0.75297670819E+03  0.15201043579E+04  0.18684609207E+04  0.12699999809E+01 0. -1.
</event>
<event>
 5   0  0.1336057E-06  0.2398818E+04  0.7818609E-02  0.8439946E-01
       -2   -1    0    0    0  501  0.00000000000E+00  0.00000000000E+00  0.93127353744E+03  0.93127353745E+03  0.25500000920E-02 0. -1.
        2   -1    0    0  501    0  0.00000000000E+00  0.00000000000E+00 -0.15447471405E+04  0.15447471405E+04  0.25500000920E-02 0.  1.
    10030    2    1    2    0    0  0.00000000000E+00  0.00000000000E+00 -0.61347360302E+03  0.24760206779E+04  0.23988181540E+04 0.  0.
        2    1    3    3  502    0 -0.99743342807E+02  0.73813091026E+03 -0.12770970460E+04  0.14784325619E+04  0.25500000920E-02 0.  1.
       -2    1    3    3    0  502  0.99743342807E+02 -0.73813091026E+03  0.66362344300E+03  0.99758811602E+03  0.25500000920E-02 0. -1.
</event>
<event>
 5   0  0.1291468E-06  0.2400315E+04  0.7818609E-02  0.8439386E-01
        2   -1    0    0  501    0  0.00000000000E+00  0.00000000000E+00  0.13785303413E+04  0.13785303413E+04  0.25500000920E-02 0.  1.
       -2   -1    0    0    0  501  0.00000000000E+00  0.00000000000E+00 -0.10448652381E+04  0.10448652381E+04  0.25500000920E-02 0. -1.
    10030    2    1    2    0    0  0.00000000000E+00  0.00000000000E+00  0.33366510317E+03  0.24233955794E+04  0.24003153403E+04 0.  0.
        4    1    3    3  502    0  0.66721227111E+03 -0.25904967635E+03  0.11394742823E+04  0.13456159193E+04  0.12699999809E+01 0.  1.
       -4    1    3    3    0  502 -0.66721227111E+03  0.25904967635E+03 -0.80580917910E+03  0.10777796600E+04  0.12699999809E+01 0. -1.
</event>
<event>
 5   0  0.1275948E-06  0.2406037E+04  0.7818609E-02  0.8437247E-01
        2   -1    0    0  501    0  0.00000000000E+00  0.00000000000E+00  0.16192031383E+04  0.16192031383E+04  0.25500000920E-02 0.  1.
       -2   -1    0    0    0  501  0.00000000000E+00  0.00000000000E+00 -0.89380579989E+03  0.89380579989E+03  0.25500000920E-02 0. -1.
    10030    2    1    2    0    0  0.00000000000E+00  0.00000000000E+00  0.72539733844E+03  0.25130089382E+04  0.24060367048E+04 0.  0.
        1    1    3    3  502    0  0.41457468626E+03 -0.14563984318E+02  0.15421380838E+04  0.15969577796E+04  0.50400001928E-02 0.  1.
       -1    1    3    3    0  502 -0.41457468626E+03  0.14563984318E+02 -0.81674074537E+03  0.91605115867E+03  0.50400001928E-02 0. -1.
</event>
<event>
 5   0  0.5452384E-07  0.2399802E+04  0.7818609E-02  0.8439578E-01
        1   -1    0    0  501    0  0.00000000000E+00  0.00000000000E+00  0.10259613507E+04  0.10259613507E+04  0.50400001928E-02 0. -1.
       -1   -1    0    0    0  501  0.00000000000E+00  0.00000000000E+00 -0.14033298335E+04  0.14033298335E+04  0.50400001928E-02 0.  1.
    10030    2    1    2    0    0  0.00000000000E+00  0.00000000000E+00 -0.37736848275E+03  0.24292911842E+04  0.23998018014E+04 0.  0.
        5    1    3    3  502    0 -0.26754369942E+03 -0.38528160966E+03  0.92929569665E+03  0.10409774885E+04  0.46999998093E+01 0. -1.
       -5    1    3    3    0  502  0.26754369942E+03  0.38528160966E+03 -0.13066641794E+04  0.13883136957E+04  0.46999998093E+01 0.  1.
</event>
<event>
 5   0  0.5527286E-07  0.2395198E+04  0.7818609E-02  0.8441304E-01
        1   -1    0    0  501    0  0.00000000000E+00  0.00000000000E+00  0.28057652746E+04  0.28057652746E+04  0.50400001928E-02 0.  1.
       -1   -1    0    0    0  501  0.00000000000E+00  0.00000000000E+00 -0.51117721232E+03  0.51117721235E+03  0.50400001928E-02 0. -1.
    10030    2    1    2    0    0  0.00000000000E+00  0.00000000000E+00  0.22945880622E+04  0.33169424869E+04  0.23951979221E+04 0.  0.
        1    1    3    3  502    0  0.60391003808E+02 -0.47280998646E+03  0.26687472740E+04  0.27109792270E+04  0.50400001928E-02 0.  1.
       -1    1    3    3    0  502 -0.60391003808E+02  0.47280998646E+03 -0.37415921175E+03  0.60596325994E+03  0.50400001928E-02 0. -1.
</event>
<event>
 5   0  0.1275948E-06  0.2400603E+04  0.7818609E-02  0.8439278E-01
        2   -1    0    0  501    0  0.00000000000E+00  0.00000000000E+00  0.14209373711E+04  0.14209373711E+04  0.25500000920E-02 0. -1.
       -2   -1    0    0    0  501  0.00000000000E+00  0.00000000000E+00 -0.10139252051E+04  0.10139252051E+04  0.25500000920E-02 0.  1.
    10030    2    1    2    0    0  0.00000000000E+00  0.00000000000E+00  0.40701216607E+03  0.24348625762E+04  0.24006034370E+04 0.  0.
        1    1    3    3  502    0 -0.82808951098E+03  0.82210931022E+03 -0.81805784808E+02  0.11697384932E+04  0.50400001928E-02 0.  1.
       -1    1    3    3    0  502  0.82808951098E+03 -0.82210931022E+03  0.48881795088E+03  0.12651240830E+04  0.50400001928E-02 0. -1.
</event>
<event>
 5   0  0.5690124E-07  0.2394730E+04  0.7818609E-02  0.8441479E-01
       -1   -1    0    0    0  501  0.00000000000E+00  0.00000000000E+00  0.92510807563E+03  0.92510807564E+03  0.50400001928E-02 0. -1.
        1   -1    0    0  501    0  0.00000000000E+00  0.00000000000E+00 -0.15497463902E+04  0.15497463903E+04  0.50400001928E-02 0.  1.
    10030    2    1    2    0    0  0.00000000000E+00  0.00000000000E+00 -0.62463831462E+03  0.24748544659E+04  0.23947299646E+04 0.  0.
        2    1    3    3  502    0  0.96671334457E+02  0.61078564165E+03 -0.13719436753E+04  0.15048700593E+04  0.25500000920E-02 0.  1.
       -2    1    3    3    0  502 -0.96671334457E+02 -0.61078564165E+03  0.74730536072E+03  0.96998440664E+03  0.25500000920E-02 0. -1.
</event>
<event>
 5   0  0.5510176E-07  0.2400696E+04  0.7818609E-02  0.8439243E-01
       -1   -1    0    0    0  501  0.00000000000E+00  0.00000000000E+00  0.11857051638E+04  0.11857051638E+04  0.50400001928E-02 0.  1.
        1   -1    0    0  501    0  0.00000000000E+00  0.00000000000E+00 -0.12151720092E+04  0.12151720092E+04  0.50400001928E-02 0. -1.
    10030    2    1    2    0    0  0.00000000000E+00  0.00000000000E+00 -0.29466845397E+02  0.24008771731E+04  0.24006963375E+04 0.  0.
        3    1    3    3  502    0 -0.56648275425E+03  0.10327153201E+04 -0.24590462062E+03  0.12032758354E+04  0.10100000352E+00 0. -1.
       -3    1    3    3    0  502  0.56648275425E+03 -0.10327153201E+04  0.21643777522E+03  0.11976013377E+04  0.10100000352E+00 0.  1.
</event>
<event>
 5   0  0.5363690E-07  0.2400269E+04  0.7818609E-02  0.8439403E-01
        1   -1    0    0  501    0  0.00000000000E+00  0.00000000000E+00  0.13386054628E+04  0.13386054628E+04  0.50400001928E-02 0.  1.
       -1   -1    0    0    0  501  0.00000000000E+00  0.00000000000E+00 -0.10759878625E+04  0.10759878625E+04  0.50400001928E-02 0. -1.
    10030    2    1    2    0    0  0.00000000000E+00  0.00000000000E+00  0.26261760030E+03  0.24145933253E+04  0.24002693437E+04 0.  0.
        4    1    3    3  502    0 -0.23829205472E+03  0.17992585963E+02  0.13144288876E+04  0.13359759541E+04  0.12699999809E+01 0.  1.
       -4    1    3    3    0  502  0.23829205472E+03 -0.17992585963E+02 -0.10518112873E+04  0.10786173712E+04  0.12699999809E+01 0. -1.
</event>
<event>
 5   0  0.1275948E-06  0.2398731E+04  0.7818609E-02  0.8439979E-01
       -2   -1    0    0    0  501  0.00000000000E+00  0.00000000000E+00  0.81718083976E+03  0.81718083976E+03  0.25500000920E-02 0.  1.
        2   -1    0    0  501    0  0.00000000000E+00  0.00000000000E+00 -0.17602922383E+04  0.17602922383E+04  0.25500000920E-02 0. -1.
    10030    2    1    2    0    0  0.00000000000E+00  0.00000000000E+00 -0.94311139853E+03  0.25774730781E+04  0.23987305722E+04 0.  0.
        1    1    3    3  502    0  0.55406347794E+03 -0.40206735030E+03  0.58662797303E+03  0.90154138592E+03  0.50400001928E-02 0.  1.
       -1    1    3    3    0  502 -0.55406347794E+03  0.40206735030E+03 -0.15297393716E+04  0.16759316921E+04  0.50400001928E-02 0. -1.
</event>
<event>
 5   0  0.5690124E-07  0.2397861E+04  0.7818609E-02  0.8440305E-01
        1   -1    0    0  501    0  0.00000000000E+00  0.00000000000E+00  0.12072698098E+04  0.12072698098E+04  0.50400001928E-02 0. -1.
       -1   -1    0    0    0  501  0.00000000000E+00  0.00000000000E+00 -0.11906490666E+04  0.11906490667E+04  0.50400001928E-02 0.  1.
    10030    2    1    2    0    0  0.00000000000E+00  0.00000000000E+00  0.16620743142E+02  0.23979188765E+04  0.23978612739E+04 0.  0.
        2    1    3    3  502    0 -0.89195526085E+03 -0.67855988260E+03  0.43423957507E+03  0.12019116898E+04  0.25500000920E-02 0. -1.
       -2    1    3    3    0  502  0.89195526085E+03  0.67855988260E+03 -0.41761883193E+03  0.11960071866E+04  0.25500000920E-02 0.  1.
</event>
<event>
 5   0  0.5452384E-07  0.2400256E+04  0.7818609E-02  0.8439408E-01
       -1   -1    0    0    0  501  0.00000000000E+00  0.00000000000E+00  0.83569784957E+03  0.83569784959E+03  0.50400001928E-02 0. -1.
        1   -1    0    0  501    0  0.00000000000E+00  0.00000000000E+00 -0.17234785676E+04  0.17234785676E+04  0.50400001928E-02 0.  1.
    10030    2    1    2    0    0  0.00000000000E+00  0.00000000000E+00 -0.88778071806E+03  0.25591764172E+04  0.24002560970E+04 0.  0.
        5    1    3    3  502    0  0.51587284036E+03 -0.44542665205E+03 -0.14970959582E+04  0.16449462265E+04  0.46999998093E+01 0.  1.
       -5    1    3    3    0  502 -0.51587284036E+03  0.44542665205E+03  0.60931524018E+03  0.91423019076E+03  0.46999998093E+01 0. -1.
</event>
<event>
 5   0  0.5452384E-07  0.2398975E+04  0.7818609E-02  0.8439887E-01
        1   -1    0    0  501    0  0.00000000000E+00  0.00000000000E+00  0.11560666314E+04  0.11560666314E+04  0.50400001928E-02 0. -1.
       -1   -1    0    0    0  501  0.00000000000E+00  0.00000000000E+00 -0.12445396025E+04  0.12445396025E+04  0.50400001928E-02 0.  1.
    10030    2    1    2    0    0  0.00000000000E+00  0.00000000000E+00 -0.88472971149E+02  0.24006062339E+04  0.23989753695E+04 0.  0.
        5    1    3    3  502    0  0.34133846631E+03  0.66605805298E+03  0.89373916575E+03  0.11657345602E+04  0.46999998093E+01 0. -1.
       -5    1    3    3    0  502 -0.34133846631E+03 -0.66605805298E+03 -0.98221213690E+03  0.12348716737E+04  0.46999998093E+01 0.  1.
</event>
<event>
 5   0  0.1275948E-06  0.2398694E+04  0.7818609E-02  0.8439993E-01
       -2   -1    0    0    0  501  0.00000000000E+00  0.00000000000E+00  0.14396019360E+04  0.14396019360E+04  0.25500000920E-02 0.  1.
        2   -1    0    0  501    0  0.00000000000E+00  0.00000000000E+00 -0.99918814544E+03  0.99918814544E+03  0.25500000920E-02 0. -1.
    10030    2    1    2    0    0  0.00000000000E+00  0.00000000000E+00  0.44041379059E+03  0.24387900815E+04  0.23986939685E+04 0.  0.
        1    1    3    3  502    0 -0.21864784453E+03  0.23289709086E+03  0.13955520313E+04  0.14316470958E+04  0.50400001928E-02 0.  1.
       -1    1    3    3    0  502  0.21864784453E+03 -0.23289709086E+03 -0.95513824066E+03  0.10071429857E+04  0.50400001928E-02 0. -1.
</event>
<event>
 5   0  0.5452384E-07  0.2403171E+04  0.7818609E-02  0.8438317E-01
        1   -1    0    0  501    0  0.00000000000E+00  0.00000000000E+00  0.84360319695E+03  0.84360319696E+03  0.50400001928E-02 0.  1.
       -1   -1    0    0    0  501  0.00000000000E+00  0.00000000000E+00 -0.17114777715E+04  0.17114777715E+04  0.50400001928E-02 0. -1.
    10030    2    1    2    0    0  0.00000000000E+00  0.00000000000E+00 -0.86787457459E+03  0.25550809685E+04  0.24031713377E+04 0.  0.
        5    1    3    3  502    0  0.87596246532E+03 -0.69793920514E+03 -0.89659543842E+03  0.14346898079E+04  0.46999998093E+01 0. -1.
       -5    1    3    3    0  502 -0.87596246532E+03  0.69793920514E+03  0.28720863832E+02  0.11203911606E+04  0.46999998093E+01 0.  1.
</event>
<event>
 5   0  0.1336057E-06  0.2399420E+04  0.7818609E-02  0.8439721E-01
        2   -1    0    0  501    0  0.00000000000E+00  0.00000000000E+00  0.16410861531E+04  0.16410861531E+04  0.25500000920E-02 0. -1.
       -2   -1    0    0    0  501  0.00000000000E+00  0.00000000000E+00 -0.87704356205E+03  0.87704356205E+03  0.25500000920E-02 0.  1.
    10030    2    1    2    0    0  0.00000000000E+00  0.00000000000E+00  0.76404259103E+03  0.25181297151E+04  0.23994199677E+04 0.  0.
        2    1    3    3  502    0  0.47781851705E+03  0.10713643603E+04  0.64579643390E+03  0.13390986378E+04  0.25500000920E-02 0.  1.
       -2    1    3    3    0  502 -0.47781851705E+03 -0.10713643603E+04  0.11824615713E+03  0.11790310773E+04  0.25500000920E-02 0. -1.
</event>
<event>
 5   0  0.5690124E-07  0.2413506E+04  0.7818609E-02  0.8434464E-01
       -1   -1    0    0    0  501  0.00000000000E+00  0.00000000000E+00  0.78272726202E+03  0.78272726204E+03  0.50400001928E-02 0.  1.
        1   -1    0    0  501    0  0.00000000000E+00  0.00000000000E+00 -0.18604861305E+04  0.18604861305E+04  0.50400001928E-02 0. -1.
    10030    2    1    2    0    0  0.00000000000E+00  0.00000000000E+00 -0.10777588685E+04  0.26432133925E+04  0.24135063414E+04 0.  0.
        2    1    3    3  502    0  0.79277416854E+02  0.10459060157E+04  0.11461006537E+03  0.10551491694E+04  0.25500000920E-02 0.  1.
       -2    1    3    3    0  502 -0.79277416854E+02 -0.10459060157E+04 -0.11923689338E+04  0.15880642232E+04  0.25500000920E-02 0. -1.
</event>
<event>
 5   0  0.1307477E-06  0.2403721E+04  0.7818609E-02  0.8438112E-01
        2   -1    0    0  501    0  0.00000000000E+00  0.00000000000E+00  0.12654859286E+04  0.12654859286E+04  0.25500000920E-02 0. -1.
       -2   -1    0    0    0  501  0.00000000000E+00  0.00000000000E+00 -0.11414340443E+04  0.11414340443E+04  0.25500000920E-02 0.  1.
    10030    2    1    2    0    0  0.00000000000E+00  0.00000000000E+00  0.12405188433E+03  0.24069199729E+04  0.24037210500E+04 0.  0.
        5    1    3    3  502    0  0.55006295132E+03  0.87740185842E+02  0.11284216608E+04  0.12584216802E+04  0.46999998093E+01 0. -1.
       -5    1    3    3    0  502 -0.55006295132E+03 -0.87740185842E+02 -0.10043697764E+04  0.11484982927E+04  0.46999998093E+01 0.  1.
</event>
<event>
 5   0  0.1291468E-06  0.2401427E+04  0.7818609E-02  0.8438970E-01
        2   -1    0    0  501    0  0.00000000000E+00  0.00000000000E+00  0.14072756985E+04  0.14072756985E+04  0.25500000920E-02 0. -1.
       -2   -1    0    0    0  501  0.00000000000E+00  0.00000000000E+00 -0.10244704925E+04  0.10244704925E+04  0.25500000920E-02 0.  1.
    10030    2    1    2    0    0  0.00000000000E+00  0.00000000000E+00  0.38280520591E+03  0.24317461910E+04  0.24014265993E+04 0.  0.
        4    1    3    3  502    0  0.56188889229E+03 -0.82630734790E+03 -0.48274136311E+03  0.11097494298E+04  0.12699999809E+01 0.  1.
       -4    1    3    3    0  502 -0.56188889229E+03  0.82630734790E+03  0.86554656902E+03  0.13219967612E+04  0.12699999809E+01 0. -1.
</event>
<event>
 5   0  0.1291468E-06  0.2398910E+04  0.7818609E-02  0.8439912E-01
        2   -1    0    0  501    0  0.00000000000E+00  0.00000000000E+00  0.19819509788E+04  0.19819509788E+04  0.25500000920E-02 0. -1.
       -2   -1    0    0    0  501  0.00000000000E+00  0.00000000000E+00 -0.72589682671E+03  0.72589682671E+03  0.25500000920E-02 0.  1.
    10030    2    1    2    0    0  0.00000000000E+00  0.00000000000E+00  0.12560541521E+04  0.27078478055E+04  0.23989096908E+04 0.  0.
        4    1    3    3  502    0 -0.50623132610E+03 -0.72717897295E+03 -0.28456488657E+03  0.93061173526E+03  0.12699999809E+01 0.  1.
       -4    1    3    3    0  502  0.50623132610E+03  0.72717897295E+03  0.15406190387E+04  0.17772360703E+04  0.12699999809E+01 0. -1.
</event>
<event>
 5   0  0.5452384E-07  0.2399829E+04  0.7818609E-02  0.8439567E-01
        1   -1    0    0  501    0  0.00000000000E+00  0.00000000000E+00  0.23551766107E+04  0.23551766107E+04  0.50400001928E-02 0. -1.
       -1   -1    0    0    0  501  0.00000000000E+00  0.00000000000E+00 -0.61133217481E+03  0.61133217483E+03  0.50400001928E-02 0.  1.
    10030    2    1    2    0    0  0.00000000000E+00  0.00000000000E+00  0.17438444358E+04  0.29665087855E+04  0.23998293602E+04 0.  0.
        5    1    3    3  502    0 -0.25142758952E+03 -0.95000040361E+03  0.17230217511E+04  0.19835681597E+04  0.46999998093E+01 0. -1.
       -5    1    3    3    0  502  0.25142758952E+03  0.95000040361E+03  0.20822684795E+02  0.98294062579E+03  0.46999998093E+01 0.  1.
</event>
<event>
 5   0  0.4483375E-07  0.2400428E+04  0.7818609E-02  0.8439343E-01
       -3   -1    0    0    0  501  0.00000000000E+00  0.00000000000E+00  0.22229469042E+04  0.22229469065E+04  0.10100000352E+00 0.  1.
        3   -1    0    0  501    0  0.00000000000E+00  0.00000000000E+00 -0.64801986608E+03  0.64801987395E+03  0.10100000352E+00 0. -1.
    10030    2    1    2    0    0  0.00000000000E+00  0.00000000000E+00  0.15749270381E+04  0.28709667804E+04  0.24004281033E+04 0.  0.
        2    1    3    3  502    0  0.94712848833E+03  0.69195402105E+03  0.10915945756E+04  0.16023206478E+04  0.25500000920E-02 0.  1.
       -2    1    3    3    0  502 -0.94712848833E+03 -0.69195402105E+03  0.48333246245E+03  0.12686461327E+04  0.25500000920E-02 0. -1.
</event>
<event>
 5   0  0.5452384E-07  0.2400056E+04  0.7818609E-02  0.8439482E-01
        1   -1    0    0  501    0  0.00000000000E+00  0.00000000000E+00  0.15101427430E+04  0.15101427430E+04  0.50400001928E-02 0.  1.
       -1   -1    0    0    0  501  0.00000000000E+00  0.00000000000E+00 -0.95359702826E+03  0.95359702827E+03  0.50400001928E-02 0. -1.
    10030    2    1    2    0    0  0.00000000000E+00  0.00000000000E+00  0.55654571475E+03  0.24637397713E+04  0.24000563593E+04 0.  0.
        5    1    3    3  502    0  0.11409412642E+04  0.44224871404E+02  0.65731665443E+03  0.13174938640E+04  0.46999998093E+01 0. -1.
       -5    1    3    3    0  502 -0.11409412642E+04 -0.44224871404E+02 -0.10077093968E+03  0.11462459072E+04  0.46999998093E+01 0.  1.
</event>
<event>
 5   0  0.1275948E-06  0.2398564E+04  0.7818609E-02  0.8440041E-01
       -2   -1    0    0    0  501  0.00000000000E+00  0.00000000000E+00  0.19555172963E+04  0.19555172963E+04  0.25500000920E-02 0. -1.
        2   -1    0    0  501    0  0.00000000000E+00  0.00000000000E+00 -0.73549694352E+03  0.73549694352E+03  0.25500000920E-02 0.  1.
    10030    2    1    2    0    0  0.00000000000E+00  0.00000000000E+00  0.12200203528E+04  0.26910142398E+04  0.23985637323E+04 0.  0.
        1    1    3    3  502    0 -0.10212044909E+04 -0.47511296696E+03  0.14785501839E+03  0.11359806557E+04  0.50400001928E-02 0.  1.
       -1    1    3    3    0  502  0.10212044909E+04  0.47511296696E+03  0.10721653344E+04  0.15550335841E+04  0.50400001928E-02 0. -1.
</event>
<event>
 5   0  0.1307477E-06  0.2401568E+04  0.7818609E-02  0.8438917E-01
        2   -1    0    0  501    0  0.00000000000E+00  0.00000000000E+00  0.18767570236E+04  0.18767570236E+04  0.25500000920E-02 0.  1.
       -2   -1    0    0    0  501  0.00000000000E+00  0.00000000000E+00 -0.76828407120E+03  0.76828407121E+03  0.25500000920E-02 0. -1.
    10030    2    1    2    0    0  0.00000000000E+00  0.00000000000E+00  0.11084729524E+04  0.26450410948E+04  0.24015682599E+04 0.  0.
        5    1    3    3  502    0 -0.62907777991E+03  0.22281961253E+02  0.16804623179E+04  0.17944946450E+04  0.46999998093E+01 0.  1.
       -5    1    3    3    0  502  0.62907777991E+03 -0.22281961253E+02 -0.57198936554E+03  0.85054644979E+03  0.46999998093E+01 0. -1.
</event>
<event>
 5   0  0.5510176E-07  0.2398723E+04  0.7818609E-02  0.8439982E-01
       -1   -1    0    0    0  501  0.00000000000E+00  0.00000000000E+00  0.20800045604E+04  0.20800045604E+04  0.50400001928E-02 0.  1.
        1   -1    0    0  501    0  0.00000000000E+00  0.00000000000E+00 -0.69156982398E+03  0.69156982400E+03  0.50400001928E-02 0. -1.
    10030    2    1    2    0    0  0.00000000000E+00  0.00000000000E+00  0.13884347364E+04  0.27715743844E+04  0.23987233169E+04 0.  0.
        3    1    3    3  502    0 -0.31193197616E+03  0.36555988658E+03 -0.57546722066E+03  0.74973203258E+03  0.10100000352E+00 0. -1.
       -3    1    3    3    0  502  0.31193197616E+03 -0.36555988658E+03  0.19639019571E+04  0.20218423518E+04  0.10100000352E+00 0.  1.
</event>
<event>
 5   0  0.1291468E-06  0.2399138E+04  0.7818609E-02  0.8439826E-01
        2   -1    0    0  501    0  0.00000000000E+00  0.00000000000E+00  0.94870873640E+03  0.94870873640E+03  0.25500000920E-02 0. -1.
       -2   -1    0    0    0  501  0.00000000000E+00  0.00000000000E+00 -0.15167623825E+04  0.15167623825E+04  0.25500000920E-02 0.  1.
    10030    2    1    2    0    0  0.00000000000E+00  0.00000000000E+00 -0.56805364609E+03  0.24654711189E+04  0.23991379479E+04 0.  0.
        4    1    3    3  502    0  0.38107612415E+03 -0.57635100243E+03  0.72367939185E+03  0.10005563280E+04  0.12699999809E+01 0. -1.
       -4    1    3    3    0  502 -0.38107612415E+03  0.57635100243E+03 -0.12917330379E+04  0.14649147909E+04  0.12699999809E+01 0.  1.
</event>
<event>
 5   0  0.1275948E-06  0.2398755E+04  0.7818609E-02  0.8439970E-01
        2   -1    0    0  501    0  0.00000000000E+00  0.00000000000E+00  0.16610702646E+04  0.16610702646E+04  0.25500000920E-02 0.  1.
       -2   -1    0    0    0  501  0.00000000000E+00  0.00000000000E+00 -0.86601193142E+03  0.86601193142E+03  0.25500000920E-02 0. -1.
    10030    2    1    2    0    0  0.00000000000E+00  0.00000000000E+00  0.79505833322E+03  0.25270821961E+04  0.23987552339E+04 0.  0.
        1    1    3    3  502    0  0.45184532975E+03  0.79273643601E+03  0.12175747573E+04  0.15215398610E+04  0.50400001928E-02 0.  1.
       -1    1    3    3    0  502 -0.45184532975E+03 -0.79273643601E+03 -0.42251642406E+03  0.10055423351E+04  0.50400001928E-02 0. -1.
</event>
<event>
 5   0  0.5510176E-07  0.2399648E+04  0.7818609E-02  0.8439635E-01
        1   -1    0    0  501    0  0.00000000000E+00  0.00000000000E+00  0.22749260090E+04  0.22749260090E+04  0.50400001928E-02 0.  1.
       -1   -1    0    0    0  501  0.00000000000E+00  0.00000000000E+00 -0.63280199171E+03  0.63280199173E+03  0.50400001928E-02 0. -1.
    10030    2    1    2    0    0  0.00000000000E+00  0.00000000000E+00  0.16421240173E+04  0.29077280007E+04  0.23996480654E+04 0.  0.
        3    1    3    3  502    0 -0.64597947086E+03  0.80067043403E+03  0.15692164552E+04  0.18763802691E+04  0.10100000352E+00 0.  1.
       -3    1    3    3    0  502  0.64597947086E+03 -0.80067043403E+03  0.72907562056E+02  0.10313477316E+04  0.10100000352E+00 0. -1.
</event>
<event>
 5   0  0.1308662E-06  0.2399415E+04  0.7818609E-02  0.8439723E-01
       -2   -1    0    0    0  501  0.00000000000E+00  0.00000000000E+00  0.71214101682E+03  0.71214101683E+03  0.25500000920E-02 0. -1.
        2   -1    0    0  501    0  0.00000000000E+00  0.00000000000E+00 -0.20210859225E+04  0.20210859225E+04  0.25500000920E-02 0.  1.
    10030    2    1    2    0    0  0.00000000000E+00  0.00000000000E+00 -0.13089449056E+04  0.27332269393E+04  0.23994150820E+04 0.  0.
        3    1    3    3  502    0  0.99695228395E+03  0.61831340628E+03 -0.36838979495E+03  0.12296082206E+04  0.10100000352E+00 0. -1.
       -3    1    3    3    0  502 -0.99695228395E+03 -0.61831340628E+03 -0.94055511069E+03  0.15036187187E+04  0.10100000352E+00 0.  1.
</event>
<event>
 5   0  0.5510176E-07  0.2399779E+04  0.7818609E-02  0.8439586E-01
        1   -1    0    0  501    0  0.00000000000E+00  0.00000000000E+00  0.83624940600E+03  0.83624940602E+03  0.50400001928E-02 0.  1.
       -1   -1    0    0    0  501  0.00000000000E+00  0.00000000000E+00 -0.17216568889E+04  0.17216568889E+04  0.50400001928E-02 0. -1.
    10030    2    1    2    0    0  0.00000000000E+00  0.00000000000E+00 -0.88540748285E+03  0.25579062949E+04  0.23997787820E+04 0.  0.
        3    1    3    3  502    0 -0.58929698494E+03 -0.33190153866E+03 -0.14991236884E+04  0.16446280465E+04  0.10100000352E+00 0. -1.
       -3    1    3    3    0  502  0.58929698494E+03  0.33190153866E+03  0.61371620558E+03  0.91327824841E+03  0.10100000352E+00 0.  1.
</event>
<event>
 5   0  0.5452384E-07  0.2400638E+04  0.7818609E-02  0.8439265E-01
       -1   -1    0    0    0  501  0.00000000000E+00  0.00000000000E+00  0.88981966923E+03  0.88981966924E+03  0.50400001928E-02 0.  1.
        1   -1    0    0  501    0  0.00000000000E+00  0.00000000000E+00 -0.16191659151E+04  0.16191659152E+04  0.50400001928E-02 0. -1.
    10030    2    1    2    0    0  0.00000000000E+00  0.00000000000E+00 -0.72934624592E+03  0.25089855844E+04  0.24006379811E+04 0.  0.
        5    1    3    3  502    0  0.32390505737E+03  0.36546813227E+03  0.78129115500E+03  0.92136822214E+03  0.46999998093E+01 0.  1.
       -5    1    3    3    0  502 -0.32390505737E+03 -0.36546813227E+03 -0.15106374009E+04  0.15876173623E+04  0.46999998093E+01 0. -1.
</event>
<event>
 5   0  0.5527286E-07  0.2415618E+04  0.7818609E-02  0.8433680E-01
       -1   -1    0    0    0  501  0.00000000000E+00  0.00000000000E+00  0.10078706364E+04  0.10078706364E+04  0.50400001928E-02 0.  1.
        1   -1    0    0  501    0  0.00000000000E+00  0.00000000000E+00 -0.14474099488E+04  0.14474099488E+04  0.50400001928E-02 0. -1.
    10030    2    1    2    0    0  0.00000000000E+00  0.00000000000E+00 -0.43953931239E+03  0.24552805853E+04  0.24156175081E+04 0.  0.
        1    1    3    3  502    0 -0.52535573327E+01 -0.34186290722E+03  0.95765657589E+03  0.10168598549E+04  0.50400001928E-02 0.  1.
       -1    1    3    3    0  502  0.52535573327E+01  0.34186290722E+03 -0.13971958883E+04  0.14384207303E+04  0.50400001928E-02 0. -1.
</event>
<event>
 5   0  0.5527286E-07  0.2399269E+04  0.7818609E-02  0.8439777E-01
        1   -1    0    0  501    0  0.00000000000E+00  0.00000000000E+00  0.13334830084E+04  0.13334830084E+04  0.50400001928E-02 0. -1.
       -1   -1    0    0    0  501  0.00000000000E+00  0.00000000000E+00 -0.10792209155E+04  0.10792209155E+04  0.50400001928E-02 0.  1.
    10030    2    1    2    0    0  0.00000000000E+00  0.00000000000E+00  0.25426209287E+03  0.24127039239E+04  0.23992688495E+04 0.  0.
        1    1    3    3  502    0  0.92962032880E+03  0.72923101207E+03 -0.81760173935E+02  0.11843380222E+04  0.50400001928E-02 0. -1.
       -1    1    3    3    0  502 -0.92962032880E+03 -0.72923101207E+03  0.33602226680E+03  0.12283659017E+04  0.50400001928E-02 0.  1.
</event>
<event>
 5   0  0.1308662E-06  0.2402184E+04  0.7818609E-02  0.8438686E-01
       -2   -1    0    0    0  501  0.00000000000E+00  0.00000000000E+00  0.77086403859E+03  0.77086403859E+03  0.25500000920E-02 0.  1.
        2   -1    0    0  501    0  0.00000000000E+00  0.00000000000E+00 -0.18714346699E+04  0.18714346699E+04  0.25500000920E-02 0. -1.
    10030    2    1    2    0    0  0.00000000000E+00  0.00000000000E+00 -0.11005706313E+04  0.26422987085E+04  0.24021837462E+04 0.  0.
        3    1    3    3  502    0  0.58680366660E+03 -0.58423772821E+03 -0.15072790980E+04  0.17197565396E+04  0.10100000352E+00 0. -1.
       -3    1    3    3    0  502 -0.58680366660E+03  0.58423772821E+03  0.40670846669E+03  0.92254216883E+03  0.10100000352E+00 0.  1.
</event>
<event>
 5   0  0.5527286E-07  0.2400667E+04  0.7818609E-02  0.8439254E-01
       -1   -1    0    0    0  501  0.00000000000E+00  0.00000000000E+00  0.75265025308E+03  0.75265025310E+03  0.50400001928E-02 0.  1.
        1   -1    0    0  501    0  0.00000000000E+00  0.00000000000E+00 -0.19143035842E+04  0.19143035842E+04  0.50400001928E-02 0. -1.
    10030    2    1    2    0    0  0.00000000000E+00  0.00000000000E+00 -0.11616533311E+04  0.26669538373E+04  0.24006674715E+04 0.  0.
        1    1    3    3  502    0  0.82464237584E+03  0.80959445508E+03 -0.22029386143E+03  0.11764385301E+04  0.50400001928E-02 0.  1.
       -1    1    3    3    0  502 -0.82464237584E+03 -0.80959445508E+03 -0.94135946965E+03  0.14905153072E+04  0.50400001928E-02 0. -1.
</event>
<event>
 5   0  0.5690124E-07  0.2399898E+04  0.7818609E-02  0.8439542E-01
        1   -1    0    0  501    0  0.00000000000E+00  0.00000000000E+00  0.10149967208E+04  0.10149967208E+04  0.50400001928E-02 0. -1.
       -1   -1    0    0    0  501  0.00000000000E+00  0.00000000000E+00 -0.14186033127E+04  0.14186033127E+04  0.50400001928E-02 0.  1.
    10030    2    1    2    0    0  0.00000000000E+00  0.00000000000E+00 -0.40360659182E+03  0.24336000335E+04  0.23998980900E+04 0.  0.
        2    1    3    3  502    0 -0.84706454972E+03  0.83265737763E+03 -0.37461078682E+03  0.12454597149E+04  0.25500000920E-02 0. -1.
       -2    1    3    3    0  502  0.84706454972E+03 -0.83265737763E+03 -0.28995805000E+02  0.11881403186E+04  0.25500000920E-02 0.  1.
</event>
<event>
 5   0  0.5452384E-07  0.2399551E+04  0.7818609E-02  0.8439672E-01
        1   -1    0    0  501    0  0.00000000000E+00  0.00000000000E+00  0.12256590585E+04  0.12256590585E+04  0.50400001928E-02 0.  1.
       -1   -1    0    0    0  501  0.00000000000E+00  0.00000000000E+00 -0.11744386836E+04  0.11744386836E+04  0.50400001928E-02 0. -1.
    10030    2    1    2    0    0  0.00000000000E+00  0.00000000000E+00  0.51220374973E+02  0.24000977421E+04  0.23995511341E+04 0.  0.
        5    1    3    3  502    0  0.13527628844E+03 -0.38116149911E+03 -0.11041848799E+04  0.11759379668E+04  0.46999998093E+01 0. -1.
       -5    1    3    3    0  502 -0.13527628844E+03  0.38116149911E+03  0.11554052549E+04  0.12241597754E+04  0.46999998093E+01 0.  1.
</event>
<event>
 5   0  0.1275948E-06  0.2399685E+04  0.7818609E-02  0.8439621E-01
       -2   -1    0    0    0  501  0.00000000000E+00  0.00000000000E+00  0.10410138520E+04  0.10410138520E+04  0.25500000920E-02 0. -1.
        2   -1    0    0  501    0  0.00000000000E+00  0.00000000000E+00 -0.13829043524E+04  0.13829043524E+04  0.25500000920E-02 0.  1.
    10030    2    1    2    0    0  0.00000000000E+00  0.00000000000E+00 -0.34189050036E+03  0.24239182044E+04  0.23996854684E+04 0.  0.
        1    1    3    3  502    0  0.18465475255E+03 -0.88851695807E+03  0.62187756620E+03  0.11001324783E+04  0.50400001928E-02 0. -1.
       -1    1    3    3    0  502 -0.18465475255E+03  0.88851695807E+03 -0.96376806656E+03  0.13237857261E+04  0.50400001928E-02 0.  1.
</event>
<event>
 5   0  0.1308662E-06  0.2400955E+04  0.7818609E-02  0.8439146E-01
       -2   -1    0    0    0  501  0.00000000000E+00  0.00000000000E+00  0.94876635018E+03  0.94876635018E+03  0.25500000920E-02 0.  1.
        2   -1    0    0  501    0  0.00000000000E+00  0.00000000000E+00 -0.15189689755E+04  0.15189689755E+04  0.25500000920E-02 0. -1.
    10030    2    1    2    0    0  0.00000000000E+00  0.00000000000E+00 -0.57020262531E+03  0.24677353257E+04  0.24009553523E+04 0.  0.
        3    1    3    3  502    0  0.23082584288E+03 -0.10190133057E+04 -0.89271057565E+03  0.13742637553E+04  0.10100000352E+00 0. -1.
       -3    1    3    3    0  502 -0.23082584288E+03  0.10190133057E+04  0.32250795034E+03  0.10934715704E+04  0.10100000352E+00 0.  1.
</event>
<event>
 5   0  0.5363690E-07  0.2409093E+04  0.7818609E-02  0.8436107E-01
       -1   -1    0    0    0  501  0.00000000000E+00  0.00000000000E+00  0.99386429835E+03  0.99386429836E+03  0.50400001928E-02 0.  1.
        1   -1    0    0  501    0  0.00000000000E+00  0.00000000000E+00 -0.14598896651E+04  0.14598896651E+04  0.50400001928E-02 0. -1.
    10030    2    1    2    0    0  0.00000000000E+00  0.00000000000E+00 -0.46602536674E+03  0.24537539635E+04  0.24090929560E+04 0.  0.
        4    1    3    3  502    0 -0.10430484449E+04 -0.59997913172E+03 -0.28885226659E+03  0.12374822268E+04  0.12699999809E+01 0. -1.
       -4    1    3    3    0  502  0.10430484449E+04  0.59997913172E+03 -0.17717310015E+03  0.12162717366E+04  0.12699999809E+01 0.  1.
</event>
<event>
 5   0  0.5690124E-07  0.2399716E+04  0.7818609E-02  0.8439610E-01
       -1   -1    0    0    0  501  0.00000000000E+00  0.00000000000E+00  0.13512591947E+04  0.13512591947E+04  0.50400001928E-02 0.  1.
        1   -1    0    0  501    0  0.00000000000E+00  0.00000000000E+00 -0.10654202034E+04  0.10654202034E+04  0.50400001928E-02 0. -1.
    10030    2    1    2    0    0  0.00000000000E+00  0.00000000000E+00  0.28583899131E+03  0.24166793980E+04  0.23997156882E+04 0.  0.
        2    1    3    3  502    0  0.17863766299E+03  0.35728269077E+03 -0.99649202381E+03  0.10735728617E+04  0.25500000920E-02 0. -1.
       -2    1    3    3    0  502 -0.17863766299E+03 -0.35728269077E+03  0.12823310151E+04  0.13431065364E+04  0.25500000920E-02 0.  1.
</event>
<event>
 5   0  0.5363690E-07  0.2403139E+04  0.7818609E-02  0.8438329E-01
       -1   -1    0    0    0  501  0.00000000000E+00  0.00000000000E+00  0.10751040876E+04  0.10751040876E+04  0.50400001928E-02 0. -1.
        1   -1    0    0  501    0  0.00000000000E+00  0.00000000000E+00 -0.13429114899E+04  0.13429114899E+04  0.50400001928E-02 0.  1.
    10030    2    1    2    0    0  0.00000000000E+00  0.00000000000E+00 -0.26780740231E+03  0.24180155775E+04  0.24031393069E+04 0.  0.
        4    1    3    3  502    0  0.42462841998E+03 -0.91887512750E+03 -0.78531169368E+03  0.12811545044E+04  0.12699999809E+01 0.  1.
       -4    1    3    3    0  502 -0.42462841998E+03  0.91887512750E+03  0.51750429136E+03  0.11368610731E+04  0.12699999809E+01 0. -1.
</event>
<event>
 5   0  0.5527286E-07  0.2400361E+04  0.7818609E-02  0.8439368E-01
        1   -1    0    0  501    0  0.00000000000E+00  0.00000000000E+00  0.91428305403E+03  0.91428305404E+03  0.50400001928E-02 0. -1.
       -1   -1    0    0    0  501  0.00000000000E+00  0.00000000000E+00 -0.15754784841E+04  0.15754784841E+04  0.50400001928E-02 0.  1.
    10030    2    1    2    0    0  0.00000000000E+00  0.00000000000E+00 -0.66119543002E+03  0.24897615381E+04  0.24003610395E+04 0.  0.
        1    1    3    3  502    0 -0.61430566631E+03  0.98455885135E+03 -0.13082763127E+02  0.11605596676E+04  0.50400001928E-02 0.  1.
       -1    1    3    3    0  502  0.61430566631E+03 -0.98455885135E+03 -0.64811266690E+03  0.13292018705E+04  0.50400001928E-02 0. -1.
</event>
<event>
 5   0  0.4483375E-07  0.2399789E+04  0.7818609E-02  0.8439582E-01
        3   -1    0    0  501    0  0.00000000000E+00  0.00000000000E+00  0.13675552773E+04  0.13675552810E+04  0.10100000352E+00 0. -1.
       -3   -1    0    0    0  501  0.00000000000E+00  0.00000000000E+00 -0.10527888931E+04  0.10527888980E+04  0.10100000352E+00 0.  1.
    10030    2    1    2    0    0  0.00000000000E+00  0.00000000000E+00  0.31476638414E+03  0.24203441789E+04  0.23997891716E+04 0.  0.
        3    1    3    3  502    0  0.10619186500E+04 -0.45181671288E+03  0.48873558160E+03  0.12532645531E+04  0.10100000352E+00 0. -1.
       -3    1    3    3    0  502 -0.10619186500E+04  0.45181671288E+03 -0.17396919746E+03  0.11670796258E+04  0.10100000352E+00 0.  1.
</event>
<event>
 5   0  0.5527286E-07  0.2400287E+04  0.7818609E-02  0.8439396E-01
       -1   -1    0    0    0  501  0.00000000000E+00  0.00000000000E+00  0.66224706403E+03  0.66224706405E+03  0.50400001928E-02 0. -1.
        1   -1    0    0  501    0  0.00000000000E+00  0.00000000000E+00 -0.21749353863E+04  0.21749353863E+04  0.50400001928E-02 0.  1.
    10030    2    1    2    0    0  0.00000000000E+00  0.00000000000E+00 -0.15126883223E+04  0.28371824504E+04  0.24002871279E+04 0.  0.
        1    1    3    3  502    0 -0.34285863181E+03  0.47688667984E+03 -0.19934441769E+04  0.20781705015E+04  0.50400001928E-02 0.  1.
       -1    1    3    3    0  502  0.34285863181E+03 -0.47688667984E+03  0.48075585460E+03  0.75901194890E+03  0.50400001928E-02 0. -1.
</event>
<event>
 5   0  0.1291468E-06  0.2400623E+04  0.7818609E-02  0.8439270E-01
       -2   -1    0    0    0  501  0.00000000000E+00  0.00000000000E+00  0.11072605134E+04  0.11072605134E+04  0.25500000920E-02 0. -1.
        2   -1    0    0  501    0  0.00000000000E+00  0.00000000000E+00 -0.13011820307E+04  0.13011820307E+04  0.25500000920E-02 0.  1.
    10030    2    1    2    0    0  0.00000000000E+00  0.00000000000E+00 -0.19392151731E+03  0.24084425441E+04  0.24006228220E+04 0.  0.
        4    1    3    3  502    0  0.37323797455E+03  0.77616797453E+02 -0.12388311365E+04  0.12961616992E+04  0.12699999809E+01 0.  1.
       -4    1    3    3    0  502 -0.37323797455E+03 -0.77616797453E+02  0.10449096192E+04  0.11122808449E+04  0.12699999809E+01 0. -1.
</event>
<event>
 5   0  0.1291468E-06  0.2399234E+04  0.7818609E-02  0.8439790E-01
        2   -1    0    0  501    0  0.00000000000E+00  0.00000000000E+00  0.27278774836E+04  0.27278774836E+04  0.25500000920E-02 0. -1.
       -2   -1    0    0    0  501  0.00000000000E+00  0.00000000000E+00 -0.52754624272E+03  0.52754624272E+03  0.25500000920E-02 0.  1.
    10030    2    1    2    0    0  0.00000000000E+00  0.00000000000E+00  0.22003312409E+04  0.32554237263E+04  0.23992344755E+04 0.  0.
        4    1    3    3  502    0  0.11723252390E+04 -0.37197709172E+02  0.14416787050E+04  0.18585395441E+04  0.12699999809E+01 0. -1.
       -4    1    3    3    0  502 -0.11723252390E+04  0.37197709172E+02  0.75865253586E+03  0.13968841822E+04  0.12699999809E+01 0.  1.
</event>
<event>
 5   0  0.5527286E-07  0.2399835E+04  0.7818609E-02  0.8439565E-01
       -1   -1    0    0    0  501  0.00000000000E+00  0.00000000000E+00  0.10005422025E+04  0.10005422025E+04  0.50400001928E-02 0. -1.
        1   -1    0    0  501    0  0.00000000000E+00  0.00000000000E+00 -0.14390222494E+04  0.14390222494E+04  0.50400001928E-02 0.  1.
    10030    2    1    2    0    0  0.00000000000E+00  0.00000000000E+00 -0.43848004683E+03  0.24395644519E+04  0.23998354034E+04 0.  0.
        1    1    3    3  502    0  0.85870698032E+03 -0.23799258899E+03  0.59767069676E+03  0.10729531268E+04  0.50400001928E-02 0. -1.
       -1    1    3    3    0  502 -0.85870698032E+03  0.23799258899E+03 -0.10361507436E+04  0.13666113251E+04  0.50400001928E-02 0.  1.
</event>
<event>
 5   0  0.5363690E-07  0.2399526E+04  0.7818609E-02  0.8439681E-01
        1   -1    0    0  501    0  0.00000000000E+00  0.00000000000E+00  0.14989335364E+04  0.14989335364E+04  0.50400001928E-02 0.  1.
       -1   -1    0    0    0  501  0.00000000000E+00  0.00000000000E+00 -0.96030365729E+03  0.96030365730E+03  0.50400001928E-02 0. -1.
    10030    2    1    2    0    0  0.00000000000E+00  0.00000000000E+00  0.53862987910E+03  0.24592371937E+04  0.23995260841E+04 0.  0.
        4    1    3    3  502    0 -0.39749494952E+03 -0.13190629550E+02 -0.89077718464E+03  0.97553156442E+03  0.12699999809E+01 0. -1.
       -4    1    3    3    0  502  0.39749494952E+03  0.13190629550E+02  0.14294070637E+04  0.14837056293E+04  0.12699999809E+01 0.  1.
</event>
<event>
 5   0  0.1291468E-06  0.2399819E+04  0.7818609E-02  0.8439572E-01
       -2   -1    0    0    0  501  0.00000000000E+00  0.00000000000E+00  0.10242154744E+04  0.10242154744E+04  0.25500000920E-02 0. -1.
        2   -1    0    0  501    0  0.00000000000E+00  0.00000000000E+00 -0.14057415165E+04  0.14057415165E+04  0.25500000920E-02 0.  1.
    10030    2    1    2    0    0  0.00000000000E+00  0.00000000000E+00 -0.38152604216E+03  0.24299569909E+04  0.23998185049E+04 0.  0.
        4    1    3    3  502    0  0.11774040190E+04  0.22642973110E+03 -0.23857846031E+03  0.12224859679E+04  0.12699999809E+01 0.  1.
       -4    1    3    3    0  502 -0.11774040190E+04 -0.22642973110E+03 -0.14294758185E+03  0.12074710229E+04  0.12699999809E+01 0. -1.
</event>
<event>
 5   0  0.1291468E-06  0.2398389E+04  0.7818609E-02  0.8440107E-01
       -2   -1    0    0    0  501  0.00000000000E+00  0.00000000000E+00  0.12835285032E+04  0.12835285032E+04  0.25500000920E-02 0.  1.
        2   -1    0    0  501    0  0.00000000000E+00  0.00000000000E+00 -0.11204017433E+04  0.11204017433E+04  0.25500000920E-02 0. -1.
    10030    2    1    2    0    0  0.00000000000E+00  0.00000000000E+00  0.16312675988E+03  0.24039302465E+04  0.23983891032E+04 0.  0.
        4    1    3    3  502    0  0.63131223155E+03 -0.10854274574E+03 -0.93454863868E+03  0.11330134299E+04  0.12699999809E+01 0. -1.
       -4    1    3    3    0  502 -0.63131223155E+03  0.10854274574E+03  0.10976753986E+04  0.12709168167E+04  0.12699999809E+01 0.  1.
</event>
<event>
 5   0  0.1307477E-06  0.2395811E+04  0.7818609E-02  0.8441074E-01
       -2   -1    0    0    0  501  0.00000000000E+00  0.00000000000E+00  0.78780005665E+03  0.78780005665E+03  0.25500000920E-02 0. -1.
        2   -1    0    0  501    0  0.00000000000E+00  0.00000000000E+00 -0.18214994350E+04  0.18214994350E+04  0.25500000920E-02 0.  1.
    10030    2    1    2    0    0  0.00000000000E+00  0.00000000000E+00 -0.10336993783E+04  0.26092994916E+04  0.23958108089E+04 0.  0.
        5    1    3    3  502    0  0.67116232719E+03  0.73121901710E+03 -0.12472962487E+04  0.15940232566E+04  0.46999998093E+01 0.  1.
       -5    1    3    3    0  502 -0.67116232719E+03 -0.73121901710E+03  0.21359687040E+03  0.10152762350E+04  0.46999998093E+01 0. -1.
</event>
<event>
 5   0  0.1275948E-06  0.2398838E+04  0.7818609E-02  0.8439939E-01
        2   -1    0    0  501    0  0.00000000000E+00  0.00000000000E+00  0.13652208229E+04  0.13652208229E+04  0.25500000920E-02 0. -1.
       -2   -1    0    0    0  501  0.00000000000E+00  0.00000000000E+00 -0.10537530099E+04  0.10537530099E+04  0.25500000920E-02 0.  1.
    10030    2    1    2    0    0  0.00000000000E+00  0.00000000000E+00  0.31146781305E+03  0.24189738328E+04  0.23988376779E+04 0.  0.
        1    1    3    3  502    0 -0.71085639002E+03  0.66220109020E+03 -0.55357547041E+03  0.11181560233E+04  0.50400001928E-02 0.  1.
       -1    1    3    3    0  502  0.71085639002E+03 -0.66220109020E+03  0.86504328346E+03  0.13008178094E+04  0.50400001928E-02 0. -1.
</event>
<event>
 5   0  0.5452384E-07  0.2400407E+04  0.7818609E-02  0.8439351E-01
       -1   -1    0    0    0  501  0.00000000000E+00  0.00000000000E+00  0.13331735719E+04  0.13331735720E+04  0.50400001928E-02 0. -1.
        1   -1    0    0  501    0  0.00000000000E+00  0.00000000000E+00 -0.10804958534E+04  0.10804958534E+04  0.50400001928E-02 0.  1.
    10030    2    1    2    0    0  0.00000000000E+00  0.00000000000E+00  0.25267771854E+03  0.24136694254E+04  0.24004070625E+04 0.  0.
        5    1    3    3  502    0  0.10796960909E+04 -0.36772204266E+03 -0.24922612834E+03  0.11675182664E+04  0.46999998093E+01 0.  1.
       -5    1    3    3    0  502 -0.10796960909E+04  0.36772204266E+03  0.50190384688E+03  0.12461511589E+04  0.46999998093E+01 0. -1.
</event>
<event>
 5   0  0.1307477E-06  0.2400614E+04  0.7818609E-02  0.8439274E-01
        2   -1    0    0  501    0  0.00000000000E+00  0.00000000000E+00  0.19768998545E+04  0.19768998545E+04  0.25500000920E-02 0.  1.
       -2   -1    0    0    0  501  0.00000000000E+00  0.00000000000E+00 -0.72878590836E+03  0.72878590837E+03  0.25500000920E-02 0. -1.
    10030    2    1    2    0    0  0.00000000000E+00  0.00000000000E+00  0.12481139461E+04  0.27056857629E+04  0.24006138850E+04 0.  0.
        5    1    3    3  502    0 -0.97452957259E+02 -0.11260030425E+04  0.16855074479E+03  0.11427210395E+04  0.46999998093E+01 0. -1.
       -5    1    3    3    0  502  0.97452957259E+02  0.11260030425E+04  0.10795632013E+04  0.15629647233E+04  0.46999998093E+01 0.  1.
</event>
<event>
 5   0  0.5690124E-07  0.2400598E+04  0.7818609E-02  0.8439280E-01
       -1   -1    0    0    0  501  0.00000000000E+00  0.00000000000E+00  0.26886488080E+04  0.26886488080E+04  0.50400001928E-02 0.  1.
        1   -1    0    0  501    0  0.00000000000E+00  0.00000000000E+00 -0.53585173538E+03  0.53585173540E+03  0.50400001928E-02 0. -1.
    10030    2    1    2    0    0  0.00000000000E+00  0.00000000000E+00  0.21527970727E+04  0.32245005434E+04  0.24005975337E+04 0.  0.
        2    1    3    3  502    0 -0.66589628808E+03 -0.89744411768E+03  0.48799804605E+03  0.12194121140E+04  0.25500000920E-02 0.  1.
       -2    1    3    3    0  502  0.66589628808E+03  0.89744411768E+03  0.16647990266E+04  0.20050884294E+04  0.25500000920E-02 0. -1.
</event>
<event>
 5   0  0.1307477E-06  0.2399662E+04  0.7818609E-02  0.8439630E-01
        2   -1    0    0  501    0  0.00000000000E+00  0.00000000000E+00  0.11283993537E+04  0.11283993537E+04  0.25500000920E-02 0.  1.
       -2   -1    0    0    0  501  0.00000000000E+00  0.00000000000E+00 -0.12757846051E+04  0.12757846051E+04  0.25500000920E-02 0. -1.
    10030    2    1    2    0    0  0.00000000000E+00  0.00000000000E+00 -0.14738525142E+03  0.24041839588E+04  0.23996620794E+04 0.  0.
        5    1    3    3  502    0 -0.88488308245E+03 -0.45118262551E+02  0.73685518715E+03  0.11524024401E+04  0.46999998093E+01 0.  1.
       -5    1    3    3    0  502  0.88488308245E+03  0.45118262551E+02 -0.88424043858E+03  0.12517815186E+04  0.46999998093E+01 0. -1.
</event>
<event>
 5   0  0.5510176E-07  0.2399992E+04  0.7818609E-02  0.8439506E-01
        1   -1    0    0  501    0  0.00000000000E+00  0.00000000000E+00  0.10260930099E+04  0.10260930100E+04  0.50400001928E-02 0.  1.
       -1   -1    0    0    0  501  0.00000000000E+00  0.00000000000E+00 -0.14033726635E+04  0.14033726635E+04  0.50400001928E-02 0. -1.
    10030    2    1    2    0    0  0.00000000000E+00  0.00000000000E+00 -0.37727965354E+03  0.24294656735E+04  0.23999924003E+04 0.  0.
        3    1    3    3  502    0  0.55448363536E+03 -0.57147741225E+03 -0.10974131705E+04  0.13558592153E+04  0.10100000352E+00 0. -1.
       -3    1    3    3    0  502 -0.55448363536E+03  0.57147741225E+03  0.72013351698E+03  0.10736064582E+04  0.10100000352E+00 0.  1.
</event>
<event>
 5   0  0.5363690E-07  0.2399882E+04  0.7818609E-02  0.8439548E-01
       -1   -1    0    0    0  501  0.00000000000E+00  0.00000000000E+00  0.13008180233E+04  0.13008180233E+04  0.50400001928E-02 0. -1.
        1   -1    0    0  501    0  0.00000000000E+00  0.00000000000E+00 -0.11068870648E+04  0.11068870648E+04  0.50400001928E-02 0.  1.
    10030    2    1    2    0    0  0.00000000000E+00  0.00000000000E+00  0.19393095853E+03  0.24077050881E+04  0.23998822001E+04 0.  0.
        4    1    3    3  502    0  0.49842455151E+03 -0.10900622480E+04  0.40263174770E+02  0.11992854015E+04  0.12699999809E+01 0.  1.
       -4    1    3    3    0  502 -0.49842455151E+03  0.10900622480E+04  0.15366778376E+03  0.12084196865E+04  0.12699999809E+01 0. -1.
</event>
<event>
 5   0  0.5510176E-07  0.2398812E+04  0.7818609E-02  0.8439948E-01
       -1   -1    0    0    0  501  0.00000000000E+00  0.00000000000E+00  0.96080235629E+03  0.96080235631E+03  0.50400001928E-02 0. -1.
        1   -1    0    0  501    0  0.00000000000E+00  0.00000000000E+00 -0.14972641706E+04  0.14972641706E+04  0.50400001928E-02 0.  1.
    10030    2    1    2    0    0  0.00000000000E+00  0.00000000000E+00 -0.53646181430E+03  0.24580665269E+04  0.23988121587E+04 0.  0.
        3    1    3    3  502    0  0.96032793477E+03 -0.22671482247E+02 -0.10041857924E+04  0.13896520623E+04  0.10100000352E+00 0.  1.
       -3    1    3    3    0  502 -0.96032793477E+03  0.22671482247E+02  0.46772397806E+03  0.10684144646E+04  0.10100000352E+00 0. -1.
</event>
<event>
 5   0  0.5510176E-07  0.2401794E+04  0.7818609E-02  0.8438832E-01
       -1   -1    0    0    0  501  0.00000000000E+00  0.00000000000E+00  0.12551491488E+04  0.12551491489E+04  0.50400001928E-02 0.  1.
        1   -1    0    0  501    0  0.00000000000E+00  0.00000000000E+00 -0.11489898242E+04  0.11489898242E+04  0.50400001928E-02 0. -1.
    10030    2    1    2    0    0  0.00000000000E+00  0.00000000000E+00  0.10615932461E+03  0.24041389731E+04  0.24017939961E+04 0.  0.
        3    1    3    3  502    0  0.10462924341E+04 -0.51216945582E+03 -0.23893823330E+03  0.11891748815E+04  0.10100000352E+00 0. -1.
       -3    1    3    3    0  502 -0.10462924341E+04  0.51216945582E+03  0.34509755792E+03  0.12149640916E+04  0.10100000352E+00 0.  1.
</event>
<event>
 5   0  0.1336057E-06  0.2401957E+04  0.7818609E-02  0.8438771E-01
       -2   -1    0    0    0  501  0.00000000000E+00  0.00000000000E+00  0.62525843530E+03  0.62525843531E+03  0.25500000920E-02 0. -1.
        2   -1    0    0  501    0  0.00000000000E+00  0.00000000000E+00 -0.23068042897E+04  0.23068042897E+04  0.25500000920E-02 0.  1.
    10030    2    1    2    0    0  0.00000000000E+00  0.00000000000E+00 -0.16815458544E+04  0.29320627250E+04  0.24019565697E+04 0.  0.
        2    1    3    3  502    0  0.21395126955E+03 -0.68042975252E+03 -0.20202404317E+04  0.21424591468E+04  0.25500000920E-02 0.  1.
       -2    1    3    3    0  502 -0.21395126955E+03  0.68042975252E+03  0.33869457737E+03  0.78960357813E+03  0.25500000920E-02 0. -1.
</event>
<event>
 5   0  0.5452384E-07  0.2399641E+04  0.7818609E-02  0.8439638E-01
        1   -1    0    0  501    0  0.00000000000E+00  0.00000000000E+00  0.81606794322E+03  0.81606794324E+03  0.50400001928E-02 0. -1.
       -1   -1    0    0    0  501  0.00000000000E+00  0.00000000000E+00 -0.17640314530E+04  0.17640314530E+04  0.50400001928E-02 0.  1.
    10030    2    1    2    0    0  0.00000000000E+00  0.00000000000E+00 -0.94796350979E+03  0.25800993963E+04  0.23996412396E+04 0.  0.
        5    1    3    3  502    0 -0.22689047324E+02  0.21906471855E+03  0.79413850880E+03  0.82412511486E+03  0.46999998093E+01 0. -1.
       -5    1    3    3    0  502  0.22689047324E+02 -0.21906471855E+03 -0.17421020186E+04  0.17559742814E+04  0.46999998093E+01 0.  1.
</event>
<event>
 5   0  0.5690124E-07  0.2401128E+04  0.7818609E-02  0.8439081E-01
        1   -1    0    0  501    0  0.00000000000E+00  0.00000000000E+00  0.55845026047E+03  0.55845026050E+03  0.50400001928E-02 0.  1.
       -1   -1    0    0    0  501  0.00000000000E+00  0.00000000000E+00 -0.25809887918E+04  0.25809887918E+04  0.50400001928E-02 0. -1.
    10030    2    1    2    0    0  0.00000000000E+00  0.00000000000E+00 -0.20225385313E+04  0.31394390523E+04  0.24011279542E+04 0.  0.
        2    1    3    3  502    0 -0.44047308889E+03  0.28283995729E+03  0.40138286103E+03  0.65963867731E+03  0.25500000920E-02 0.  1.
       -2    1    3    3    0  502  0.44047308889E+03 -0.28283995729E+03 -0.24239213923E+04  0.24798003750E+04  0.25500000920E-02 0. -1.
</event>
<event>
 5   0  0.5510176E-07  0.2400010E+04  0.7818609E-02  0.8439500E-01
       -1   -1    0    0    0  501  0.00000000000E+00  0.00000000000E+00  0.10567027380E+04  0.10567027380E+04  0.50400001928E-02 0.  1.
        1   -1    0    0  501    0  0.00000000000E+00  0.00000000000E+00 -0.13627413899E+04  0.13627413899E+04  0.50400001928E-02 0. -1.
    10030    2    1    2    0    0  0.00000000000E+00  0.00000000000E+00 -0.30603865196E+03  0.24194441279E+04  0.24000104649E+04 0.  0.
        3    1    3    3  502    0 -0.96321274123E+03  0.77290180379E+02 -0.87030022442E+03  0.13004518629E+04  0.10100000352E+00 0. -1.
       -3    1    3    3    0  502  0.96321274123E+03 -0.77290180379E+02  0.56426157246E+03  0.11189922650E+04  0.10100000352E+00 0.  1.
</event>
<event>
 5   0  0.1275948E-06  0.2400481E+04  0.7818609E-02  0.8439323E-01
       -2   -1    0    0    0  501  0.00000000000E+00  0.00000000000E+00  0.13090395813E+04  0.13090395813E+04  0.25500000920E-02 0.  1.
        2   -1    0    0  501    0  0.00000000000E+00  0.00000000000E+00 -0.11004844162E+04  0.11004844162E+04  0.25500000920E-02 0. -1.
    10030    2    1    2    0    0  0.00000000000E+00  0.00000000000E+00  0.20855516506E+03  0.24095239975E+04  0.24004813346E+04 0.  0.
        1    1    3    3  502    0  0.92068388111E+03 -0.72210471796E+03 -0.16409380519E+03  0.11815332452E+04  0.50400001928E-02 0. -1.
       -1    1    3    3    0  502 -0.92068388111E+03  0.72210471796E+03  0.37264897025E+03  0.12279907523E+04  0.50400001928E-02 0.  1.
</event>
<event>
 5   0  0.1336057E-06  0.2401934E+04  0.7818609E-02  0.8438780E-01
        2   -1    0    0  501    0  0.00000000000E+00  0.00000000000E+00  0.20421398261E+04  0.20421398261E+04  0.25500000920E-02 0.  1.
       -2   -1    0    0    0  501  0.00000000000E+00  0.00000000000E+00 -0.70627973111E+03  0.70627973112E+03  0.25500000920E-02 0. -1.
    10030    2    1    2    0    0  0.00000000000E+00  0.00000000000E+00  0.13358600950E+04  0.27484195573E+04  0.24019341934E+04 0.  0.
        2    1    3    3  502    0  0.94393529104E+03 -0.18509381827E+03 -0.15485715830E+03  0.97429682064E+03  0.25500000920E-02 0. -1.
       -2    1    3    3    0  502 -0.94393529104E+03  0.18509381827E+03  0.14907172533E+04  0.17741227366E+04  0.25500000920E-02 0.  1.
</event>
<event>
 5   0  0.5510176E-07  0.2399322E+04  0.7818609E-02  0.8439758E-01
       -1   -1    0    0    0  501  0.00000000000E+00  0.00000000000E+00  0.10876159638E+04  0.10876159638E+04  0.50400001928E-02 0. -1.
        1   -1    0    0  501    0  0.00000000000E+00  0.00000000000E+00 -0.13232484465E+04  0.13232484465E+04  0.50400001928E-02 0.  1.
    10030    2    1    2    0    0  0.00000000000E+00  0.00000000000E+00 -0.23563248265E+03  0.24108644103E+04  0.23993216829E+04 0.  0.
        3    1    3    3  502    0 -0.24318100875E+03 -0.37003469706E+03 -0.12381345555E+04  0.13149296056E+04  0.10100000352E+00 0.  1.
       -3    1    3    3    0  502  0.24318100875E+03  0.37003469706E+03  0.10025020728E+04  0.10959348047E+04  0.10100000352E+00 0. -1.
</event>
<event>
 5   0  0.1275948E-06  0.2400548E+04  0.7818609E-02  0.8439298E-01
       -2   -1    0    0    0  501  0.00000000000E+00  0.00000000000E+00  0.16436524540E+04  0.16436524540E+04  0.25500000920E-02 0. -1.
        2   -1    0    0  501    0  0.00000000000E+00  0.00000000000E+00 -0.87649767501E+03  0.87649767502E+03  0.25500000920E-02 0.  1.
    10030    2    1    2    0    0  0.00000000000E+00  0.00000000000E+00  0.76715477899E+03  0.25201501290E+04  0.24005478995E+04 0.  0.
        1    1    3    3  502    0 -0.28271519886E+03  0.11643425884E+04  0.30907688242E+03  0.12373964870E+04  0.50400001928E-02 0.  1.
       -1    1    3    3    0  502  0.28271519886E+03 -0.11643425884E+04  0.45807789657E+03  0.12827536420E+04  0.50400001928E-02 0. -1.
</event>
<event>
 5   0  0.5527286E-07  0.2399779E+04  0.7818609E-02  0.8439586E-01
       -1   -1    0    0    0  501  0.00000000000E+00  0.00000000000E+00  0.11066484136E+04  0.11066484136E+04  0.50400001928E-02 0. -1.
        1   -1    0    0  501    0  0.00000000000E+00  0.00000000000E+00 -0.13009868901E+04  0.13009868901E+04  0.50400001928E-02 0.  1.
    10030    2    1    2    0    0  0.00000000000E+00  0.00000000000E+00 -0.19433847651E+03  0.24076353037E+04  0.23997792216E+04 0.  0.
        1    1    3    3  502    0 -0.11081140435E+03 -0.20757539756E+03 -0.12776128532E+04  0.12991001946E+04  0.50400001928E-02 0.  1.
       -1    1    3    3    0  502  0.11081140435E+03  0.20757539756E+03  0.10832743767E+04  0.11085351091E+04  0.50400001928E-02 0. -1.
</event>
<event>
 5   0  0.5510176E-07  0.2397808E+04  0.7818609E-02  0.8440325E-01
       -1   -1    0    0    0  501  0.00000000000E+00  0.00000000000E+00  0.11591245262E+04  0.11591245262E+04  0.50400001928E-02 0. -1.
        1   -1    0    0  501    0  0.00000000000E+00  0.00000000000E+00 -0.12400487188E+04  0.12400487188E+04  0.50400001928E-02 0.  1.
    10030    2    1    2    0    0  0.00000000000E+00  0.00000000000E+00 -0.80924192564E+02  0.23991732450E+04  0.23978080687E+04 0.  0.
        3    1    3    3  502    0  0.10009078732E+03 -0.28035000928E+03 -0.12024831067E+04  0.12387816294E+04  0.10100000352E+00 0.  1.
       -3    1    3    3    0  502 -0.10009078732E+03  0.28035000928E+03  0.11215589141E+04  0.11603916155E+04  0.10100000352E+00 0. -1.
</event>
<event>
 5   0  0.1291468E-06  0.2399306E+04  0.7818609E-02  0.8439763E-01
        2   -1    0    0  501    0  0.00000000000E+00  0.00000000000E+00  0.24147643342E+04  0.24147643342E+04  0.25500000920E-02 0. -1.
       -2   -1    0    0    0  501  0.00000000000E+00  0.00000000000E+00 -0.59598668355E+03  0.59598668355E+03  0.25500000920E-02 0.  1.
    10030    2    1    2    0    0  0.00000000000E+00  0.00000000000E+00  0.18187776507E+04  0.30107510178E+04  0.23993060556E+04 0.  0.
        4    1    3    3  502    0 -0.11612810595E+04 -0.24063700365E+03  0.68252279831E+03  0.13683270259E+04  0.12699999809E+01 0. -1.
       -4    1    3    3    0  502  0.11612810595E+04  0.24063700365E+03  0.11362548524E+04  0.16424239919E+04  0.12699999809E+01 0.  1.
</event>
<event>
 5   0  0.4483375E-07  0.2400582E+04  0.7818609E-02  0.8439286E-01
       -4   -1    0    0    0  501  0.00000000000E+00  0.00000000000E+00  0.19575587431E+04  0.19575591551E+04  0.12699999809E+01 0.  1.
        4   -1    0    0  501    0  0.00000000000E+00  0.00000000000E+00 -0.73596574487E+03  0.73596684064E+03  0.12699999809E+01 0. -1.
    10030    2    1    2    0    0  0.00000000000E+00  0.00000000000E+00  0.12215929982E+04  0.26935259957E+04  0.24005817704E+04 0.  0.
        4    1    3    3  502    0 -0.61703586001E+03  0.14387256483E+03  0.17546426507E+04  0.18655307588E+04  0.12699999809E+01 0. -1.
       -4    1    3    3    0  502  0.61703586001E+03 -0.14387256483E+03 -0.53304965248E+03  0.82799523692E+03  0.12699999809E+01 0.  1.
</event>
<event>
 5   0  0.1275948E-06  0.2399709E+04  0.7818609E-02  0.8439613E-01
       -2   -1    0    0    0  501  0.00000000000E+00  0.00000000000E+00  0.77525792955E+03  0.77525792955E+03  0.25500000920E-02 0.  1.
        2   -1    0    0  501    0  0.00000000000E+00  0.00000000000E+00 -0.18569956239E+04  0.18569956240E+04  0.25500000920E-02 0. -1.
    10030    2    1    2    0    0  0.00000000000E+00  0.00000000000E+00 -0.10817376944E+04  0.26322535535E+04  0.23997088012E+04 0.  0.
        1    1    3    3  502    0  0.54334706274E+03  0.10685100830E+04 -0.59797912503E+03  0.13395965296E+04  0.50400001928E-02 0.  1.
       -1    1    3    3    0  502 -0.54334706274E+03 -0.10685100830E+04 -0.48375856937E+03  0.12926570239E+04  0.50400001928E-02 0. -1.
</event>
<event>
 5   0  0.1307477E-06  0.2399914E+04  0.7818609E-02  0.8439536E-01
       -2   -1    0    0    0  501  0.00000000000E+00  0.00000000000E+00  0.15096355173E+04  0.15096355173E+04  0.25500000920E-02 0.  1.
        2   -1    0    0  501    0  0.00000000000E+00  0.00000000000E+00 -0.95380464371E+03  0.95380464371E+03  0.25500000920E-02 0. -1.
    10030    2    1    2    0    0  0.00000000000E+00  0.00000000000E+00  0.55583087357E+03  0.24634401610E+04  0.23999144707E+04 0.  0.
        5    1    3    3  502    0  0.24162316136E+03  0.11748429808E+04  0.31402464573E+03  0.12398674727E+04  0.46999998093E+01 0. -1.
       -5    1    3    3    0  502 -0.24162316136E+03 -0.11748429808E+04  0.24180622784E+03  0.12235726883E+04  0.46999998093E+01 0.  1.
</event>
<event>
 5   0  0.1291468E-06  0.2399385E+04  0.7818609E-02  0.8439734E-01
       -2   -1    0    0    0  501  0.00000000000E+00  0.00000000000E+00  0.78970351537E+03  0.78970351537E+03  0.25500000920E-02 0. -1.
        2   -1    0    0  501    0  0.00000000000E+00  0.00000000000E+00 -0.18225341555E+04  0.18225341555E+04  0.25500000920E-02 0.  1.
    10030    2    1    2    0    0  0.00000000000E+00  0.00000000000E+00 -0.10328306401E+04  0.26122376708E+04  0.23993846123E+04 0.  0.
        4    1    3    3  502    0 -0.52908659364E+03 -0.94574865549E+03 -0.10767442393E+04  0.15276625651E+04  0.12699999809E+01 0. -1.
       -4    1    3    3    0  502  0.52908659364E+03  0.94574865549E+03  0.43913599218E+02  0.10845751058E+04  0.12699999809E+01 0.  1.
</event>
<event>
 5   0  0.5510176E-07  0.2397415E+04  0.7818609E-02  0.8440472E-01
        1   -1    0    0  501    0  0.00000000000E+00  0.00000000000E+00  0.12846341498E+04  0.12846341498E+04  0.50400001928E-02 0.  1.
       -1   -1    0    0    0  501  0.00000000000E+00  0.00000000000E+00 -0.11185287285E+04  0.11185287285E+04  0.50400001928E-02 0. -1.
    10030    2    1    2    0    0  0.00000000000E+00  0.00000000000E+00  0.16610542128E+03  0.24031628783E+04  0.23974154435E+04 0.  0.
        3    1    3    3  502    0 -0.44485598657E+03 -0.94151396532E+03 -0.51213399476E+03  0.11604424305E+04  0.10100000352E+00 0. -1.
       -3    1    3    3    0  502  0.44485598657E+03  0.94151396532E+03  0.67823941605E+03  0.12427204478E+04  0.10100000352E+00 0.  1.
</event>
<event>
 5   0  0.5510176E-07  0.2399941E+04  0.7818609E-02  0.8439525E-01
       -1   -1    0    0    0  501  0.00000000000E+00  0.00000000000E+00  0.71421261765E+03  0.71421261766E+03  0.50400001928E-02 0.  1.
        1   -1    0    0  501    0  0.00000000000E+00  0.00000000000E+00 -0.20161079758E+04  0.20161079758E+04  0.50400001928E-02 0. -1.
    10030    2    1    2    0    0  0.00000000000E+00  0.00000000000E+00 -0.13018953581E+04  0.27303205934E+04  0.23999414617E+04 0.  0.
        3    1    3    3  502    0 -0.17125355302E+03  0.94142097784E+03 -0.14747342946E+04  0.17579654396E+04  0.10100000352E+00 0. -1.
       -3    1    3    3    0  502  0.17125355302E+03 -0.94142097784E+03  0.17283893652E+03  0.97235515380E+03  0.10100000352E+00 0.  1.
</event>
<event>
 5   0  0.1308662E-06  0.2400037E+04  0.7818609E-02  0.8439490E-01
       -2   -1    0    0    0  501  0.00000000000E+00  0.00000000000E+00  0.71011757364E+03  0.71011757364E+03  0.25500000920E-02 0.  1.
        2   -1    0    0  501    0  0.00000000000E+00  0.00000000000E+00 -0.20278957331E+04  0.20278957331E+04  0.25500000920E-02 0. -1.
    10030    2    1    2    0    0  0.00000000000E+00  0.00000000000E+00 -0.13177781595E+04  0.27380133068E+04  0.24000369977E+04 0.  0.
        3    1    3    3  502    0  0.13089939455E+03  0.11322363653E+04 -0.23058619081E+03  0.11628687974E+04  0.10100000352E+00 0.  1.
       -3    1    3    3    0  502 -0.13089939455E+03 -0.11322363653E+04 -0.10871919687E+04  0.15751445094E+04  0.10100000352E+00 0. -1.
</event>
<event>
 5   0  0.1291468E-06  0.2399948E+04  0.7818609E-02  0.8439523E-01
       -2   -1    0    0    0  501  0.00000000000E+00  0.00000000000E+00  0.89975617700E+03  0.89975617700E+03  0.25500000920E-02 0. -1.
        2   -1    0    0  501    0  0.00000000000E+00  0.00000000000E+00 -0.16003638505E+04  0.16003638505E+04  0.25500000920E-02 0.  1.
    10030    2    1    2    0    0  0.00000000000E+00  0.00000000000E+00 -0.70060767351E+03  0.25001200275E+04  0.23999477160E+04 0.  0.
        4    1    3    3  502    0 -0.63303143456E+02 -0.10691629702E+04 -0.91401759254E+03  0.14080293027E+04  0.12699999809E+01 0.  1.
       -4    1    3    3    0  502  0.63303143456E+02  0.10691629702E+04  0.21340991903E+03  0.10920907248E+04  0.12699999809E+01 0. -1.
</event>
<event>
 5   0  0.5690124E-07  0.2400213E+04  0.7818609E-02  0.8439424E-01
        1   -1    0    0  501    0  0.00000000000E+00  0.00000000000E+00  0.86736372926E+03  0.86736372927E+03  0.50400001928E-02 0.  1.
       -1   -1    0    0    0  501  0.00000000000E+00  0.00000000000E+00 -0.16604975039E+04  0.16604975039E+04  0.50400001928E-02 0. -1.
    10030    2    1    2    0    0  0.00000000000E+00  0.00000000000E+00 -0.79313377459E+03  0.25278612331E+04  0.24002127467E+04 0.  0.
        2    1    3    3  502    0  0.18858605307E+02 -0.34608638077E+03  0.81350406275E+03  0.88426256851E+03  0.25500000920E-02 0.  1.
       -2    1    3    3    0  502 -0.18858605307E+02  0.34608638077E+03 -0.16066378373E+04  0.16435986646E+04  0.25500000920E-02 0. -1.
</event>
<event>
 5   0  0.5527286E-07  0.2400575E+04  0.7818609E-02  0.8439288E-01
        1   -1    0    0  501    0  0.00000000000E+00  0.00000000000E+00  0.17341931814E+04  0.17341931814E+04  0.50400001928E-02 0. -1.
       -1   -1    0    0    0  501  0.00000000000E+00  0.00000000000E+00 -0.83075521101E+03  0.83075521103E+03  0.50400001928E-02 0.  1.
    10030    2    1    2    0    0  0.00000000000E+00  0.00000000000E+00  0.90343797037E+03  0.25649483924E+04  0.24005749498E+04 0.  0.
        1    1    3    3  502    0 -0.16660455049E+03  0.64244738939E+02  0.17199223173E+04  0.17291666317E+04  0.50400001928E-02 0. -1.
       -1    1    3    3    0  502  0.16660455049E+03 -0.64244738939E+02 -0.81648434692E+03  0.83578176070E+03  0.50400001928E-02 0.  1.
</event>
<event>
 5   0  0.5690124E-07  0.2398567E+04  0.7818609E-02  0.8440040E-01
       -1   -1    0    0    0  501  0.00000000000E+00  0.00000000000E+00  0.12164573950E+04  0.12164573950E+04  0.50400001928E-02 0. -1.
        1   -1    0    0  501    0  0.00000000000E+00  0.00000000000E+00 -0.11823522061E+04  0.11823522061E+04  0.50400001928E-02 0.  1.
    10030    2    1    2    0    0  0.00000000000E+00  0.00000000000E+00  0.34105188845E+02  0.23988096011E+04  0.23985671428E+04 0.  0.
        2    1    3    3  502    0 -0.10041344423E+04 -0.65573875618E+03  0.18390624843E+02  0.11994238241E+04  0.25500000920E-02 0. -1.
       -2    1    3    3    0  502  0.10041344423E+04  0.65573875618E+03  0.15714564001E+02  0.11993857770E+04  0.25500000920E-02 0.  1.
</event>
<event>
 5   0  0.1291468E-06  0.2399782E+04  0.7818609E-02  0.8439585E-01
        2   -1    0    0  501    0  0.00000000000E+00  0.00000000000E+00  0.18874558957E+04  0.18874558957E+04  0.25500000920E-02 0.  1.
       -2   -1    0    0    0  501  0.00000000000E+00  0.00000000000E+00 -0.76279317044E+03  0.76279317044E+03  0.25500000920E-02 0. -1.
    10030    2    1    2    0    0  0.00000000000E+00  0.00000000000E+00  0.11246627252E+04  0.26502490661E+04  0.23997820457E+04 0.  0.
        4    1    3    3  502    0 -0.71670302397E+02  0.10726576925E+04 -0.26211931607E+02  0.10753696275E+04  0.12699999809E+01 0. -1.
       -4    1    3    3    0  502  0.71670302397E+02 -0.10726576925E+04  0.11508746568E+04  0.15748794386E+04  0.12699999809E+01 0.  1.
</event>
<event>
 5   0  0.1291468E-06  0.2400151E+04  0.7818609E-02  0.8439447E-01
        2   -1    0    0  501    0  0.00000000000E+00  0.00000000000E+00  0.69279671808E+03  0.69279671808E+03  0.25500000920E-02 0.  1.
       -2   -1    0    0    0  501  0.00000000000E+00  0.00000000000E+00 -0.20787925577E+04  0.20787925577E+04  0.25500000920E-02 0. -1.
    10030    2    1    2    0    0  0.00000000000E+00  0.00000000000E+00 -0.13859958396E+04  0.27715892758E+04  0.24001505466E+04 0.  0.
        4    1    3    3  502    0 -0.35638758901E+03 -0.94735133526E+03  0.51522172000E+02  0.10134805440E+04  0.12699999809E+01 0.  1.
       -4    1    3    3    0  502  0.35638758901E+03  0.94735133526E+03 -0.14375180116E+04  0.17581087317E+04  0.12699999809E+01 0. -1.
</event>
<event>
 5   0  0.1307477E-06  0.2406447E+04  0.7818609E-02  0.8437094E-01
       -2   -1    0    0    0  501  0.00000000000E+00  0.00000000000E+00  0.72502123364E+03  0.72502123364E+03  0.25500000920E-02 0. -1.
        2   -1    0    0  501    0  0.00000000000E+00  0.00000000000E+00 -0.19968344139E+04  0.19968344139E+04  0.25500000920E-02 0.  1.
    10030    2    1    2    0    0  0.00000000000E+00  0.00000000000E+00 -0.12718131803E+04  0.27218556476E+04  0.24064474648E+04 0.  0.
        5    1    3    3  502    0 -0.45003415797E+03  0.52891610986E+03  0.47544597861E+03  0.84163766740E+03  0.46999998093E+01 0. -1.
       -5    1    3    3    0  502  0.45003415797E+03 -0.52891610986E+03 -0.17472591589E+04  0.18802179802E+04  0.46999998093E+01 0.  1.
</event>
<event>
 5   0  0.5510176E-07  0.2399775E+04  0.7818609E-02  0.8439588E-01
        1   -1    0    0  501    0  0.00000000000E+00  0.00000000000E+00  0.13158931383E+04  0.13158931383E+04  0.50400001928E-02 0.  1.
       -1   -1    0    0    0  501  0.00000000000E+00  0.00000000000E+00 -0.10941089315E+04  0.10941089315E+04  0.50400001928E-02 0. -1.
    10030    2    1    2    0    0  0.00000000000E+00  0.00000000000E+00  0.22178420679E+03  0.24100020698E+04  0.23997753524E+04 0.  0.
        3    1    3    3  502    0  0.83223630792E+03 -0.35793958362E+03 -0.67922140727E+03  0.11322896043E+04  0.10100000352E+00 0. -1.
       -3    1    3    3    0  502 -0.83223630792E+03  0.35793958362E+03  0.90100561407E+03  0.12777124655E+04  0.10100000352E+00 0.  1.
</event>
<event>
 5   0  0.5690124E-07  0.2399644E+04  0.7818609E-02  0.8439637E-01
        1   -1    0    0  501    0  0.00000000000E+00  0.00000000000E+00  0.11959874793E+04  0.11959874793E+04  0.50400001928E-02 0.  1.
       -1   -1    0    0    0  501  0.00000000000E+00  0.00000000000E+00 -0.12036683456E+04  0.12036683456E+04  0.50400001928E-02 0. -1.
    10030    2    1    2    0    0  0.00000000000E+00  0.00000000000E+00 -0.76808663416E+01  0.23996558250E+04  0.23996435324E+04 0.  0.
        2    1    3    3  502    0 -0.37754483310E+03  0.78078303859E+03 -0.83294661397E+03  0.12024817321E+04  0.25500000920E-02 0. -1.
       -2    1    3    3    0  502  0.37754483310E+03 -0.78078303859E+03  0.82526574763E+03  0.11971740928E+04  0.25500000920E-02 0.  1.
</event>
<event>
 5   0  0.1275948E-06  0.2400597E+04  0.7818609E-02  0.8439280E-01
       -2   -1    0    0    0  501  0.00000000000E+00  0.00000000000E+00  0.18293783499E+04  0.18293783499E+04  0.25500000920E-02 0. -1.
        2   -1    0    0  501    0  0.00000000000E+00  0.00000000000E+00 -0.78754441758E+03  0.78754441759E+03  0.25500000920E-02 0.  1.
    10030    2    1    2    0    0  0.00000000000E+00  0.00000000000E+00  0.10418339323E+04  0.26169227675E+04  0.24005971816E+04 0.  0.
        1    1    3    3  502    0 -0.11138777711E+03  0.72442917620E+03 -0.51527098388E+03  0.89594031892E+03  0.50400001928E-02 0.  1.
       -1    1    3    3    0  502  0.11138777711E+03 -0.72442917620E+03  0.15571049162E+04  0.17209824486E+04  0.50400001928E-02 0. -1.
</event>
<event>
 5   0  0.5363690E-07  0.2400070E+04  0.7818609E-02  0.8439477E-01
        1   -1    0    0  501    0  0.00000000000E+00  0.00000000000E+00  0.19476965820E+04  0.19476965820E+04  0.50400001928E-02 0.  1.
       -1   -1    0    0    0  501  0.00000000000E+00  0.00000000000E+00 -0.73937800070E+03  0.73937800072E+03  0.50400001928E-02 0. -1.
    10030    2    1    2    0    0  0.00000000000E+00  0.00000000000E+00  0.12083185813E+04  0.26870745828E+04  0.24000700030E+04 0.  0.
        4    1    3    3  502    0 -0.11800584731E+04  0.17245360566E+03  0.75354752189E+03  0.14107139067E+04  0.12699999809E+01 0. -1.
       -4    1    3    3    0  502  0.11800584731E+04 -0.17245360566E+03  0.45477105944E+03  0.12763606760E+04  0.12699999809E+01 0.  1.
</event>
<event>
 5   0  0.1275948E-06  0.2399407E+04  0.7818609E-02  0.8439725E-01
        2   -1    0    0  501    0  0.00000000000E+00  0.00000000000E+00  0.13520599728E+04  0.13520599728E+04  0.25500000920E-02 0.  1.
       -2   -1    0    0    0  501  0.00000000000E+00  0.00000000000E+00 -0.10645156747E+04  0.10645156747E+04  0.25500000920E-02 0. -1.
    10030    2    1    2    0    0  0.00000000000E+00  0.00000000000E+00  0.28754429814E+03  0.24165756475E+04  0.23994074553E+04 0.  0.
        1    1    3    3  502    0 -0.76078485258E+03  0.77815373356E+03  0.65233287006E+03  0.12688006141E+04  0.50400001928E-02 0.  1.
       -1    1    3    3    0  502  0.76078485258E+03 -0.77815373356E+03 -0.36478857193E+03  0.11477750334E+04  0.50400001928E-02 0. -1.
</event>
<event>
 5   0  0.4483375E-07  0.2400342E+04  0.7818609E-02  0.8439375E-01
       -3   -1    0    0    0  501  0.00000000000E+00  0.00000000000E+00  0.19751435919E+04  0.19751435945E+04  0.10100000352E+00 0. -1.
        3   -1    0    0  501    0  0.00000000000E+00  0.00000000000E+00 -0.72926890884E+03  0.72926891584E+03  0.10100000352E+00 0.  1.
    10030    2    1    2    0    0  0.00000000000E+00  0.00000000000E+00  0.12458746830E+04  0.27044125103E+04  0.24003423298E+04 0.  0.
        5    1    3    3  502    0  0.64585181060E+03  0.95078816446E+03  0.10120345834E+04  0.15314564254E+04  0.46999998093E+01 0. -1.
       -5    1    3    3    0  502 -0.64585181060E+03 -0.95078816446E+03  0.23384009968E+03  0.11729560849E+04  0.46999998093E+01 0.  1.
</event>
<event>
 5   0  0.1336057E-06  0.2400629E+04  0.7818609E-02  0.8439268E-01
       -2   -1    0    0    0  501  0.00000000000E+00  0.00000000000E+00  0.90234159648E+03  0.90234159649E+03  0.25500000920E-02 0. -1.
        2   -1    0    0  501    0  0.00000000000E+00  0.00000000000E+00 -0.15966842352E+04  0.15966842352E+04  0.25500000920E-02 0.  1.
    10030    2    1    2    0    0  0.00000000000E+00  0.00000000000E+00 -0.69434263871E+03  0.24990258317E+04  0.24006287525E+04 0.  0.
        2    1    3    3  502    0 -0.62004039525E+03  0.84991671085E+03 -0.94873821161E+03  0.14166554632E+04  0.25500000920E-02 0.  1.
       -2    1    3    3    0  502  0.62004039525E+03 -0.84991671085E+03  0.25439557290E+03  0.10823703685E+04  0.25500000920E-02 0. -1.
</event>
<event>
 5   0  0.5363690E-07  0.2400924E+04  0.7818609E-02  0.8439158E-01
        1   -1    0    0  501    0  0.00000000000E+00  0.00000000000E+00  0.76520114846E+03  0.76520114848E+03  0.50400001928E-02 0.  1.
       -1   -1    0    0    0  501  0.00000000000E+00  0.00000000000E+00 -0.18833078533E+04  0.18833078533E+04  0.50400001928E-02 0. -1.
    10030    2    1    2    0    0  0.00000000000E+00  0.00000000000E+00 -0.11181067049E+04  0.26485090018E+04  0.24009242656E+04 0.  0.
        4    1    3    3  502    0 -0.55556856919E+03 -0.69097842889E+03  0.33372504676E+03  0.94735507810E+03  0.12699999809E+01 0.  1.
       -4    1    3    3    0  502  0.55556856919E+03  0.69097842889E+03 -0.14518317516E+04  0.17011539237E+04  0.12699999809E+01 0. -1.
</event>
<event>
 5   0  0.1291468E-06  0.2399200E+04  0.7818609E-02  0.8439803E-01
        2   -1    0    0  501    0  0.00000000000E+00  0.00000000000E+00  0.25572907665E+04  0.25572907665E+04  0.25500000920E-02 0. -1.
       -2   -1    0    0    0  501  0.00000000000E+00  0.00000000000E+00 -0.56272061717E+03  0.56272061717E+03  0.25500000920E-02 0.  1.
    10030    2    1    2    0    0  0.00000000000E+00  0.00000000000E+00  0.19945701493E+04  0.31200113836E+04  0.23992000654E+04 0.  0.
        4    1    3    3  502    0 -0.18320408388E+03 -0.10994124745E+04  0.42043101091E+03  0.11912327117E+04  0.12699999809E+01 0.  1.
       -4    1    3    3    0  502  0.18320408388E+03  0.10994124745E+04  0.15741391384E+04  0.19287786720E+04  0.12699999809E+01 0. -1.
</event>
<event>
 5   0  0.5510176E-07  0.2400202E+04  0.7818609E-02  0.8439428E-01
       -1   -1    0    0    0  501  0.00000000000E+00  0.00000000000E+00  0.89129497786E+03  0.89129497788E+03  0.50400001928E-02 0.  1.
        1   -1    0    0  501    0  0.00000000000E+00  0.00000000000E+00 -0.16158986294E+04  0.16158986294E+04  0.50400001928E-02 0. -1.
    10030    2    1    2    0    0  0.00000000000E+00  0.00000000000E+00 -0.72460365153E+03  0.25071936073E+04  0.24002019358E+04 0.  0.
        3    1    3    3  502    0  0.67609013816E+02 -0.75560851329E+03 -0.13336605155E+04  0.15343290341E+04  0.10100000352E+00 0. -1.
       -3    1    3    3    0  502 -0.67609013816E+02  0.75560851329E+03  0.60905686393E+03  0.97286457321E+03  0.10100000352E+00 0.  1.
</event>
<event>
 5   0  0.1307477E-06  0.2399801E+04  0.7818609E-02  0.8439578E-01
       -2   -1    0    0    0  501  0.00000000000E+00  0.00000000000E+00  0.82897419755E+03  0.82897419755E+03  0.25500000920E-02 0.  1.
        2   -1    0    0  501    0  0.00000000000E+00  0.00000000000E+00 -0.17367990333E+04  0.17367990333E+04  0.25500000920E-02 0. -1.
    10030    2    1    2    0    0  0.00000000000E+00  0.00000000000E+00 -0.90782483570E+03  0.25657732308E+04  0.23998013125E+04 0.  0.
        5    1    3    3  502    0 -0.50253669270E+03 -0.11713827476E+03  0.70427782683E+03  0.87309441087E+03  0.46999998093E+01 0.  1.
       -5    1    3    3    0  502  0.50253669270E+03  0.11713827476E+03 -0.16121026625E+04  0.16926788199E+04  0.46999998093E+01 0. -1.
</event>
<event>
 5   0  0.1307477E-06  0.2399477E+04  0.7818609E-02  0.8439699E-01
        2   -1    0    0  501    0  0.00000000000E+00  0.00000000000E+00  0.10600533139E+04  0.10600533139E+04  0.25500000920E-02 0. -1.
       -2   -1    0    0    0  501  0.00000000000E+00  0.00000000000E+00 -0.13578306227E+04  0.13578306227E+04  0.25500000920E-02 0.  1.
    10030    2    1    2    0    0  0.00000000000E+00  0.00000000000E+00 -0.29777730883E+03  0.24178839366E+04  0.23994773192E+04 0.  0.
        5    1    3    3  502    0  0.33926096358E+03  0.41604729182E+03 -0.12300391649E+04  0.13420923171E+04  0.46999998093E+01 0.  1.
       -5    1    3    3    0  502 -0.33926096358E+03 -0.41604729182E+03  0.93226185606E+03  0.10757916196E+04  0.46999998093E+01 0. -1.
</event>
<event>
 5   0  0.1275948E-06  0.2400679E+04  0.7818609E-02  0.8439249E-01
        2   -1    0    0  501    0  0.00000000000E+00  0.00000000000E+00  0.11964457030E+04  0.11964457030E+04  0.25500000920E-02 0. -1.
       -2   -1    0    0    0  501  0.00000000000E+00  0.00000000000E+00 -0.12042458342E+04  0.12042458342E+04  0.25500000920E-02 0.  1.
    10030    2    1    2    0    0  0.00000000000E+00  0.00000000000E+00 -0.78001312080E+01  0.24006915371E+04  0.24006788653E+04 0.  0.
        1    1    3    3  502    0  0.56488523641E+03 -0.94596713655E+03 -0.48020668412E+03  0.12018933452E+04  0.50400001928E-02 0.  1.
       -1    1    3    3    0  502 -0.56488523641E+03  0.94596713655E+03  0.47240655291E+03  0.11987981919E+04  0.50400001928E-02 0. -1.
</event>
<event>
 5   0  0.5363690E-07  0.2399551E+04  0.7818609E-02  0.8439672E-01
        1   -1    0    0  501    0  0.00000000000E+00  0.00000000000E+00  0.14427123297E+04  0.14427123297E+04  0.50400001928E-02 0. -1.
       -1   -1    0    0    0  501  0.00000000000E+00  0.00000000000E+00 -0.99774659805E+03  0.99774659806E+03  0.50400001928E-02 0.  1.
    10030    2    1    2    0    0  0.00000000000E+00  0.00000000000E+00  0.44496573163E+03  0.24404589277E+04  0.23995510571E+04 0.  0.
        4    1    3    3  502    0  0.36975795873E+03 -0.10854358062E+04  0.58144159970E+03  0.12856779473E+04  0.12699999809E+01 0.  1.
       -4    1    3    3    0  502 -0.36975795873E+03  0.10854358062E+04 -0.13647586807E+03  0.11547809805E+04  0.12699999809E+01 0. -1.
</event>
<event>
 5   0  0.5510176E-07  0.2400691E+04  0.7818609E-02  0.8439245E-01
       -1   -1    0    0    0  501  0.00000000000E+00  0.00000000000E+00  0.91874567607E+03  0.91874567608E+03  0.50400001928E-02 0. -1.
        1   -1    0    0  501    0  0.00000000000E+00  0.00000000000E+00 -0.15682575038E+04  0.15682575038E+04  0.50400001928E-02 0.  1.
    10030    2    1    2    0    0  0.00000000000E+00  0.00000000000E+00 -0.64951182772E+03  0.24870031799E+04  0.24006914009E+04 0.  0.
        3    1    3    3  502    0  0.10756255172E+04 -0.53015161383E+03 -0.26995015263E+03  0.12291883834E+04  0.10100000352E+00 0. -1.
       -3    1    3    3    0  502 -0.10756255172E+04  0.53015161383E+03 -0.37956167509E+03  0.12578147965E+04  0.10100000352E+00 0.  1.
</event>
<event>
 5   0  0.5510176E-07  0.2400221E+04  0.7818609E-02  0.8439421E-01
       -1   -1    0    0    0  501  0.00000000000E+00  0.00000000000E+00  0.58797045495E+03  0.58797045497E+03  0.50400001928E-02 0. -1.
        1   -1    0    0  501    0  0.00000000000E+00  0.00000000000E+00 -0.24495539630E+04  0.24495539630E+04  0.50400001928E-02 0.  1.
    10030    2    1    2    0    0  0.00000000000E+00  0.00000000000E+00 -0.18615835081E+04  0.30375244180E+04  0.24002211216E+04 0.  0.
        3    1    3    3  502    0  0.10669739072E+04 -0.81021160513E+01 -0.16259824559E+04  0.19448182228E+04  0.10100000352E+00 0.  1.
       -3    1    3    3    0  502 -0.10669739072E+04  0.81021160513E+01 -0.23560105222E+03  0.10927061952E+04  0.10100000352E+00 0. -1.
</event>
<event>
 5   0  0.1291468E-06  0.2395126E+04  0.7818609E-02  0.8441331E-01
        2   -1    0    0  501    0  0.00000000000E+00  0.00000000000E+00  0.25751199262E+04  0.25751199262E+04  0.25500000920E-02 0.  1.
       -2   -1    0    0    0  501  0.00000000000E+00  0.00000000000E+00 -0.55692808846E+03  0.55692808846E+03  0.25500000920E-02 0. -1.
    10030    2    1    2    0    0  0.00000000000E+00  0.00000000000E+00  0.20181918377E+04  0.31320480147E+04  0.23951255650E+04 0.  0.
        4    1    3    3  502    0 -0.11019832886E+04  0.15818206821E+03  0.43198804644E+03  0.11941541023E+04  0.12699999809E+01 0. -1.
       -4    1    3    3    0  502  0.11019832886E+04 -0.15818206821E+03  0.15862037913E+04  0.19378939123E+04  0.12699999809E+01 0.  1.
</event>
<event>
 5   0  0.5452384E-07  0.2400437E+04  0.7818609E-02  0.8439340E-01
       -1   -1    0    0    0  501  0.00000000000E+00  0.00000000000E+00  0.87728896723E+03  0.87728896724E+03  0.50400001928E-02 0.  1.
        1   -1    0    0  501    0  0.00000000000E+00  0.00000000000E+00 -0.16420180062E+04  0.16420180062E+04  0.50400001928E-02 0. -1.
    10030    2    1    2    0    0  0.00000000000E+00  0.00000000000E+00 -0.76472903895E+03  0.25193069734E+04  0.24004368609E+04 0.  0.
        5    1    3    3  502    0  0.49479770934E+02  0.70953903243E+03 -0.13969896609E+04  0.15676402932E+04  0.46999998093E+01 0. -1.
       -5    1    3    3    0  502 -0.49479770934E+02 -0.70953903243E+03  0.63226062191E+03  0.95166668024E+03  0.46999998093E+01 0.  1.
</event>
<event>
 5   0  0.5363690E-07  0.2400863E+04  0.7818609E-02  0.8439181E-01
        1   -1    0    0  501    0  0.00000000000E+00  0.00000000000E+00  0.13675898740E+04  0.13675898740E+04  0.50400001928E-02 0.  1.
       -1   -1    0    0    0  501  0.00000000000E+00  0.00000000000E+00 -0.10537046627E+04  0.10537046627E+04  0.50400001928E-02 0. -1.
    10030    2    1    2    0    0  0.00000000000E+00  0.00000000000E+00  0.31388521129E+03  0.24212945367E+04  0.24008630339E+04 0.  0.
        4    1    3    3  502    0  0.11605521748E+04 -0.30557405437E+03  0.12882414143E+03  0.12070021232E+04  0.12699999809E+01 0. -1.
       -4    1    3    3    0  502 -0.11605521748E+04  0.30557405437E+03  0.18506106986E+03  0.12142924135E+04  0.12699999809E+01 0.  1.
</event>
<event>
 5   0  0.5690124E-07  0.2400218E+04  0.7818609E-02  0.8439422E-01
       -1   -1    0    0    0  501  0.00000000000E+00  0.00000000000E+00  0.15374335216E+04  0.15374335216E+04  0.50400001928E-02 0. -1.
        1   -1    0    0  501    0  0.00000000000E+00  0.00000000000E+00 -0.93679585644E+03  0.93679585645E+03  0.50400001928E-02 0.  1.
    10030    2    1    2    0    0  0.00000000000E+00  0.00000000000E+00  0.60063766512E+03  0.24742293780E+04  0.24002177839E+04 0.  0.
        2    1    3    3  502    0 -0.98484647215E+03 -0.67861660159E+03  0.19817617117E+03  0.12123187949E+04  0.25500000920E-02 0.  1.
       -2    1    3    3    0  502  0.98484647215E+03  0.67861660159E+03  0.40246149395E+03  0.12619105831E+04  0.25500000920E-02 0. -1.
</event>
<event>
 5   0  0.1308662E-06  0.2398782E+04  0.7818609E-02  0.8439960E-01
       -2   -1    0    0    0  501  0.00000000000E+00  0.00000000000E+00  0.12435164750E+04  0.12435164750E+04  0.25500000920E-02 0.  1.
        2   -1    0    0  501    0  0.00000000000E+00  0.00000000000E+00 -0.11568309790E+04  0.11568309790E+04  0.25500000920E-02 0. -1.
    10030    2    1    2    0    0  0.00000000000E+00  0.00000000000E+00  0.86685495982E+02  0.24003474540E+04  0.23987816750E+04 0.  0.
        3    1    3    3  502    0  0.26931415630E+03  0.13279131209E+03 -0.11186105954E+04  0.11582112595E+04  0.10100000352E+00 0. -1.
       -3    1    3    3    0  502 -0.26931415630E+03 -0.13279131209E+03  0.12052960914E+04  0.12421361944E+04  0.10100000352E+00 0.  1.
</event>
<event>
 5   0  0.1291468E-06  0.2400031E+04  0.7818609E-02  0.8439492E-01
        2   -1    0    0  501    0  0.00000000000E+00  0.00000000000E+00  0.10577531797E+04  0.10577531797E+04  0.25500000920E-02 0.  1.
       -2   -1    0    0    0  501  0.00000000000E+00  0.00000000000E+00 -0.13614111892E+04  0.13614111892E+04  0.25500000920E-02 0. -1.
    10030    2    1    2    0    0  0.00000000000E+00  0.00000000000E+00 -0.30365800950E+03  0.24191643689E+04  0.24000308450E+04 0.  0.
        4    1    3    3  502    0 -0.76778690260E+03 -0.75441130062E+03 -0.68653166754E+03  0.12766990568E+04  0.12699999809E+01 0. -1.
       -4    1    3    3    0  502  0.76778690260E+03  0.75441130062E+03  0.38287365804E+03  0.11424653120E+04  0.12699999809E+01 0.  1.
</event>
<event>
 5   0  0.1275948E-06  0.2399485E+04  0.7818609E-02  0.8439696E-01
        2   -1    0    0  501    0  0.00000000000E+00  0.00000000000E+00  0.16804813869E+04  0.16804813869E+04  0.25500000920E-02 0. -1.
       -2   -1    0    0    0  501  0.00000000000E+00  0.00000000000E+00 -0.85652993434E+03  0.85652993434E+03  0.25500000920E-02 0.  1.
    10030    2    1    2    0    0  0.00000000000E+00  0.00000000000E+00  0.82395145256E+03  0.25370113213E+04  0.23994854548E+04 0.  0.
        1    1    3    3  502    0  0.12375686023E+02  0.68086795179E+03  0.14563374026E+04  0.16076855898E+04  0.50400001928E-02 0. -1.
       -1    1    3    3    0  502 -0.12375686023E+02 -0.68086795179E+03 -0.63238595002E+03  0.92932573148E+03  0.50400001928E-02 0.  1.
</event>
<event>
 5   0  0.1308662E-06  0.2401334E+04  0.7818609E-02  0.8439004E-01
       -2   -1    0    0    0  501  0.00000000000E+00  0.00000000000E+00  0.12891839601E+04  0.12891839601E+04  0.25500000920E-02 0. -1.
        2   -1    0    0  501    0  0.00000000000E+00  0.00000000000E+00 -0.11182279801E+04  0.11182279801E+04  0.25500000920E-02 0.  1.
    10030    2    1    2    0    0  0.00000000000E+00  0.00000000000E+00  0.17095597999E+03  0.24074119401E+04  0.24013342754E+04 0.  0.
        3    1    3    3  502    0 -0.62990961859E+03 -0.55362358856E+02 -0.93776702635E+03  0.11310429365E+04  0.10100000352E+00 0.  1.
       -3    1    3    3    0  502  0.62990961859E+03  0.55362358856E+02  0.11087230063E+04  0.12763690036E+04  0.10100000352E+00 0. -1.
</event>
<event>
 5   0  0.5452384E-07  0.2399983E+04  0.7818609E-02  0.8439510E-01
       -1   -1    0    0    0  501  0.00000000000E+00  0.00000000000E+00  0.94019370370E+03  0.94019370371E+03  0.50400001928E-02 0.  1.
        1   -1    0    0  501    0  0.00000000000E+00  0.00000000000E+00 -0.15315778690E+04  0.15315778690E+04  0.50400001928E-02 0. -1.
    10030    2    1    2    0    0  0.00000000000E+00  0.00000000000E+00 -0.59138416534E+03  0.24717715728E+04  0.23999832243E+04 0.  0.
        5    1    3    3  502    0  0.74456954883E+03  0.94075453987E+03 -0.27143198322E+03  0.12300814318E+04  0.46999998093E+01 0.  1.
       -5    1    3    3    0  502 -0.74456954883E+03 -0.94075453987E+03 -0.31995218212E+03  0.12416901410E+04  0.46999998093E+01 0. -1.
</event>
<event>
 5   0  0.5363690E-07  0.2401147E+04  0.7818609E-02  0.8439074E-01
       -1   -1    0    0    0  501  0.00000000000E+00  0.00000000000E+00  0.84246385370E+03  0.84246385371E+03  0.50400001928E-02 0. -1.
        1   -1    0    0  501    0  0.00000000000E+00  0.00000000000E+00 -0.17109066679E+04  0.17109066679E+04  0.50400001928E-02 0.  1.
    10030    2    1    2    0    0  0.00000000000E+00  0.00000000000E+00 -0.86844281421E+03  0.25533705216E+04  0.24011472465E+04 0.  0.
        4    1    3    3  502    0  0.66674090218E+03 -0.41296845584E+03  0.53241031183E+03  0.94791810258E+03  0.12699999809E+01 0. -1.
       -4    1    3    3    0  502 -0.66674090218E+03  0.41296845584E+03 -0.14008531260E+04  0.16054524190E+04  0.12699999809E+01 0.  1.
</event>
<event>
 5   0  0.5452384E-07  0.2397626E+04  0.7818609E-02  0.8440393E-01
       -1   -1    0    0    0  501  0.00000000000E+00  0.00000000000E+00  0.12295932880E+04  0.12295932880E+04  0.50400001928E-02 0.  1.
        1   -1    0    0  501    0  0.00000000000E+00  0.00000000000E+00 -0.11688033083E+04  0.11688033083E+04  0.50400001928E-02 0. -1.
    10030    2    1    2    0    0  0.00000000000E+00  0.00000000000E+00  0.60789979702E+02  0.23983965962E+04  0.23976260783E+04 0.  0.
        5    1    3    3  502    0 -0.32044335834E+03 -0.47968903869E+03  0.10816109559E+04  0.12258425142E+04  0.46999998093E+01 0.  1.
       -5    1    3    3    0  502  0.32044335834E+03  0.47968903869E+03 -0.10208209762E+04  0.11725540820E+04  0.46999998093E+01 0. -1.
</event>
<event>
 5   0  0.5527286E-07  0.2400087E+04  0.7818609E-02  0.8439471E-01
       -1   -1    0    0    0  501  0.00000000000E+00  0.00000000000E+00  0.15047903006E+04  0.15047903006E+04  0.50400001928E-02 0.  1.
        1   -1    0    0  501    0  0.00000000000E+00  0.00000000000E+00 -0.95701353041E+03  0.95701353043E+03  0.50400001928E-02 0. -1.
    10030    2    1    2    0    0  0.00000000000E+00  0.00000000000E+00  0.54777677019E+03  0.24618038310E+04  0.24000872302E+04 0.  0.
        1    1    3    3  502    0  0.29440091346E+02  0.98681490690E+03 -0.42588208080E+03  0.10751957618E+04  0.50400001928E-02 0. -1.
       -1    1    3    3    0  502 -0.29440091346E+02 -0.98681490690E+03  0.97365885099E+03  0.13866080692E+04  0.50400001928E-02 0.  1.
</event>
<event>
 5   0  0.1291468E-06  0.2401776E+04  0.7818609E-02  0.8438839E-01
        2   -1    0    0  501    0  0.00000000000E+00  0.00000000000E+00  0.17558624978E+04  0.17558624978E+04  0.25500000920E-02 0. -1.
       -2   -1    0    0    0  501  0.00000000000E+00  0.00000000000E+00 -0.82132382374E+03  0.82132382374E+03  0.25500000920E-02 0.  1.
    10030    2    1    2    0    0  0.00000000000E+00  0.00000000000E+00  0.93453867410E+03  0.25771863216E+04  0.24017757603E+04 0.  0.
        4    1    3    3  502    0 -0.30428976279E+03  0.54166989433E+03  0.15700074101E+04  0.16884677714E+04  0.12699999809E+01 0. -1.
       -4    1    3    3    0  502  0.30428976279E+03 -0.54166989433E+03 -0.63546873602E+03  0.88871855023E+03  0.12699999809E+01 0.  1.
</event>
<event>
 5   0  0.1275948E-06  0.2400295E+04  0.7818609E-02  0.8439393E-01
       -2   -1    0    0    0  501  0.00000000000E+00  0.00000000000E+00  0.13084592539E+04  0.13084592539E+04  0.25500000920E-02 0. -1.
        2   -1    0    0  501    0  0.00000000000E+00  0.00000000000E+00 -0.11008011786E+04  0.11008011786E+04  0.25500000920E-02 0.  1.
    10030    2    1    2    0    0  0.00000000000E+00  0.00000000000E+00  0.20765807527E+03  0.24092604325E+04  0.24002945560E+04 0.  0.
        1    1    3    3  502    0 -0.97163926790E+03 -0.25338294470E+03  0.76360290723E+03  0.12614971992E+04  0.50400001928E-02 0. -1.
       -1    1    3    3    0  502  0.97163926790E+03  0.25338294470E+03 -0.55594483196E+03  0.11477632333E+04  0.50400001928E-02 0.  1.
</event>
<event>
 5   0  0.1336057E-06  0.2401025E+04  0.7818609E-02  0.8439120E-01
       -2   -1    0    0    0  501  0.00000000000E+00  0.00000000000E+00  0.59608303694E+03  0.59608303694E+03  0.25500000920E-02 0. -1.
        2   -1    0    0  501    0  0.00000000000E+00  0.00000000000E+00 -0.24178345307E+04  0.24178345307E+04  0.25500000920E-02 0.  1.
    10030    2    1    2    0    0  0.00000000000E+00  0.00000000000E+00 -0.18217514938E+04  0.30139175677E+04  0.24010249061E+04 0.  0.
        2    1    3    3  502    0  0.58401507484E+02  0.58739364967E+03 -0.22230837623E+04  0.23001181382E+04  0.25500000920E-02 0.  1.
       -2    1    3    3    0  502 -0.58401507484E+02 -0.58739364967E+03  0.40133226847E+03  0.71379942944E+03  0.25500000920E-02 0. -1.
</event>
<event>
 5   0  0.5510176E-07  0.2398952E+04  0.7818609E-02  0.8439896E-01
        1   -1    0    0  501    0  0.00000000000E+00  0.00000000000E+00  0.22983921062E+04  0.22983921062E+04  0.50400001928E-02 0. -1.
       -1   -1    0    0    0  501  0.00000000000E+00  0.00000000000E+00 -0.62597778106E+03  0.62597778109E+03  0.50400001928E-02 0.  1.
    10030    2    1    2    0    0  0.00000000000E+00  0.00000000000E+00  0.16724143252E+04  0.29243698873E+04  0.23989517633E+04 0.  0.
        3    1    3    3  502    0  0.39467735875E+03 -0.11324927044E+04  0.81085748496E+03  0.14476877475E+04  0.10100000352E+00 0. -1.
       -3    1    3    3    0  502 -0.39467735875E+03  0.11324927044E+04  0.86155684021E+03  0.14766821399E+04  0.10100000352E+00 0.  1.
</event>
<event>
 5   0  0.1308662E-06  0.2401805E+04  0.7818609E-02  0.8438828E-01
        2   -1    0    0  501    0  0.00000000000E+00  0.00000000000E+00  0.18624054528E+04  0.18624054528E+04  0.25500000920E-02 0. -1.
       -2   -1    0    0    0  501  0.00000000000E+00  0.00000000000E+00 -0.77435683252E+03  0.77435683253E+03  0.25500000920E-02 0.  1.
    10030    2    1    2    0    0  0.00000000000E+00  0.00000000000E+00  0.10880486203E+04  0.26367622854E+04  0.24018046443E+04 0.  0.
        3    1    3    3  502    0 -0.11505377803E+03 -0.11345071353E+03  0.18504172052E+04  0.18574585540E+04  0.10100000352E+00 0. -1.
       -3    1    3    3    0  502  0.11505377803E+03  0.11345071353E+03 -0.76236858492E+03  0.77930373136E+03  0.10100000352E+00 0.  1.
</event>
<event>
 5   0  0.1307477E-06  0.2398916E+04  0.7818609E-02  0.8439909E-01
       -2   -1    0    0    0  501  0.00000000000E+00  0.00000000000E+00  0.11605633883E+04  0.11605633883E+04  0.25500000920E-02 0.  1.
        2   -1    0    0  501    0  0.00000000000E+00  0.00000000000E+00 -0.12396565340E+04  0.12396565340E+04  0.25500000920E-02 0. -1.
    10030    2    1    2    0    0  0.00000000000E+00  0.00000000000E+00 -0.79093145701E+02  0.24002199223E+04  0.23989164116E+04 0.  0.
        5    1    3    3  502    0 -0.75489014910E+03 -0.52429750731E+03  0.73154130387E+03  0.11747007205E+04  0.46999998093E+01 0.  1.
       -5    1    3    3    0  502  0.75489014910E+03  0.52429750731E+03 -0.81063444957E+03  0.12255192019E+04  0.46999998093E+01 0. -1.
</event>
<event>
 5   0  0.1275948E-06  0.2399546E+04  0.7818609E-02  0.8439673E-01
       -2   -1    0    0    0  501  0.00000000000E+00  0.00000000000E+00  0.13115640817E+04  0.13115640817E+04  0.25500000920E-02 0.  1.
        2   -1    0    0  501    0  0.00000000000E+00  0.00000000000E+00 -0.10975107147E+04  0.10975107147E+04  0.25500000920E-02 0. -1.
    10030    2    1    2    0    0  0.00000000000E+00  0.00000000000E+00  0.21405336696E+03  0.24090747964E+04  0.23995463177E+04 0.  0.
        1    1    3    3  502    0  0.32218804437E+02 -0.71435461570E+03  0.10742395331E+04  0.12904770989E+04  0.50400001928E-02 0.  1.
       -1    1    3    3    0  502 -0.32218804437E+02  0.71435461570E+03 -0.86018616616E+03  0.11185976975E+04  0.50400001928E-02 0. -1.
</event>
<event>
 5   0  0.5510176E-07  0.2397730E+04  0.7818609E-02  0.8440354E-01
        1   -1    0    0  501    0  0.00000000000E+00  0.00000000000E+00  0.67325129079E+03  0.67325129081E+03  0.50400001928E-02 0. -1.
       -1   -1    0    0    0  501  0.00000000000E+00  0.00000000000E+00 -0.21348302111E+04  0.21348302111E+04  0.50400001928E-02 0.  1.
    10030    2    1    2    0    0  0.00000000000E+00  0.00000000000E+00 -0.14615789203E+04  0.28080815019E+04  0.23977299225E+04 0.  0.
        3    1    3    3  502    0  0.64198405989E+03 -0.10012816727E+04 -0.90672856112E+03  0.14956153299E+04  0.10100000352E+00 0.  1.
       -3    1    3    3    0  502 -0.64198405989E+03  0.10012816727E+04 -0.55485035918E+03  0.13124661720E+04  0.10100000352E+00 0. -1.
</event>
<event>
 5   0  0.5363690E-07  0.2400003E+04  0.7818609E-02  0.8439502E-01
       -1   -1    0    0    0  501  0.00000000000E+00  0.00000000000E+00  0.10719822665E+04  0.10719822665E+04  0.50400001928E-02 0. -1.
        1   -1    0    0  501    0  0.00000000000E+00  0.00000000000E+00 -0.13433093769E+04  0.13433093769E+04  0.50400001928E-02 0.  1.
    10030    2    1    2    0    0  0.00000000000E+00  0.00000000000E+00 -0.27132711041E+03  0.24152916434E+04  0.24000031920E+04 0.  0.
        4    1    3    3  502    0  0.82169845393E+03  0.58108111147E+01  0.74442434393E+03  0.11087792077E+04  0.12699999809E+01 0. -1.
       -4    1    3    3    0  502 -0.82169845393E+03 -0.58108111147E+01 -0.10157514543E+04  0.13065124357E+04  0.12699999809E+01 0.  1.
</event>
<event>
 5   0  0.5510176E-07  0.2399674E+04  0.7818609E-02  0.8439626E-01
       -1   -1    0    0    0  501  0.00000000000E+00  0.00000000000E+00  0.11538504896E+04  0.11538504896E+04  0.50400001928E-02 0. -1.
        1   -1    0    0  501    0  0.00000000000E+00  0.00000000000E+00 -0.12476558850E+04  0.12476558850E+04  0.50400001928E-02 0.  1.
    10030    2    1    2    0    0  0.00000000000E+00  0.00000000000E+00 -0.93805395437E+02  0.24015063746E+04  0.23996736059E+04 0.  0.
        3    1    3    3  502    0 -0.11448214867E+04 -0.32574250607E+03  0.10448718203E+03  0.11948397374E+04  0.10100000352E+00 0.  1.
       -3    1    3    3    0  502  0.11448214867E+04  0.32574250607E+03 -0.19829257746E+03  0.12066666372E+04  0.10100000352E+00 0. -1.
</event>
<event>
 5   0  0.1291468E-06  0.2400116E+04  0.7818609E-02  0.8439460E-01
        2   -1    0    0  501    0  0.00000000000E+00  0.00000000000E+00  0.12670814659E+04  0.12670814659E+04  0.25500000920E-02 0.  1.
       -2   -1    0    0    0  501  0.00000000000E+00  0.00000000000E+00 -0.11365800371E+04  0.11365800371E+04  0.25500000920E-02 0. -1.
    10030    2    1    2    0    0  0.00000000000E+00  0.00000000000E+00  0.13050142888E+03  0.24036615030E+04  0.24001162468E+04 0.  0.
        4    1    3    3  502    0  0.18692343831E+03  0.10495147344E+04  0.61716941292E+03  0.12317959436E+04  0.12699999809E+01 0.  1.
       -4    1    3    3    0  502 -0.18692343831E+03 -0.10495147344E+04 -0.48666798404E+03  0.11718655594E+04  0.12699999809E+01 0. -1.
</event>
<event>
 5   0  0.1307477E-06  0.2400497E+04  0.7818609E-02  0.8439317E-01
       -2   -1    0    0    0  501  0.00000000000E+00  0.00000000000E+00  0.14998177339E+04  0.14998177339E+04  0.25500000920E-02 0.  1.
        2   -1    0    0  501    0  0.00000000000E+00  0.00000000000E+00 -0.96051443694E+03  0.96051443694E+03  0.25500000920E-02 0. -1.
    10030    2    1    2    0    0  0.00000000000E+00  0.00000000000E+00  0.53930329700E+03  0.24603321709E+04  0.24004971037E+04 0.  0.
        5    1    3    3  502    0 -0.50800355213E+03 -0.18888143533E+03  0.13672468822E+04  0.14707582849E+04  0.46999998093E+01 0.  1.
       -5    1    3    3    0  502  0.50800355213E+03  0.18888143533E+03 -0.82794358521E+03  0.98957388601E+03  0.46999998093E+01 0. -1.
</event>
<event>
 5   0  0.1336057E-06  0.2400401E+04  0.7818609E-02  0.8439353E-01
        2   -1    0    0  501    0  0.00000000000E+00  0.00000000000E+00  0.73596492112E+03  0.73596492113E+03  0.25500000920E-02 0.  1.
       -2   -1    0    0    0  501  0.00000000000E+00  0.00000000000E+00 -0.19572695856E+04  0.19572695856E+04  0.25500000920E-02 0. -1.
    10030    2    1    2    0    0  0.00000000000E+00  0.00000000000E+00 -0.12213046645E+04  0.26932345067E+04  0.24004014299E+04 0.  0.
        2    1    3    3  502    0  0.10275374394E+04 -0.14473634221E+02  0.85018922192E+02  0.10311502764E+04  0.25500000920E-02 0. -1.
       -2    1    3    3    0  502 -0.10275374394E+04  0.14473634221E+02 -0.13063235867E+04  0.16620842303E+04  0.25500000920E-02 0.  1.
</event>
<event>
 5   0  0.1308662E-06  0.2405566E+04  0.7818609E-02  0.8437423E-01
       -2   -1    0    0    0  501  0.00000000000E+00  0.00000000000E+00  0.79722388869E+03  0.79722388870E+03  0.25500000920E-02 0. -1.
        2   -1    0    0  501    0  0.00000000000E+00  0.00000000000E+00 -0.18146561036E+04  0.18146561036E+04  0.25500000920E-02 0.  1.
    10030    2    1    2    0    0  0.00000000000E+00  0.00000000000E+00 -0.10174322149E+04  0.26118799923E+04  0.24055662083E+04 0.  0.
        3    1    3    3  502    0  0.62644300757E+03 -0.67826804858E+03  0.32824531925E+03  0.97990988731E+03  0.10100000352E+00 0. -1.
       -3    1    3    3    0  502 -0.62644300757E+03  0.67826804858E+03 -0.13456775342E+04  0.16319701050E+04  0.10100000352E+00 0.  1.
</event>
<event>
 5   0  0.1336057E-06  0.2400880E+04  0.7818609E-02  0.8439174E-01
        2   -1    0    0  501    0  0.00000000000E+00  0.00000000000E+00  0.16303856333E+04  0.16303856333E+04  0.25500000920E-02 0.  1.
       -2   -1    0    0    0  501  0.00000000000E+00  0.00000000000E+00 -0.88387477873E+03  0.88387477873E+03  0.25500000920E-02 0. -1.
    10030    2    1    2    0    0  0.00000000000E+00  0.00000000000E+00  0.74651085458E+03  0.25142604120E+04  0.24008804559E+04 0.  0.
        2    1    3    3  502    0  0.83862719493E+03  0.83456212149E+03  0.16051873509E+03  0.11939664028E+04  0.25500000920E-02 0.  1.
       -2    1    3    3    0  502 -0.83862719493E+03 -0.83456212149E+03  0.58599211949E+03  0.13202940092E+04  0.25500000920E-02 0. -1.
</event>
<event>
 5   0  0.1308662E-06  0.2399490E+04  0.7818609E-02  0.8439695E-01
        2   -1    0    0  501    0  0.00000000000E+00  0.00000000000E+00  0.16983767864E+04  0.16983767864E+04  0.25500000920E-02 0. -1.
       -2   -1    0    0    0  501  0.00000000000E+00  0.00000000000E+00 -0.84750779601E+03  0.84750779602E+03  0.25500000920E-02 0.  1.
    10030    2    1    2    0    0  0.00000000000E+00  0.00000000000E+00  0.85086899036E+03  0.25458845824E+04  0.23994895849E+04 0.  0.
        3    1    3    3  502    0 -0.91541398747E+03  0.11949248024E+03 -0.38755628860E+03  0.10012297980E+04  0.10100000352E+00 0.  1.
       -3    1    3    3    0  502  0.91541398747E+03 -0.11949248024E+03  0.12384252790E+04  0.15446547844E+04  0.10100000352E+00 0. -1.
</event>
<event>
 5   0  0.1308662E-06  0.2399094E+04  0.7818609E-02  0.8439843E-01
       -2   -1    0    0    0  501  0.00000000000E+00  0.00000000000E+00  0.12778737925E+04  0.12778737925E+04  0.25500000920E-02 0.  1.
        2   -1    0    0  501    0  0.00000000000E+00  0.00000000000E+00 -0.11260214326E+04  0.11260214326E+04  0.25500000920E-02 0. -1.
    10030    2    1    2    0    0  0.00000000000E+00  0.00000000000E+00  0.15185235992E+03  0.24038952251E+04  0.23990942279E+04 0.  0.
        3    1    3    3  502    0  0.41812618007E+03 -0.10996589829E+04  0.31056115361E+03  0.12167693378E+04  0.10100000352E+00 0. -1.
       -3    1    3    3    0  502 -0.41812618007E+03  0.10996589829E+04 -0.15870879368E+03  0.11871258874E+04  0.10100000352E+00 0.  1.
</event>
<event>
 5   0  0.1291468E-06  0.2399957E+04  0.7818609E-02  0.8439520E-01
       -2   -1    0    0    0  501  0.00000000000E+00  0.00000000000E+00  0.13898435866E+04  0.13898435866E+04  0.25500000920E-02 0.  1.
        2   -1    0    0  501    0  0.00000000000E+00  0.00000000000E+00 -0.10360505304E+04  0.10360505304E+04  0.25500000920E-02 0. -1.
    10030    2    1    2    0    0  0.00000000000E+00  0.00000000000E+00  0.35379305622E+03  0.24258941170E+04  0.23999568205E+04 0.  0.
        4    1    3    3  502    0  0.39062157442E+02 -0.68917703085E+03 -0.81526937403E+03  0.10682493141E+04  0.12699999809E+01 0. -1.
       -4    1    3    3    0  502 -0.39062157442E+02  0.68917703085E+03  0.11690624303E+04  0.13576448029E+04  0.12699999809E+01 0.  1.
</event>
<event>
 5   0  0.5452384E-07  0.2399729E+04  0.7818609E-02  0.8439605E-01
       -1   -1    0    0    0  501  0.00000000000E+00  0.00000000000E+00  0.95053320441E+03  0.95053320442E+03  0.50400001928E-02 0.  1.
        1   -1    0    0  501    0  0.00000000000E+00  0.00000000000E+00 -0.15145976390E+04  0.15145976390E+04  0.50400001928E-02 0. -1.
    10030    2    1    2    0    0  0.00000000000E+00  0.00000000000E+00 -0.56406443459E+03  0.24651308434E+04  0.23997294408E+04 0.  0.
        5    1    3    3  502    0 -0.10831223953E+04  0.35984192439E+03 -0.66227279627E+03  0.13195710213E+04  0.46999998093E+01 0.  1.
       -5    1    3    3    0  502  0.10831223953E+04 -0.35984192439E+03  0.98208361680E+02  0.11455598221E+04  0.46999998093E+01 0. -1.
</event>
<event>
 5   0  0.5690124E-07  0.2400290E+04  0.7818609E-02  0.8439395E-01
        1   -1    0    0  501    0  0.00000000000E+00  0.00000000000E+00  0.11536664720E+04  0.11536664720E+04  0.50400001928E-02 0. -1.
       -1   -1    0    0    0  501  0.00000000000E+00  0.00000000000E+00 -0.12484961840E+04  0.12484961840E+04  0.50400001928E-02 0.  1.
    10030    2    1    2    0    0  0.00000000000E+00  0.00000000000E+00 -0.94829712074E+02  0.24021626560E+04  0.24002901390E+04 0.  0.
        2    1    3    3  502    0 -0.38087097166E+02  0.19076127939E+03  0.11377841992E+04  0.11542934534E+04  0.25500000920E-02 0. -1.
       -2    1    3    3    0  502  0.38087097166E+02 -0.19076127939E+03 -0.12326139112E+04  0.12478692026E+04  0.25500000920E-02 0.  1.
</event>
<event>
 5   0  0.5690124E-07  0.2397415E+04  0.7818609E-02  0.8440472E-01
       -1   -1    0    0    0  501  0.00000000000E+00  0.00000000000E+00  0.10477422754E+04  0.10477422754E+04  0.50400001928E-02 0. -1.
        1   -1    0    0  501    0  0.00000000000E+00  0.00000000000E+00 -0.13714245128E+04  0.13714245128E+04  0.50400001928E-02 0.  1.
    10030    2    1    2    0    0  0.00000000000E+00  0.00000000000E+00 -0.32368223741E+03  0.24191667882E+04  0.23974148073E+04 0.  0.
        2    1    3    3  502    0 -0.27952135184E+03 -0.97308338810E+03  0.48575741586E+03  0.11229353202E+04  0.25500000920E-02 0. -1.
       -2    1    3    3    0  502  0.27952135184E+03  0.97308338810E+03 -0.80943965327E+03  0.12962314680E+04  0.25500000920E-02 0.  1.
</event>
<event>
 5   0  0.5510176E-07  0.2400050E+04  0.7818609E-02  0.8439485E-01
        1   -1    0    0  501    0  0.00000000000E+00  0.00000000000E+00  0.13194328568E+04  0.13194328568E+04  0.50400001928E-02 0. -1.
       -1   -1    0    0    0  501  0.00000000000E+00  0.00000000000E+00 -0.10914232759E+04  0.10914232759E+04  0.50400001928E-02 0.  1.
    10030    2    1    2    0    0  0.00000000000E+00  0.00000000000E+00  0.22800958088E+03  0.24108561327E+04  0.24000497753E+04 0.  0.
        3    1    3    3  502    0 -0.36249654432E+03  0.45932201066E+03  0.11664240242E+04  0.13049618648E+04  0.10100000352E+00 0. -1.
       -3    1    3    3    0  502  0.36249654432E+03 -0.45932201066E+03 -0.93841444334E+03  0.11058942679E+04  0.10100000352E+00 0.  1.
</event>
<event>
 5   0  0.1275948E-06  0.2398764E+04  0.7818609E-02  0.8439967E-01
        2   -1    0    0  501    0  0.00000000000E+00  0.00000000000E+00  0.15763283686E+04  0.15763283686E+04  0.25500000920E-02 0.  1.
       -2   -1    0    0    0  501  0.00000000000E+00  0.00000000000E+00 -0.91257438880E+03  0.91257438880E+03  0.25500000920E-02 0. -1.
    10030    2    1    2    0    0  0.00000000000E+00  0.00000000000E+00  0.66375397985E+03  0.24889027574E+04  0.23987637629E+04 0.  0.
        1    1    3    3  502    0 -0.11854276601E+04  0.15311070683E+03  0.22897740394E+03  0.12170095634E+04  0.50400001928E-02 0. -1.
       -1    1    3    3    0  502  0.11854276601E+04 -0.15311070683E+03  0.43477657590E+03  0.12718931940E+04  0.50400001928E-02 0.  1.
</event>
<event>
 5   0  0.5510176E-07  0.2400210E+04  0.7818609E-02  0.8439425E-01
        1   -1    0    0  501    0  0.00000000000E+00  0.00000000000E+00  0.11338335342E+04  0.11338335343E+04  0.50400001928E-02 0. -1.
       -1   -1    0    0    0  501  0.00000000000E+00  0.00000000000E+00 -0.12702504807E+04  0.12702504807E+04  0.50400001928E-02 0.  1.
    10030    2    1    2    0    0  0.00000000000E+00  0.00000000000E+00 -0.13641694641E+03  0.24040840149E+04  0.24002104840E+04 0.  0.
        3    1    3    3  502    0  0.54373201588E+03  0.52826398551E+03 -0.10000567321E+04  0.12549186512E+04  0.10100000352E+00 0.  1.
       -3    1    3    3    0  502 -0.54373201588E+03 -0.52826398551E+03  0.86363978572E+03  0.11491653637E+04  0.10100000352E+00 0. -1.
</event>
<event>
 5   0  0.1308662E-06  0.2400461E+04  0.7818609E-02  0.8439331E-01
        2   -1    0    0  501    0  0.00000000000E+00  0.00000000000E+00  0.12722338771E+04  0.12722338771E+04  0.25500000920E-02 0.  1.
       -2   -1    0    0    0  501  0.00000000000E+00  0.00000000000E+00 -0.11323018391E+04  0.11323018391E+04  0.25500000920E-02 0. -1.
    10030    2    1    2    0    0  0.00000000000E+00  0.00000000000E+00  0.13993203799E+03  0.24045357162E+04  0.24004605882E+04 0.  0.
        3    1    3    3  502    0 -0.99022706507E+03 -0.31426123605E+03 -0.53208925171E+03  0.11672312311E+04  0.10100000352E+00 0.  1.
       -3    1    3    3    0  502  0.99022706507E+03  0.31426123605E+03  0.67202128970E+03  0.12373044851E+04  0.10100000352E+00 0. -1.
</event>
<event>
 5   0  0.5527286E-07  0.2399678E+04  0.7818609E-02  0.8439624E-01
       -1   -1    0    0    0  501  0.00000000000E+00  0.00000000000E+00  0.15381569541E+04  0.15381569542E+04  0.50400001928E-02 0. -1.
        1   -1    0    0  501    0  0.00000000000E+00  0.00000000000E+00 -0.93593451045E+03  0.93593451047E+03  0.50400001928E-02 0.  1.
    10030    2    1    2    0    0  0.00000000000E+00  0.00000000000E+00  0.60222244369E+03  0.24740914646E+04  0.23996784584E+04 0.  0.
        1    1    3    3  502    0 -0.28518316696E+03  0.88789190656E+02 -0.89699164787E+03  0.94541365310E+03  0.50400001928E-02 0.  1.
       -1    1    3    3    0  502  0.28518316696E+03 -0.88789190656E+02  0.14992140916E+04  0.15286778115E+04  0.50400001928E-02 0. -1.
</event>
<event>
 5   0  0.1291468E-06  0.2400810E+04  0.7818609E-02  0.8439200E-01
       -2   -1    0    0    0  501  0.00000000000E+00  0.00000000000E+00  0.10680296382E+04  0.10680296382E+04  0.25500000920E-02 0. -1.
        2   -1    0    0  501    0  0.00000000000E+00  0.00000000000E+00 -0.13491875274E+04  0.13491875274E+04  0.25500000920E-02 0.  1.
    10030    2    1    2    0    0  0.00000000000E+00  0.00000000000E+00 -0.28115788915E+03  0.24172171656E+04  0.24008100856E+04 0.  0.
        4    1    3    3  502    0 -0.73053921970E+03  0.88879634663E+03 -0.48544590021E+03  0.12487216793E+04  0.12699999809E+01 0.  1.
       -4    1    3    3    0  502  0.73053921970E+03 -0.88879634663E+03  0.20428801107E+03  0.11684954864E+04  0.12699999809E+01 0. -1.
</event>
<event>
 5   0  0.1291468E-06  0.2399946E+04  0.7818609E-02  0.8439524E-01
        2   -1    0    0  501    0  0.00000000000E+00  0.00000000000E+00  0.12698209879E+04  0.12698209879E+04  0.25500000920E-02 0.  1.
       -2   -1    0    0    0  501  0.00000000000E+00  0.00000000000E+00 -0.11339675084E+04  0.11339675084E+04  0.25500000920E-02 0. -1.
    10030    2    1    2    0    0  0.00000000000E+00  0.00000000000E+00  0.13585347956E+03  0.24037884963E+04  0.23999464508E+04 0.  0.
        4    1    3    3  502    0  0.30234093055E+03 -0.81224611606E+02 -0.10923433325E+04  0.11363199571E+04  0.12699999809E+01 0. -1.
       -4    1    3    3    0  502 -0.30234093055E+03  0.81224611606E+02  0.12281968121E+04  0.12674685392E+04  0.12699999809E+01 0.  1.
</event>
<event>
 5   0  0.5452384E-07  0.2396020E+04  0.7818609E-02  0.8440995E-01
        1   -1    0    0  501    0  0.00000000000E+00  0.00000000000E+00  0.17086310132E+04  0.17086310133E+04  0.50400001928E-02 0.  1.
       -1   -1    0    0    0  501  0.00000000000E+00  0.00000000000E+00 -0.83998672931E+03  0.83998672932E+03  0.50400001928E-02 0. -1.
    10030    2    1    2    0    0  0.00000000000E+00  0.00000000000E+00  0.86864428394E+03  0.25486177426E+04  0.23960195128E+04 0.  0.
        5    1    3    3  502    0 -0.89918139723E+03 -0.46484138342E+03  0.11159135951E+04  0.15066153918E+04  0.46999998093E+01 0.  1.
       -5    1    3    3    0  502  0.89918139723E+03  0.46484138342E+03 -0.24726931119E+03  0.10420023508E+04  0.46999998093E+01 0. -1.
</event>
<event>
 5   0  0.5510176E-07  0.2398989E+04  0.7818609E-02  0.8439882E-01
        1   -1    0    0  501    0  0.00000000000E+00  0.00000000000E+00  0.17365451200E+04  0.17365451201E+04  0.50400001928E-02 0. -1.
       -1   -1    0    0    0  501  0.00000000000E+00  0.00000000000E+00 -0.82853448857E+03  0.82853448858E+03  0.50400001928E-02 0.  1.
    10030    2    1    2    0    0  0.00000000000E+00  0.00000000000E+00  0.90801063148E+03  0.25650796086E+04  0.23989893897E+04 0.  0.
        3    1    3    3  502    0 -0.16582093975E+03 -0.58666444122E+03  0.15585372799E+04  0.16735322565E+04  0.10100000352E+00 0. -1.
       -3    1    3    3    0  502  0.16582093975E+03  0.58666444122E+03 -0.65052664838E+03  0.89154735214E+03  0.10100000352E+00 0.  1.
</event>
<event>
 5   0  0.5690124E-07  0.2400122E+04  0.7818609E-02  0.8439458E-01
       -1   -1    0    0    0  501  0.00000000000E+00  0.00000000000E+00  0.13046497869E+04  0.13046497869E+04  0.50400001928E-02 0. -1.
        1   -1    0    0  501    0  0.00000000000E+00  0.00000000000E+00 -0.11038567606E+04  0.11038567606E+04  0.50400001928E-02 0.  1.
    10030    2    1    2    0    0  0.00000000000E+00  0.00000000000E+00  0.20079302628E+03  0.24085065475E+04  0.24001220698E+04 0.  0.
        2    1    3    3  502    0 -0.35147917522E+03 -0.11021245636E+04 -0.21998408020E+03  0.11775436977E+04  0.25500000920E-02 0.  1.
       -2    1    3    3    0  502  0.35147917522E+03  0.11021245636E+04  0.42077710649E+03  0.12309628498E+04  0.25500000920E-02 0. -1.
</event>
<event>
 5   0  0.1291468E-06  0.2399252E+04  0.7818609E-02  0.8439784E-01
        2   -1    0    0  501    0  0.00000000000E+00  0.00000000000E+00  0.11729651144E+04  0.11729651144E+04  0.25500000920E-02 0. -1.
       -2   -1    0    0    0  501  0.00000000000E+00  0.00000000000E+00 -0.12268924545E+04  0.12268924545E+04  0.25500000920E-02 0.  1.
    10030    2    1    2    0    0  0.00000000000E+00  0.00000000000E+00 -0.53927340119E+02  0.23998575689E+04  0.23992515902E+04 0.  0.
        4    1    3    3  502    0 -0.11938716517E+04 -0.59237380919E+02 -0.12829003284E+03  0.12022056951E+04  0.12699999809E+01 0. -1.
       -4    1    3    3    0  502  0.11938716517E+04  0.59237380919E+02  0.74362692721E+02  0.11976518738E+04  0.12699999809E+01 0.  1.
</event>
<event>
 5   0  0.5510176E-07  0.2399907E+04  0.7818609E-02  0.8439538E-01
       -1   -1    0    0    0  501  0.00000000000E+00  0.00000000000E+00  0.78011717911E+03  0.78011717913E+03  0.50400001928E-02 0.  1.
        1   -1    0    0  501    0  0.00000000000E+00  0.00000000000E+00 -0.18457341833E+04  0.18457341833E+04  0.50400001928E-02 0. -1.
    10030    2    1    2    0    0  0.00000000000E+00  0.00000000000E+00 -0.10656170042E+04  0.26258513624E+04  0.23999074520E+04 0.  0.
        3    1    3    3  502    0 -0.33568922274E+03  0.98228573796E+03 -0.11914053479E+04  0.15801959494E+04  0.10100000352E+00 0. -1.
       -3    1    3    3    0  502  0.33568922274E+03 -0.98228573796E+03  0.12578834368E+03  0.10456554131E+04  0.10100000352E+00 0.  1.
</event>
<event>
 5   0  0.1336057E-06  0.2400454E+04  0.7818609E-02  0.8439334E-01
        2   -1    0    0  501    0  0.00000000000E+00  0.00000000000E+00  0.12612549722E+04  0.12612549722E+04  0.25500000920E-02 0. -1.
       -2   -1    0    0    0  501  0.00000000000E+00  0.00000000000E+00 -0.11421516812E+04  0.11421516812E+04  0.25500000920E-02 0.  1.
    10030    2    1    2    0    0  0.00000000000E+00  0.00000000000E+00  0.11910329102E+03  0.24034066534E+04  0.24004536962E+04 0.  0.
        2    1    3    3  502    0  0.81638777875E+03 -0.47607177349E+03  0.80033419795E+03  0.12384135687E+04  0.25500000920E-02 0. -1.
       -2    1    3    3    0  502 -0.81638777875E+03  0.47607177349E+03 -0.68123090693E+03  0.11649930847E+04  0.25500000920E-02 0.  1.
</event>
<event>
 5   0  0.1291468E-06  0.2397258E+04  0.7818609E-02  0.8440531E-01
        2   -1    0    0  501    0  0.00000000000E+00  0.00000000000E+00  0.83372927659E+03  0.83372927659E+03  0.25500000920E-02 0. -1.
       -2   -1    0    0    0  501  0.00000000000E+00  0.00000000000E+00 -0.17232349938E+04  0.17232349938E+04  0.25500000920E-02 0.  1.
    10030    2    1    2    0    0  0.00000000000E+00  0.00000000000E+00 -0.88950571719E+03  0.25569642704E+04  0.23972579876E+04 0.  0.
        4    1    3    3  502    0 -0.23380550748E+02  0.64847276736E+03  0.63017946984E+03  0.90453930665E+03  0.12699999809E+01 0. -1.
       -4    1    3    3    0  502  0.23380550748E+02 -0.64847276736E+03 -0.15196851870E+04  0.16524249637E+04  0.12699999809E+01 0.  1.
</event>
<event>
 5   0  0.5452384E-07  0.2400773E+04  0.7818609E-02  0.8439214E-01
        1   -1    0    0  501    0  0.00000000000E+00  0.00000000000E+00  0.20545572573E+04  0.20545572573E+04  0.50400001928E-02 0. -1.
       -1   -1    0    0    0  501  0.00000000000E+00  0.00000000000E+00 -0.70133259640E+03  0.70133259641E+03  0.50400001928E-02 0.  1.
    10030    2    1    2    0    0  0.00000000000E+00  0.00000000000E+00  0.13532246609E+04  0.27558898537E+04  0.24007731885E+04 0.  0.
        5    1    3    3  502    0 -0.86003874507E+03  0.46610621592E+01 -0.28463932762E+03  0.90594150216E+03  0.46999998093E+01 0.  1.
       -5    1    3    3    0  502  0.86003874507E+03 -0.46610621592E+01  0.16378639885E+04  0.18499483515E+04  0.46999998093E+01 0. -1.
</event>
<event>
 5   0  0.5690124E-07  0.2400297E+04  0.7818609E-02  0.8439392E-01
       -1   -1    0    0    0  501  0.00000000000E+00  0.00000000000E+00  0.15533272844E+04  0.15533272844E+04  0.50400001928E-02 0.  1.
        1   -1    0    0  501    0  0.00000000000E+00  0.00000000000E+00 -0.92727194469E+03  0.92727194470E+03  0.50400001928E-02 0. -1.
    10030    2    1    2    0    0  0.00000000000E+00  0.00000000000E+00  0.62605533968E+03  0.24805992291E+04  0.24002973247E+04 0.  0.
        2    1    3    3  502    0 -0.41042244519E-01  0.89682072563E+03 -0.51119359202E+03  0.10322820855E+04  0.25500000920E-02 0. -1.
       -2    1    3    3    0  502  0.41042244519E-01 -0.89682072563E+03  0.11372489317E+04  0.14483171435E+04  0.25500000920E-02 0.  1.
</event>
<event>
 5   0  0.1336057E-06  0.2400804E+04  0.7818609E-02  0.8439203E-01
        2   -1    0    0  501    0  0.00000000000E+00  0.00000000000E+00  0.21909049361E+04  0.21909049361E+04  0.25500000920E-02 0.  1.
       -2   -1    0    0    0  501  0.00000000000E+00  0.00000000000E+00 -0.65770311244E+03  0.65770311244E+03  0.25500000920E-02 0. -1.
    10030    2    1    2    0    0  0.00000000000E+00  0.00000000000E+00  0.15332018237E+04  0.28486080486E+04  0.24008040283E+04 0.  0.
        2    1    3    3  502    0  0.33592166932E+03 -0.88217149187E+03 -0.11326381097E+03  0.95073582023E+03  0.25500000920E-02 0. -1.
       -2    1    3    3    0  502 -0.33592166932E+03  0.88217149187E+03  0.16464656347E+04  0.18978722283E+04  0.25500000920E-02 0.  1.
</event>
<event>
 5   0  0.1308662E-06  0.2408536E+04  0.7818609E-02  0.8436315E-01
       -2   -1    0    0    0  501  0.00000000000E+00  0.00000000000E+00  0.13775151872E+04  0.13775151872E+04  0.25500000920E-02 0. -1.
        2   -1    0    0  501    0  0.00000000000E+00  0.00000000000E+00 -0.10528100163E+04  0.10528100163E+04  0.25500000920E-02 0.  1.
    10030    2    1    2    0    0  0.00000000000E+00  0.00000000000E+00  0.32470517090E+03  0.24303252035E+04  0.24085363080E+04 0.  0.
        3    1    3    3  502    0 -0.60645215374E+03 -0.85613420855E+03 -0.43419089167E+03  0.11354610246E+04  0.10100000352E+00 0.  1.
       -3    1    3    3    0  502  0.60645215374E+03  0.85613420855E+03  0.75889606256E+03  0.12948641789E+04  0.10100000352E+00 0. -1.
</event>
<event>
 5   0  0.1307477E-06  0.2399921E+04  0.7818609E-02  0.8439533E-01
        2   -1    0    0  501    0  0.00000000000E+00  0.00000000000E+00  0.25414802624E+04  0.25414802624E+04  0.25500000920E-02 0.  1.
       -2   -1    0    0    0  501  0.00000000000E+00  0.00000000000E+00 -0.56656173160E+03  0.56656173160E+03  0.25500000920E-02 0. -1.
    10030    2    1    2    0    0  0.00000000000E+00  0.00000000000E+00  0.19749185308E+04  0.31080419940E+04  0.23999212140E+04 0.  0.
        5    1    3    3  502    0  0.39468394030E+02  0.20745338704E+03 -0.54229591627E+03  0.58198076662E+03  0.46999998093E+01 0. -1.
       -5    1    3    3    0  502 -0.39468394030E+02 -0.20745338704E+03  0.25172144471E+04  0.25260612274E+04  0.46999998093E+01 0.  1.
</event>
<event>
 5   0  0.5690124E-07  0.2396788E+04  0.7818609E-02  0.8440707E-01
       -1   -1    0    0    0  501  0.00000000000E+00  0.00000000000E+00  0.10950940090E+04  0.10950940090E+04  0.50400001928E-02 0.  1.
        1   -1    0    0  501    0  0.00000000000E+00  0.00000000000E+00 -0.13114384596E+04  0.13114384596E+04  0.50400001928E-02 0. -1.
    10030    2    1    2    0    0  0.00000000000E+00  0.00000000000E+00 -0.21634445061E+03  0.24065324686E+04  0.23967881845E+04 0.  0.
        2    1    3    3  502    0  0.10474499240E+04 -0.48170096261E+03 -0.43655115584E+03  0.12327871156E+04  0.25500000920E-02 0. -1.
       -2    1    3    3    0  502 -0.10474499240E+04  0.48170096261E+03  0.22020670522E+03  0.11737453530E+04  0.25500000920E-02 0.  1.
</event>
<event>
 5   0  0.1336057E-06  0.2400837E+04  0.7818609E-02  0.8439190E-01
        2   -1    0    0  501    0  0.00000000000E+00  0.00000000000E+00  0.23190117472E+04  0.23190117472E+04  0.25500000920E-02 0.  1.
       -2   -1    0    0    0  501  0.00000000000E+00  0.00000000000E+00 -0.62138748160E+03  0.62138748160E+03  0.25500000920E-02 0. -1.
    10030    2    1    2    0    0  0.00000000000E+00  0.00000000000E+00  0.16976242656E+04  0.29403992288E+04  0.24008372451E+04 0.  0.
        2    1    3    3  502    0 -0.13386959604E+03  0.10967652466E+04  0.27411084096E+03  0.11383988001E+04  0.25500000920E-02 0. -1.
       -2    1    3    3    0  502  0.13386959604E+03 -0.10967652466E+04  0.14235134247E+04  0.18020004287E+04  0.25500000920E-02 0.  1.
</event>
<event>
 5   0  0.5690124E-07  0.2399655E+04  0.7818609E-02  0.8439633E-01
        1   -1    0    0  501    0  0.00000000000E+00  0.00000000000E+00  0.19705498663E+04  0.19705498663E+04  0.50400001928E-02 0. -1.
       -1   -1    0    0    0  501  0.00000000000E+00  0.00000000000E+00 -0.73055046646E+03  0.73055046648E+03  0.50400001928E-02 0.  1.
    10030    2    1    2    0    0  0.00000000000E+00  0.00000000000E+00  0.12399993999E+04  0.27011003328E+04  0.23996550786E+04 0.  0.
        2    1    3    3  502    0  0.80245309070E+02 -0.11594295146E+04  0.28444021289E+03  0.11965042180E+04  0.25500000920E-02 0. -1.
       -2    1    3    3    0  502 -0.80245309070E+02  0.11594295146E+04  0.95555918700E+03  0.15045961148E+04  0.25500000920E-02 0.  1.
</event>
<event>
 5   0  0.1307477E-06  0.2399519E+04  0.7818609E-02  0.8439683E-01
        2   -1    0    0  501    0  0.00000000000E+00  0.00000000000E+00  0.18635601096E+04  0.18635601096E+04  0.25500000920E-02 0. -1.
       -2   -1    0    0    0  501  0.00000000000E+00  0.00000000000E+00 -0.77240514970E+03  0.77240514970E+03  0.25500000920E-02 0.  1.
    10030    2    1    2    0    0  0.00000000000E+00  0.00000000000E+00  0.10911549599E+04  0.26359652593E+04  0.23995194731E+04 0.  0.
        5    1    3    3  502    0 -0.11402332129E+04  0.23485161803E+03  0.22697419310E+03  0.11860971446E+04  0.46999998093E+01 0.  1.
       -5    1    3    3    0  502  0.11402332129E+04 -0.23485161803E+03  0.86418076677E+03  0.14498681146E+04  0.46999998093E+01 0. -1.
</event>
<event>
 5   0  0.5527286E-07  0.2399682E+04  0.7818609E-02  0.8439623E-01
       -1   -1    0    0    0  501  0.00000000000E+00  0.00000000000E+00  0.10445295776E+04  0.10445295776E+04  0.50400001928E-02 0.  1.
        1   -1    0    0  501    0  0.00000000000E+00  0.00000000000E+00 -0.13782457187E+04  0.13782457187E+04  0.50400001928E-02 0. -1.
    10030    2    1    2    0    0  0.00000000000E+00  0.00000000000E+00 -0.33371614113E+03  0.24227752963E+04  0.23996819943E+04 0.  0.
        1    1    3    3  502    0 -0.11898019132E+04  0.71278868394E+02 -0.30569194121E+03  0.12305108015E+04  0.50400001928E-02 0. -1.
       -1    1    3    3    0  502  0.11898019132E+04 -0.71278868394E+02 -0.28024199917E+02  0.11922644948E+04  0.50400001928E-02 0.  1.
</event>
<event>
 5   0  0.5363690E-07  0.2399230E+04  0.7818609E-02  0.8439792E-01
        1   -1    0    0  501    0  0.00000000000E+00  0.00000000000E+00  0.97648605719E+03  0.97648605720E+03  0.50400001928E-02 0.  1.
       -1   -1    0    0    0  501  0.00000000000E+00  0.00000000000E+00 -0.14737296126E+04  0.14737296126E+04  0.50400001928E-02 0. -1.
    10030    2    1    2    0    0  0.00000000000E+00  0.00000000000E+00 -0.49724355544E+03  0.24502156698E+04  0.23992302256E+04 0.  0.
        4    1    3    3  502    0  0.11071382866E+04  0.45957672488E+03 -0.20172363362E+03  0.12155903870E+04  0.12699999809E+01 0.  1.
       -4    1    3    3    0  502 -0.11071382866E+04 -0.45957672488E+03 -0.29551992182E+03  0.12346252828E+04  0.12699999809E+01 0. -1.
</event>
<event>
 5   0  0.5527286E-07  0.2400245E+04  0.7818609E-02  0.8439412E-01
       -1   -1    0    0    0  501  0.00000000000E+00  0.00000000000E+00  0.10711178015E+04  0.10711178015E+04  0.50400001928E-02 0.  1.
        1   -1    0    0  501    0  0.00000000000E+00  0.00000000000E+00 -0.13446649331E+04  0.13446649331E+04  0.50400001928E-02 0. -1.
    10030    2    1    2    0    0  0.00000000000E+00  0.00000000000E+00 -0.27354713156E+03  0.24157827346E+04  0.24002454432E+04 0.  0.
        1    1    3    3  502    0  0.11057565923E+03  0.74850541642E+03 -0.10743654657E+04  0.13140580234E+04  0.50400001928E-02 0. -1.
       -1    1    3    3    0  502 -0.11057565923E+03 -0.74850541642E+03  0.80081833419E+03  0.11017247112E+04  0.50400001928E-02 0.  1.
</event>
<event>
 5   0  0.1307477E-06  0.2399026E+04  0.7818609E-02  0.8439868E-01
        2   -1    0    0  501    0  0.00000000000E+00  0.00000000000E+00  0.27682784155E+04  0.27682784155E+04  0.25500000920E-02 0.  1.
       -2   -1    0    0    0  501  0.00000000000E+00  0.00000000000E+00 -0.51975658590E+03  0.51975658591E+03  0.25500000920E-02 0. -1.
    10030    2    1    2    0    0  0.00000000000E+00  0.00000000000E+00  0.22485218296E+04  0.32880350014E+04  0.23990255839E+04 0.  0.
        5    1    3    3  502    0  0.38974456057E+03 -0.66509201790E+03 -0.13529360207E+03  0.78267149145E+03  0.46999998093E+01 0. -1.
       -5    1    3    3    0  502 -0.38974456057E+03  0.66509201790E+03  0.23838154317E+04  0.25053635100E+04  0.46999998093E+01 0.  1.
</event>
<event>
 5   0  0.5452384E-07  0.2401632E+04  0.7818609E-02  0.8438893E-01
        1   -1    0    0  501    0  0.00000000000E+00  0.00000000000E+00  0.13807387570E+04  0.13807387570E+04  0.50400001928E-02 0. -1.
       -1   -1    0    0    0  501  0.00000000000E+00  0.00000000000E+00 -0.10443384116E+04  0.10443384116E+04  0.50400001928E-02 0.  1.
    10030    2    1    2    0    0  0.00000000000E+00  0.00000000000E+00  0.33640034544E+03  0.24250771686E+04  0.24016315457E+04 0.  0.
        5    1    3    3  502    0 -0.45348259665E+03 -0.89509981102E+03  0.83425025187E+03  0.13049313047E+04  0.46999998093E+01 0. -1.
       -5    1    3    3    0  502  0.45348259665E+03  0.89509981102E+03 -0.49784990643E+03  0.11201458639E+04  0.46999998093E+01 0.  1.
</event>
<event>
 5   0  0.5510176E-07  0.2400288E+04  0.7818609E-02  0.8439396E-01
       -1   -1    0    0    0  501  0.00000000000E+00  0.00000000000E+00  0.84797554478E+03  0.84797554480E+03  0.50400001928E-02 0.  1.
        1   -1    0    0  501    0  0.00000000000E+00  0.00000000000E+00 -0.16985700230E+04  0.16985700230E+04  0.50400001928E-02 0. -1.
    10030    2    1    2    0    0  0.00000000000E+00  0.00000000000E+00 -0.85059447818E+03  0.25465455678E+04  0.24002881832E+04 0.  0.
        3    1    3    3  502    0 -0.99534249691E+03 -0.59892970235E+02 -0.11338640378E+04  0.15099475224E+04  0.10100000352E+00 0. -1.
       -3    1    3    3    0  502  0.99534249691E+03  0.59892970235E+02  0.28326955961E+03  0.10365980454E+04  0.10100000352E+00 0.  1.
</event>
<event>
 5   0  0.1275948E-06  0.2399828E+04  0.7818609E-02  0.8439568E-01
        2   -1    0    0  501    0  0.00000000000E+00  0.00000000000E+00  0.18491187126E+04  0.18491187126E+04  0.25500000920E-02 0.  1.
       -2   -1    0    0    0  501  0.00000000000E+00  0.00000000000E+00 -0.77863774733E+03  0.77863774734E+03  0.25500000920E-02 0. -1.
    10030    2    1    2    0    0  0.00000000000E+00  0.00000000000E+00  0.10704809653E+04  0.26277564599E+04  0.23998280179E+04 0.  0.
        1    1    3    3  502    0  0.10862443806E+04 -0.20030471682E+03  0.21948724010E+02  0.11047762581E+04  0.50400001928E-02 0.  1.
       -1    1    3    3    0  502 -0.10862443806E+04  0.20030471682E+03  0.10485322412E+04  0.15229802018E+04  0.50400001928E-02 0. -1.
</event>
<event>
 5   0  0.5510176E-07  0.2399363E+04  0.7818609E-02  0.8439742E-01
       -1   -1    0    0    0  501  0.00000000000E+00  0.00000000000E+00  0.79630102656E+03  0.79630102658E+03  0.50400001928E-02 0. -1.
        1   -1    0    0  501    0  0.00000000000E+00  0.00000000000E+00 -0.18074016746E+04  0.18074016746E+04  0.50400001928E-02 0.  1.
    10030    2    1    2    0    0  0.00000000000E+00  0.00000000000E+00 -0.10111006481E+04  0.26037027012E+04  0.23993630896E+04 0.  0.
        3    1    3    3  502    0 -0.63047793853E+03 -0.13757330733E+02 -0.16130261427E+04  0.17319194676E+04  0.10100000352E+00 0.  1.
       -3    1    3    3    0  502  0.63047793853E+03  0.13757330733E+02  0.60192549461E+03  0.87178323360E+03  0.10100000352E+00 0. -1.
</event>
<event>
 5   0  0.1308662E-06  0.2400997E+04  0.7818609E-02  0.8439130E-01
        2   -1    0    0  501    0  0.00000000000E+00  0.00000000000E+00  0.11371241115E+04  0.11371241115E+04  0.25500000920E-02 0. -1.
       -2   -1    0    0    0  501  0.00000000000E+00  0.00000000000E+00 -0.12674051465E+04  0.12674051465E+04  0.25500000920E-02 0.  1.
    10030    2    1    2    0    0  0.00000000000E+00  0.00000000000E+00 -0.13028103504E+03  0.24045292580E+04  0.24009972520E+04 0.  0.
        3    1    3    3  502    0 -0.61437413159E+03 -0.99427217113E+03  0.20942372183E+03  0.11873883229E+04  0.10100000352E+00 0. -1.
       -3    1    3    3    0  502  0.61437413159E+03  0.99427217113E+03 -0.33970475686E+03  0.12171409351E+04  0.10100000352E+00 0.  1.
</event>
<event>
 5   0  0.5527286E-07  0.2401607E+04  0.7818609E-02  0.8438902E-01
       -1   -1    0    0    0  501  0.00000000000E+00  0.00000000000E+00  0.11901002591E+04  0.11901002591E+04  0.50400001928E-02 0. -1.
        1   -1    0    0  501    0  0.00000000000E+00  0.00000000000E+00 -0.12116033932E+04  0.12116033932E+04  0.50400001928E-02 0.  1.
    10030    2    1    2    0    0  0.00000000000E+00  0.00000000000E+00 -0.21503134075E+02  0.24017036523E+04  0.24016073885E+04 0.  0.
        1    1    3    3  502    0 -0.11511518550E+04  0.24872299814E+03 -0.24510214079E+03  0.12029500333E+04  0.50400001928E-02 0. -1.
       -1    1    3    3    0  502  0.11511518550E+04 -0.24872299814E+03  0.22359900671E+03  0.11987536190E+04  0.50400001928E-02 0.  1.
</event>
<event>
 5   0  0.5527286E-07  0.2399992E+04  0.7818609E-02  0.8439506E-01
        1   -1    0    0  501    0  0.00000000000E+00  0.00000000000E+00  0.20848426389E+04  0.20848426389E+04  0.50400001928E-02 0.  1.
       -1   -1    0    0    0  501  0.00000000000E+00  0.00000000000E+00 -0.69069512429E+03  0.69069512431E+03  0.50400001928E-02 0. -1.
    10030    2    1    2    0    0  0.00000000000E+00  0.00000000000E+00  0.13941475146E+04  0.27755377632E+04  0.23999922047E+04 0.  0.
        1    1    3    3  502    0  0.53150739100E+03  0.41998874411E+03  0.18425707305E+04  0.19631499048E+04  0.50400001928E-02 0.  1.
       -1    1    3    3    0  502 -0.53150739100E+03 -0.41998874411E+03 -0.44842321590E+03  0.81238785838E+03  0.50400001928E-02 0. -1.
</event>
<event>
 5   0  0.1275948E-06  0.2397274E+04  0.7818609E-02  0.8440525E-01
       -2   -1    0    0    0  501  0.00000000000E+00  0.00000000000E+00  0.11627249780E+04  0.11627249780E+04  0.25500000920E-02 0. -1.
        2   -1    0    0  501    0  0.00000000000E+00  0.00000000000E+00 -0.12356580212E+04  0.12356580212E+04  0.25500000920E-02 0.  1.
    10030    2    1    2    0    0  0.00000000000E+00  0.00000000000E+00 -0.72933043172E+02  0.23983829992E+04  0.23972738229E+04 0.  0.
        1    1    3    3  502    0  0.48449965910E+03  0.10253925055E+04 -0.42466761807E+03  0.12109964062E+04  0.50400001928E-02 0.  1.
       -1    1    3    3    0  502 -0.48449965910E+03 -0.10253925055E+04  0.35173457490E+03  0.11873865930E+04  0.50400001928E-02 0. -1.
</event>
<event>
 5   0  0.5527286E-07  0.2399845E+04  0.7818609E-02  0.8439562E-01
        1   -1    0    0  501    0  0.00000000000E+00  0.00000000000E+00  0.18168648402E+04  0.18168648402E+04  0.50400001928E-02 0.  1.
       -1   -1    0    0    0  501  0.00000000000E+00  0.00000000000E+00 -0.79247172699E+03  0.79247172701E+03  0.50400001928E-02 0. -1.
    10030    2    1    2    0    0  0.00000000000E+00  0.00000000000E+00  0.10243931132E+04  0.26093365672E+04  0.23998450097E+04 0.  0.
        1    1    3    3  502    0  0.87254060995E+03 -0.19930591486E+03 -0.35679816876E+03  0.96351175238E+03  0.50400001928E-02 0. -1.
       -1    1    3    3    0  502 -0.87254060995E+03  0.19930591486E+03  0.13811912820E+04  0.16458248148E+04  0.50400001928E-02 0.  1.
</event>
<event>
 5   0  0.5527286E-07  0.2400364E+04  0.7818609E-02  0.8439367E-01
        1   -1    0    0  501    0  0.00000000000E+00  0.00000000000E+00  0.14079487854E+04  0.14079487855E+04  0.50400001928E-02 0. -1.
       -1   -1    0    0    0  501  0.00000000000E+00  0.00000000000E+00 -0.10230743178E+04  0.10230743178E+04  0.50400001928E-02 0.  1.
    10030    2    1    2    0    0  0.00000000000E+00  0.00000000000E+00  0.38487446767E+03  0.24310231032E+04  0.24003635084E+04 0.  0.
        1    1    3    3  502    0 -0.72808688738E+03  0.24798051775E+03  0.11255256250E+04  0.13632361443E+04  0.50400001928E-02 0. -1.
       -1    1    3    3    0  502  0.72808688738E+03 -0.24798051775E+03 -0.74065115730E+03  0.10677869589E+04  0.50400001928E-02 0.  1.
</event>
<event>
 5   0  0.1308662E-06  0.2400017E+04  0.7818609E-02  0.8439497E-01
        2   -1    0    0  501    0  0.00000000000E+00  0.00000000000E+00  0.18884115815E+04  0.18884115815E+04  0.25500000920E-02 0. -1.
       -2   -1    0    0    0  501  0.00000000000E+00  0.00000000000E+00 -0.76255669015E+03  0.76255669016E+03  0.25500000920E-02 0.  1.
    10030    2    1    2    0    0  0.00000000000E+00  0.00000000000E+00  0.11258548914E+04  0.26509682717E+04  0.24000174043E+04 0.  0.
        3    1    3    3  502    0 -0.44641002468E+02 -0.10107627151E+04 -0.14982482591E+03  0.10227812933E+04  0.10100000352E+00 0.  1.
       -3    1    3    3    0  502  0.44641002468E+02  0.10107627151E+04  0.12756797173E+04  0.16281869784E+04  0.10100000352E+00 0. -1.
</event>
<event>
 5   0  0.1307477E-06  0.2399628E+04  0.7818609E-02  0.8439643E-01
        2   -1    0    0  501    0  0.00000000000E+00  0.00000000000E+00  0.13662048347E+04  0.13662048347E+04  0.25500000920E-02 0. -1.
       -2   -1    0    0    0  501  0.00000000000E+00  0.00000000000E+00 -0.10536881441E+04  0.10536881441E+04  0.25500000920E-02 0.  1.
    10030    2    1    2    0    0  0.00000000000E+00  0.00000000000E+00  0.31251669060E+03  0.24198929789E+04  0.23996281685E+04 0.  0.
        5    1    3    3  502    0 -0.70125804324E+03 -0.58244578325E+03 -0.63041006493E+03  0.11083523238E+04  0.46999998093E+01 0.  1.
       -5    1    3    3    0  502  0.70125804324E+03  0.58244578325E+03  0.94292675553E+03  0.13115406551E+04  0.46999998093E+01 0. -1.
</event>
<event>
 5   0  0.1336057E-06  0.2399897E+04  0.7818609E-02  0.8439542E-01
        2   -1    0    0  501    0  0.00000000000E+00  0.00000000000E+00  0.17131634754E+04  0.17131634754E+04  0.25500000920E-02 0. -1.
       -2   -1    0    0    0  501  0.00000000000E+00  0.00000000000E+00 -0.84047782341E+03  0.84047782342E+03  0.25500000920E-02 0.  1.
    10030    2    1    2    0    0  0.00000000000E+00  0.00000000000E+00  0.87268565197E+03  0.25536412988E+04  0.23998965886E+04 0.  0.
        2    1    3    3  502    0  0.11384830198E+04  0.37865886839E+03  0.41644217666E+03  0.12700197682E+04  0.25500000920E-02 0.  1.
       -2    1    3    3    0  502 -0.11384830198E+04 -0.37865886839E+03  0.45624347531E+03  0.12836215306E+04  0.25500000920E-02 0. -1.
</event>
<event>
 5   0  0.1336057E-06  0.2399958E+04  0.7818609E-02  0.8439519E-01
       -2   -1    0    0    0  501  0.00000000000E+00  0.00000000000E+00  0.82964653942E+03  0.82964653942E+03  0.25500000920E-02 0.  1.
        2   -1    0    0  501    0  0.00000000000E+00  0.00000000000E+00 -0.17356178583E+04  0.17356178583E+04  0.25500000920E-02 0. -1.
    10030    2    1    2    0    0  0.00000000000E+00  0.00000000000E+00 -0.90597131884E+03  0.25652643977E+04  0.23999577912E+04 0.  0.
        2    1    3    3  502    0  0.48079580886E+03  0.95284451260E+03 -0.10392850875E+04  0.14896948574E+04  0.25500000920E-02 0. -1.
       -2    1    3    3    0  502 -0.48079580886E+03 -0.95284451260E+03  0.13331376870E+03  0.10755695403E+04  0.25500000920E-02 0.  1.
</event>
<event>
 5   0  0.1308662E-06  0.2399727E+04  0.7818609E-02  0.8439606E-01
        2   -1    0    0  501    0  0.00000000000E+00  0.00000000000E+00  0.79631949667E+03  0.79631949668E+03  0.25500000920E-02 0.  1.
       -2   -1    0    0    0  501  0.00000000000E+00  0.00000000000E+00 -0.18079074867E+04  0.18079074867E+04  0.25500000920E-02 0. -1.
    10030    2    1    2    0    0  0.00000000000E+00  0.00000000000E+00 -0.10115879900E+04  0.26042269834E+04  0.23997266343E+04 0.  0.
        3    1    3    3  502    0  0.46106096129E+03 -0.10682564535E+04 -0.18768822325E+03  0.11785482340E+04  0.10100000352E+00 0.  1.
       -3    1    3    3    0  502 -0.46106096129E+03  0.10682564535E+04 -0.82389976676E+03  0.14256787494E+04  0.10100000352E+00 0. -1.
</event>
<event>
 5   0  0.5690124E-07  0.2399538E+04  0.7818609E-02  0.8439677E-01
        1   -1    0    0  501    0  0.00000000000E+00  0.00000000000E+00  0.15965790382E+04  0.15965790382E+04  0.50400001928E-02 0. -1.
       -1   -1    0    0    0  501  0.00000000000E+00  0.00000000000E+00 -0.90158093426E+03  0.90158093427E+03  0.50400001928E-02 0.  1.
    10030    2    1    2    0    0  0.00000000000E+00  0.00000000000E+00  0.69499810392E+03  0.24981599725E+04  0.23995376395E+04 0.  0.
        2    1    3    3  502    0  0.65994484322E+03 -0.91121563463E+02  0.13863144282E+04  0.15380825820E+04  0.25500000920E-02 0. -1.
       -2    1    3    3    0  502 -0.65994484322E+03  0.91121563463E+02 -0.69131632425E+03  0.96007739042E+03  0.25500000920E-02 0.  1.
</event>
<event>
 5   0  0.1275948E-06  0.2400810E+04  0.7818609E-02  0.8439200E-01
        2   -1    0    0  501    0  0.00000000000E+00  0.00000000000E+00  0.13803590424E+04  0.13803590424E+04  0.25500000920E-02 0. -1.
       -2   -1    0    0    0  501  0.00000000000E+00  0.00000000000E+00 -0.10439112812E+04  0.10439112812E+04  0.25500000920E-02 0.  1.
    10030    2    1    2    0    0  0.00000000000E+00  0.00000000000E+00  0.33644776121E+03  0.24242703235E+04  0.24008101769E+04 0.  0.
        1    1    3    3  502    0 -0.12537308515E+02  0.66758508133E+03  0.11755416175E+04  0.13519338443E+04  0.50400001928E-02 0. -1.
       -1    1    3    3    0  502  0.12537308515E+02 -0.66758508133E+03 -0.83909385631E+03  0.10723364792E+04  0.50400001928E-02 0.  1.
</event>
<event>
 5   0  0.5510176E-07  0.2400458E+04  0.7818609E-02  0.8439332E-01
        1   -1    0    0  501    0  0.00000000000E+00  0.00000000000E+00  0.14878186109E+04  0.14878186109E+04  0.50400001928E-02 0. -1.
       -1   -1    0    0    0  501  0.00000000000E+00  0.00000000000E+00 -0.96822944617E+03  0.96822944618E+03  0.50400001928E-02 0.  1.
    10030    2    1    2    0    0  0.00000000000E+00  0.00000000000E+00  0.51958916473E+03  0.24560480571E+04  0.24004581143E+04 0.  0.
        3    1    3    3  502    0 -0.92325786648E+02 -0.10993061766E+04 -0.22396733433E+03  0.11256817924E+04  0.10100000352E+00 0.  1.
       -3    1    3    3    0  502  0.92325786648E+02  0.10993061766E+04  0.74355649906E+03  0.13303662647E+04  0.10100000352E+00 0. -1.
</event>
<event>
 5   0  0.5510176E-07  0.2399042E+04  0.7818609E-02  0.8439862E-01
       -1   -1    0    0    0  501  0.00000000000E+00  0.00000000000E+00  0.70672401524E+03  0.70672401525E+03  0.50400001928E-02 0.  1.
        1   -1    0    0  501    0  0.00000000000E+00  0.00000000000E+00 -0.20359449421E+04  0.20359449422E+04  0.50400001928E-02 0. -1.
    10030    2    1    2    0    0  0.00000000000E+00  0.00000000000E+00 -0.13292209269E+04  0.27426689574E+04  0.23990424626E+04 0.  0.
        3    1    3    3  502    0  0.11412697550E+04  0.34619306295E+03 -0.81148337048E+03  0.14425157057E+04  0.10100000352E+00 0.  1.
       -3    1    3    3    0  502 -0.11412697550E+04 -0.34619306295E+03 -0.51773755643E+03  0.13001532517E+04  0.10100000352E+00 0. -1.
</event>
<event>
 5   0  0.5363690E-07  0.2400143E+04  0.7818609E-02  0.8439450E-01
        1   -1    0    0  501    0  0.00000000000E+00  0.00000000000E+00  0.17552904474E+04  0.17552904474E+04  0.50400001928E-02 0.  1.
       -1   -1    0    0    0  501  0.00000000000E+00  0.00000000000E+00 -0.82047458218E+03  0.82047458219E+03  0.50400001928E-02 0. -1.
    10030    2    1    2    0    0  0.00000000000E+00  0.00000000000E+00  0.93481586523E+03  0.25757650296E+04  0.24001426595E+04 0.  0.
        4    1    3    3  502    0  0.10949911544E+03 -0.89263496588E+03 -0.38532964890E+03  0.97840062849E+03  0.12699999809E+01 0. -1.
       -4    1    3    3    0  502 -0.10949911544E+03  0.89263496588E+03  0.13201455141E+04  0.15973644011E+04  0.12699999809E+01 0.  1.
</event>
<event>
 5   0  0.1291468E-06  0.2400092E+04  0.7818609E-02  0.8439469E-01
        2   -1    0    0  501    0  0.00000000000E+00  0.00000000000E+00  0.11906166177E+04  0.11906166177E+04  0.25500000920E-02 0. -1.
       -2   -1    0    0    0  501  0.00000000000E+00  0.00000000000E+00 -0.12095500506E+04  0.12095500506E+04  0.25500000920E-02 0.  1.
    10030    2    1    2    0    0  0.00000000000E+00  0.00000000000E+00 -0.18933432897E+02  0.24001666684E+04  0.24000919901E+04 0.  0.
        4    1    3    3  502    0 -0.87743945432E+03  0.28321672728E+03 -0.77760328148E+03  0.12061426893E+04  0.12699999809E+01 0.  1.
       -4    1    3    3    0  502  0.87743945432E+03 -0.28321672728E+03  0.75866984859E+03  0.11940239791E+04  0.12699999809E+01 0. -1.
</event>
<event>
 5   0  0.5510176E-07  0.2398862E+04  0.7818609E-02  0.8439930E-01
        1   -1    0    0  501    0  0.00000000000E+00  0.00000000000E+00  0.21169407103E+04  0.21169407103E+04  0.50400001928E-02 0.  1.
       -1   -1    0    0    0  501  0.00000000000E+00  0.00000000000E+00 -0.67958183606E+03  0.67958183608E+03  0.50400001928E-02 0. -1.
    10030    2    1    2    0    0  0.00000000000E+00  0.00000000000E+00  0.14373588742E+04  0.27965225464E+04  0.23988617757E+04 0.  0.
        3    1    3    3  502    0 -0.94893809182E+03 -0.21292607107E+03 -0.99699358887E+02  0.97763029117E+03  0.10100000352E+00 0. -1.
       -3    1    3    3    0  502  0.94893809182E+03  0.21292607107E+03  0.15370582331E+04  0.18188922552E+04  0.10100000352E+00 0.  1.
</event>
<event>
 5   0  0.1307477E-06  0.2399863E+04  0.7818609E-02  0.8439555E-01
       -2   -1    0    0    0  501  0.00000000000E+00  0.00000000000E+00  0.14025274339E+04  0.14025274339E+04  0.25500000920E-02 0.  1.
        2   -1    0    0  501    0  0.00000000000E+00  0.00000000000E+00 -0.10266009174E+04  0.10266009174E+04  0.25500000920E-02 0. -1.
    10030    2    1    2    0    0  0.00000000000E+00  0.00000000000E+00  0.37592651651E+03  0.24291283513E+04  0.23998632881E+04 0.  0.
        5    1    3    3  502    0  0.98905746791E+03  0.64332541581E+03 -0.33130217915E+02  0.11803482396E+04  0.46999998093E+01 0. -1.
       -5    1    3    3    0  502 -0.98905746791E+03 -0.64332541581E+03  0.40905673442E+03  0.12487801117E+04  0.46999998093E+01 0.  1.
</event>
<event>
 5   0  0.5510176E-07  0.2402661E+04  0.7818609E-02  0.8438508E-01
        1   -1    0    0  501    0  0.00000000000E+00  0.00000000000E+00  0.14911775462E+04  0.14911775462E+04  0.50400001928E-02 0.  1.
       -1   -1    0    0    0  501  0.00000000000E+00  0.00000000000E+00 -0.96782270133E+03  0.96782270134E+03  0.50400001928E-02 0. -1.
    10030    2    1    2    0    0  0.00000000000E+00  0.00000000000E+00  0.52335484490E+03  0.24590002476E+04  0.24026614252E+04 0.  0.
        3    1    3    3  502    0 -0.17828921619E+03  0.76268588350E+03  0.11939253525E+04  0.14279126580E+04  0.10100000352E+00 0.  1.
       -3    1    3    3    0  502  0.17828921619E+03 -0.76268588350E+03 -0.67057050757E+03  0.10310875895E+04  0.10100000352E+00 0. -1.
</event>
<event>
 5   0  0.1275948E-06  0.2399833E+04  0.7818609E-02  0.8439566E-01
       -2   -1    0    0    0  501  0.00000000000E+00  0.00000000000E+00  0.18401988064E+04  0.18401988064E+04  0.25500000920E-02 0.  1.
        2   -1    0    0  501    0  0.00000000000E+00  0.00000000000E+00 -0.78241540343E+03  0.78241540344E+03  0.25500000920E-02 0. -1.
    10030    2    1    2    0    0  0.00000000000E+00  0.00000000000E+00  0.10577834030E+04  0.26226142098E+04  0.23998332371E+04 0.  0.
        1    1    3    3  502    0  0.99101018086E+03 -0.15072783415E+03 -0.19186370226E+03  0.10206036149E+04  0.50400001928E-02 0. -1.
       -1    1    3    3    0  502 -0.99101018086E+03  0.15072783415E+03  0.12496471052E+04  0.16020105949E+04  0.50400001928E-02 0.  1.
</event>
<event>
 5   0  0.5510176E-07  0.2400296E+04  0.7818609E-02  0.8439393E-01
       -1   -1    0    0    0  501  0.00000000000E+00  0.00000000000E+00  0.12158257703E+04  0.12158257703E+04  0.50400001928E-02 0.  1.
        1   -1    0    0  501    0  0.00000000000E+00  0.00000000000E+00 -0.11846722350E+04  0.11846722350E+04  0.50400001928E-02 0. -1.
    10030    2    1    2    0    0  0.00000000000E+00  0.00000000000E+00  0.31153535289E+02  0.24004980053E+04  0.24002958423E+04 0.  0.
        3    1    3    3  502    0  0.28054355308E+03  0.53226137034E+03 -0.10229461375E+04  0.11867711077E+04  0.10100000352E+00 0. -1.
       -3    1    3    3    0  502 -0.28054355308E+03 -0.53226137034E+03  0.10540996728E+04  0.12137268976E+04  0.10100000352E+00 0.  1.
</event>
<event>
 5   0  0.1307477E-06  0.2399895E+04  0.7818609E-02  0.8439543E-01
       -2   -1    0    0    0  501  0.00000000000E+00  0.00000000000E+00  0.56121174161E+03  0.56121174162E+03  0.25500000920E-02 0. -1.
        2   -1    0    0  501    0  0.00000000000E+00  0.00000000000E+00 -0.25656515124E+04  0.25656515124E+04  0.25500000920E-02 0.  1.
    10030    2    1    2    0    0  0.00000000000E+00  0.00000000000E+00 -0.20044397708E+04  0.31268632540E+04  0.23998947924E+04 0.  0.
        5    1    3    3  502    0 -0.74674588542E+03 -0.70503684892E+03 -0.18108110284E+04  0.20817696910E+04  0.46999998093E+01 0.  1.
       -5    1    3    3    0  502  0.74674588542E+03  0.70503684892E+03 -0.19362874245E+03  0.10450935631E+04  0.46999998093E+01 0. -1.
</event>
<event>
 5   0  0.1308662E-06  0.2399625E+04  0.7818609E-02  0.8439644E-01
        2   -1    0    0  501    0  0.00000000000E+00  0.00000000000E+00  0.16955764392E+04  0.16955764392E+04  0.25500000920E-02 0.  1.
       -2   -1    0    0    0  501  0.00000000000E+00  0.00000000000E+00 -0.84900361074E+03  0.84900361075E+03  0.25500000920E-02 0. -1.
    10030    2    1    2    0    0  0.00000000000E+00  0.00000000000E+00  0.84657282843E+03  0.25445800499E+04  0.23996254034E+04 0.  0.
        3    1    3    3  502    0  0.17657803712E+03  0.89752533005E+03 -0.40002877678E+03  0.99837595810E+03  0.10100000352E+00 0. -1.
       -3    1    3    3    0  502 -0.17657803712E+03 -0.89752533005E+03  0.12466016052E+04  0.15462040918E+04  0.10100000352E+00 0.  1.
</event>
<event>
 5   0  0.1308662E-06  0.2400154E+04  0.7818609E-02  0.8439446E-01
        2   -1    0    0  501    0  0.00000000000E+00  0.00000000000E+00  0.16391444016E+04  0.16391444016E+04  0.25500000920E-02 0.  1.
       -2   -1    0    0    0  501  0.00000000000E+00  0.00000000000E+00 -0.87861993754E+03  0.87861993754E+03  0.25500000920E-02 0. -1.
    10030    2    1    2    0    0  0.00000000000E+00  0.00000000000E+00  0.76052446406E+03  0.25177643391E+04  0.24001541215E+04 0.  0.
        3    1    3    3  502    0 -0.43003289962E+02  0.43430484251E+03  0.15529474013E+04  0.16131074424E+04  0.10100000352E+00 0.  1.
       -3    1    3    3    0  502  0.43003289962E+02 -0.43430484251E+03 -0.79242293726E+03  0.90465689677E+03  0.10100000352E+00 0. -1.
</event>
<event>
 5   0  0.5527286E-07  0.2399662E+04  0.7818609E-02  0.8439630E-01
       -1   -1    0    0    0  501  0.00000000000E+00  0.00000000000E+00  0.11225396258E+04  0.11225396258E+04  0.50400001928E-02 0.  1.
        1   -1    0    0  501    0  0.00000000000E+00  0.00000000000E+00 -0.12824445130E+04  0.12824445130E+04  0.50400001928E-02 0. -1.
    10030    2    1    2    0    0  0.00000000000E+00  0.00000000000E+00 -0.15990488721E+03  0.24049841388E+04  0.23996622960E+04 0.  0.
        1    1    3    3  502    0  0.19458175297E+02 -0.98325871416E+03  0.60889891663E+03  0.11566910608E+04  0.50400001928E-02 0.  1.
       -1    1    3    3    0  502 -0.19458175297E+02  0.98325871416E+03 -0.76880380384E+03  0.12482930779E+04  0.50400001928E-02 0. -1.
</event>
<event>
 5   0  0.5363690E-07  0.2399859E+04  0.7818609E-02  0.8439557E-01
        1   -1    0    0  501    0  0.00000000000E+00  0.00000000000E+00  0.18693625102E+04  0.18693625102E+04  0.50400001928E-02 0. -1.
       -1   -1    0    0    0  501  0.00000000000E+00  0.00000000000E+00 -0.77022528677E+03  0.77022528678E+03  0.50400001928E-02 0.  1.
    10030    2    1    2    0    0  0.00000000000E+00  0.00000000000E+00  0.10991372235E+04  0.26395877970E+04  0.23998585588E+04 0.  0.
        4    1    3    3  502    0 -0.71152954183E+03 -0.88387825868E+03  0.97882800131E+03  0.14985396005E+04  0.12699999809E+01 0.  1.
       -4    1    3    3    0  502  0.71152954183E+03  0.88387825868E+03  0.12030922215E+03  0.11410481966E+04  0.12699999809E+01 0. -1.
</event>
<event>
 5   0  0.5527286E-07  0.2399664E+04  0.7818609E-02  0.8439629E-01
       -1   -1    0    0    0  501  0.00000000000E+00  0.00000000000E+00  0.11242889793E+04  0.11242889793E+04  0.50400001928E-02 0. -1.
        1   -1    0    0  501    0  0.00000000000E+00  0.00000000000E+00 -0.12804512939E+04  0.12804512939E+04  0.50400001928E-02 0.  1.
    10030    2    1    2    0    0  0.00000000000E+00  0.00000000000E+00 -0.15616231454E+03  0.24047402732E+04  0.23996643751E+04 0.  0.
        1    1    3    3  502    0  0.10634449072E+04  0.12225855520E+03 -0.62120086395E+03  0.12376399873E+04  0.50400001928E-02 0. -1.
       -1    1    3    3    0  502 -0.10634449072E+04 -0.12225855520E+03  0.46503854941E+03  0.11671002859E+04  0.50400001928E-02 0.  1.
</event>
<event>
 5   0  0.4483375E-07  0.2399783E+04  0.7818609E-02  0.8439585E-01
       -3   -1    0    0    0  501  0.00000000000E+00  0.00000000000E+00  0.19061606082E+04  0.19061606109E+04  0.10100000352E+00 0.  1.
        3   -1    0    0  501    0  0.00000000000E+00  0.00000000000E+00 -0.75530838063E+03  0.75530838738E+03  0.10100000352E+00 0. -1.
    10030    2    1    2    0    0  0.00000000000E+00  0.00000000000E+00  0.11508522276E+04  0.26614689982E+04  0.23997825691E+04 0.  0.
        2    1    3    3  502    0 -0.21582991908E+03 -0.38422002067E+03 -0.66230662329E+03  0.79552350154E+03  0.25500000920E-02 0. -1.
       -2    1    3    3    0  502  0.21582991908E+03  0.38422002067E+03  0.18131588509E+04  0.18659454967E+04  0.25500000920E-02 0.  1.
</event>
<event>
 5   0  0.5510176E-07  0.2399195E+04  0.7818609E-02  0.8439805E-01
       -1   -1    0    0    0  501  0.00000000000E+00  0.00000000000E+00  0.81739362814E+03  0.81739362816E+03  0.50400001928E-02 0. -1.
        1   -1    0    0  501    0  0.00000000000E+00  0.00000000000E+00 -0.17605157089E+04  0.17605157089E+04  0.50400001928E-02 0.  1.
    10030    2    1    2    0    0  0.00000000000E+00  0.00000000000E+00 -0.94312208075E+03  0.25779093371E+04  0.23991951340E+04 0.  0.
        3    1    3    3  502    0  0.40143979566E+03 -0.14769860029E+03  0.73266555872E+03  0.84839119350E+03  0.10100000352E+00 0. -1.
       -3    1    3    3    0  502 -0.40143979566E+03  0.14769860029E+03 -0.16757876395E+04  0.17295181436E+04  0.10100000352E+00 0.  1.
</event>
<event>
 5   0  0.5363690E-07  0.2397549E+04  0.7818609E-02  0.8440422E-01
       -1   -1    0    0    0  501  0.00000000000E+00  0.00000000000E+00  0.11050906244E+04  0.11050906244E+04  0.50400001928E-02 0.  1.
        1   -1    0    0  501    0  0.00000000000E+00  0.00000000000E+00 -0.13003999458E+04  0.13003999458E+04  0.50400001928E-02 0. -1.
    10030    2    1    2    0    0  0.00000000000E+00  0.00000000000E+00 -0.19530932141E+03  0.24054905702E+04  0.23975485714E+04 0.  0.
        4    1    3    3  502    0 -0.30758026131E+03  0.11251993552E+04  0.17962827324E+03  0.11802318143E+04  0.12699999809E+01 0.  1.
       -4    1    3    3    0  502  0.30758026131E+03 -0.11251993552E+04 -0.37493759464E+03  0.12252587559E+04  0.12699999809E+01 0. -1.
</event>
<event>
 5   0  0.5690124E-07  0.2399870E+04  0.7818609E-02  0.8439552E-01
       -1   -1    0    0    0  501  0.00000000000E+00  0.00000000000E+00  0.94470960982E+03  0.94470960984E+03  0.50400001928E-02 0. -1.
        1   -1    0    0  501    0  0.00000000000E+00  0.00000000000E+00 -0.15241132599E+04  0.15241132599E+04  0.50400001928E-02 0.  1.
    10030    2    1    2    0    0  0.00000000000E+00  0.00000000000E+00 -0.57940365005E+03  0.24688228697E+04  0.23998703657E+04 0.  0.
        2    1    3    3  502    0  0.48880470554E+03 -0.40277911929E+03 -0.13381422092E+04  0.14804680446E+04  0.25500000920E-02 0.  1.
       -2    1    3    3    0  502 -0.48880470554E+03  0.40277911929E+03  0.75873855916E+03  0.98835482508E+03  0.25500000920E-02 0. -1.
</event>
<event>
 5   0  0.1336057E-06  0.2400849E+04  0.7818609E-02  0.8439186E-01
       -2   -1    0    0    0  501  0.00000000000E+00  0.00000000000E+00  0.80580049618E+03  0.80580049618E+03  0.25500000920E-02 0.  1.
        2   -1    0    0  501    0  0.00000000000E+00  0.00000000000E+00 -0.17883066536E+04  0.17883066536E+04  0.25500000920E-02 0. -1.
    10030    2    1    2    0    0  0.00000000000E+00  0.00000000000E+00 -0.98250615743E+03  0.25941071498E+04  0.24008485073E+04 0.  0.
        2    1    3    3  502    0 -0.10869048525E+04  0.36894971458E+02 -0.10403906341E+04  0.15050368995E+04  0.25500000920E-02 0. -1.
       -2    1    3    3    0  502  0.10869048525E+04 -0.36894971458E+02  0.57884476665E+02  0.10890702503E+04  0.25500000920E-02 0.  1.
</event>
<event>
 5   0  0.5452384E-07  0.2404019E+04  0.7818609E-02  0.8438001E-01
        1   -1    0    0  501    0  0.00000000000E+00  0.00000000000E+00  0.57071236845E+03  0.57071236847E+03  0.50400001928E-02 0. -1.
       -1   -1    0    0    0  501  0.00000000000E+00  0.00000000000E+00 -0.25316195171E+04  0.25316195171E+04  0.50400001928E-02 0.  1.
    10030    2    1    2    0    0  0.00000000000E+00  0.00000000000E+00 -0.19609071487E+04  0.31023318856E+04  0.24040187775E+04 0.  0.
        5    1    3    3  502    0 -0.60952076492E+03 -0.41816457887E+03  0.24273065121E+03  0.77802148873E+03  0.46999998093E+01 0. -1.
       -5    1    3    3    0  502  0.60952076492E+03  0.41816457887E+03 -0.22036377999E+04  0.23243103968E+04  0.46999998093E+01 0.  1.
</event>
<event>
 5   0  0.5510176E-07  0.2398874E+04  0.7818609E-02  0.8439925E-01
        1   -1    0    0  501    0  0.00000000000E+00  0.00000000000E+00  0.11644851691E+04  0.11644851691E+04  0.50400001928E-02 0. -1.
       -1   -1    0    0    0  501  0.00000000000E+00  0.00000000000E+00 -0.12354374793E+04  0.12354374793E+04  0.50400001928E-02 0.  1.
    10030    2    1    2    0    0  0.00000000000E+00  0.00000000000E+00 -0.70952310213E+02  0.23999226485E+04  0.23988735874E+04 0.  0.
        3    1    3    3  502    0  0.49258108530E+03  0.10925745560E+04  0.12433470192E+02  0.11985449042E+04  0.10100000352E+00 0. -1.
       -3    1    3    3    0  502 -0.49258108530E+03 -0.10925745560E+04 -0.83385780405E+02  0.12013777443E+04  0.10100000352E+00 0.  1.
</event>
<event>
 5   0  0.1336057E-06  0.2401264E+04  0.7818609E-02  0.8439030E-01
        2   -1    0    0  501    0  0.00000000000E+00  0.00000000000E+00  0.19934304146E+04  0.19934304146E+04  0.25500000920E-02 0.  1.
       -2   -1    0    0    0  501  0.00000000000E+00  0.00000000000E+00 -0.72313420995E+03  0.72313420995E+03  0.25500000920E-02 0. -1.
    10030    2    1    2    0    0  0.00000000000E+00  0.00000000000E+00  0.12702962047E+04  0.27165646246E+04  0.24012644402E+04 0.  0.
        2    1    3    3  502    0 -0.10602941323E+04 -0.91359929047E+02  0.12639623233E+04  0.16523229219E+04  0.25500000920E-02 0.  1.
       -2    1    3    3    0  502  0.10602941323E+04  0.91359929047E+02  0.63338813491E+01  0.10642417026E+04  0.25500000920E-02 0. -1.
</event>
<event>
 5   0  0.5690124E-07  0.2400515E+04  0.7818609E-02  0.8439311E-01
       -1   -1    0    0    0  501  0.00000000000E+00  0.00000000000E+00  0.70225475271E+03  0.70225475273E+03  0.50400001928E-02 0.  1.
        1   -1    0    0  501    0  0.00000000000E+00  0.00000000000E+00 -0.20514176642E+04  0.20514176642E+04  0.50400001928E-02 0. -1.
    10030    2    1    2    0    0  0.00000000000E+00  0.00000000000E+00 -0.13491629115E+04  0.27536724170E+04  0.24005147819E+04 0.  0.
        2    1    3    3  502    0  0.21389199445E+03 -0.78992570174E+03  0.33258859106E+03  0.88337283775E+03  0.25500000920E-02 0.  1.
       -2    1    3    3    0  502 -0.21389199445E+03  0.78992570174E+03 -0.16817515026E+04  0.18702995792E+04  0.25500000920E-02 0. -1.
</event>
<event>
 5   0  0.5452384E-07  0.2400256E+04  0.7818609E-02  0.8439408E-01
        1   -1    0    0  501    0  0.00000000000E+00  0.00000000000E+00  0.11495144574E+04  0.11495144574E+04  0.50400001928E-02 0.  1.
       -1   -1    0    0    0  501  0.00000000000E+00  0.00000000000E+00 -0.12529696373E+04  0.12529696373E+04  0.50400001928E-02 0. -1.
    10030    2    1    2    0    0  0.00000000000E+00  0.00000000000E+00 -0.10345517988E+03  0.24024840948E+04  0.24002555804E+04 0.  0.
        5    1    3    3  502    0  0.63654567446E+03  0.81078684675E+03 -0.66688661590E+03  0.12277318742E+04  0.46999998093E+01 0. -1.
       -5    1    3    3    0  502 -0.63654567446E+03 -0.81078684675E+03  0.56343143601E+03  0.11747522205E+04  0.46999998093E+01 0.  1.
</event>
<event>
 5   0  0.1275948E-06  0.2404525E+04  0.7818609E-02  0.8437811E-01
        2   -1    0    0  501    0  0.00000000000E+00  0.00000000000E+00  0.15623142373E+04  0.15623142373E+04  0.25500000920E-02 0. -1.
       -2   -1    0    0    0  501  0.00000000000E+00  0.00000000000E+00 -0.92518848120E+03  0.92518848120E+03  0.25500000920E-02 0.  1.
    10030    2    1    2    0    0  0.00000000000E+00  0.00000000000E+00  0.63712575607E+03  0.24875027185E+04  0.24045250145E+04 0.  0.
        1    1    3    3  502    0  0.69524490976E+03  0.90424996087E+03 -0.74552793722E+02  0.11430623760E+04  0.50400001928E-02 0.  1.
       -1    1    3    3    0  502 -0.69524490976E+03 -0.90424996087E+03  0.71167854979E+03  0.13444403425E+04  0.50400001928E-02 0. -1.
</event>
<event>
 5   0  0.1336057E-06  0.2399337E+04  0.7818609E-02  0.8439752E-01
       -2   -1    0    0    0  501  0.00000000000E+00  0.00000000000E+00  0.80664481639E+03  0.80664481639E+03  0.25500000920E-02 0.  1.
        2   -1    0    0  501    0  0.00000000000E+00  0.00000000000E+00 -0.17841854962E+04  0.17841854962E+04  0.25500000920E-02 0. -1.
    10030    2    1    2    0    0  0.00000000000E+00  0.00000000000E+00 -0.97754067978E+03  0.25908303126E+04  0.23993365599E+04 0.  0.
        2    1    3    3  502    0 -0.27371643781E+03  0.92889976151E+03 -0.12534020714E+04  0.15839167301E+04  0.25500000920E-02 0. -1.
       -2    1    3    3    0  502  0.27371643781E+03 -0.92889976151E+03  0.27586139159E+03  0.10069135825E+04  0.25500000920E-02 0.  1.
</event>
<event>
 5   0  0.1291468E-06  0.2400331E+04  0.7818609E-02  0.8439380E-01
       -2   -1    0    0    0  501  0.00000000000E+00  0.00000000000E+00  0.22919365342E+04  0.22919365342E+04  0.25500000920E-02 0.  1.
        2   -1    0    0  501    0  0.00000000000E+00  0.00000000000E+00 -0.62846294269E+03  0.62846294270E+03  0.25500000920E-02 0. -1.
    10030    2    1    2    0    0  0.00000000000E+00  0.00000000000E+00  0.16634735915E+04  0.29203994769E+04  0.24003309595E+04 0.  0.
        4    1    3    3  502    0 -0.10873620311E+04 -0.38102956181E+03  0.12404636547E+04  0.16930125236E+04  0.12699999809E+01 0.  1.
       -4    1    3    3    0  502  0.10873620311E+04  0.38102956181E+03  0.42300993680E+03  0.12273869533E+04  0.12699999809E+01 0. -1.
</event>
<event>
 5   0  0.1307477E-06  0.2399512E+04  0.7818609E-02  0.8439686E-01
       -2   -1    0    0    0  501  0.00000000000E+00  0.00000000000E+00  0.79904553442E+03  0.79904553442E+03  0.25500000920E-02 0.  1.
        2   -1    0    0  501    0  0.00000000000E+00  0.00000000000E+00 -0.18014177122E+04  0.18014177122E+04  0.25500000920E-02 0. -1.
    10030    2    1    2    0    0  0.00000000000E+00  0.00000000000E+00 -0.10023721778E+04  0.26004632466E+04  0.23995122659E+04 0.  0.
        5    1    3    3  502    0  0.90437683940E+03  0.45302886853E+02 -0.13541455186E+04  0.16290125827E+04  0.46999998093E+01 0. -1.
       -5    1    3    3    0  502 -0.90437683940E+03 -0.45302886853E+02  0.35177334075E+03  0.97145066393E+03  0.46999998093E+01 0.  1.
</event>
<event>
 5   0  0.1291468E-06  0.2400045E+04  0.7818609E-02  0.8439487E-01
       -2   -1    0    0    0  501  0.00000000000E+00  0.00000000000E+00  0.97825019854E+03  0.97825019855E+03  0.25500000920E-02 0. -1.
        2   -1    0    0  501    0  0.00000000000E+00  0.00000000000E+00 -0.14720715453E+04  0.14720715453E+04  0.25500000920E-02 0.  1.
    10030    2    1    2    0    0  0.00000000000E+00  0.00000000000E+00 -0.49382134673E+03  0.24503217438E+04  0.24000452341E+04 0.  0.
        4    1    3    3  502    0 -0.64143442852E+03  0.73121764392E+02 -0.12796681086E+04  0.14332958521E+04  0.12699999809E+01 0.  1.
       -4    1    3    3    0  502  0.64143442852E+03 -0.73121764392E+02  0.78584676184E+03  0.10170258918E+04  0.12699999809E+01 0. -1.
</event>
<event>
 5   0  0.1275948E-06  0.2404445E+04  0.7818609E-02  0.8437841E-01
        2   -1    0    0  501    0  0.00000000000E+00  0.00000000000E+00  0.23577591596E+04  0.23577591596E+04  0.25500000920E-02 0.  1.
       -2   -1    0    0    0  501  0.00000000000E+00  0.00000000000E+00 -0.61301362560E+03  0.61301362560E+03  0.25500000920E-02 0. -1.
    10030    2    1    2    0    0  0.00000000000E+00  0.00000000000E+00  0.17447455340E+04  0.29707727852E+04  0.24044446267E+04 0.  0.
        1    1    3    3  502    0  0.11783658675E+04  0.22422208537E+03  0.77263196964E+03  0.14268082638E+04  0.50400001928E-02 0. -1.
       -1    1    3    3    0  502 -0.11783658675E+04 -0.22422208537E+03  0.97211356435E+03  0.15439645214E+04  0.50400001928E-02 0.  1.
</event>
<event>
 5   0  0.5363690E-07  0.2399147E+04  0.7818609E-02  0.8439823E-01
       -1   -1    0    0    0  501  0.00000000000E+00  0.00000000000E+00  0.92965185931E+03  0.92965185932E+03  0.50400001928E-02 0. -1.
        1   -1    0    0  501    0  0.00000000000E+00  0.00000000000E+00 -0.15478661240E+04  0.15478661240E+04  0.50400001928E-02 0.  1.
    10030    2    1    2    0    0  0.00000000000E+00  0.00000000000E+00 -0.61821426471E+03  0.24775179834E+04  0.23991470319E+04 0.  0.
        4    1    3    3  502    0  0.52074518380E+03  0.43016870996E+03 -0.13328300755E+04  0.14942082481E+04  0.12699999809E+01 0.  1.
       -4    1    3    3    0  502 -0.52074518380E+03 -0.43016870996E+03  0.71461581083E+03  0.98330973527E+03  0.12699999809E+01 0. -1.
</event>
<event>
 5   0  0.1336057E-06  0.2398914E+04  0.7818609E-02  0.8439910E-01
       -2   -1    0    0    0  501  0.00000000000E+00  0.00000000000E+00  0.16704980796E+04  0.16704980796E+04  0.25500000920E-02 0. -1.
        2   -1    0    0  501    0  0.00000000000E+00  0.00000000000E+00 -0.86123867273E+03  0.86123867274E+03  0.25500000920E-02 0.  1.
    10030    2    1    2    0    0  0.00000000000E+00  0.00000000000E+00  0.80925940691E+03  0.25317367524E+04  0.23989143786E+04 0.  0.
        2    1    3    3  502    0  0.57072083439E+03 -0.10549655412E+04  0.40968942701E+03  0.12674856963E+04  0.25500000920E-02 0.  1.
       -2    1    3    3    0  502 -0.57072083439E+03  0.10549655412E+04  0.39956997990E+03  0.12642510560E+04  0.25500000920E-02 0. -1.
</event>
<event>
 5   0  0.1308662E-06  0.2399682E+04  0.7818609E-02  0.8439623E-01
        2   -1    0    0  501    0  0.00000000000E+00  0.00000000000E+00  0.15029861305E+04  0.15029861305E+04  0.25500000920E-02 0. -1.
       -2   -1    0    0    0  501  0.00000000000E+00  0.00000000000E+00 -0.95783887333E+03  0.95783887333E+03  0.25500000920E-02 0.  1.
    10030    2    1    2    0    0  0.00000000000E+00  0.00000000000E+00  0.54514725716E+03  0.24608250038E+04  0.23996820972E+04 0.  0.
        3    1    3    3  502    0  0.87613557024E+03  0.66699621977E+03  0.76128866433E+03  0.13386776816E+04  0.10100000352E+00 0. -1.
       -3    1    3    3    0  502 -0.87613557024E+03 -0.66699621977E+03 -0.21614140717E+03  0.11221473222E+04  0.10100000352E+00 0.  1.
</event>
<event>
 5   0  0.1307477E-06  0.2400810E+04  0.7818609E-02  0.8439200E-01
       -2   -1    0    0    0  501  0.00000000000E+00  0.00000000000E+00  0.86121871973E+03  0.86121871973E+03  0.25500000920E-02 0.  1.
        2   -1    0    0  501    0  0.00000000000E+00  0.00000000000E+00 -0.16731782103E+04  0.16731782103E+04  0.25500000920E-02 0. -1.
    10030    2    1    2    0    0  0.00000000000E+00  0.00000000000E+00 -0.81195949056E+03  0.25343969300E+04  0.24008101934E+04 0.  0.
        5    1    3    3  502    0  0.31320433408E+03  0.23274778387E+03  0.79238675057E+03  0.88327081818E+03  0.46999998093E+01 0.  1.
       -5    1    3    3    0  502 -0.31320433408E+03 -0.23274778387E+03 -0.16043462411E+04  0.16511261118E+04  0.46999998093E+01 0. -1.
</event>
<event>
 5   0  0.1275948E-06  0.2400431E+04  0.7818609E-02  0.8439342E-01
       -2   -1    0    0    0  501  0.00000000000E+00  0.00000000000E+00  0.95634825219E+03  0.95634825219E+03  0.25500000920E-02 0.  1.
        2   -1    0    0  501    0  0.00000000000E+00  0.00000000000E+00 -0.15062681177E+04  0.15062681177E+04  0.25500000920E-02 0. -1.
    10030    2    1    2    0    0  0.00000000000E+00  0.00000000000E+00 -0.54991986553E+03  0.24626163699E+04  0.24004306961E+04 0.  0.
        1    1    3    3  502    0  0.72544903410E+02 -0.11103901526E+04 -0.73637573700E+03  0.13343456374E+04  0.50400001928E-02 0. -1.
       -1    1    3    3    0  502 -0.72544903410E+02  0.11103901526E+04  0.18645587147E+03  0.11282707325E+04  0.50400001928E-02 0.  1.
</event>
<event>
 5   0  0.5527286E-07  0.2400087E+04  0.7818609E-02  0.8439471E-01
        1   -1    0    0  501    0  0.00000000000E+00  0.00000000000E+00  0.23216703570E+04  0.23216703570E+04  0.50400001928E-02 0.  1.
       -1   -1    0    0    0  501  0.00000000000E+00  0.00000000000E+00 -0.62028782358E+03  0.62028782360E+03  0.50400001928E-02 0. -1.
    10030    2    1    2    0    0  0.00000000000E+00  0.00000000000E+00  0.17013825334E+04  0.29419581806E+04  0.24000865425E+04 0.  0.
        1    1    3    3  502    0 -0.33548167154E+03 -0.72463002403E+03 -0.24736159001E+03  0.83595716392E+03  0.50400001928E-02 0. -1.
       -1    1    3    3    0  502  0.33548167154E+03  0.72463002403E+03  0.19487441234E+04  0.21060010166E+04  0.50400001928E-02 0.  1.
</event>
<event>
 5   0  0.1336057E-06  0.2401479E+04  0.7818609E-02  0.8438950E-01
        2   -1    0    0  501    0  0.00000000000E+00  0.00000000000E+00  0.14098167688E+04  0.14098167688E+04  0.25500000920E-02 0.  1.
       -2   -1    0    0    0  501  0.00000000000E+00  0.00000000000E+00 -0.10226685819E+04  0.10226685819E+04  0.25500000920E-02 0. -1.
    10030    2    1    2    0    0  0.00000000000E+00  0.00000000000E+00  0.38714818689E+03  0.24324853507E+04  0.24014789740E+04 0.  0.
        2    1    3    3  502    0 -0.66966768262E+03  0.93846222616E+03  0.53347968230E+03  0.12703411851E+04  0.25500000920E-02 0.  1.
       -2    1    3    3    0  502  0.66966768262E+03 -0.93846222616E+03 -0.14633149541E+03  0.11621441656E+04  0.25500000920E-02 0. -1.
</event>
<event>
 5   0  0.5452384E-07  0.2399514E+04  0.7818609E-02  0.8439685E-01
        1   -1    0    0  501    0  0.00000000000E+00  0.00000000000E+00  0.10570424641E+04  0.10570424641E+04  0.50400001928E-02 0. -1.
       -1   -1    0    0    0  501  0.00000000000E+00  0.00000000000E+00 -0.13617400615E+04  0.13617400615E+04  0.50400001928E-02 0.  1.
    10030    2    1    2    0    0  0.00000000000E+00  0.00000000000E+00 -0.30469759734E+03  0.24187825256E+04  0.23995141759E+04 0.  0.
        5    1    3    3  502    0 -0.43570150655E+03  0.36189224461E+03 -0.12184773794E+04  0.13436930504E+04  0.46999998093E+01 0.  1.
       -5    1    3    3    0  502  0.43570150655E+03 -0.36189224461E+03  0.91377978208E+03  0.10750894752E+04  0.46999998093E+01 0. -1.
</event>
<event>
 5   0  0.1307477E-06  0.2399013E+04  0.7818609E-02  0.8439873E-01
        2   -1    0    0  501    0  0.00000000000E+00  0.00000000000E+00  0.80820259805E+03  0.80820259805E+03  0.25500000920E-02 0. -1.
       -2   -1    0    0    0  501  0.00000000000E+00  0.00000000000E+00 -0.17802668232E+04  0.17802668232E+04  0.25500000920E-02 0.  1.
    10030    2    1    2    0    0  0.00000000000E+00  0.00000000000E+00 -0.97206422513E+03  0.25884694212E+04  0.23990133570E+04 0.  0.
        5    1    3    3  502    0 -0.14233880768E+03  0.66625202150E+03  0.57917229297E+03  0.89421179106E+03  0.46999998093E+01 0. -1.
       -5    1    3    3    0  502  0.14233880768E+03 -0.66625202150E+03 -0.15512365181E+04  0.16942576302E+04  0.46999998093E+01 0.  1.
</event>
<event>
 5   0  0.5363690E-07  0.2399621E+04  0.7818609E-02  0.8439645E-01
       -1   -1    0    0    0  501  0.00000000000E+00  0.00000000000E+00  0.11504810297E+04  0.11504810298E+04  0.50400001928E-02 0.  1.
        1   -1    0    0  501    0  0.00000000000E+00  0.00000000000E+00 -0.12512549966E+04  0.12512549966E+04  0.50400001928E-02 0. -1.
    10030    2    1    2    0    0  0.00000000000E+00  0.00000000000E+00 -0.10077396688E+03  0.24017360264E+04  0.23996209176E+04 0.  0.
        4    1    3    3  502    0 -0.10114132004E+04  0.51469764754E+03  0.33940872153E+03  0.11845126523E+04  0.12699999809E+01 0.  1.
       -4    1    3    3    0  502  0.10114132004E+04 -0.51469764754E+03 -0.44018268841E+03  0.12172233741E+04  0.12699999809E+01 0. -1.
</event>
<event>
 5   0  0.1291468E-06  0.2400385E+04  0.7818609E-02  0.8439359E-01
       -2   -1    0    0    0  501  0.00000000000E+00  0.00000000000E+00  0.76335210637E+03  0.76335210637E+03  0.25500000920E-02 0.  1.
        2   -1    0    0  501    0  0.00000000000E+00  0.00000000000E+00 -0.18870224908E+04  0.18870224908E+04  0.25500000920E-02 0. -1.
    10030    2    1    2    0    0  0.00000000000E+00  0.00000000000E+00 -0.11236703844E+04  0.26503745971E+04  0.24003854633E+04 0.  0.
        4    1    3    3  502    0  0.40421249170E+03  0.76766546806E+03 -0.14775192797E+04  0.17134067946E+04  0.12699999809E+01 0. -1.
       -4    1    3    3    0  502 -0.40421249170E+03 -0.76766546806E+03  0.35384889526E+03  0.93696780248E+03  0.12699999809E+01 0.  1.
</event>
<event>
 5   0  0.5527286E-07  0.2400509E+04  0.7818609E-02  0.8439313E-01
        1   -1    0    0  501    0  0.00000000000E+00  0.00000000000E+00  0.13489310668E+04  0.13489310668E+04  0.50400001928E-02 0. -1.
       -1   -1    0    0    0  501  0.00000000000E+00  0.00000000000E+00 -0.10679651172E+04  0.10679651172E+04  0.50400001928E-02 0.  1.
    10030    2    1    2    0    0  0.00000000000E+00  0.00000000000E+00  0.28096594955E+03  0.24168961840E+04  0.24005093833E+04 0.  0.
        1    1    3    3  502    0  0.15551293357E+03  0.11461203778E+04 -0.18238527771E+03  0.11709144215E+04  0.50400001928E-02 0. -1.
       -1    1    3    3    0  502 -0.15551293357E+03 -0.11461203778E+04  0.46335122726E+03  0.12459817626E+04  0.50400001928E-02 0.  1.
</event>
<event>
 5   0  0.1275948E-06  0.2399940E+04  0.7818609E-02  0.8439526E-01
       -2   -1    0    0    0  501  0.00000000000E+00  0.00000000000E+00  0.12985399741E+04  0.12985399741E+04  0.25500000920E-02 0.  1.
        2   -1    0    0  501    0  0.00000000000E+00  0.00000000000E+00 -0.11088827457E+04  0.11088827457E+04  0.25500000920E-02 0. -1.
    10030    2    1    2    0    0  0.00000000000E+00  0.00000000000E+00  0.18965722842E+03  0.24074227198E+04  0.23999404758E+04 0.  0.
        1    1    3    3  502    0  0.26332195311E+03 -0.10402626925E+04 -0.44391529937E+03  0.11612690100E+04  0.50400001928E-02 0. -1.
       -1    1    3    3    0  502 -0.26332195311E+03  0.10402626925E+04  0.63357252779E+03  0.12461537098E+04  0.50400001928E-02 0.  1.
</event>
<event>
 5   0  0.5363690E-07  0.2400481E+04  0.7818609E-02  0.8439324E-01
        1   -1    0    0  501    0  0.00000000000E+00  0.00000000000E+00  0.26605348948E+04  0.26605348948E+04  0.50400001928E-02 0.  1.
       -1   -1    0    0    0  501  0.00000000000E+00  0.00000000000E+00 -0.54146141733E+03  0.54146141736E+03  0.50400001928E-02 0. -1.
    10030    2    1    2    0    0  0.00000000000E+00  0.00000000000E+00  0.21190734775E+04  0.32019963122E+04  0.24004807811E+04 0.  0.
        4    1    3    3  502    0 -0.27139170223E+02  0.27724179891E+03 -0.49774313848E+03  0.57039406942E+03  0.12699999809E+01 0. -1.
       -4    1    3    3    0  502  0.27139170223E+02 -0.27724179891E+03  0.26168166160E+04  0.26316022428E+04  0.12699999809E+01 0.  1.
</event>
<event>
 5   0  0.1308662E-06  0.2400921E+04  0.7818609E-02  0.8439159E-01
        2   -1    0    0  501    0  0.00000000000E+00  0.00000000000E+00  0.18245526000E+04  0.18245526000E+04  0.25500000920E-02 0.  1.
       -2   -1    0    0    0  501  0.00000000000E+00  0.00000000000E+00 -0.78984030984E+03  0.78984030985E+03  0.25500000920E-02 0. -1.
    10030    2    1    2    0    0  0.00000000000E+00  0.00000000000E+00  0.10347122901E+04  0.26143929098E+04  0.24009208158E+04 0.  0.
        3    1    3    3  502    0 -0.98978132529E+03 -0.20195242218E+03 -0.18888852735E+03  0.10276822168E+04  0.10100000352E+00 0. -1.
       -3    1    3    3    0  502  0.98978132529E+03  0.20195242218E+03  0.12236008175E+04  0.15867106931E+04  0.10100000352E+00 0.  1.
</event>
<event>
 5   0  0.5510176E-07  0.2400087E+04  0.7818609E-02  0.8439471E-01
        1   -1    0    0  501    0  0.00000000000E+00  0.00000000000E+00  0.20252343645E+04  0.20252343645E+04  0.50400001928E-02 0.  1.
       -1   -1    0    0    0  501  0.00000000000E+00  0.00000000000E+00 -0.71108048451E+03  0.71108048453E+03  0.50400001928E-02 0. -1.
    10030    2    1    2    0    0  0.00000000000E+00  0.00000000000E+00  0.13141538800E+04  0.27363148491E+04  0.24000871928E+04 0.  0.
        3    1    3    3  502    0 -0.73262078817E+03 -0.92537784974E+03  0.90436669165E+03  0.14869218228E+04  0.10100000352E+00 0.  1.
       -3    1    3    3    0  502  0.73262078817E+03  0.92537784974E+03  0.40978718837E+03  0.12493930262E+04  0.10100000352E+00 0. -1.
</event>
<event>
 5   0  0.1275948E-06  0.2401577E+04  0.7818609E-02  0.8438913E-01
        2   -1    0    0  501    0  0.00000000000E+00  0.00000000000E+00  0.21890287039E+04  0.21890287039E+04  0.25500000920E-02 0. -1.
       -2   -1    0    0    0  501  0.00000000000E+00  0.00000000000E+00 -0.65869097007E+03  0.65869097007E+03  0.25500000920E-02 0.  1.
    10030    2    1    2    0    0  0.00000000000E+00  0.00000000000E+00  0.15303377339E+04  0.28477196740E+04  0.24015773488E+04 0.  0.
        1    1    3    3  502    0  0.94799529544E+03  0.38413391982E+03  0.15110171163E+04  0.18246716620E+04  0.50400001928E-02 0.  1.
       -1    1    3    3    0  502 -0.94799529544E+03 -0.38413391982E+03  0.19320617609E+02  0.10230480120E+04  0.50400001928E-02 0. -1.
</event>
<event>
 5   0  0.5363690E-07  0.2400604E+04  0.7818609E-02  0.8439277E-01
        1   -1    0    0  501    0  0.00000000000E+00  0.00000000000E+00  0.16999344602E+04  0.16999344602E+04  0.50400001928E-02 0.  1.
       -1   -1    0    0    0  501  0.00000000000E+00  0.00000000000E+00 -0.84751796582E+03  0.84751796583E+03  0.50400001928E-02 0. -1.
    10030    2    1    2    0    0  0.00000000000E+00  0.00000000000E+00  0.85241649434E+03  0.25474524260E+04  0.24006040871E+04 0.  0.
        4    1    3    3  502    0  0.79079550596E+03  0.88022671763E+03  0.63994085703E+03  0.13452444090E+04  0.12699999809E+01 0.  1.
       -4    1    3    3    0  502 -0.79079550596E+03 -0.88022671763E+03  0.21247563731E+03  0.12022080170E+04  0.12699999809E+01 0. -1.
</event>
<event>
 5   0  0.1308662E-06  0.2399276E+04  0.7818609E-02  0.8439775E-01
       -2   -1    0    0    0  501  0.00000000000E+00  0.00000000000E+00  0.16833583067E+04  0.16833583067E+04  0.25500000920E-02 0. -1.
        2   -1    0    0  501    0  0.00000000000E+00  0.00000000000E+00 -0.85491648046E+03  0.85491648046E+03  0.25500000920E-02 0.  1.
    10030    2    1    2    0    0  0.00000000000E+00  0.00000000000E+00  0.82844182625E+03  0.25382747872E+04  0.23992755231E+04 0.  0.
        3    1    3    3  502    0 -0.76046218466E+03  0.55836477852E+02 -0.56555966365E+03  0.94935672427E+03  0.10100000352E+00 0.  1.
       -3    1    3    3    0  502  0.76046218466E+03 -0.55836477852E+02  0.13940014899E+04  0.15889180629E+04  0.10100000352E+00 0. -1.
</event>
<event>
 5   0  0.5363690E-07  0.2401575E+04  0.7818609E-02  0.8438914E-01
        1   -1    0    0  501    0  0.00000000000E+00  0.00000000000E+00  0.21263334406E+04  0.21263334406E+04  0.50400001928E-02 0.  1.
       -1   -1    0    0    0  501  0.00000000000E+00  0.00000000000E+00 -0.67811138844E+03  0.67811138845E+03  0.50400001928E-02 0. -1.
    10030    2    1    2    0    0  0.00000000000E+00  0.00000000000E+00  0.14482220522E+04  0.28044448291E+04  0.24015752512E+04 0.  0.
        4    1    3    3  502    0 -0.84350697413E+03  0.42061064504E+03  0.15928684331E+04  0.18508508282E+04  0.12699999809E+01 0.  1.
       -4    1    3    3    0  502  0.84350697413E+03 -0.42061064504E+03 -0.14464638092E+03  0.95359400089E+03  0.12699999809E+01 0. -1.
</event>
<event>
 5   0  0.4483375E-07  0.2400767E+04  0.7818609E-02  0.8439217E-01
        3   -1    0    0  501    0  0.00000000000E+00  0.00000000000E+00  0.87983568454E+03  0.87983569033E+03  0.10100000352E+00 0.  1.
       -3   -1    0    0    0  501  0.00000000000E+00  0.00000000000E+00 -0.16377149526E+04  0.16377149557E+04  0.10100000352E+00 0. -1.
    10030    2    1    2    0    0  0.00000000000E+00  0.00000000000E+00 -0.75787926806E+03  0.25175506460E+04  0.24007666006E+04 0.  0.
        2    1    3    3  502    0  0.59438159802E+02 -0.11326704771E+04 -0.79105126241E+03  0.13828367236E+04  0.25500000920E-02 0. -1.
       -2    1    3    3    0  502 -0.59438159802E+02  0.11326704771E+04  0.33171994349E+02  0.11347139224E+04  0.25500000920E-02 0.  1.
</event>
<event>
 5   0  0.5363690E-07  0.2400606E+04  0.7818609E-02  0.8439277E-01
        1   -1    0    0  501    0  0.00000000000E+00  0.00000000000E+00  0.20878729902E+04  0.20878729902E+04  0.50400001928E-02 0.  1.
       -1   -1    0    0    0  501  0.00000000000E+00  0.00000000000E+00 -0.69004519719E+03  0.69004519721E+03  0.50400001928E-02 0. -1.
    10030    2    1    2    0    0  0.00000000000E+00  0.00000000000E+00  0.13978277930E+04  0.27779181874E+04  0.24006055313E+04 0.  0.
        4    1    3    3  502    0  0.10649420205E+04  0.27143586498E+02  0.13389125226E+04  0.17110016474E+04  0.12699999809E+01 0.  1.
       -4    1    3    3    0  502 -0.10649420205E+04 -0.27143586498E+02  0.58915270361E+02  0.10669165400E+04  0.12699999809E+01 0. -1.
</event>
<event>
 5   0  0.5452384E-07  0.2400678E+04  0.7818609E-02  0.8439250E-01
       -1   -1    0    0    0  501  0.00000000000E+00  0.00000000000E+00  0.95540527868E+03  0.95540527869E+03  0.50400001928E-02 0.  1.
        1   -1    0    0  501    0  0.00000000000E+00  0.00000000000E+00 -0.15080659680E+04  0.15080659680E+04  0.50400001928E-02 0. -1.
    10030    2    1    2    0    0  0.00000000000E+00  0.00000000000E+00 -0.55266068930E+03  0.24634712467E+04  0.24006783928E+04 0.  0.
        5    1    3    3  502    0  0.29485722731E+03  0.10807357616E+04 -0.71872336119E+03  0.13309830693E+04  0.46999998093E+01 0. -1.
       -5    1    3    3    0  502 -0.29485722731E+03 -0.10807357616E+04  0.16606267188E+03  0.11324881774E+04  0.46999998093E+01 0.  1.
</event>
<event>
 5   0  0.1336057E-06  0.2400109E+04  0.7818609E-02  0.8439463E-01
        2   -1    0    0  501    0  0.00000000000E+00  0.00000000000E+00  0.13880836212E+04  0.13880836212E+04  0.25500000920E-02 0.  1.
       -2   -1    0    0    0  501  0.00000000000E+00  0.00000000000E+00 -0.10374954417E+04  0.10374954417E+04  0.25500000920E-02 0. -1.
    10030    2    1    2    0    0  0.00000000000E+00  0.00000000000E+00  0.35058817944E+03  0.24255790629E+04  0.24001086890E+04 0.  0.
        2    1    3    3  502    0 -0.41750204007E+03  0.10732482065E+04 -0.16586912754E+03  0.11634785059E+04  0.25500000920E-02 0. -1.
       -2    1    3    3    0  502  0.41750204007E+03 -0.10732482065E+04  0.51645730698E+03  0.12621005570E+04  0.25500000920E-02 0.  1.
</event>
<event>
 5   0  0.1291468E-06  0.2399684E+04  0.7818609E-02  0.8439622E-01
       -2   -1    0    0    0  501  0.00000000000E+00  0.00000000000E+00  0.84396545774E+03  0.84396545775E+03  0.25500000920E-02 0.  1.
        2   -1    0    0  501    0  0.00000000000E+00  0.00000000000E+00 -0.17057814073E+04  0.17057814073E+04  0.25500000920E-02 0. -1.
    10030    2    1    2    0    0  0.00000000000E+00  0.00000000000E+00 -0.86181594954E+03  0.25497468650E+04  0.23996838010E+04 0.  0.
        4    1    3    3  502    0  0.75818502514E+03 -0.72169585380E+03  0.19222076665E+03  0.10642555491E+04  0.12699999809E+01 0. -1.
       -4    1    3    3    0  502 -0.75818502514E+03  0.72169585380E+03 -0.10540367162E+04  0.14854913159E+04  0.12699999809E+01 0.  1.
</event>
<event>
 5   0  0.1307477E-06  0.2399367E+04  0.7818609E-02  0.8439741E-01
        2   -1    0    0  501    0  0.00000000000E+00  0.00000000000E+00  0.19530417206E+04  0.19530417206E+04  0.25500000920E-02 0. -1.
       -2   -1    0    0    0  501  0.00000000000E+00  0.00000000000E+00 -0.73692266246E+03  0.73692266247E+03  0.25500000920E-02 0.  1.
    10030    2    1    2    0    0  0.00000000000E+00  0.00000000000E+00  0.12161190581E+04  0.26899643831E+04  0.23993671705E+04 0.  0.
        5    1    3    3  502    0  0.76621827237E+03  0.68093329406E+03  0.13068096001E+04  0.16608835037E+04  0.46999998093E+01 0.  1.
       -5    1    3    3    0  502 -0.76621827237E+03 -0.68093329406E+03 -0.90690542002E+02  0.10290808794E+04  0.46999998093E+01 0. -1.
</event>
<event>
 5   0  0.1307477E-06  0.2399477E+04  0.7818609E-02  0.8439699E-01
        2   -1    0    0  501    0  0.00000000000E+00  0.00000000000E+00  0.19648191223E+04  0.19648191223E+04  0.25500000920E-02 0.  1.
       -2   -1    0    0    0  501  0.00000000000E+00  0.00000000000E+00 -0.73257253527E+03  0.73257253528E+03  0.25500000920E-02 0. -1.
    10030    2    1    2    0    0  0.00000000000E+00  0.00000000000E+00  0.12322465870E+04  0.26973916575E+04  0.23994770478E+04 0.  0.
        5    1    3    3  502    0  0.82264581172E+03 -0.87312903032E+03  0.63389781646E+03  0.13568157454E+04  0.46999998093E+01 0. -1.
       -5    1    3    3    0  502 -0.82264581172E+03  0.87312903032E+03  0.59834877052E+03  0.13405759122E+04  0.46999998093E+01 0.  1.
</event>
<event>
 5   0  0.5363690E-07  0.2398624E+04  0.7818609E-02  0.8440019E-01
        1   -1    0    0  501    0  0.00000000000E+00  0.00000000000E+00  0.18790202977E+04  0.18790202977E+04  0.50400001928E-02 0. -1.
       -1   -1    0    0    0  501  0.00000000000E+00  0.00000000000E+00 -0.76547807539E+03  0.76547807540E+03  0.50400001928E-02 0.  1.
    10030    2    1    2    0    0  0.00000000000E+00  0.00000000000E+00  0.11135422223E+04  0.26444983731E+04  0.23986236396E+04 0.  0.
        4    1    3    3  502    0 -0.10991992567E+04 -0.45052269561E+03  0.73839220926E+03  0.13987259820E+04  0.12699999809E+01 0. -1.
       -4    1    3    3    0  502  0.10991992567E+04  0.45052269561E+03  0.37515001304E+03  0.12457723911E+04  0.12699999809E+01 0.  1.
</event>
<event>
 5   0  0.5527286E-07  0.2399990E+04  0.7818609E-02  0.8439507E-01
        1   -1    0    0  501    0  0.00000000000E+00  0.00000000000E+00  0.11847287175E+04  0.11847287175E+04  0.50400001928E-02 0.  1.
       -1   -1    0    0    0  501  0.00000000000E+00  0.00000000000E+00 -0.12154579016E+04  0.12154579016E+04  0.50400001928E-02 0. -1.
    10030    2    1    2    0    0  0.00000000000E+00  0.00000000000E+00 -0.30729184077E+02  0.24001866191E+04  0.23999899008E+04 0.  0.
        1    1    3    3  502    0 -0.10945045981E+04  0.46019074533E+03 -0.18936748372E+03  0.12023210392E+04  0.50400001928E-02 0.  1.
       -1    1    3    3    0  502  0.10945045981E+04 -0.46019074533E+03  0.15863829965E+03  0.11978655799E+04  0.50400001928E-02 0. -1.
</event>
<event>
 5   0  0.1308662E-06  0.2401517E+04  0.7818609E-02  0.8438936E-01
       -2   -1    0    0    0  501  0.00000000000E+00  0.00000000000E+00  0.12056274193E+04  0.12056274193E+04  0.25500000920E-02 0.  1.
        2   -1    0    0  501    0  0.00000000000E+00  0.00000000000E+00 -0.11959092728E+04  0.11959092728E+04  0.25500000920E-02 0. -1.
    10030    2    1    2    0    0  0.00000000000E+00  0.00000000000E+00  0.97181465281E+01  0.24015366921E+04  0.24015170291E+04 0.  0.
        3    1    3    3  502    0 -0.68146457987E+02 -0.81859725276E+03 -0.87097661876E+03  0.11972241572E+04  0.10100000352E+00 0. -1.
       -3    1    3    3    0  502  0.68146457987E+02  0.81859725276E+03  0.88069476528E+03  0.12043125349E+04  0.10100000352E+00 0.  1.
</event>
<event>
 5   0  0.1275948E-06  0.2400122E+04  0.7818609E-02  0.8439458E-01
        2   -1    0    0  501    0  0.00000000000E+00  0.00000000000E+00  0.17432528927E+04  0.17432528927E+04  0.25500000920E-02 0.  1.
       -2   -1    0    0    0  501  0.00000000000E+00  0.00000000000E+00 -0.82612614672E+03  0.82612614673E+03  0.25500000920E-02 0. -1.
    10030    2    1    2    0    0  0.00000000000E+00  0.00000000000E+00  0.91712674602E+03  0.25693790395E+04  0.24001223261E+04 0.  0.
        1    1    3    3  502    0 -0.12201985235E+03 -0.31681775383E+03  0.16907707470E+04  0.17245196584E+04  0.50400001928E-02 0.  1.
       -1    1    3    3    0  502  0.12201985235E+03  0.31681775383E+03 -0.77364400094E+03  0.84485938104E+03  0.50400001928E-02 0. -1.
</event>
<event>
 5   0  0.1307477E-06  0.2398282E+04  0.7818609E-02  0.8440147E-01
        2   -1    0    0  501    0  0.00000000000E+00  0.00000000000E+00  0.53465870481E+03  0.53465870482E+03  0.25500000920E-02 0.  1.
       -2   -1    0    0    0  501  0.00000000000E+00  0.00000000000E+00 -0.26894521094E+04  0.26894521094E+04  0.25500000920E-02 0. -1.
    10030    2    1    2    0    0  0.00000000000E+00  0.00000000000E+00 -0.21547934046E+04  0.32241108143E+04  0.23982818696E+04 0.  0.
        5    1    3    3  502    0  0.38883752827E+03 -0.87447258417E+03 -0.20486964898E+04  0.22612112509E+04  0.46999998093E+01 0. -1.
       -5    1    3    3    0  502 -0.38883752827E+03  0.87447258417E+03 -0.10609691485E+03  0.96289956340E+03  0.46999998093E+01 0.  1.
</event>
<event>
 5   0  0.5510176E-07  0.2397884E+04  0.7818609E-02  0.8440296E-01
        1   -1    0    0  501    0  0.00000000000E+00  0.00000000000E+00  0.17743489594E+04  0.17743489594E+04  0.50400001928E-02 0.  1.
       -1   -1    0    0    0  501  0.00000000000E+00  0.00000000000E+00 -0.81013469204E+03  0.81013469205E+03  0.50400001928E-02 0. -1.
    10030    2    1    2    0    0  0.00000000000E+00  0.00000000000E+00  0.96421426735E+03  0.25844836514E+04  0.23978837735E+04 0.  0.
        3    1    3    3  502    0  0.58202755345E+03 -0.10279383389E+04  0.70312127761E+03  0.13746973641E+04  0.10100000352E+00 0.  1.
       -3    1    3    3    0  502 -0.58202755345E+03  0.10279383389E+04  0.26109298974E+03  0.12097862874E+04  0.10100000352E+00 0. -1.
</event>
<event>
 5   0  0.1336057E-06  0.2400317E+04  0.7818609E-02  0.8439385E-01
        2   -1    0    0  501    0  0.00000000000E+00  0.00000000000E+00  0.20497759728E+04  0.20497759728E+04  0.25500000920E-02 0.  1.
       -2   -1    0    0    0  501  0.00000000000E+00  0.00000000000E+00 -0.70270123783E+03  0.70270123784E+03  0.25500000920E-02 0. -1.
    10030    2    1    2    0    0  0.00000000000E+00  0.00000000000E+00  0.13470747350E+04  0.27524772107E+04  0.24003167403E+04 0.  0.
        2    1    3    3  502    0  0.56488563357E+03 -0.26159303709E+02 -0.54035586955E+03  0.78215379174E+03  0.25500000920E-02 0. -1.
       -2    1    3    3    0  502 -0.56488563357E+03  0.26159303709E+02  0.18874306045E+04  0.19703234189E+04  0.25500000920E-02 0.  1.
</event>
<event>
 5   0  0.5527286E-07  0.2399785E+04  0.7818609E-02  0.8439584E-01
        1   -1    0    0  501    0  0.00000000000E+00  0.00000000000E+00  0.11437398298E+04  0.11437398299E+04  0.50400001928E-02 0. -1.
       -1   -1    0    0    0  501  0.00000000000E+00  0.00000000000E+00 -0.12588021043E+04  0.12588021043E+04  0.50400001928E-02 0.  1.
    10030    2    1    2    0    0  0.00000000000E+00  0.00000000000E+00 -0.11506227450E+03  0.24025419342E+04  0.23997850776E+04 0.  0.
        1    1    3    3  502    0 -0.68076302589E+03 -0.22448346855E+03 -0.10208792373E+04  0.12474075285E+04  0.50400001928E-02 0.  1.
       -1    1    3    3    0  502  0.68076302589E+03  0.22448346855E+03  0.90581696279E+03  0.11551344057E+04  0.50400001928E-02 0. -1.
</event>
<event>
 5   0  0.1308662E-06  0.2399595E+04  0.7818609E-02  0.8439655E-01
       -2   -1    0    0    0  501  0.00000000000E+00  0.00000000000E+00  0.15404956955E+04  0.15404956955E+04  0.25500000920E-02 0.  1.
        2   -1    0    0  501    0  0.00000000000E+00  0.00000000000E+00 -0.93444878987E+03  0.93444878987E+03  0.25500000920E-02 0. -1.
    10030    2    1    2    0    0  0.00000000000E+00  0.00000000000E+00  0.60604690564E+03  0.24749444854E+04  0.23995952479E+04 0.  0.
        3    1    3    3  502    0 -0.58741713509E+03  0.79815314924E+03 -0.39453220612E+03  0.10666597452E+04  0.10100000352E+00 0. -1.
       -3    1    3    3    0  502  0.58741713509E+03 -0.79815314924E+03  0.10005791118E+04  0.14082847401E+04  0.10100000352E+00 0.  1.
</event>
<event>
 5   0  0.1336057E-06  0.2400930E+04  0.7818609E-02  0.8439156E-01
       -2   -1    0    0    0  501  0.00000000000E+00  0.00000000000E+00  0.77850057950E+03  0.77850057951E+03  0.25500000920E-02 0. -1.
        2   -1    0    0  501    0  0.00000000000E+00  0.00000000000E+00 -0.18511430171E+04  0.18511430171E+04  0.25500000920E-02 0.  1.
    10030    2    1    2    0    0  0.00000000000E+00  0.00000000000E+00 -0.10726424376E+04  0.26296435966E+04  0.24009297462E+04 0.  0.
        2    1    3    3  502    0  0.19958308108E+03 -0.22765505593E+03  0.73599994676E+03  0.79583676239E+03  0.25500000920E-02 0. -1.
       -2    1    3    3    0  502 -0.19958308108E+03  0.22765505593E+03 -0.18086423843E+04  0.18338068342E+04  0.25500000920E-02 0.  1.
</event>
<event>
 5   0  0.5527286E-07  0.2401345E+04  0.7818609E-02  0.8439000E-01
       -1   -1    0    0    0  501  0.00000000000E+00  0.00000000000E+00  0.94357953360E+03  0.94357953361E+03  0.50400001928E-02 0. -1.
        1   -1    0    0  501    0  0.00000000000E+00  0.00000000000E+00 -0.15278149691E+04  0.15278149691E+04  0.50400001928E-02 0.  1.
    10030    2    1    2    0    0  0.00000000000E+00  0.00000000000E+00 -0.58423543550E+03  0.24713945027E+04  0.24013454029E+04 0.  0.
        1    1    3    3  502    0  0.65500145065E+03  0.96283711347E+03 -0.59310878527E+03  0.13068512687E+04  0.50400001928E-02 0.  1.
       -1    1    3    3    0  502 -0.65500145065E+03 -0.96283711347E+03  0.88733497648E+01  0.11645432340E+04  0.50400001928E-02 0. -1.
</event>
<event>
 5   0  0.1307477E-06  0.2400578E+04  0.7818609E-02  0.8439287E-01
        2   -1    0    0  501    0  0.00000000000E+00  0.00000000000E+00  0.25463171944E+04  0.25463171944E+04  0.25500000920E-02 0.  1.
       -2   -1    0    0    0  501  0.00000000000E+00  0.00000000000E+00 -0.56579514546E+03  0.56579514547E+03  0.25500000920E-02 0. -1.
    10030    2    1    2    0    0  0.00000000000E+00  0.00000000000E+00  0.19805220489E+04  0.31121123398E+04  0.24005781865E+04 0.  0.
        5    1    3    3  502    0 -0.45485966371E+03  0.62293200834E+03  0.21824780896E+04  0.23147730563E+04  0.46999998093E+01 0.  1.
       -5    1    3    3    0  502  0.45485966371E+03 -0.62293200834E+03 -0.20195604069E+03  0.79733928353E+03  0.46999998093E+01 0. -1.
</event>
<event>
 5   0  0.1336057E-06  0.2400344E+04  0.7818609E-02  0.8439375E-01
        2   -1    0    0  501    0  0.00000000000E+00  0.00000000000E+00  0.22969322909E+04  0.22969322909E+04  0.25500000920E-02 0. -1.
       -2   -1    0    0    0  501  0.00000000000E+00  0.00000000000E+00 -0.62710283872E+03  0.62710283872E+03  0.25500000920E-02 0.  1.
    10030    2    1    2    0    0  0.00000000000E+00  0.00000000000E+00  0.16698294522E+04  0.29240351296E+04  0.24003439420E+04 0.  0.
        2    1    3    3  502    0 -0.87794473208E+03 -0.20970855794E+03  0.17984645693E+04  0.20122722080E+04  0.25500000920E-02 0. -1.
       -2    1    3    3    0  502  0.87794473208E+03  0.20970855794E+03 -0.12863511717E+03  0.91176292162E+03  0.25500000920E-02 0.  1.
</event>
<event>
 5   0  0.1307477E-06  0.2399614E+04  0.7818609E-02  0.8439648E-01
        2   -1    0    0  501    0  0.00000000000E+00  0.00000000000E+00  0.77321667442E+03  0.77321667443E+03  0.25500000920E-02 0. -1.
       -2   -1    0    0    0  501  0.00000000000E+00  0.00000000000E+00 -0.18617507493E+04  0.18617507493E+04  0.25500000920E-02 0.  1.
    10030    2    1    2    0    0  0.00000000000E+00  0.00000000000E+00 -0.10885340748E+04  0.26349674237E+04  0.23996139047E+04 0.  0.
        5    1    3    3  502    0 -0.11094977432E+04 -0.83946393307E+02 -0.10371597890E+04  0.15211031382E+04  0.46999998093E+01 0. -1.
       -5    1    3    3    0  502  0.11094977432E+04  0.83946393307E+02 -0.51374285871E+02  0.11138642855E+04  0.46999998093E+01 0.  1.
</event>
<event>
 5   0  0.5527286E-07  0.2398105E+04  0.7818609E-02  0.8440213E-01
        1   -1    0    0  501    0  0.00000000000E+00  0.00000000000E+00  0.12900077209E+04  0.12900077209E+04  0.50400001928E-02 0.  1.
       -1   -1    0    0    0  501  0.00000000000E+00  0.00000000000E+00 -0.11145099552E+04  0.11145099552E+04  0.50400001928E-02 0. -1.
    10030    2    1    2    0    0  0.00000000000E+00  0.00000000000E+00  0.17549776573E+03  0.24045176761E+04  0.23981046242E+04 0.  0.
        1    1    3    3  502    0 -0.10664622751E+04  0.33401399380E+03 -0.34794659876E+03  0.11704588707E+04  0.50400001928E-02 0. -1.
       -1    1    3    3    0  502  0.10664622751E+04 -0.33401399380E+03  0.52344436449E+03  0.12340588054E+04  0.50400001928E-02 0.  1.
</event>
<event>
 5   0  0.1291468E-06  0.2400349E+04  0.7818609E-02  0.8439373E-01
        2   -1    0    0  501    0  0.00000000000E+00  0.00000000000E+00  0.24570547994E+04  0.24570547994E+04  0.25500000920E-02 0. -1.
       -2   -1    0    0    0  501  0.00000000000E+00  0.00000000000E+00 -0.58623819999E+03  0.58623819999E+03  0.25500000920E-02 0.  1.
    10030    2    1    2    0    0  0.00000000000E+00  0.00000000000E+00  0.18708165994E+04  0.30432929994E+04  0.24003494603E+04 0.  0.
        4    1    3    3  502    0 -0.10049401404E+04 -0.56036574212E+03  0.50265693894E+03  0.12556193938E+04  0.12699999809E+01 0. -1.
       -4    1    3    3    0  502  0.10049401404E+04  0.56036574212E+03  0.13681596604E+04  0.17876736056E+04  0.12699999809E+01 0.  1.
</event>
<event>
 5   0  0.1308662E-06  0.2398635E+04  0.7818609E-02  0.8440015E-01
        2   -1    0    0  501    0  0.00000000000E+00  0.00000000000E+00  0.14460209748E+04  0.14460209748E+04  0.25500000920E-02 0.  1.
       -2   -1    0    0    0  501  0.00000000000E+00  0.00000000000E+00 -0.99470388167E+03  0.99470388168E+03  0.25500000920E-02 0. -1.
    10030    2    1    2    0    0  0.00000000000E+00  0.00000000000E+00  0.45131709308E+03  0.24407248564E+04  0.23986351757E+04 0.  0.
        3    1    3    3  502    0 -0.67158509923E+03 -0.45209574228E+03  0.11260272876E+04  0.13868505933E+04  0.10100000352E+00 0.  1.
       -3    1    3    3    0  502  0.67158509923E+03  0.45209574228E+03 -0.67471019448E+03  0.10538742631E+04  0.10100000352E+00 0. -1.
</event>
<event>
 5   0  0.1307477E-06  0.2400093E+04  0.7818609E-02  0.8439469E-01
       -2   -1    0    0    0  501  0.00000000000E+00  0.00000000000E+00  0.88312369017E+03  0.88312369017E+03  0.25500000920E-02 0. -1.
        2   -1    0    0  501    0  0.00000000000E+00  0.00000000000E+00 -0.16307022936E+04  0.16307022936E+04  0.25500000920E-02 0.  1.
    10030    2    1    2    0    0  0.00000000000E+00  0.00000000000E+00 -0.74757860339E+03  0.25138259837E+04  0.24000931874E+04 0.  0.
        5    1    3    3  502    0 -0.87552841354E+03 -0.59612371410E+03  0.21701137943E+03  0.10812166824E+04  0.46999998093E+01 0. -1.
       -5    1    3    3    0  502  0.87552841354E+03  0.59612371410E+03 -0.96458998283E+03  0.14326093014E+04  0.46999998093E+01 0.  1.
</event>
<event>
 5   0  0.1308662E-06  0.2399820E+04  0.7818609E-02  0.8439571E-01
       -2   -1    0    0    0  501  0.00000000000E+00  0.00000000000E+00  0.10533920920E+04  0.10533920920E+04  0.25500000920E-02 0. -1.
        2   -1    0    0  501    0  0.00000000000E+00  0.00000000000E+00 -0.13668076874E+04  0.13668076874E+04  0.25500000920E-02 0.  1.
    10030    2    1    2    0    0  0.00000000000E+00  0.00000000000E+00 -0.31341559540E+03  0.24201997795E+04  0.23998203343E+04 0.  0.
        3    1    3    3  502    0 -0.20909257314E+02  0.26504911572E+03 -0.13367280625E+04  0.13629123794E+04  0.10100000352E+00 0.  1.
       -3    1    3    3    0  502  0.20909257314E+02 -0.26504911572E+03  0.10233124671E+04  0.10572874000E+04  0.10100000352E+00 0. -1.
</event>
<event>
 5   0  0.5510176E-07  0.2401886E+04  0.7818609E-02  0.8438798E-01
       -1   -1    0    0    0  501  0.00000000000E+00  0.00000000000E+00  0.73411163979E+03  0.73411163981E+03  0.50400001928E-02 0.  1.
        1   -1    0    0  501    0  0.00000000000E+00  0.00000000000E+00 -0.19646386656E+04  0.19646386656E+04  0.50400001928E-02 0. -1.
    10030    2    1    2    0    0  0.00000000000E+00  0.00000000000E+00 -0.12305270258E+04  0.26987503054E+04  0.24018860193E+04 0.  0.
        3    1    3    3  502    0  0.60738734125E+03  0.46581764142E+03 -0.16550355972E+04  0.18234714957E+04  0.10100000352E+00 0. -1.
       -3    1    3    3    0  502 -0.60738734125E+03 -0.46581764142E+03  0.42450857139E+03  0.87527880973E+03  0.10100000352E+00 0.  1.
</event>
<event>
 5   0  0.5510176E-07  0.2401766E+04  0.7818609E-02  0.8438843E-01
       -1   -1    0    0    0  501  0.00000000000E+00  0.00000000000E+00  0.14033809352E+04  0.14033809352E+04  0.50400001928E-02 0. -1.
        1   -1    0    0  501    0  0.00000000000E+00  0.00000000000E+00 -0.10276037090E+04  0.10276037090E+04  0.50400001928E-02 0.  1.
    10030    2    1    2    0    0  0.00000000000E+00  0.00000000000E+00  0.37577722620E+03  0.24309846442E+04  0.24017655623E+04 0.  0.
        3    1    3    3  502    0 -0.42673162562E+03 -0.11203476344E+04  0.11746674304E+03  0.12046066363E+04  0.10100000352E+00 0. -1.
       -3    1    3    3    0  502  0.42673162562E+03  0.11203476344E+04  0.25831048316E+03  0.12263780079E+04  0.10100000352E+00 0.  1.
</event>
<event>
 5   0  0.1291468E-06  0.2399551E+04  0.7818609E-02  0.8439672E-01
        2   -1    0    0  501    0  0.00000000000E+00  0.00000000000E+00  0.10705631104E+04  0.10705631104E+04  0.25500000920E-02 0.  1.
       -2   -1    0    0    0  501  0.00000000000E+00  0.00000000000E+00 -0.13445830930E+04  0.13445830930E+04  0.25500000920E-02 0. -1.
    10030    2    1    2    0    0  0.00000000000E+00  0.00000000000E+00 -0.27401998259E+03  0.24151462034E+04  0.23995508399E+04 0.  0.
        4    1    3    3  502    0  0.28355304857E+03  0.90329965780E+03  0.60473753666E+03  0.11234151967E+04  0.12699999809E+01 0.  1.
       -4    1    3    3    0  502 -0.28355304857E+03 -0.90329965780E+03 -0.87875751925E+03  0.12917310067E+04  0.12699999809E+01 0. -1.
</event>
<event>
 5   0  0.5452384E-07  0.2398791E+04  0.7818609E-02  0.8439956E-01
       -1   -1    0    0    0  501  0.00000000000E+00  0.00000000000E+00  0.12011355451E+04  0.12011355451E+04  0.50400001928E-02 0. -1.
        1   -1    0    0  501    0  0.00000000000E+00  0.00000000000E+00 -0.11976579104E+04  0.11976579104E+04  0.50400001928E-02 0.  1.
    10030    2    1    2    0    0  0.00000000000E+00  0.00000000000E+00  0.34776346989E+01  0.23987934555E+04  0.23987909347E+04 0.  0.
        5    1    3    3  502    0 -0.66832800291E+03 -0.89007089051E+03 -0.44507132920E+03  0.11987489678E+04  0.46999998093E+01 0.  1.
       -5    1    3    3    0  502  0.66832800291E+03  0.89007089051E+03  0.44854896390E+03  0.12000444878E+04  0.46999998093E+01 0. -1.
</event>
<event>
 5   0  0.4483375E-07  0.2393491E+04  0.7818609E-02  0.8441945E-01
       -3   -1    0    0    0  501  0.00000000000E+00  0.00000000000E+00  0.13631826343E+04  0.13631826381E+04  0.10100000352E+00 0. -1.
        3   -1    0    0  501    0  0.00000000000E+00  0.00000000000E+00 -0.10506291657E+04  0.10506291705E+04  0.10100000352E+00 0.  1.
    10030    2    1    2    0    0  0.00000000000E+00  0.00000000000E+00  0.31255346866E+03  0.24138118086E+04  0.23934907095E+04 0.  0.
        5    1    3    3  502    0 -0.11816061388E+04  0.18936098322E+03  0.14492483389E+03  0.12054359986E+04  0.46999998093E+01 0. -1.
       -5    1    3    3    0  502  0.11816061388E+04 -0.18936098322E+03  0.16762863476E+03  0.12083758101E+04  0.46999998093E+01 0.  1.
</event>
<event>
 5   0  0.5510176E-07  0.2401550E+04  0.7818609E-02  0.8438923E-01
       -1   -1    0    0    0  501  0.00000000000E+00  0.00000000000E+00  0.99990308252E+03  0.99990308253E+03  0.50400001928E-02 0. -1.
        1   -1    0    0  501    0  0.00000000000E+00  0.00000000000E+00 -0.14420006039E+04  0.14420006039E+04  0.50400001928E-02 0.  1.
    10030    2    1    2    0    0  0.00000000000E+00  0.00000000000E+00 -0.44209752139E+03  0.24419036864E+04  0.24015502067E+04 0.  0.
        3    1    3    3  502    0  0.10663714512E+04  0.41709428820E+03 -0.58871148975E+03  0.12875158040E+04  0.10100000352E+00 0.  1.
       -3    1    3    3    0  502 -0.10663714512E+04 -0.41709428820E+03  0.14661396836E+03  0.11543878824E+04  0.10100000352E+00 0. -1.
</event>
<event>
 5   0  0.4483375E-07  0.2399466E+04  0.7818609E-02  0.8439704E-01
       -3   -1    0    0    0  501  0.00000000000E+00  0.00000000000E+00  0.12063393756E+04  0.12063393798E+04  0.10100000352E+00 0. -1.
        3   -1    0    0  501    0  0.00000000000E+00  0.00000000000E+00 -0.11931624107E+04  0.11931624150E+04  0.10100000352E+00 0.  1.
    10030    2    1    2    0    0  0.00000000000E+00  0.00000000000E+00  0.13176964863E+02  0.23995017948E+04  0.23994656136E+04 0.  0.
        4    1    3    3  502    0  0.64768919485E+03  0.67078244999E+03  0.76152158790E+03  0.12038966443E+04  0.12699999809E+01 0. -1.
       -4    1    3    3    0  502 -0.64768919485E+03 -0.67078244999E+03 -0.74834462303E+03  0.11956051506E+04  0.12699999809E+01 0.  1.
</event>
<event>
 5   0  0.5510176E-07  0.2399733E+04  0.7818609E-02  0.8439603E-01
       -1   -1    0    0    0  501  0.00000000000E+00  0.00000000000E+00  0.91126540910E+03  0.91126540912E+03  0.50400001928E-02 0.  1.
        1   -1    0    0  501    0  0.00000000000E+00  0.00000000000E+00 -0.15798690153E+04  0.15798690153E+04  0.50400001928E-02 0. -1.
    10030    2    1    2    0    0  0.00000000000E+00  0.00000000000E+00 -0.66860360622E+03  0.24911344244E+04  0.23997333057E+04 0.  0.
        3    1    3    3  502    0  0.41447288083E+03 -0.62375980445E+03  0.63885571008E+03  0.98437832721E+03  0.10100000352E+00 0.  1.
       -3    1    3    3    0  502 -0.41447288083E+03  0.62375980445E+03 -0.13074593163E+04  0.15067560972E+04  0.10100000352E+00 0. -1.
</event>
<event>
 5   0  0.1275948E-06  0.2399662E+04  0.7818609E-02  0.8439630E-01
       -2   -1    0    0    0  501  0.00000000000E+00  0.00000000000E+00  0.66331671359E+03  0.66331671360E+03  0.25500000920E-02 0.  1.
        2   -1    0    0  501    0  0.00000000000E+00  0.00000000000E+00 -0.21702980646E+04  0.21702980646E+04  0.25500000920E-02 0. -1.
    10030    2    1    2    0    0  0.00000000000E+00  0.00000000000E+00 -0.15069813510E+04  0.28336147782E+04  0.23996624594E+04 0.  0.
        1    1    3    3  502    0 -0.28144796393E+03 -0.92575461860E+03 -0.15912710423E+04  0.18623582094E+04  0.50400001928E-02 0. -1.
       -1    1    3    3    0  502  0.28144796393E+03  0.92575461860E+03  0.84289691280E+02  0.97125656875E+03  0.50400001928E-02 0.  1.
</event>
<event>
 5   0  0.5690124E-07  0.2408720E+04  0.7818609E-02  0.8436246E-01
       -1   -1    0    0    0  501  0.00000000000E+00  0.00000000000E+00  0.10694082799E+04  0.10694082799E+04  0.50400001928E-02 0.  1.
        1   -1    0    0  501    0  0.00000000000E+00  0.00000000000E+00 -0.13563411543E+04  0.13563411543E+04  0.50400001928E-02 0. -1.
    10030    2    1    2    0    0  0.00000000000E+00  0.00000000000E+00 -0.28693287436E+03  0.24257494343E+04  0.24087195444E+04 0.  0.
        2    1    3    3  502    0 -0.10109752261E+04 -0.15139157383E+03 -0.78475120558E+03  0.12887299062E+04  0.25500000920E-02 0. -1.
       -2    1    3    3    0  502  0.10109752261E+04  0.15139157383E+03  0.49781833122E+03  0.11370195281E+04  0.25500000920E-02 0.  1.
</event>
<event>
 5   0  0.5510176E-07  0.2401512E+04  0.7818609E-02  0.8438938E-01
        1   -1    0    0  501    0  0.00000000000E+00  0.00000000000E+00  0.20875303572E+04  0.20875303572E+04  0.50400001928E-02 0. -1.
       -1   -1    0    0    0  501  0.00000000000E+00  0.00000000000E+00 -0.69067952154E+03  0.69067952156E+03  0.50400001928E-02 0.  1.
    10030    2    1    2    0    0  0.00000000000E+00  0.00000000000E+00  0.13968508357E+04  0.27782098788E+04  0.24015115810E+04 0.  0.
        3    1    3    3  502    0  0.76444124807E+03  0.71330966841E+02  0.17664736348E+04  0.19261068613E+04  0.10100000352E+00 0. -1.
       -3    1    3    3    0  502 -0.76444124807E+03 -0.71330966841E+02 -0.36962279911E+03  0.85210301748E+03  0.10100000352E+00 0.  1.
</event>
<event>
 5   0  0.5690124E-07  0.2399847E+04  0.7818609E-02  0.8439561E-01
        1   -1    0    0  501    0  0.00000000000E+00  0.00000000000E+00  0.18964974887E+04  0.18964974887E+04  0.50400001928E-02 0.  1.
       -1   -1    0    0    0  501  0.00000000000E+00  0.00000000000E+00 -0.75919786135E+03  0.75919786137E+03  0.50400001928E-02 0. -1.
    10030    2    1    2    0    0  0.00000000000E+00  0.00000000000E+00  0.11372996273E+04  0.26556953501E+04  0.23998473597E+04 0.  0.
        2    1    3    3  502    0 -0.34689176348E+03 -0.59730540460E+03  0.16544307033E+04  0.17928325616E+04  0.25500000920E-02 0.  1.
       -2    1    3    3    0  502  0.34689176348E+03  0.59730540460E+03 -0.51713107598E+03  0.86286278845E+03  0.25500000920E-02 0. -1.
</event>
<event>
 5   0  0.5510176E-07  0.2398757E+04  0.7818609E-02  0.8439969E-01
       -1   -1    0    0    0  501  0.00000000000E+00  0.00000000000E+00  0.15067255273E+04  0.15067255273E+04  0.50400001928E-02 0.  1.
        1   -1    0    0  501    0  0.00000000000E+00  0.00000000000E+00 -0.95472511980E+03  0.95472511981E+03  0.50400001928E-02 0. -1.
    10030    2    1    2    0    0  0.00000000000E+00  0.00000000000E+00  0.55200040746E+03  0.24614506471E+04  0.23987569360E+04 0.  0.
        3    1    3    3  502    0 -0.38218608885E+03 -0.30557854608E+03  0.13996374206E+04  0.14827101449E+04  0.10100000352E+00 0.  1.
       -3    1    3    3    0  502  0.38218608885E+03  0.30557854608E+03 -0.84763701317E+03  0.97874050219E+03  0.10100000352E+00 0. -1.
</event>
<event>
 5   0  0.1307477E-06  0.2399537E+04  0.7818609E-02  0.8439677E-01
       -2   -1    0    0    0  501  0.00000000000E+00  0.00000000000E+00  0.13655743249E+04  0.13655743249E+04  0.25500000920E-02 0. -1.
        2   -1    0    0  501    0  0.00000000000E+00  0.00000000000E+00 -0.10540946858E+04  0.10540946858E+04  0.25500000920E-02 0.  1.
    10030    2    1    2    0    0  0.00000000000E+00  0.00000000000E+00  0.31147963911E+03  0.24196690106E+04  0.23995371544E+04 0.  0.
        5    1    3    3  502    0 -0.77396150254E+03  0.51857135166E+03 -0.60657218897E+03  0.11117034517E+04  0.46999998093E+01 0.  1.
       -5    1    3    3    0  502  0.77396150254E+03 -0.51857135166E+03  0.91805182807E+03  0.13079655589E+04  0.46999998093E+01 0. -1.
</event>
<event>
 5   0  0.1275948E-06  0.2399868E+04  0.7818609E-02  0.8439553E-01
        2   -1    0    0  501    0  0.00000000000E+00  0.00000000000E+00  0.98866841994E+03  0.98866841995E+03  0.25500000920E-02 0.  1.
       -2   -1    0    0    0  501  0.00000000000E+00  0.00000000000E+00 -0.14563437706E+04  0.14563437706E+04  0.25500000920E-02 0. -1.
    10030    2    1    2    0    0  0.00000000000E+00  0.00000000000E+00 -0.46767535064E+03  0.24450121905E+04  0.23998675751E+04 0.  0.
        1    1    3    3  502    0  0.41248047136E+03  0.67344098072E+03  0.68658274725E+03  0.10464505543E+04  0.50400001928E-02 0.  1.
       -1    1    3    3    0  502 -0.41248047136E+03 -0.67344098072E+03 -0.11542580979E+04  0.13985616362E+04  0.50400001928E-02 0. -1.
</event>
<event>
 5   0  0.5527286E-07  0.2400124E+04  0.7818609E-02  0.8439457E-01
       -1   -1    0    0    0  501  0.00000000000E+00  0.00000000000E+00  0.12050509713E+04  0.12050509714E+04  0.50400001928E-02 0.  1.
        1   -1    0    0  501    0  0.00000000000E+00  0.00000000000E+00 -0.11950937325E+04  0.11950937325E+04  0.50400001928E-02 0. -1.
    10030    2    1    2    0    0  0.00000000000E+00  0.00000000000E+00  0.99572388452E+01  0.24001447039E+04  0.24001240495E+04 0.  0.
        1    1    3    3  502    0  0.39580536400E+03  0.72784334914E+03  0.87316293669E+03  0.12036741009E+04  0.50400001928E-02 0.  1.
       -1    1    3    3    0  502 -0.39580536400E+03 -0.72784334914E+03 -0.86320569784E+03  0.11964706030E+04  0.50400001928E-02 0. -1.
</event>
<event>
 5   0  0.1336057E-06  0.2398226E+04  0.7818609E-02  0.8440168E-01
        2   -1    0    0  501    0  0.00000000000E+00  0.00000000000E+00  0.18930906440E+04  0.18930906440E+04  0.25500000920E-02 0.  1.
       -2   -1    0    0    0  501  0.00000000000E+00  0.00000000000E+00 -0.75953660824E+03  0.75953660824E+03  0.25500000920E-02 0. -1.
    10030    2    1    2    0    0  0.00000000000E+00  0.00000000000E+00  0.11335540358E+04  0.26526272523E+04  0.23982257165E+04 0.  0.
        2    1    3    3  502    0 -0.41590016920E+03  0.15952896001E+03  0.17981809568E+04  0.18525326429E+04  0.25500000920E-02 0.  1.
       -2    1    3    3    0  502  0.41590016920E+03 -0.15952896001E+03 -0.66462692097E+03  0.80009460935E+03  0.25500000920E-02 0. -1.
</event>
<event>
 5   0  0.1307477E-06  0.2400009E+04  0.7818609E-02  0.8439500E-01
        2   -1    0    0  501    0  0.00000000000E+00  0.00000000000E+00  0.16167915450E+04  0.16167915450E+04  0.25500000920E-02 0. -1.
       -2   -1    0    0    0  501  0.00000000000E+00  0.00000000000E+00 -0.89065920089E+03  0.89065920089E+03  0.25500000920E-02 0.  1.
    10030    2    1    2    0    0  0.00000000000E+00  0.00000000000E+00  0.72613234411E+03  0.25074507459E+04  0.24000085546E+04 0.  0.
        5    1    3    3  502    0 -0.19566537249E+03 -0.11268547771E+04 -0.16375100912E+02  0.11438430227E+04  0.46999998093E+01 0.  1.
       -5    1    3    3    0  502  0.19566537249E+03  0.11268547771E+04  0.74250744502E+03  0.13636077232E+04  0.46999998093E+01 0. -1.
</event>
<event>
 5   0  0.5690124E-07  0.2399865E+04  0.7818609E-02  0.8439554E-01
       -1   -1    0    0    0  501  0.00000000000E+00  0.00000000000E+00  0.94160319225E+03  0.94160319226E+03  0.50400001928E-02 0. -1.
        1   -1    0    0  501    0  0.00000000000E+00  0.00000000000E+00 -0.15291348171E+04  0.15291348171E+04  0.50400001928E-02 0.  1.
    10030    2    1    2    0    0  0.00000000000E+00  0.00000000000E+00 -0.58753162485E+03  0.24707380094E+04  0.23998651839E+04 0.  0.
        2    1    3    3  502    0  0.53867730459E+03 -0.25837551147E+03 -0.13651258628E+04  0.14901341432E+04  0.25500000920E-02 0.  1.
       -2    1    3    3    0  502 -0.53867730459E+03  0.25837551147E+03  0.77759423797E+03  0.98060386617E+03  0.25500000920E-02 0. -1.
</event>
<event>
 5   0  0.1336057E-06  0.2399845E+04  0.7818609E-02  0.8439561E-01
       -2   -1    0    0    0  501  0.00000000000E+00  0.00000000000E+00  0.63653183111E+03  0.63653183112E+03  0.25500000920E-02 0.  1.
        2   -1    0    0  501    0  0.00000000000E+00  0.00000000000E+00 -0.22619678443E+04  0.22619678443E+04  0.25500000920E-02 0. -1.
    10030    2    1    2    0    0  0.00000000000E+00  0.00000000000E+00 -0.16254360132E+04  0.28984996755E+04  0.23998454399E+04 0.  0.
        2    1    3    3  502    0 -0.16674390925E+03 -0.75941701121E+03  0.29113283765E+03  0.83022650966E+03  0.25500000920E-02 0.  1.
       -2    1    3    3    0  502  0.16674390925E+03  0.75941701121E+03 -0.19165688509E+04  0.20682731658E+04  0.25500000920E-02 0. -1.
</event>
<event>
 5   0  0.1308662E-06  0.2400588E+04  0.7818609E-02  0.8439284E-01
       -2   -1    0    0    0  501  0.00000000000E+00  0.00000000000E+00  0.11583705791E+04  0.11583705791E+04  0.25500000920E-02 0. -1.
        2   -1    0    0  501    0  0.00000000000E+00  0.00000000000E+00 -0.12437342913E+04  0.12437342913E+04  0.25500000920E-02 0.  1.
    10030    2    1    2    0    0  0.00000000000E+00  0.00000000000E+00 -0.85363712227E+02  0.24021048704E+04  0.24005876041E+04 0.  0.
        3    1    3    3  502    0  0.87970411462E+03 -0.36595894849E+03 -0.77314319003E+03  0.12270108735E+04  0.10100000352E+00 0.  1.
       -3    1    3    3    0  502 -0.87970411462E+03  0.36595894849E+03  0.68777947781E+03  0.11750939969E+04  0.10100000352E+00 0. -1.
</event>
<event>
 5   0  0.4483375E-07  0.2398268E+04  0.7818609E-02  0.8440152E-01
        3   -1    0    0  501    0  0.00000000000E+00  0.00000000000E+00  0.91148568958E+03  0.91148569517E+03  0.10100000352E+00 0. -1.
       -3   -1    0    0    0  501  0.00000000000E+00  0.00000000000E+00 -0.15775590812E+04  0.15775590844E+04  0.10100000352E+00 0.  1.
    10030    2    1    2    0    0  0.00000000000E+00  0.00000000000E+00 -0.66607339158E+03  0.24890447796E+04  0.23982681568E+04 0.  0.
        2    1    3    3  502    0 -0.55539889879E+03 -0.35492822610E+03 -0.13726921818E+04  0.15227362899E+04  0.25500000920E-02 0.  1.
       -2    1    3    3    0  502  0.55539889879E+03  0.35492822610E+03  0.70661879026E+03  0.96630848968E+03  0.25500000920E-02 0. -1.
</event>
<event>
 5   0  0.5452384E-07  0.2399388E+04  0.7818609E-02  0.8439733E-01
       -1   -1    0    0    0  501  0.00000000000E+00  0.00000000000E+00  0.11187746588E+04  0.11187746588E+04  0.50400001928E-02 0. -1.
        1   -1    0    0  501    0  0.00000000000E+00  0.00000000000E+00 -0.12864665423E+04  0.12864665423E+04  0.50400001928E-02 0.  1.
    10030    2    1    2    0    0  0.00000000000E+00  0.00000000000E+00 -0.16769188355E+03  0.24052412011E+04  0.23993883945E+04 0.  0.
        5    1    3    3  502    0  0.72777657753E+03 -0.54388506886E+03  0.70150261944E+03  0.11478665994E+04  0.46999998093E+01 0. -1.
       -5    1    3    3    0  502 -0.72777657753E+03  0.54388506886E+03 -0.86919450300E+03  0.12573746017E+04  0.46999998093E+01 0.  1.
</event>
<event>
 5   0  0.1275948E-06  0.2399958E+04  0.7818609E-02  0.8439519E-01
        2   -1    0    0  501    0  0.00000000000E+00  0.00000000000E+00  0.13596216348E+04  0.13596216348E+04  0.25500000920E-02 0. -1.
       -2   -1    0    0    0  501  0.00000000000E+00  0.00000000000E+00 -0.10590810584E+04  0.10590810584E+04  0.25500000920E-02 0.  1.
    10030    2    1    2    0    0  0.00000000000E+00  0.00000000000E+00  0.30054057644E+03  0.24187026932E+04  0.23999579330E+04 0.  0.
        1    1    3    3  502    0  0.87341879998E+02 -0.10519861078E+04 -0.42484091728E+03  0.11378897926E+04  0.50400001928E-02 0. -1.
       -1    1    3    3    0  502 -0.87341879998E+02  0.10519861078E+04  0.72538149372E+03  0.12808129006E+04  0.50400001928E-02 0.  1.
</event>
<event>
 5   0  0.5363690E-07  0.2399637E+04  0.7818609E-02  0.8439640E-01
        1   -1    0    0  501    0  0.00000000000E+00  0.00000000000E+00  0.11034992044E+04  0.11034992044E+04  0.50400001928E-02 0.  1.
       -1   -1    0    0    0  501  0.00000000000E+00  0.00000000000E+00 -0.13045448090E+04  0.13045448091E+04  0.50400001928E-02 0. -1.
    10030    2    1    2    0    0  0.00000000000E+00  0.00000000000E+00 -0.20104560465E+03  0.24080440135E+04  0.23996367716E+04 0.  0.
        4    1    3    3  502    0 -0.30393303245E+03  0.44321002541E+03 -0.11770123222E+04  0.12938972271E+04  0.12699999809E+01 0. -1.
       -4    1    3    3    0  502  0.30393303245E+03 -0.44321002541E+03  0.97596671755E+03  0.11141467863E+04  0.12699999809E+01 0.  1.
</event>
<event>
 5   0  0.5690124E-07  0.2401224E+04  0.7818609E-02  0.8439045E-01
       -1   -1    0    0    0  501  0.00000000000E+00  0.00000000000E+00  0.85155594943E+03  0.85155594944E+03  0.50400001928E-02 0.  1.
        1   -1    0    0  501    0  0.00000000000E+00  0.00000000000E+00 -0.16927478385E+04  0.16927478386E+04  0.50400001928E-02 0. -1.
    10030    2    1    2    0    0  0.00000000000E+00  0.00000000000E+00 -0.84119188912E+03  0.25443037880E+04  0.24012242651E+04 0.  0.
        2    1    3    3  502    0 -0.98262724663E+03 -0.53939710131E+03 -0.87629674524E+03  0.14228146487E+04  0.25500000920E-02 0. -1.
       -2    1    3    3    0  502  0.98262724663E+03  0.53939710131E+03  0.35104856122E+02  0.11214891393E+04  0.25500000920E-02 0.  1.
</event>
<event>
 5   0  0.1291468E-06  0.2394291E+04  0.7818609E-02  0.8441644E-01
       -2   -1    0    0    0  501  0.00000000000E+00  0.00000000000E+00  0.10611988130E+04  0.10611988130E+04  0.25500000920E-02 0. -1.
        2   -1    0    0  501    0  0.00000000000E+00  0.00000000000E+00 -0.13505076483E+04  0.13505076483E+04  0.25500000920E-02 0.  1.
    10030    2    1    2    0    0  0.00000000000E+00  0.00000000000E+00 -0.28930883528E+03  0.24117064614E+04  0.23942908039E+04 0.  0.
        4    1    3    3  502    0 -0.70679877296E+03 -0.35900255818E+03  0.75892587781E+03  0.10974595405E+04  0.12699999809E+01 0. -1.
       -4    1    3    3    0  502  0.70679877296E+03  0.35900255818E+03 -0.10482347131E+04  0.13142469208E+04  0.12699999809E+01 0.  1.
</event>
<event>
 5   0  0.1336057E-06  0.2397850E+04  0.7818609E-02  0.8440309E-01
        2   -1    0    0  501    0  0.00000000000E+00  0.00000000000E+00  0.20641203586E+04  0.20641203586E+04  0.25500000920E-02 0. -1.
       -2   -1    0    0    0  501  0.00000000000E+00  0.00000000000E+00 -0.69638436490E+03  0.69638436491E+03  0.25500000920E-02 0.  1.
    10030    2    1    2    0    0  0.00000000000E+00  0.00000000000E+00  0.13677359937E+04  0.27605047236E+04  0.23978499912E+04 0.  0.
        2    1    3    3  502    0 -0.80053848242E+03  0.11590893430E+03 -0.33491540959E+03  0.87547991095E+03  0.25500000920E-02 0.  1.
       -2    1    3    3    0  502  0.80053848242E+03 -0.11590893430E+03  0.17026514033E+04  0.18850248126E+04  0.25500000920E-02 0. -1.
</event>
<event>
 5   0  0.1308662E-06  0.2400809E+04  0.7818609E-02  0.8439201E-01
       -2   -1    0    0    0  501  0.00000000000E+00  0.00000000000E+00  0.10098143311E+04  0.10098143311E+04  0.25500000920E-02 0. -1.
        2   -1    0    0  501    0  0.00000000000E+00  0.00000000000E+00 -0.14269658104E+04  0.14269658104E+04  0.25500000920E-02 0.  1.
    10030    2    1    2    0    0  0.00000000000E+00  0.00000000000E+00 -0.41715147936E+03  0.24367801415E+04  0.24008086349E+04 0.  0.
        3    1    3    3  502    0  0.94805668546E+03  0.22864531668E+03 -0.91897714918E+03  0.13400034219E+04  0.10100000352E+00 0.  1.
       -3    1    3    3    0  502 -0.94805668546E+03 -0.22864531668E+03  0.50182566982E+03  0.10967767197E+04  0.10100000352E+00 0. -1.
</event>
<event>
 5   0  0.5690124E-07  0.2399804E+04  0.7818609E-02  0.8439577E-01
       -1   -1    0    0    0  501  0.00000000000E+00  0.00000000000E+00  0.56420019949E+03  0.56420019951E+03  0.50400001928E-02 0. -1.
        1   -1    0    0  501    0  0.00000000000E+00  0.00000000000E+00 -0.25518689542E+04  0.25518689543E+04  0.50400001928E-02 0.  1.
    10030    2    1    2    0    0  0.00000000000E+00  0.00000000000E+00 -0.19876687548E+04  0.31160691538E+04  0.23998041363E+04 0.  0.
        2    1    3    3  502    0  0.44240127489E+03 -0.18443821818E+03 -0.24221662011E+04  0.24691345549E+04  0.25500000920E-02 0.  1.
       -2    1    3    3    0  502 -0.44240127489E+03  0.18443821818E+03  0.43449744634E+03  0.64693459888E+03  0.25500000920E-02 0. -1.
</event>
<event>
 5   0  0.1291468E-06  0.2400020E+04  0.7818609E-02  0.8439496E-01
       -2   -1    0    0    0  501  0.00000000000E+00  0.00000000000E+00  0.10826546789E+04  0.10826546789E+04  0.25500000920E-02 0.  1.
        2   -1    0    0  501    0  0.00000000000E+00  0.00000000000E+00 -0.13300857353E+04  0.13300857353E+04  0.25500000920E-02 0. -1.
    10030    2    1    2    0    0  0.00000000000E+00  0.00000000000E+00 -0.24743105639E+03  0.24127404143E+04  0.24000196205E+04 0.  0.
        4    1    3    3  502    0 -0.70754456012E+03  0.25731992246E+03 -0.10631142303E+04  0.13027073066E+04  0.12699999809E+01 0. -1.
       -4    1    3    3    0  502  0.70754456012E+03 -0.25731992246E+03  0.81568317392E+03  0.11100331077E+04  0.12699999809E+01 0.  1.
</event>
<event>
 5   0  0.1308662E-06  0.2400647E+04  0.7818609E-02  0.8439261E-01
       -2   -1    0    0    0  501  0.00000000000E+00  0.00000000000E+00  0.62689798998E+03  0.62689798998E+03  0.25500000920E-02 0. -1.
        2   -1    0    0  501    0  0.00000000000E+00  0.00000000000E+00 -0.22982638328E+04  0.22982638328E+04  0.25500000920E-02 0.  1.
    10030    2    1    2    0    0  0.00000000000E+00  0.00000000000E+00 -0.16713658428E+04  0.29251618228E+04  0.24006473937E+04 0.  0.
        3    1    3    3  502    0 -0.45482176623E+02  0.90442014684E+03 -0.17956885427E+04  0.20111046176E+04  0.10100000352E+00 0.  1.
       -3    1    3    3    0  502  0.45482176623E+02 -0.90442014684E+03  0.12432269989E+03  0.91405720516E+03  0.10100000352E+00 0. -1.
</event>
<event>
 5   0  0.5510176E-07  0.2400260E+04  0.7818609E-02  0.8439406E-01
        1   -1    0    0  501    0  0.00000000000E+00  0.00000000000E+00  0.13830309271E+04  0.13830309271E+04  0.50400001928E-02 0. -1.
       -1   -1    0    0    0  501  0.00000000000E+00  0.00000000000E+00 -0.10414172551E+04  0.10414172551E+04  0.50400001928E-02 0.  1.
    10030    2    1    2    0    0  0.00000000000E+00  0.00000000000E+00  0.34161367194E+03  0.24244481822E+04  0.24002602124E+04 0.  0.
        3    1    3    3  502    0 -0.73525478606E+03  0.26770575497E+02  0.11285155947E+04  0.13471687800E+04  0.10100000352E+00 0. -1.
       -3    1    3    3    0  502  0.73525478606E+03 -0.26770575497E+02 -0.78690192276E+03  0.10772794022E+04  0.10100000352E+00 0.  1.
</event>
<event>
 5   0  0.1308662E-06  0.2401749E+04  0.7818609E-02  0.8438849E-01
        2   -1    0    0  501    0  0.00000000000E+00  0.00000000000E+00  0.18718507691E+04  0.18718507691E+04  0.25500000920E-02 0.  1.
       -2   -1    0    0    0  501  0.00000000000E+00  0.00000000000E+00 -0.77041380397E+03  0.77041380397E+03  0.25500000920E-02 0. -1.
    10030    2    1    2    0    0  0.00000000000E+00  0.00000000000E+00  0.11014369651E+04  0.26422645731E+04  0.24017490889E+04 0.  0.
        3    1    3    3  502    0 -0.46145955028E+02  0.11905451657E+04  0.38543184924E+03  0.12522319918E+04  0.10100000352E+00 0. -1.
       -3    1    3    3    0  502  0.46145955028E+02 -0.11905451657E+04  0.71600511589E+03  0.13900325812E+04  0.10100000352E+00 0.  1.
</event>
<event>
 5   0  0.5690124E-07  0.2399828E+04  0.7818609E-02  0.8439568E-01
       -1   -1    0    0    0  501  0.00000000000E+00  0.00000000000E+00  0.18922819720E+04  0.18922819720E+04  0.50400001928E-02 0. -1.
        1   -1    0    0  501    0  0.00000000000E+00  0.00000000000E+00 -0.76087712001E+03  0.76087712003E+03  0.50400001928E-02 0.  1.
    10030    2    1    2    0    0  0.00000000000E+00  0.00000000000E+00  0.11314048520E+04  0.26531590920E+04  0.23998283748E+04 0.  0.
        2    1    3    3  502    0 -0.52311093901E+03 -0.22191949861E+03  0.17340993301E+04  0.18248270617E+04  0.25500000920E-02 0. -1.
       -2    1    3    3    0  502  0.52311093901E+03  0.22191949861E+03 -0.60269447818E+03  0.82833203029E+03  0.25500000920E-02 0.  1.
</event>
<event>
 5   0  0.5527286E-07  0.2396580E+04  0.7818609E-02  0.8440785E-01
       -1   -1    0    0    0  501  0.00000000000E+00  0.00000000000E+00  0.12029457912E+04  0.12029457912E+04  0.50400001928E-02 0. -1.
        1   -1    0    0  501    0  0.00000000000E+00  0.00000000000E+00 -0.11936519174E+04  0.11936519174E+04  0.50400001928E-02 0.  1.
    10030    2    1    2    0    0  0.00000000000E+00  0.00000000000E+00  0.92938737939E+01  0.23965977086E+04  0.23965796879E+04 0.  0.
        1    1    3    3  502    0  0.10154331922E+04  0.55333000608E+03  0.31868733208E+03  0.11995166856E+04  0.50400001928E-02 0. -1.
       -1    1    3    3    0  502 -0.10154331922E+04 -0.55333000608E+03 -0.30939345829E+03  0.11970810229E+04  0.50400001928E-02 0.  1.
</event>
<event>
 5   0  0.1291468E-06  0.2401451E+04  0.7818609E-02  0.8438961E-01
        2   -1    0    0  501    0  0.00000000000E+00  0.00000000000E+00  0.13235414594E+04  0.13235414594E+04  0.25500000920E-02 0. -1.
       -2   -1    0    0    0  501  0.00000000000E+00  0.00000000000E+00 -0.10893056396E+04  0.10893056397E+04  0.25500000920E-02 0.  1.
    10030    2    1    2    0    0  0.00000000000E+00  0.00000000000E+00  0.23423581976E+03  0.24128470991E+04  0.24014505417E+04 0.  0.
        4    1    3    3  502    0  0.18159290971E+03  0.28001463747E+03  0.12760019726E+04  0.13189263926E+04  0.12699999809E+01 0. -1.
       -4    1    3    3    0  502 -0.18159290971E+03 -0.28001463747E+03 -0.10417661528E+04  0.10939207065E+04  0.12699999809E+01 0.  1.
</event>
<event>
 5   0  0.1291468E-06  0.2397296E+04  0.7818609E-02  0.8440516E-01
       -2   -1    0    0    0  501  0.00000000000E+00  0.00000000000E+00  0.10978856805E+04  0.10978856805E+04  0.25500000920E-02 0. -1.
        2   -1    0    0  501    0  0.00000000000E+00  0.00000000000E+00 -0.13086584555E+04  0.13086584555E+04  0.25500000920E-02 0.  1.
    10030    2    1    2    0    0  0.00000000000E+00  0.00000000000E+00 -0.21077277505E+03  0.24065441360E+04  0.23972962928E+04 0.  0.
        4    1    3    3  502    0  0.10993590764E+04 -0.47759989323E+03 -0.11340023911E+03  0.12039739465E+04  0.12699999809E+01 0. -1.
       -4    1    3    3    0  502 -0.10993590764E+04  0.47759989323E+03 -0.97372535946E+02  0.12025701894E+04  0.12699999809E+01 0.  1.
</event>
<event>
 5   0  0.1291468E-06  0.2400722E+04  0.7818609E-02  0.8439233E-01
        2   -1    0    0  501    0  0.00000000000E+00  0.00000000000E+00  0.12838964340E+04  0.12838964340E+04  0.25500000920E-02 0. -1.
       -2   -1    0    0    0  501  0.00000000000E+00  0.00000000000E+00 -0.11222606538E+04  0.11222606538E+04  0.25500000920E-02 0.  1.
    10030    2    1    2    0    0  0.00000000000E+00  0.00000000000E+00  0.16163578018E+03  0.24061570878E+04  0.24007219342E+04 0.  0.
        4    1    3    3  502    0 -0.61595038086E+03 -0.49178183870E+03  0.98819651983E+03  0.12640325246E+04  0.12699999809E+01 0. -1.
       -4    1    3    3    0  502  0.61595038086E+03  0.49178183870E+03 -0.82656073964E+03  0.11421245632E+04  0.12699999809E+01 0.  1.
</event>
<event>
 5   0  0.5527286E-07  0.2399803E+04  0.7818609E-02  0.8439577E-01
       -1   -1    0    0    0  501  0.00000000000E+00  0.00000000000E+00  0.73173900502E+03  0.73173900503E+03  0.50400001928E-02 0. -1.
        1   -1    0    0  501    0  0.00000000000E+00  0.00000000000E+00 -0.19675911008E+04  0.19675911008E+04  0.50400001928E-02 0.  1.
    10030    2    1    2    0    0  0.00000000000E+00  0.00000000000E+00 -0.12358520957E+04  0.26993301058E+04  0.23998026205E+04 0.  0.
        1    1    3    3  502    0  0.61714851157E+03 -0.51959317870E+03 -0.16169945131E+04  0.18070751540E+04  0.50400001928E-02 0.  1.
       -1    1    3    3    0  502 -0.61714851157E+03  0.51959317870E+03  0.38114241737E+03  0.89225495181E+03  0.50400001928E-02 0. -1.
</event>
<event>
 5   0  0.1308662E-06  0.2400594E+04  0.7818609E-02  0.8439281E-01
       -2   -1    0    0    0  501  0.00000000000E+00  0.00000000000E+00  0.13630959312E+04  0.13630959312E+04  0.25500000920E-02 0.  1.
        2   -1    0    0  501    0  0.00000000000E+00  0.00000000000E+00 -0.10569417884E+04  0.10569417884E+04  0.25500000920E-02 0. -1.
    10030    2    1    2    0    0  0.00000000000E+00  0.00000000000E+00  0.30615414282E+03  0.24200377196E+04  0.24005941358E+04 0.  0.
        3    1    3    3  502    0  0.89520461711E+03  0.79194581309E+03  0.41986686550E+02  0.11959650369E+04  0.10100000352E+00 0. -1.
       -3    1    3    3    0  502 -0.89520461711E+03 -0.79194581309E+03  0.26416745627E+03  0.12240726827E+04  0.10100000352E+00 0.  1.
</event>
<event>
 5   0  0.1275948E-06  0.2399636E+04  0.7818609E-02  0.8439640E-01
        2   -1    0    0  501    0  0.00000000000E+00  0.00000000000E+00  0.91158885828E+03  0.91158885828E+03  0.25500000920E-02 0. -1.
       -2   -1    0    0    0  501  0.00000000000E+00  0.00000000000E+00 -0.15791805503E+04  0.15791805503E+04  0.25500000920E-02 0.  1.
    10030    2    1    2    0    0  0.00000000000E+00  0.00000000000E+00 -0.66759169199E+03  0.24907694085E+04  0.23996361348E+04 0.  0.
        1    1    3    3  502    0  0.35048376571E+03 -0.11189932705E+04 -0.70021597842E+02  0.11746862703E+04  0.50400001928E-02 0. -1.
       -1    1    3    3    0  502 -0.35048376571E+03  0.11189932705E+04 -0.59757009415E+03  0.13160831383E+04  0.50400001928E-02 0.  1.
</event>
<event>
 5   0  0.5690124E-07  0.2399524E+04  0.7818609E-02  0.8439682E-01
        1   -1    0    0  501    0  0.00000000000E+00  0.00000000000E+00  0.14985760606E+04  0.14985760606E+04  0.50400001928E-02 0. -1.
       -1   -1    0    0    0  501  0.00000000000E+00  0.00000000000E+00 -0.96053068969E+03  0.96053068970E+03  0.50400001928E-02 0.  1.
    10030    2    1    2    0    0  0.00000000000E+00  0.00000000000E+00  0.53804537092E+03  0.24591067503E+04  0.23995235336E+04 0.  0.
        2    1    3    3  502    0 -0.49102926822E+03 -0.77768438960E+03 -0.52051356715E+03  0.10568051503E+04  0.25500000920E-02 0.  1.
       -2    1    3    3    0  502  0.49102926822E+03  0.77768438960E+03  0.10585589381E+04  0.14023016000E+04  0.25500000920E-02 0. -1.
</event>
<event>
 5   0  0.5527286E-07  0.2401306E+04  0.7818609E-02  0.8439015E-01
        1   -1    0    0  501    0  0.00000000000E+00  0.00000000000E+00  0.18147201390E+04  0.18147201390E+04  0.50400001928E-02 0. -1.
       -1   -1    0    0    0  501  0.00000000000E+00  0.00000000000E+00 -0.79437437058E+03  0.79437437059E+03  0.50400001928E-02 0.  1.
    10030    2    1    2    0    0  0.00000000000E+00  0.00000000000E+00  0.10203457684E+04  0.26090945096E+04  0.24013056184E+04 0.  0.
        1    1    3    3  502    0  0.95432032007E+03  0.48134411145E+03  0.11044448426E+04  0.15369508246E+04  0.50400001928E-02 0. -1.
       -1    1    3    3    0  502 -0.95432032007E+03 -0.48134411145E+03 -0.84099074184E+02  0.10721436850E+04  0.50400001928E-02 0.  1.
</event>
<event>
 5   0  0.5690124E-07  0.2410771E+04  0.7818609E-02  0.8435482E-01
        1   -1    0    0  501    0  0.00000000000E+00  0.00000000000E+00  0.12107749615E+04  0.12107749615E+04  0.50400001928E-02 0. -1.
       -1   -1    0    0    0  501  0.00000000000E+00  0.00000000000E+00 -0.12000202969E+04  0.12000202969E+04  0.50400001928E-02 0.  1.
    10030    2    1    2    0    0  0.00000000000E+00  0.00000000000E+00  0.10754664590E+02  0.24107952584E+04  0.24107712697E+04 0.  0.
        2    1    3    3  502    0 -0.12943239814E+03  0.11738799503E+04 -0.23588767487E+03  0.12043213353E+04  0.25500000920E-02 0. -1.
       -2    1    3    3    0  502  0.12943239814E+03 -0.11738799503E+04  0.24664233946E+03  0.12064739231E+04  0.25500000920E-02 0.  1.
</event>
<event>
 5   0  0.1308662E-06  0.2399432E+04  0.7818609E-02  0.8439716E-01
        2   -1    0    0  501    0  0.00000000000E+00  0.00000000000E+00  0.20640869330E+04  0.20640869330E+04  0.25500000920E-02 0.  1.
       -2   -1    0    0    0  501  0.00000000000E+00  0.00000000000E+00 -0.69731465398E+03  0.69731465398E+03  0.25500000920E-02 0. -1.
    10030    2    1    2    0    0  0.00000000000E+00  0.00000000000E+00  0.13667722790E+04  0.27614015870E+04  0.23994316539E+04 0.  0.
        3    1    3    3  502    0 -0.23109722430E+03 -0.10933794963E+04  0.18116758600E+03  0.11321247080E+04  0.10100000352E+00 0. -1.
       -3    1    3    3    0  502  0.23109722430E+03  0.10933794963E+04  0.11856046930E+04  0.16292768790E+04  0.10100000352E+00 0.  1.
</event>
<event>
 5   0  0.5690124E-07  0.2399939E+04  0.7818609E-02  0.8439526E-01
       -1   -1    0    0    0  501  0.00000000000E+00  0.00000000000E+00  0.99947416217E+03  0.99947416218E+03  0.50400001928E-02 0.  1.
        1   -1    0    0  501    0  0.00000000000E+00  0.00000000000E+00 -0.14406847868E+04  0.14406847869E+04  0.50400001928E-02 0. -1.
    10030    2    1    2    0    0  0.00000000000E+00  0.00000000000E+00 -0.44121062468E+03  0.24401589490E+04  0.23999393495E+04 0.  0.
        2    1    3    3  502    0 -0.86385928591E+03 -0.43758229654E+03  0.49992874433E+03  0.10897980921E+04  0.25500000920E-02 0.  1.
       -2    1    3    3    0  502  0.86385928591E+03  0.43758229654E+03 -0.94113936901E+03  0.13503608570E+04  0.25500000920E-02 0. -1.
</event>
<event>
 5   0  0.1291468E-06  0.2401091E+04  0.7818609E-02  0.8439095E-01
       -2   -1    0    0    0  501  0.00000000000E+00  0.00000000000E+00  0.10435109158E+04  0.10435109158E+04  0.25500000920E-02 0.  1.
        2   -1    0    0  501    0  0.00000000000E+00  0.00000000000E+00 -0.13812119005E+04  0.13812119005E+04  0.25500000920E-02 0. -1.
    10030    2    1    2    0    0  0.00000000000E+00  0.00000000000E+00 -0.33770098469E+03  0.24247228163E+04  0.24010911647E+04 0.  0.
        4    1    3    3  502    0 -0.12015384907E+03 -0.34086787876E+03  0.98726660234E+03  0.10513442896E+04  0.12699999809E+01 0.  1.
       -4    1    3    3    0  502  0.12015384907E+03  0.34086787876E+03 -0.13249675870E+04  0.13733785268E+04  0.12699999809E+01 0. -1.
</event>
<event>
 5   0  0.5510176E-07  0.2399808E+04  0.7818609E-02  0.8439575E-01
       -1   -1    0    0    0  501  0.00000000000E+00  0.00000000000E+00  0.17603118531E+04  0.17603118531E+04  0.50400001928E-02 0. -1.
        1   -1    0    0  501    0  0.00000000000E+00  0.00000000000E+00 -0.81790627712E+03  0.81790627713E+03  0.50400001928E-02 0.  1.
    10030    2    1    2    0    0  0.00000000000E+00  0.00000000000E+00  0.94240557597E+03  0.25782181302E+04  0.23998084210E+04 0.  0.
        3    1    3    3  502    0 -0.84683039432E+03 -0.84245345264E+03  0.34908360767E+03  0.12444713383E+04  0.10100000352E+00 0.  1.
       -3    1    3    3    0  502  0.84683039432E+03  0.84245345264E+03  0.59332196829E+03  0.13337467919E+04  0.10100000352E+00 0. -1.
</event>
<event>
 5   0  0.5527286E-07  0.2397734E+04  0.7818609E-02  0.8440353E-01
       -1   -1    0    0    0  501  0.00000000000E+00  0.00000000000E+00  0.94472211032E+03  0.94472211033E+03  0.50400001928E-02 0. -1.
        1   -1    0    0  501    0  0.00000000000E+00  0.00000000000E+00 -0.15213802197E+04  0.15213802197E+04  0.50400001928E-02 0.  1.
    10030    2    1    2    0    0  0.00000000000E+00  0.00000000000E+00 -0.57665810937E+03  0.24661023300E+04  0.23977335396E+04 0.  0.
        1    1    3    3  502    0 -0.19496139899E+03  0.65411706978E+03 -0.13020298124E+04  0.14700886777E+04  0.50400001928E-02 0.  1.
       -1    1    3    3    0  502  0.19496139899E+03 -0.65411706978E+03  0.72537170298E+03  0.99601365231E+03  0.50400001928E-02 0. -1.
</event>
<event>
 5   0  0.1291468E-06  0.2400379E+04  0.7818609E-02  0.8439362E-01
        2   -1    0    0  501    0  0.00000000000E+00  0.00000000000E+00  0.16033974482E+04  0.16033974482E+04  0.25500000920E-02 0.  1.
       -2   -1    0    0    0  501  0.00000000000E+00  0.00000000000E+00 -0.89837644876E+03  0.89837644876E+03  0.25500000920E-02 0. -1.
    10030    2    1    2    0    0  0.00000000000E+00  0.00000000000E+00  0.70502099945E+03  0.25017738970E+04  0.24003787247E+04 0.  0.
        4    1    3    3  502    0 -0.62434214383E+02  0.11894686227E+04  0.19891065681E+03  0.12076012163E+04  0.12699999809E+01 0.  1.
       -4    1    3    3    0  502  0.62434214383E+02 -0.11894686227E+04  0.50611034264E+03  0.12941726806E+04  0.12699999809E+01 0. -1.
</event>
<event>
 5   0  0.1307477E-06  0.2398924E+04  0.7818609E-02  0.8439907E-01
       -2   -1    0    0    0  501  0.00000000000E+00  0.00000000000E+00  0.95104839017E+03  0.95104839017E+03  0.25500000920E-02 0.  1.
        2   -1    0    0  501    0  0.00000000000E+00  0.00000000000E+00 -0.15127606703E+04  0.15127606703E+04  0.25500000920E-02 0. -1.
    10030    2    1    2    0    0  0.00000000000E+00  0.00000000000E+00 -0.56171228016E+03  0.24638090605E+04  0.23989235921E+04 0.  0.
        5    1    3    3  502    0 -0.82663481957E+03  0.73402095039E+03 -0.75881929895E+03  0.13408731107E+04  0.46999998093E+01 0. -1.
       -5    1    3    3    0  502  0.82663481957E+03 -0.73402095039E+03  0.19710701879E+03  0.11229359498E+04  0.46999998093E+01 0.  1.
</event>
<event>
 5   0  0.5690124E-07  0.2397313E+04  0.7818609E-02  0.8440510E-01
        1   -1    0    0  501    0  0.00000000000E+00  0.00000000000E+00  0.16713462913E+04  0.16713462913E+04  0.50400001928E-02 0. -1.
       -1   -1    0    0    0  501  0.00000000000E+00  0.00000000000E+00 -0.85965300218E+03  0.85965300219E+03  0.50400001928E-02 0.  1.
    10030    2    1    2    0    0  0.00000000000E+00  0.00000000000E+00  0.81169328914E+03  0.25309992935E+04  0.23973133771E+04 0.  0.
        2    1    3    3  502    0 -0.59523313568E+03  0.87782212932E+02 -0.68867640814E+03  0.91448531856E+03  0.25500000920E-02 0.  1.
       -2    1    3    3    0  502  0.59523313568E+03 -0.87782212932E+02  0.15003696973E+04  0.16165139750E+04  0.25500000920E-02 0. -1.
</event>
<event>
 5   0  0.5690124E-07  0.2402931E+04  0.7818609E-02  0.8438407E-01
       -1   -1    0    0    0  501  0.00000000000E+00  0.00000000000E+00  0.57083284348E+03  0.57083284350E+03  0.50400001928E-02 0. -1.
        1   -1    0    0  501    0  0.00000000000E+00  0.00000000000E+00 -0.25287958047E+04  0.25287958047E+04  0.50400001928E-02 0.  1.
    10030    2    1    2    0    0  0.00000000000E+00  0.00000000000E+00 -0.19579629612E+04  0.30996286482E+04  0.24029312931E+04 0.  0.
        2    1    3    3  502    0  0.64199988978E+02 -0.10867512861E+04 -0.16346572073E+04  0.19639893538E+04  0.25500000920E-02 0.  1.
       -2    1    3    3    0  502 -0.64199988978E+02  0.10867512861E+04 -0.32330575383E+03  0.11356392943E+04  0.25500000920E-02 0. -1.
</event>
<event>
 5   0  0.5527286E-07  0.2400069E+04  0.7818609E-02  0.8439478E-01
        1   -1    0    0  501    0  0.00000000000E+00  0.00000000000E+00  0.15981673490E+04  0.15981673490E+04  0.50400001928E-02 0.  1.
       -1   -1    0    0    0  501  0.00000000000E+00  0.00000000000E+00 -0.90108413816E+03  0.90108413818E+03  0.50400001928E-02 0. -1.
    10030    2    1    2    0    0  0.00000000000E+00  0.00000000000E+00  0.69708321087E+03  0.24992514872E+04  0.24000693726E+04 0.  0.
        1    1    3    3  502    0 -0.11710359135E+04 -0.17693506433E+03  0.55006449029E+03  0.13058338605E+04  0.50400001928E-02 0.  1.
       -1    1    3    3    0  502  0.11710359135E+04  0.17693506433E+03  0.14701872058E+03  0.11934176268E+04  0.50400001928E-02 0. -1.
</event>
<event>
 5   0  0.5452384E-07  0.2400508E+04  0.7818609E-02  0.8439313E-01
       -1   -1    0    0    0  501  0.00000000000E+00  0.00000000000E+00  0.55464891993E+03  0.55464891996E+03  0.50400001928E-02 0.  1.
        1   -1    0    0  501    0  0.00000000000E+00  0.00000000000E+00 -0.25973355536E+04  0.25973355536E+04  0.50400001928E-02 0. -1.
    10030    2    1    2    0    0  0.00000000000E+00  0.00000000000E+00 -0.20426866337E+04  0.31519844736E+04  0.24005077459E+04 0.  0.
        5    1    3    3  502    0  0.38034276875E+03  0.79950212282E+03 -0.20854179065E+04  0.22655803232E+04  0.46999998093E+01 0.  1.
       -5    1    3    3    0  502 -0.38034276875E+03 -0.79950212282E+03  0.42731272817E+02  0.88640415038E+03  0.46999998093E+01 0. -1.
</event>
<event>
 5   0  0.5510176E-07  0.2399441E+04  0.7818609E-02  0.8439713E-01
        1   -1    0    0  501    0  0.00000000000E+00  0.00000000000E+00  0.14652830353E+04  0.14652830353E+04  0.50400001928E-02 0. -1.
       -1   -1    0    0    0  501  0.00000000000E+00  0.00000000000E+00 -0.98228795484E+03  0.98228795485E+03  0.50400001928E-02 0.  1.
    10030    2    1    2    0    0  0.00000000000E+00  0.00000000000E+00  0.48299508049E+03  0.24475709902E+04  0.23994414984E+04 0.  0.
        3    1    3    3  502    0  0.51466527924E+03 -0.44805034861E+03 -0.76505814429E+03  0.10251553243E+04  0.10100000352E+00 0.  1.
       -3    1    3    3    0  502 -0.51466527924E+03  0.44805034861E+03  0.12480532248E+04  0.14224156659E+04  0.10100000352E+00 0. -1.
</event>
<event>
 5   0  0.1275948E-06  0.2404370E+04  0.7818609E-02  0.8437869E-01
       -2   -1    0    0    0  501  0.00000000000E+00  0.00000000000E+00  0.11574871913E+04  0.11574871913E+04  0.25500000920E-02 0. -1.
        2   -1    0    0  501    0  0.00000000000E+00  0.00000000000E+00 -0.12486085396E+04  0.12486085396E+04  0.25500000920E-02 0.  1.
    10030    2    1    2    0    0  0.00000000000E+00  0.00000000000E+00 -0.91121348279E+02  0.24060957309E+04  0.24043696817E+04 0.  0.
        1    1    3    3  502    0 -0.63892944236E+03 -0.82094515454E+02 -0.10613154738E+04  0.12415155564E+04  0.50400001928E-02 0.  1.
       -1    1    3    3    0  502  0.63892944236E+03  0.82094515454E+02  0.97019412550E+03  0.11645801746E+04  0.50400001928E-02 0. -1.
</event>
<event>
 5   0  0.5452384E-07  0.2398166E+04  0.7818609E-02  0.8440191E-01
       -1   -1    0    0    0  501  0.00000000000E+00  0.00000000000E+00  0.10748216261E+04  0.10748216261E+04  0.50400001928E-02 0. -1.
        1   -1    0    0  501    0  0.00000000000E+00  0.00000000000E+00 -0.13377102236E+04  0.13377102236E+04  0.50400001928E-02 0.  1.
    10030    2    1    2    0    0  0.00000000000E+00  0.00000000000E+00 -0.26288859752E+03  0.24125318497E+04  0.23981658640E+04 0.  0.
        5    1    3    3  502    0 -0.35773041994E+03 -0.23400907502E+03  0.99555525716E+03  0.10834591181E+04  0.46999998093E+01 0. -1.
       -5    1    3    3    0  502  0.35773041994E+03  0.23400907502E+03 -0.12584438547E+04  0.13290727316E+04  0.46999998093E+01 0.  1.
</event>
<event>
 5   0  0.5527286E-07  0.2400135E+04  0.7818609E-02  0.8439453E-01
        1   -1    0    0  501    0  0.00000000000E+00  0.00000000000E+00  0.12637708303E+04  0.12637708303E+04  0.50400001928E-02 0. -1.
       -1   -1    0    0    0  501  0.00000000000E+00  0.00000000000E+00 -0.11395750310E+04  0.11395750311E+04  0.50400001928E-02 0.  1.
    10030    2    1    2    0    0  0.00000000000E+00  0.00000000000E+00  0.12419579921E+03  0.24033458613E+04  0.24001347322E+04 0.  0.
        1    1    3    3  502    0  0.17816424464E+03 -0.11552877197E+04 -0.20979709194E+03  0.11876224287E+04  0.50400001928E-02 0. -1.
       -1    1    3    3    0  502 -0.17816424464E+03  0.11552877197E+04  0.33399289114E+03  0.12157234326E+04  0.50400001928E-02 0.  1.
</event>
<event>
 5   0  0.5527286E-07  0.2400655E+04  0.7818609E-02  0.8439259E-01
       -1   -1    0    0    0  501  0.00000000000E+00  0.00000000000E+00  0.11693974446E+04  0.11693974446E+04  0.50400001928E-02 0.  1.
        1   -1    0    0  501    0  0.00000000000E+00  0.00000000000E+00 -0.12320751580E+04  0.12320751580E+04  0.50400001928E-02 0. -1.
    10030    2    1    2    0    0  0.00000000000E+00  0.00000000000E+00 -0.62677713356E+02  0.24014726026E+04  0.24006545285E+04 0.  0.
        1    1    3    3  502    0 -0.41002145212E+03 -0.95357805376E+03  0.57165743756E+03  0.11849982792E+04  0.50400001928E-02 0.  1.
       -1    1    3    3    0  502  0.41002145212E+03  0.95357805376E+03 -0.63433515092E+03  0.12164743234E+04  0.50400001928E-02 0. -1.
</event>
<event>
 5   0  0.5363690E-07  0.2384193E+04  0.7818609E-02  0.8445445E-01
        1   -1    0    0  501    0  0.00000000000E+00  0.00000000000E+00  0.13929732018E+04  0.13929732018E+04  0.50400001928E-02 0. -1.
       -1   -1    0    0    0  501  0.00000000000E+00  0.00000000000E+00 -0.10201880655E+04  0.10201880655E+04  0.50400001928E-02 0.  1.
    10030    2    1    2    0    0  0.00000000000E+00  0.00000000000E+00  0.37278513636E+03  0.24131612673E+04  0.23841934788E+04 0.  0.
        4    1    3    3  502    0  0.13450753054E+03  0.86152808814E+03 -0.63636150666E+03  0.10794815897E+04  0.12699999809E+01 0.  1.
       -4    1    3    3    0  502 -0.13450753054E+03 -0.86152808814E+03  0.10091466430E+04  0.13336796776E+04  0.12699999809E+01 0. -1.
</event>
<event>
 5   0  0.5510176E-07  0.2398558E+04  0.7818609E-02  0.8440044E-01
        1   -1    0    0  501    0  0.00000000000E+00  0.00000000000E+00  0.14403072046E+04  0.14403072046E+04  0.50400001928E-02 0. -1.
       -1   -1    0    0    0  501  0.00000000000E+00  0.00000000000E+00 -0.99858563679E+03  0.99858563680E+03  0.50400001928E-02 0.  1.
    10030    2    1    2    0    0  0.00000000000E+00  0.00000000000E+00  0.44172156782E+03  0.24388928414E+04  0.23985579727E+04 0.  0.
        3    1    3    3  502    0 -0.57993354712E+02  0.11977146596E+04  0.24084948838E+03  0.12230666871E+04  0.10100000352E+00 0. -1.
       -3    1    3    3    0  502  0.57993354712E+02 -0.11977146596E+04  0.20087207944E+03  0.12158261543E+04  0.10100000352E+00 0.  1.
</event>
<event>
 5   0  0.1275948E-06  0.2402021E+04  0.7818609E-02  0.8438747E-01
        2   -1    0    0  501    0  0.00000000000E+00  0.00000000000E+00  0.71494623857E+03  0.71494623857E+03  0.25500000920E-02 0.  1.
       -2   -1    0    0    0  501  0.00000000000E+00  0.00000000000E+00 -0.20175314225E+04  0.20175314225E+04  0.25500000920E-02 0. -1.
    10030    2    1    2    0    0  0.00000000000E+00  0.00000000000E+00 -0.13025851839E+04  0.27324776611E+04  0.24020212336E+04 0.  0.
        1    1    3    3  502    0 -0.49223420609E+03  0.86800726196E+03  0.10900831559E+03  0.10037997476E+04  0.50400001928E-02 0.  1.
       -1    1    3    3    0  502  0.49223420609E+03 -0.86800726196E+03 -0.14115934995E+04  0.17286779134E+04  0.50400001928E-02 0. -1.
</event>
<event>
 5   0  0.1308662E-06  0.2402078E+04  0.7818609E-02  0.8438726E-01
       -2   -1    0    0    0  501  0.00000000000E+00  0.00000000000E+00  0.83181565575E+03  0.83181565575E+03  0.25500000920E-02 0. -1.
        2   -1    0    0  501    0  0.00000000000E+00  0.00000000000E+00 -0.17341513845E+04  0.17341513845E+04  0.25500000920E-02 0.  1.
    10030    2    1    2    0    0  0.00000000000E+00  0.00000000000E+00 -0.90233572877E+03  0.25659670403E+04  0.24020776599E+04 0.  0.
        3    1    3    3  502    0 -0.98713113786E+03  0.67654592979E+03 -0.55985441170E+03  0.13212037129E+04  0.10100000352E+00 0.  1.
       -3    1    3    3    0  502  0.98713113786E+03 -0.67654592979E+03 -0.34248131707E+03  0.12447633274E+04  0.10100000352E+00 0. -1.
</event>
<event>
 5   0  0.5510176E-07  0.2400160E+04  0.7818609E-02  0.8439444E-01
        1   -1    0    0  501    0  0.00000000000E+00  0.00000000000E+00  0.22297059840E+04  0.22297059840E+04  0.50400001928E-02 0.  1.
       -1   -1    0    0    0  501  0.00000000000E+00  0.00000000000E+00 -0.64591117136E+03  0.64591117138E+03  0.50400001928E-02 0. -1.
    10030    2    1    2    0    0  0.00000000000E+00  0.00000000000E+00  0.15837948127E+04  0.28756171554E+04  0.24001599980E+04 0.  0.
        3    1    3    3  502    0 -0.11875029842E+03  0.28273165759E+03  0.21819720187E+04  0.22034156948E+04  0.10100000352E+00 0.  1.
       -3    1    3    3    0  502  0.11875029842E+03 -0.28273165759E+03 -0.59817720605E+03  0.67220146059E+03  0.10100000352E+00 0. -1.
</event>
<event>
 5   0  0.4483375E-07  0.2388661E+04  0.7818609E-02  0.8443761E-01
        4   -1    0    0  501    0  0.00000000000E+00  0.00000000000E+00  0.84639737838E+03  0.84639833118E+03  0.12699999809E+01 0. -1.
       -4   -1    0    0    0  501  0.00000000000E+00  0.00000000000E+00 -0.16852881654E+04  0.16852886439E+04  0.12699999809E+01 0.  1.
    10030    2    1    2    0    0  0.00000000000E+00  0.00000000000E+00 -0.83889078704E+03  0.25316869751E+04  0.23886609612E+04 0.  0.
        4    1    3    3  502    0  0.60169571512E+02 -0.11848018773E+04 -0.27316769693E+03  0.12173734306E+04  0.12699999809E+01 0.  1.
       -4    1    3    3    0  502 -0.60169571512E+02  0.11848018773E+04 -0.56572309011E+03  0.13143135446E+04  0.12699999809E+01 0. -1.
</event>
<event>
 5   0  0.5363690E-07  0.2401511E+04  0.7818609E-02  0.8438938E-01
       -1   -1    0    0    0  501  0.00000000000E+00  0.00000000000E+00  0.12323391055E+04  0.12323391055E+04  0.50400001928E-02 0. -1.
        1   -1    0    0  501    0  0.00000000000E+00  0.00000000000E+00 -0.11699812800E+04  0.11699812800E+04  0.50400001928E-02 0.  1.
    10030    2    1    2    0    0  0.00000000000E+00  0.00000000000E+00  0.62357825522E+02  0.24023203855E+04  0.24015109277E+04 0.  0.
        4    1    3    3  502    0  0.32972669822E+03  0.11479146123E+04  0.15525466021E+03  0.12043808680E+04  0.12699999809E+01 0. -1.
       -4    1    3    3    0  502 -0.32972669822E+03 -0.11479146123E+04 -0.92896834687E+02  0.11979395175E+04  0.12699999809E+01 0.  1.
</event>
<event>
 5   0  0.5690124E-07  0.2401109E+04  0.7818609E-02  0.8439088E-01
        1   -1    0    0  501    0  0.00000000000E+00  0.00000000000E+00  0.14143572851E+04  0.14143572851E+04  0.50400001928E-02 0. -1.
       -1   -1    0    0    0  501  0.00000000000E+00  0.00000000000E+00 -0.10190714608E+04  0.10190714608E+04  0.50400001928E-02 0.  1.
    10030    2    1    2    0    0  0.00000000000E+00  0.00000000000E+00  0.39528582424E+03  0.24334287459E+04  0.24011090310E+04 0.  0.
        2    1    3    3  502    0 -0.20900693684E+03 -0.59798329409E+03 -0.83591930092E+03  0.10488226720E+04  0.25500000920E-02 0.  1.
       -2    1    3    3    0  502  0.20900693684E+03  0.59798329409E+03  0.12312051252E+04  0.13846060739E+04  0.25500000920E-02 0. -1.
</event>
<event>
 5   0  0.5527286E-07  0.2397024E+04  0.7818609E-02  0.8440619E-01
        1   -1    0    0  501    0  0.00000000000E+00  0.00000000000E+00  0.22763257659E+04  0.22763257659E+04  0.50400001928E-02 0.  1.
       -1   -1    0    0    0  501  0.00000000000E+00  0.00000000000E+00 -0.63103043206E+03  0.63103043208E+03  0.50400001928E-02 0. -1.
    10030    2    1    2    0    0  0.00000000000E+00  0.00000000000E+00  0.16452953338E+04  0.29073561980E+04  0.23970238477E+04 0.  0.
        1    1    3    3  502    0  0.65678770548E+03 -0.98706627329E+03  0.60991925229E+03  0.13332934457E+04  0.50400001928E-02 0.  1.
       -1    1    3    3    0  502 -0.65678770548E+03  0.98706627329E+03  0.10353760815E+04  0.15740627523E+04  0.50400001928E-02 0. -1.
</event>
<event>
 5   0  0.5452384E-07  0.2399972E+04  0.7818609E-02  0.8439514E-01
        1   -1    0    0  501    0  0.00000000000E+00  0.00000000000E+00  0.14145467150E+04  0.14145467150E+04  0.50400001928E-02 0. -1.
       -1   -1    0    0    0  501  0.00000000000E+00  0.00000000000E+00 -0.10179699833E+04  0.10179699833E+04  0.50400001928E-02 0.  1.
    10030    2    1    2    0    0  0.00000000000E+00  0.00000000000E+00  0.39657673172E+03  0.24325166984E+04  0.23999717464E+04 0.  0.
        5    1    3    3  502    0  0.17252573872E+03 -0.10210972453E+04  0.81275964410E+03  0.13164364945E+04  0.46999998093E+01 0. -1.
       -5    1    3    3    0  502 -0.17252573872E+03  0.10210972453E+04 -0.41618291238E+03  0.11160802039E+04  0.46999998093E+01 0.  1.
</event>
<event>
 5   0  0.1307477E-06  0.2396489E+04  0.7818609E-02  0.8440819E-01
        2   -1    0    0  501    0  0.00000000000E+00  0.00000000000E+00  0.19696778462E+04  0.19696778462E+04  0.25500000920E-02 0.  1.
       -2   -1    0    0    0  501  0.00000000000E+00  0.00000000000E+00 -0.72894668889E+03  0.72894668890E+03  0.25500000920E-02 0. -1.
    10030    2    1    2    0    0  0.00000000000E+00  0.00000000000E+00  0.12407311573E+04  0.26986245351E+04  0.23964892190E+04 0.  0.
        5    1    3    3  502    0 -0.29273377080E+03 -0.10763183981E+04  0.12744123944E+03  0.11226832653E+04  0.46999998093E+01 0.  1.
       -5    1    3    3    0  502  0.29273377080E+03  0.10763183981E+04  0.11132899179E+04  0.15759412698E+04  0.46999998093E+01 0. -1.
</event>
<event>
 5   0  0.1291468E-06  0.2403689E+04  0.7818609E-02  0.8438124E-01
       -2   -1    0    0    0  501  0.00000000000E+00  0.00000000000E+00  0.93353013115E+03  0.93353013115E+03  0.25500000920E-02 0.  1.
        2   -1    0    0  501    0  0.00000000000E+00  0.00000000000E+00 -0.15472773294E+04  0.15472773294E+04  0.25500000920E-02 0. -1.
    10030    2    1    2    0    0  0.00000000000E+00  0.00000000000E+00 -0.61374719821E+03  0.24808074605E+04  0.24036888386E+04 0.  0.
        4    1    3    3  502    0  0.75653441144E+03  0.76112771196E+03  0.25156717955E+03  0.11022465098E+04  0.12699999809E+01 0. -1.
       -4    1    3    3    0  502 -0.75653441144E+03 -0.76112771196E+03 -0.86531437776E+03  0.13785609507E+04  0.12699999809E+01 0.  1.
</event>
<event>
 5   0  0.5452384E-07  0.2400371E+04  0.7818609E-02  0.8439365E-01
       -1   -1    0    0    0  501  0.00000000000E+00  0.00000000000E+00  0.19212273503E+04  0.19212273504E+04  0.50400001928E-02 0. -1.
        1   -1    0    0  501    0  0.00000000000E+00  0.00000000000E+00 -0.74975252208E+03  0.74975252210E+03  0.50400001928E-02 0.  1.
    10030    2    1    2    0    0  0.00000000000E+00  0.00000000000E+00  0.11714748283E+04  0.26709798725E+04  0.24003708476E+04 0.  0.
        5    1    3    3  502    0 -0.65758168574E+03  0.94658492753E+03  0.95810738253E+03  0.14988090422E+04  0.46999998093E+01 0.  1.
       -5    1    3    3    0  502  0.65758168574E+03 -0.94658492753E+03  0.21336744574E+03  0.11721708303E+04  0.46999998093E+01 0. -1.
</event>
<event>
 5   0  0.4483375E-07  0.2399826E+04  0.7818609E-02  0.8439569E-01
        3   -1    0    0  501    0  0.00000000000E+00  0.00000000000E+00  0.21094106109E+04  0.21094106133E+04  0.10100000352E+00 0.  1.
       -3   -1    0    0    0  501  0.00000000000E+00  0.00000000000E+00 -0.68255595293E+03  0.68255596041E+03  0.10100000352E+00 0. -1.
    10030    2    1    2    0    0  0.00000000000E+00  0.00000000000E+00  0.14268546579E+04  0.27919665737E+04  0.23998256465E+04 0.  0.
        4    1    3    3  502    0 -0.20005463934E+03 -0.11629161950E+03 -0.65635101802E+03  0.69594818143E+03  0.12699999809E+01 0. -1.
       -4    1    3    3    0  502  0.20005463934E+03  0.11629161950E+03  0.20832056760E+04  0.20960183923E+04  0.12699999809E+01 0.  1.
</event>
<event>
 5   0  0.1275948E-06  0.2400042E+04  0.7818609E-02  0.8439488E-01
        2   -1    0    0  501    0  0.00000000000E+00  0.00000000000E+00  0.16419083363E+04  0.16419083363E+04  0.25500000920E-02 0.  1.
       -2   -1    0    0    0  501  0.00000000000E+00  0.00000000000E+00 -0.87705886941E+03  0.87705886941E+03  0.25500000920E-02 0. -1.
    10030    2    1    2    0    0  0.00000000000E+00  0.00000000000E+00  0.76484946693E+03  0.25189672057E+04  0.24000418906E+04 0.  0.
        1    1    3    3  502    0 -0.11368678356E+04  0.38082583066E+03  0.43546063270E+03  0.12755872183E+04  0.50400001928E-02 0. -1.
       -1    1    3    3    0  502  0.11368678356E+04 -0.38082583066E+03  0.32938883423E+03  0.12433799874E+04  0.50400001928E-02 0.  1.
</event>
<event>
 5   0  0.1291468E-06  0.2398166E+04  0.7818609E-02  0.8440190E-01
       -2   -1    0    0    0  501  0.00000000000E+00  0.00000000000E+00  0.70632150005E+03  0.70632150005E+03  0.25500000920E-02 0. -1.
        2   -1    0    0  501    0  0.00000000000E+00  0.00000000000E+00 -0.20356174202E+04  0.20356174202E+04  0.25500000920E-02 0.  1.
    10030    2    1    2    0    0  0.00000000000E+00  0.00000000000E+00 -0.13292959201E+04  0.27419389202E+04  0.23981662576E+04 0.  0.
        4    1    3    3  502    0 -0.16101267551E+03  0.88221322894E+03  0.24542661404E+03  0.92976400165E+03  0.12699999809E+01 0. -1.
       -4    1    3    3    0  502  0.16101267551E+03 -0.88221322894E+03 -0.15747225342E+04  0.18121749186E+04  0.12699999809E+01 0.  1.
</event>
<event>
 5   0  0.1291468E-06  0.2399886E+04  0.7818609E-02  0.8439546E-01
       -2   -1    0    0    0  501  0.00000000000E+00  0.00000000000E+00  0.10094021663E+04  0.10094021663E+04  0.25500000920E-02 0.  1.
        2   -1    0    0  501    0  0.00000000000E+00  0.00000000000E+00 -0.14264509613E+04  0.14264509613E+04  0.25500000920E-02 0. -1.
    10030    2    1    2    0    0  0.00000000000E+00  0.00000000000E+00 -0.41704879506E+03  0.24358531276E+04  0.23998855727E+04 0.  0.
        4    1    3    3  502    0  0.58126290282E+03  0.22911896537E+03 -0.12483286310E+04  0.13959541705E+04  0.12699999809E+01 0. -1.
       -4    1    3    3    0  502 -0.58126290282E+03 -0.22911896537E+03  0.83127983589E+03  0.10398989571E+04  0.12699999809E+01 0.  1.
</event>
<event>
 5   0  0.5363690E-07  0.2399438E+04  0.7818609E-02  0.8439714E-01
       -1   -1    0    0    0  501  0.00000000000E+00  0.00000000000E+00  0.86246963079E+03  0.86246963080E+03  0.50400001928E-02 0.  1.
        1   -1    0    0  501    0  0.00000000000E+00  0.00000000000E+00 -0.16688427017E+04  0.16688427017E+04  0.50400001928E-02 0. -1.
    10030    2    1    2    0    0  0.00000000000E+00  0.00000000000E+00 -0.80637307092E+03  0.25313123325E+04  0.23994383916E+04 0.  0.
        4    1    3    3  502    0 -0.10983676891E+04 -0.33448314436E+03 -0.77020658680E+03  0.13825738149E+04  0.12699999809E+01 0. -1.
       -4    1    3    3    0  502  0.10983676891E+04  0.33448314436E+03 -0.36166484117E+02  0.11487385176E+04  0.12699999809E+01 0.  1.
</event>
<event>
 5   0  0.5510176E-07  0.2399605E+04  0.7818609E-02  0.8439651E-01
       -1   -1    0    0    0  501  0.00000000000E+00  0.00000000000E+00  0.77153175032E+03  0.77153175033E+03  0.50400001928E-02 0.  1.
        1   -1    0    0  501    0  0.00000000000E+00  0.00000000000E+00 -0.18658026416E+04  0.18658026416E+04  0.50400001928E-02 0. -1.
    10030    2    1    2    0    0  0.00000000000E+00  0.00000000000E+00 -0.10942708913E+04  0.26373343920E+04  0.23996049490E+04 0.  0.
        3    1    3    3  502    0  0.68723366777E+03  0.94940069206E+03 -0.26504845447E+03  0.12016249338E+04  0.10100000352E+00 0.  1.
       -3    1    3    3    0  502 -0.68723366777E+03 -0.94940069206E+03 -0.82922243684E+03  0.14357094581E+04  0.10100000352E+00 0. -1.
</event>
<event>
 5   0  0.5510176E-07  0.2400479E+04  0.7818609E-02  0.8439324E-01
       -1   -1    0    0    0  501  0.00000000000E+00  0.00000000000E+00  0.11019941906E+04  0.11019941906E+04  0.50400001928E-02 0.  1.
        1   -1    0    0  501    0  0.00000000000E+00  0.00000000000E+00 -0.13072437634E+04  0.13072437634E+04  0.50400001928E-02 0. -1.
    10030    2    1    2    0    0  0.00000000000E+00  0.00000000000E+00 -0.20524957275E+03  0.24092379540E+04  0.24004791463E+04 0.  0.
        3    1    3    3  502    0 -0.42893478780E+03  0.33919600262E+03 -0.11749501363E+04  0.12959733074E+04  0.10100000352E+00 0. -1.
       -3    1    3    3    0  502  0.42893478780E+03 -0.33919600262E+03  0.96970056355E+03  0.11132646467E+04  0.10100000352E+00 0.  1.
</event>
<event>
 5   0  0.1291468E-06  0.2404022E+04  0.7818609E-02  0.8437999E-01
        2   -1    0    0  501    0  0.00000000000E+00  0.00000000000E+00  0.91723643993E+03  0.91723643994E+03  0.25500000920E-02 0. -1.
       -2   -1    0    0    0  501  0.00000000000E+00  0.00000000000E+00 -0.15751990350E+04  0.15751990350E+04  0.25500000920E-02 0.  1.
    10030    2    1    2    0    0  0.00000000000E+00  0.00000000000E+00 -0.65796259506E+03  0.24924354749E+04  0.24040215931E+04 0.  0.
        4    1    3    3  502    0 -0.10396232076E+04  0.33405884604E+03 -0.84986951008E+03  0.13837237887E+04  0.12699999809E+01 0. -1.
       -4    1    3    3    0  502  0.10396232076E+04 -0.33405884604E+03  0.19190691502E+03  0.11087116863E+04  0.12699999809E+01 0.  1.
</event>
<event>
 5   0  0.5363690E-07  0.2401369E+04  0.7818609E-02  0.8438991E-01
        1   -1    0    0  501    0  0.00000000000E+00  0.00000000000E+00  0.14573681660E+04  0.14573681660E+04  0.50400001928E-02 0.  1.
       -1   -1    0    0    0  501  0.00000000000E+00  0.00000000000E+00 -0.98920967450E+03  0.98920967452E+03  0.50400001928E-02 0. -1.
    10030    2    1    2    0    0  0.00000000000E+00  0.00000000000E+00  0.46815849150E+03  0.24465778405E+04  0.24013685175E+04 0.  0.
        4    1    3    3  502    0  0.22639997515E+03 -0.80851807994E+03 -0.64038175124E+03  0.10559587277E+04  0.12699999809E+01 0. -1.
       -4    1    3    3    0  502 -0.22639997515E+03  0.80851807994E+03  0.11085402427E+04  0.13906191129E+04  0.12699999809E+01 0.  1.
</event>
<event>
 5   0  0.1275948E-06  0.2399812E+04  0.7818609E-02  0.8439574E-01
       -2   -1    0    0    0  501  0.00000000000E+00  0.00000000000E+00  0.56427412575E+03  0.56427412576E+03  0.25500000920E-02 0. -1.
        2   -1    0    0  501    0  0.00000000000E+00  0.00000000000E+00 -0.25515515939E+04  0.25515515939E+04  0.25500000920E-02 0.  1.
    10030    2    1    2    0    0  0.00000000000E+00  0.00000000000E+00 -0.19872774682E+04  0.31158257197E+04  0.23998121135E+04 0.  0.
        1    1    3    3  502    0  0.66996898756E+03  0.10934427752E+03 -0.22782696650E+04  0.23772520443E+04  0.50400001928E-02 0.  1.
       -1    1    3    3    0  502 -0.66996898756E+03 -0.10934427752E+03  0.29099219689E+03  0.73857367540E+03  0.50400001928E-02 0. -1.
</event>
<event>
 5   0  0.5452384E-07  0.2399752E+04  0.7818609E-02  0.8439596E-01
       -1   -1    0    0    0  501  0.00000000000E+00  0.00000000000E+00  0.72960238725E+03  0.72960238726E+03  0.50400001928E-02 0. -1.
        1   -1    0    0  501    0  0.00000000000E+00  0.00000000000E+00 -0.19732697893E+04  0.19732697893E+04  0.50400001928E-02 0.  1.
    10030    2    1    2    0    0  0.00000000000E+00  0.00000000000E+00 -0.12436674021E+04  0.27028721766E+04  0.23997519447E+04 0.  0.
        5    1    3    3  502    0  0.11753106266E+04 -0.13584687262E+03 -0.84673228670E+03  0.14549182441E+04  0.46999998093E+01 0.  1.
       -5    1    3    3    0  502 -0.11753106266E+04  0.13584687262E+03 -0.39693511535E+03  0.12479539325E+04  0.46999998093E+01 0. -1.
</event>
<event>
 5   0  0.1308662E-06  0.2403189E+04  0.7818609E-02  0.8438311E-01
        2   -1    0    0  501    0  0.00000000000E+00  0.00000000000E+00  0.99267837627E+03  0.99267837628E+03  0.25500000920E-02 0.  1.
       -2   -1    0    0    0  501  0.00000000000E+00  0.00000000000E+00 -0.14544785866E+04  0.14544785866E+04  0.25500000920E-02 0. -1.
    10030    2    1    2    0    0  0.00000000000E+00  0.00000000000E+00 -0.46180021032E+03  0.24471569629E+04  0.24031890826E+04 0.  0.
        3    1    3    3  502    0 -0.33013255636E+03 -0.10866388936E+04 -0.63058320806E+03  0.12990022257E+04  0.10100000352E+00 0. -1.
       -3    1    3    3    0  502  0.33013255636E+03  0.10866388936E+04  0.16878299774E+03  0.11481547372E+04  0.10100000352E+00 0.  1.
</event>
<event>
 5   0  0.1275948E-06  0.2410192E+04  0.7818609E-02  0.8435698E-01
        2   -1    0    0  501    0  0.00000000000E+00  0.00000000000E+00  0.16898324756E+04  0.16898324756E+04  0.25500000920E-02 0. -1.
       -2   -1    0    0    0  501  0.00000000000E+00  0.00000000000E+00 -0.85940824747E+03  0.85940824748E+03  0.25500000920E-02 0.  1.
    10030    2    1    2    0    0  0.00000000000E+00  0.00000000000E+00  0.83042422812E+03  0.25492407231E+04  0.24101916657E+04 0.  0.
        1    1    3    3  502    0  0.71002007671E+03 -0.22289927067E+03  0.14177588371E+04  0.16012035206E+04  0.50400001928E-02 0. -1.
       -1    1    3    3    0  502 -0.71002007671E+03  0.22289927067E+03 -0.58733460903E+03  0.94803720243E+03  0.50400001928E-02 0.  1.
</event>
<event>
 5   0  0.5452384E-07  0.2399931E+04  0.7818609E-02  0.8439530E-01
        1   -1    0    0  501    0  0.00000000000E+00  0.00000000000E+00  0.12453796023E+04  0.12453796023E+04  0.50400001928E-02 0.  1.
       -1   -1    0    0    0  501  0.00000000000E+00  0.00000000000E+00 -0.11562071160E+04  0.11562071160E+04  0.50400001928E-02 0. -1.
    10030    2    1    2    0    0  0.00000000000E+00  0.00000000000E+00  0.89172486347E+02  0.24015867184E+04  0.23999306310E+04 0.  0.
        5    1    3    3  502    0  0.50297913758E+03 -0.10689455276E+04 -0.16594456785E+03  0.11929762124E+04  0.46999998093E+01 0. -1.
       -5    1    3    3    0  502 -0.50297913758E+03  0.10689455276E+04  0.25511705420E+03  0.12086105060E+04  0.46999998093E+01 0.  1.
</event>
<event>
 5   0  0.5690124E-07  0.2403467E+04  0.7818609E-02  0.8438207E-01
       -1   -1    0    0    0  501  0.00000000000E+00  0.00000000000E+00  0.57596083537E+03  0.57596083539E+03  0.50400001928E-02 0. -1.
        1   -1    0    0  501    0  0.00000000000E+00  0.00000000000E+00 -0.25073995561E+04  0.25073995561E+04  0.50400001928E-02 0.  1.
    10030    2    1    2    0    0  0.00000000000E+00  0.00000000000E+00 -0.19314387207E+04  0.30833603915E+04  0.24034674477E+04 0.  0.
        2    1    3    3  502    0 -0.92804343403E+03  0.39377194169E+02 -0.19438670231E+04  0.21543987983E+04  0.25500000920E-02 0.  1.
       -2    1    3    3    0  502  0.92804343403E+03 -0.39377194169E+02  0.12428302345E+02  0.92896159316E+03  0.25500000920E-02 0. -1.
</event>
<event>
 5   0  0.1336057E-06  0.2396608E+04  0.7818609E-02  0.8440774E-01
        2   -1    0    0  501    0  0.00000000000E+00  0.00000000000E+00  0.15029540737E+04  0.15029540737E+04  0.25500000920E-02 0. -1.
       -2   -1    0    0    0  501  0.00000000000E+00  0.00000000000E+00 -0.95540690145E+03  0.95540690145E+03  0.25500000920E-02 0.  1.
    10030    2    1    2    0    0  0.00000000000E+00  0.00000000000E+00  0.54754717225E+03  0.24583609751E+04  0.23966081821E+04 0.  0.
        2    1    3    3  502    0  0.91503476021E+03 -0.76576773033E+03  0.38727672924E+03  0.12544608779E+04  0.25500000920E-02 0. -1.
       -2    1    3    3    0  502 -0.91503476021E+03  0.76576773033E+03  0.16027044300E+03  0.12039000972E+04  0.25500000920E-02 0.  1.
</event>
<event>
 5   0  0.1336057E-06  0.2399211E+04  0.7818609E-02  0.8439799E-01
       -2   -1    0    0    0  501  0.00000000000E+00  0.00000000000E+00  0.73863213362E+03  0.73863213363E+03  0.25500000920E-02 0. -1.
        2   -1    0    0  501    0  0.00000000000E+00  0.00000000000E+00 -0.19482678183E+04  0.19482678183E+04  0.25500000920E-02 0.  1.
    10030    2    1    2    0    0  0.00000000000E+00  0.00000000000E+00 -0.12096356846E+04  0.26868999519E+04  0.23992108832E+04 0.  0.
        2    1    3    3  502    0  0.97808220681E+02 -0.51719129860E+03  0.60240132817E+03  0.79996290387E+03  0.25500000920E-02 0. -1.
       -2    1    3    3    0  502 -0.97808220681E+02  0.51719129860E+03 -0.18120370128E+04  0.18869370480E+04  0.25500000920E-02 0.  1.
</event>
<event>
 5   0  0.5510176E-07  0.2398616E+04  0.7818609E-02  0.8440022E-01
       -1   -1    0    0    0  501  0.00000000000E+00  0.00000000000E+00  0.10283824728E+04  0.10283824728E+04  0.50400001928E-02 0. -1.
        1   -1    0    0  501    0  0.00000000000E+00  0.00000000000E+00 -0.13986431493E+04  0.13986431493E+04  0.50400001928E-02 0.  1.
    10030    2    1    2    0    0  0.00000000000E+00  0.00000000000E+00 -0.37026067649E+03  0.24270256221E+04  0.23986163515E+04 0.  0.
        3    1    3    3  502    0  0.89925080710E+03  0.68553708182E+03 -0.58952249053E+03  0.12752058193E+04  0.10100000352E+00 0.  1.
       -3    1    3    3    0  502 -0.89925080710E+03 -0.68553708182E+03  0.21926181404E+03  0.11518198027E+04  0.10100000352E+00 0. -1.
</event>
<event>
 5   0  0.5690124E-07  0.2398928E+04  0.7818609E-02  0.8439905E-01
        1   -1    0    0  501    0  0.00000000000E+00  0.00000000000E+00  0.17555967062E+04  0.17555967062E+04  0.50400001928E-02 0.  1.
       -1   -1    0    0    0  501  0.00000000000E+00  0.00000000000E+00 -0.81950132697E+03  0.81950132698E+03  0.50400001928E-02 0. -1.
    10030    2    1    2    0    0  0.00000000000E+00  0.00000000000E+00  0.93609537921E+03  0.25750980332E+04  0.23989279525E+04 0.  0.
        2    1    3    3  502    0 -0.33001292749E+03 -0.11411026728E+04  0.64667092294E+03  0.13524818390E+04  0.25500000920E-02 0. -1.
       -2    1    3    3    0  502  0.33001292749E+03  0.11411026728E+04  0.28942445627E+03  0.12226161941E+04  0.25500000920E-02 0.  1.
</event>
<event>
 5   0  0.1275948E-06  0.2400237E+04  0.7818609E-02  0.8439415E-01
       -2   -1    0    0    0  501  0.00000000000E+00  0.00000000000E+00  0.11067486655E+04  0.11067486655E+04  0.25500000920E-02 0. -1.
        2   -1    0    0  501    0  0.00000000000E+00  0.00000000000E+00 -0.13013652171E+04  0.13013652171E+04  0.25500000920E-02 0.  1.
    10030    2    1    2    0    0  0.00000000000E+00  0.00000000000E+00 -0.19461655160E+03  0.24081138827E+04  0.24002368362E+04 0.  0.
        1    1    3    3  502    0  0.24772666342E+03  0.39599082091E+03  0.10118091748E+04  0.11144213908E+04  0.50400001928E-02 0. -1.
       -1    1    3    3    0  502 -0.24772666342E+03 -0.39599082091E+03 -0.12064257264E+04  0.12936924919E+04  0.50400001928E-02 0.  1.
</event>
<event>
 5   0  0.5363690E-07  0.2398951E+04  0.7818609E-02  0.8439897E-01
       -1   -1    0    0    0  501  0.00000000000E+00  0.00000000000E+00  0.85648520842E+03  0.85648520844E+03  0.50400001928E-02 0.  1.
        1   -1    0    0  501    0  0.00000000000E+00  0.00000000000E+00 -0.16798199435E+04  0.16798199435E+04  0.50400001928E-02 0. -1.
    10030    2    1    2    0    0  0.00000000000E+00  0.00000000000E+00 -0.82333473510E+03  0.25363051520E+04  0.23989505493E+04 0.  0.
        4    1    3    3  502    0  0.85774571689E+03  0.69975051920E+03  0.76689772355E+02  0.11096222051E+04  0.12699999809E+01 0.  1.
       -4    1    3    3    0  502 -0.85774571689E+03 -0.69975051920E+03 -0.90002450746E+03  0.14266829469E+04  0.12699999809E+01 0. -1.
</event>
<event>
 5   0  0.1275948E-06  0.2399537E+04  0.7818609E-02  0.8439677E-01
        2   -1    0    0  501    0  0.00000000000E+00  0.00000000000E+00  0.23885147716E+04  0.23885147716E+04  0.25500000920E-02 0.  1.
       -2   -1    0    0    0  501  0.00000000000E+00  0.00000000000E+00 -0.60265227224E+03  0.60265227225E+03  0.25500000920E-02 0. -1.
    10030    2    1    2    0    0  0.00000000000E+00  0.00000000000E+00  0.17858624993E+04  0.29911670438E+04  0.23995365006E+04 0.  0.
        1    1    3    3  502    0  0.11481324823E+04  0.12294682601E+03  0.12990110490E+04  0.17380315947E+04  0.50400001928E-02 0.  1.
       -1    1    3    3    0  502 -0.11481324823E+04 -0.12294682601E+03  0.48685145037E+03  0.12531354491E+04  0.50400001928E-02 0. -1.
</event>
<event>
 5   0  0.5527286E-07  0.2400110E+04  0.7818609E-02  0.8439462E-01
       -1   -1    0    0    0  501  0.00000000000E+00  0.00000000000E+00  0.57131170061E+03  0.57131170063E+03  0.50400001928E-02 0. -1.
        1   -1    0    0  501    0  0.00000000000E+00  0.00000000000E+00 -0.25207471744E+04  0.25207471744E+04  0.50400001928E-02 0.  1.
    10030    2    1    2    0    0  0.00000000000E+00  0.00000000000E+00 -0.19494354738E+04  0.30920588751E+04  0.24001102934E+04 0.  0.
        1    1    3    3  502    0 -0.54570421485E+03 -0.80681798570E+03 -0.18777994789E+04  0.21153910359E+04  0.50400001928E-02 0.  1.
       -1    1    3    3    0  502  0.54570421485E+03  0.80681798570E+03 -0.71635994964E+02  0.97666783912E+03  0.50400001928E-02 0. -1.
</event>
<event>
 5   0  0.1291468E-06  0.2400538E+04  0.7818609E-02  0.8439302E-01
        2   -1    0    0  501    0  0.00000000000E+00  0.00000000000E+00  0.17264992592E+04  0.17264992592E+04  0.25500000920E-02 0. -1.
       -2   -1    0    0    0  501  0.00000000000E+00  0.00000000000E+00 -0.83443170283E+03  0.83443170283E+03  0.25500000920E-02 0.  1.
    10030    2    1    2    0    0  0.00000000000E+00  0.00000000000E+00  0.89206755638E+03  0.25609309620E+04  0.24005380370E+04 0.  0.
        4    1    3    3  502    0 -0.47108528708E+03 -0.45505605360E+03 -0.62697610737E+03  0.90669620697E+03  0.12699999809E+01 0.  1.
       -4    1    3    3    0  502  0.47108528708E+03  0.45505605360E+03  0.15190436638E+04  0.16542347551E+04  0.12699999809E+01 0. -1.
</event>
<event>
 5   0  0.4483375E-07  0.2397195E+04  0.7818609E-02  0.8440554E-01
        3   -1    0    0  501    0  0.00000000000E+00  0.00000000000E+00  0.12537335654E+04  0.12537335695E+04  0.10100000352E+00 0. -1.
       -3   -1    0    0    0  501  0.00000000000E+00  0.00000000000E+00 -0.11458860937E+04  0.11458860982E+04  0.10100000352E+00 0.  1.
    10030    2    1    2    0    0  0.00000000000E+00  0.00000000000E+00  0.10784747168E+03  0.23996196676E+04  0.23971949174E+04 0.  0.
        4    1    3    3  502    0  0.42217900507E+03 -0.74485971992E+03  0.89357080556E+03  0.12375465697E+04  0.12699999809E+01 0. -1.
       -4    1    3    3    0  502 -0.42217900507E+03  0.74485971992E+03 -0.78572333388E+03  0.11620730980E+04  0.12699999809E+01 0.  1.
</event>
<event>
 5   0  0.1308662E-06  0.2398125E+04  0.7818609E-02  0.8440206E-01
        2   -1    0    0  501    0  0.00000000000E+00  0.00000000000E+00  0.17146779787E+04  0.17146779787E+04  0.25500000920E-02 0. -1.
       -2   -1    0    0    0  501  0.00000000000E+00  0.00000000000E+00 -0.83849606254E+03  0.83849606255E+03  0.25500000920E-02 0.  1.
    10030    2    1    2    0    0  0.00000000000E+00  0.00000000000E+00  0.87618191613E+03  0.25531740412E+04  0.23981248789E+04 0.  0.
        3    1    3    3  502    0  0.69919409649E+03 -0.81020828752E+03  0.10138326225E+04  0.14741663578E+04  0.10100000352E+00 0.  1.
       -3    1    3    3    0  502 -0.69919409649E+03  0.81020828752E+03 -0.13765070640E+03  0.10790076834E+04  0.10100000352E+00 0. -1.
</event>
<event>
 5   0  0.1336057E-06  0.2398610E+04  0.7818609E-02  0.8440024E-01
        2   -1    0    0  501    0  0.00000000000E+00  0.00000000000E+00  0.18289026572E+04  0.18289026572E+04  0.25500000920E-02 0.  1.
       -2   -1    0    0    0  501  0.00000000000E+00  0.00000000000E+00 -0.78644580411E+03  0.78644580412E+03  0.25500000920E-02 0. -1.
    10030    2    1    2    0    0  0.00000000000E+00  0.00000000000E+00  0.10424568531E+04  0.26153484614E+04  0.23986102818E+04 0.  0.
        2    1    3    3  502    0  0.73171866566E+03 -0.88233011193E+03  0.90582448266E+03  0.14609711241E+04  0.25500000920E-02 0. -1.
       -2    1    3    3    0  502 -0.73171866566E+03  0.88233011193E+03  0.13663237047E+03  0.11543773373E+04  0.25500000920E-02 0.  1.
</event>
<event>
 5   0  0.1275948E-06  0.2398616E+04  0.7818609E-02  0.8440022E-01
        2   -1    0    0  501    0  0.00000000000E+00  0.00000000000E+00  0.86706501289E+03  0.86706501289E+03  0.25500000920E-02 0.  1.
       -2   -1    0    0    0  501  0.00000000000E+00  0.00000000000E+00 -0.16588600208E+04  0.16588600208E+04  0.25500000920E-02 0. -1.
    10030    2    1    2    0    0  0.00000000000E+00  0.00000000000E+00 -0.79179500791E+03  0.25259250337E+04  0.23986158386E+04 0.  0.
        1    1    3    3  502    0  0.52027305027E+03 -0.81948658857E+03 -0.11376228752E+04  0.14954691979E+04  0.50400001928E-02 0. -1.
       -1    1    3    3    0  502 -0.52027305027E+03  0.81948658857E+03  0.34582786730E+03  0.10304558358E+04  0.50400001928E-02 0.  1.
</event>
<event>
 5   0  0.5363690E-07  0.2399619E+04  0.7818609E-02  0.8439646E-01
       -1   -1    0    0    0  501  0.00000000000E+00  0.00000000000E+00  0.13874485756E+04  0.13874485756E+04  0.50400001928E-02 0.  1.
        1   -1    0    0  501    0  0.00000000000E+00  0.00000000000E+00 -0.10375465810E+04  0.10375465810E+04  0.50400001928E-02 0. -1.
    10030    2    1    2    0    0  0.00000000000E+00  0.00000000000E+00  0.34990199461E+03  0.24249951566E+04  0.23996187414E+04 0.  0.
        4    1    3    3  502    0  0.93352434472E+03  0.72382226427E+03  0.38730297780E+03  0.12431377968E+04  0.12699999809E+01 0.  1.
       -4    1    3    3    0  502 -0.93352434472E+03 -0.72382226427E+03 -0.37400983188E+02  0.11818573598E+04  0.12699999809E+01 0. -1.
</event>
<event>
 5   0  0.1336057E-06  0.2402558E+04  0.7818609E-02  0.8438547E-01
        2   -1    0    0  501    0  0.00000000000E+00  0.00000000000E+00  0.10652992353E+04  0.10652992353E+04  0.25500000920E-02 0. -1.
       -2   -1    0    0    0  501  0.00000000000E+00  0.00000000000E+00 -0.13546157195E+04  0.13546157195E+04  0.25500000920E-02 0.  1.
    10030    2    1    2    0    0  0.00000000000E+00  0.00000000000E+00 -0.28931648414E+03  0.24199149548E+04  0.24025578787E+04 0.  0.
        2    1    3    3  502    0 -0.93211567264E+03 -0.33337420240E+03 -0.83008396951E+03  0.12919045562E+04  0.25500000920E-02 0.  1.
       -2    1    3    3    0  502  0.93211567264E+03  0.33337420240E+03  0.54076748537E+03  0.11280103986E+04  0.25500000920E-02 0. -1.
</event>
<event>
 5   0  0.5510176E-07  0.2399599E+04  0.7818609E-02  0.8439654E-01
        1   -1    0    0  501    0  0.00000000000E+00  0.00000000000E+00  0.94494715794E+03  0.94494715795E+03  0.50400001928E-02 0. -1.
       -1   -1    0    0    0  501  0.00000000000E+00  0.00000000000E+00 -0.15233859962E+04  0.15233859962E+04  0.50400001928E-02 0.  1.
    10030    2    1    2    0    0  0.00000000000E+00  0.00000000000E+00 -0.57843883823E+03  0.24683331541E+04  0.23995993562E+04 0.  0.
        3    1    3    3  502    0 -0.37615892310E+02 -0.11802984531E+03 -0.15167899470E+04  0.15218402522E+04  0.10100000352E+00 0.  1.
       -3    1    3    3    0  502  0.37615892310E+02  0.11802984531E+03  0.93835110880E+03  0.94649290189E+03  0.10100000352E+00 0. -1.
</event>
<event>
 5   0  0.5363690E-07  0.2400052E+04  0.7818609E-02  0.8439484E-01
       -1   -1    0    0    0  501  0.00000000000E+00  0.00000000000E+00  0.68375945253E+03  0.68375945255E+03  0.50400001928E-02 0. -1.
        1   -1    0    0  501    0  0.00000000000E+00  0.00000000000E+00 -0.21060956686E+04  0.21060956686E+04  0.50400001928E-02 0.  1.
    10030    2    1    2    0    0  0.00000000000E+00  0.00000000000E+00 -0.14223362161E+04  0.27898551212E+04  0.24000523506E+04 0.  0.
        4    1    3    3  502    0  0.21957405726E+03  0.61467324306E+03 -0.18817055764E+04  0.19916961242E+04  0.12699999809E+01 0.  1.
       -4    1    3    3    0  502 -0.21957405726E+03 -0.61467324306E+03  0.45936936025E+03  0.79815899694E+03  0.12699999809E+01 0. -1.
</event>
<event>
 5   0  0.5690124E-07  0.2400163E+04  0.7818609E-02  0.8439443E-01
        1   -1    0    0  501    0  0.00000000000E+00  0.00000000000E+00  0.28270224783E+04  0.28270224783E+04  0.50400001928E-02 0.  1.
       -1   -1    0    0    0  501  0.00000000000E+00  0.00000000000E+00 -0.50943903632E+03  0.50943903635E+03  0.50400001928E-02 0. -1.
    10030    2    1    2    0    0  0.00000000000E+00  0.00000000000E+00  0.23175834419E+04  0.33364615146E+04  0.24001630003E+04 0.  0.
        2    1    3    3  502    0 -0.32428352173E+03  0.10996911153E+04  0.16516696536E+04  0.20105951846E+04  0.25500000920E-02 0.  1.
       -2    1    3    3    0  502  0.32428352173E+03 -0.10996911153E+04  0.66591378835E+03  0.13258663300E+04  0.25500000920E-02 0. -1.
</event>
<event>
 5   0  0.5452384E-07  0.2400262E+04  0.7818609E-02  0.8439406E-01
        1   -1    0    0  501    0  0.00000000000E+00  0.00000000000E+00  0.14576699217E+04  0.14576699217E+04  0.50400001928E-02 0.  1.
       -1   -1    0    0    0  501  0.00000000000E+00  0.00000000000E+00 -0.98809358698E+03  0.98809358700E+03  0.50400001928E-02 0. -1.
    10030    2    1    2    0    0  0.00000000000E+00  0.00000000000E+00  0.46957633472E+03  0.24457635087E+04  0.24002619037E+04 0.  0.
        5    1    3    3  502    0 -0.85026141354E+02 -0.10688307331E+04  0.78414075675E+03  0.13283551472E+04  0.46999998093E+01 0.  1.
       -5    1    3    3    0  502  0.85026141354E+02  0.10688307331E+04 -0.31456442203E+03  0.11174083615E+04  0.46999998093E+01 0. -1.
</event>
<event>
 5   0  0.1308662E-06  0.2401259E+04  0.7818609E-02  0.8439032E-01
        2   -1    0    0  501    0  0.00000000000E+00  0.00000000000E+00  0.91391027208E+03  0.91391027209E+03  0.25500000920E-02 0.  1.
       -2   -1    0    0    0  501  0.00000000000E+00  0.00000000000E+00 -0.15773010525E+04  0.15773010525E+04  0.25500000920E-02 0. -1.
    10030    2    1    2    0    0  0.00000000000E+00  0.00000000000E+00 -0.66339078046E+03  0.24912113246E+04  0.24012593647E+04 0.  0.
        3    1    3    3  502    0  0.46330049374E+03  0.59623173187E+03 -0.13001366807E+04  0.15034942714E+04  0.10100000352E+00 0. -1.
       -3    1    3    3    0  502 -0.46330049374E+03 -0.59623173187E+03  0.63674590020E+03  0.98771705321E+03  0.10100000352E+00 0.  1.
</event>
<event>
 5   0  0.1291468E-06  0.2399727E+04  0.7818609E-02  0.8439606E-01
       -2   -1    0    0    0  501  0.00000000000E+00  0.00000000000E+00  0.12468348083E+04  0.12468348083E+04  0.25500000920E-02 0.  1.
        2   -1    0    0  501    0  0.00000000000E+00  0.00000000000E+00 -0.11546619267E+04  0.11546619267E+04  0.25500000920E-02 0. -1.
    10030    2    1    2    0    0  0.00000000000E+00  0.00000000000E+00  0.92172881625E+02  0.24014967350E+04  0.23997272195E+04 0.  0.
        4    1    3    3  502    0 -0.11205536391E+03  0.22509200943E+03  0.12201728671E+04  0.12458114848E+04  0.12699999809E+01 0.  1.
       -4    1    3    3    0  502  0.11205536391E+03 -0.22509200943E+03 -0.11279999855E+04  0.11556852501E+04  0.12699999809E+01 0. -1.
</event>
<event>
 5   0  0.1307477E-06  0.2399459E+04  0.7818609E-02  0.8439706E-01
        2   -1    0    0  501    0  0.00000000000E+00  0.00000000000E+00  0.94246684446E+03  0.94246684446E+03  0.25500000920E-02 0. -1.
       -2   -1    0    0    0  501  0.00000000000E+00  0.00000000000E+00 -0.15272158694E+04  0.15272158694E+04  0.25500000920E-02 0.  1.
    10030    2    1    2    0    0  0.00000000000E+00  0.00000000000E+00 -0.58474902490E+03  0.24696827138E+04  0.23994585399E+04 0.  0.
        5    1    3    3  502    0  0.36515731173E+03 -0.10658589062E+04 -0.71666859969E+03  0.13353018543E+04  0.46999998093E+01 0.  1.
       -5    1    3    3    0  502 -0.36515731173E+03  0.10658589062E+04  0.13191957479E+03  0.11343808595E+04  0.46999998093E+01 0. -1.
</event>
<event>
 5   0  0.5690124E-07  0.2400424E+04  0.7818609E-02  0.8439345E-01
       -1   -1    0    0    0  501  0.00000000000E+00  0.00000000000E+00  0.71489813645E+03  0.71489813647E+03  0.50400001928E-02 0. -1.
        1   -1    0    0  501    0  0.00000000000E+00  0.00000000000E+00 -0.20149849635E+04  0.20149849635E+04  0.50400001928E-02 0.  1.
    10030    2    1    2    0    0  0.00000000000E+00  0.00000000000E+00 -0.13000868270E+04  0.27298831000E+04  0.24004241254E+04 0.  0.
        2    1    3    3  502    0  0.11368975212E+04 -0.25901247711E+03 -0.97348179921E+03  0.15189767116E+04  0.25500000920E-02 0. -1.
       -2    1    3    3    0  502 -0.11368975212E+04  0.25901247711E+03 -0.32660502781E+03  0.12109063883E+04  0.25500000920E-02 0.  1.
</event>
<event>
 5   0  0.5690124E-07  0.2403288E+04  0.7818609E-02  0.8438274E-01
       -1   -1    0    0    0  501  0.00000000000E+00  0.00000000000E+00  0.10839264814E+04  0.10839264814E+04  0.50400001928E-02 0. -1.
        1   -1    0    0  501    0  0.00000000000E+00  0.00000000000E+00 -0.13321460877E+04  0.13321460877E+04  0.50400001928E-02 0.  1.
    10030    2    1    2    0    0  0.00000000000E+00  0.00000000000E+00 -0.24821960627E+03  0.24160725691E+04  0.24032880988E+04 0.  0.
        2    1    3    3  502    0 -0.19202002856E+03 -0.30815923481E+03  0.10274593564E+04  0.10897277341E+04  0.25500000920E-02 0. -1.
       -2    1    3    3    0  502  0.19202002856E+03  0.30815923481E+03 -0.12756789627E+04  0.13263448350E+04  0.25500000920E-02 0.  1.
</event>
<event>
 5   0  0.4483375E-07  0.2400764E+04  0.7818609E-02  0.8439218E-01
        3   -1    0    0  501    0  0.00000000000E+00  0.00000000000E+00  0.20261696117E+04  0.20261696142E+04  0.10100000352E+00 0. -1.
       -3   -1    0    0    0  501  0.00000000000E+00  0.00000000000E+00 -0.71115294404E+03  0.71115295121E+03  0.10100000352E+00 0.  1.
    10030    2    1    2    0    0  0.00000000000E+00  0.00000000000E+00  0.13150166677E+04  0.27373225654E+04  0.24007636266E+04 0.  0.
        1    1    3    3  502    0 -0.72184960504E+03 -0.45426795620E+03  0.16206066028E+04  0.18313361214E+04  0.50400001928E-02 0. -1.
       -1    1    3    3    0  502  0.72184960504E+03  0.45426795620E+03 -0.30558993515E+03  0.90598644406E+03  0.50400001928E-02 0.  1.
</event>
<event>
 5   0  0.4483375E-07  0.2400568E+04  0.7818609E-02  0.8439291E-01
       -3   -1    0    0    0  501  0.00000000000E+00  0.00000000000E+00  0.93582182135E+03  0.93582182680E+03  0.10100000352E+00 0.  1.
        3   -1    0    0  501    0  0.00000000000E+00  0.00000000000E+00 -0.15394831861E+04  0.15394831895E+04  0.10100000352E+00 0. -1.
    10030    2    1    2    0    0  0.00000000000E+00  0.00000000000E+00 -0.60366136479E+03  0.24753050163E+04  0.24005682411E+04 0.  0.
        4    1    3    3  502    0 -0.75060697780E+03  0.63585759783E+03  0.40729695168E+03  0.10647150509E+04  0.12699999809E+01 0.  1.
       -4    1    3    3    0  502  0.75060697780E+03 -0.63585759783E+03 -0.10109583165E+04  0.14105899654E+04  0.12699999809E+01 0. -1.
</event>
<event>
 5   0  0.5363690E-07  0.2399994E+04  0.7818609E-02  0.8439506E-01
        1   -1    0    0  501    0  0.00000000000E+00  0.00000000000E+00  0.10173254025E+04  0.10173254026E+04  0.50400001928E-02 0.  1.
       -1   -1    0    0    0  501  0.00000000000E+00  0.00000000000E+00 -0.14154686920E+04  0.14154686920E+04  0.50400001928E-02 0. -1.
    10030    2    1    2    0    0  0.00000000000E+00  0.00000000000E+00 -0.39814328948E+03  0.24327940946E+04  0.23999935474E+04 0.  0.
        4    1    3    3  502    0 -0.84486754720E+03 -0.83444832497E+03 -0.37430843318E+03  0.12450757388E+04  0.12699999809E+01 0.  1.
       -4    1    3    3    0  502  0.84486754720E+03  0.83444832497E+03 -0.23834856305E+02  0.11877183558E+04  0.12699999809E+01 0. -1.
</event>
<event>
 5   0  0.5527286E-07  0.2400159E+04  0.7818609E-02  0.8439444E-01
       -1   -1    0    0    0  501  0.00000000000E+00  0.00000000000E+00  0.78783635895E+03  0.78783635897E+03  0.50400001928E-02 0.  1.
        1   -1    0    0  501    0  0.00000000000E+00  0.00000000000E+00 -0.18280334116E+04  0.18280334116E+04  0.50400001928E-02 0. -1.
    10030    2    1    2    0    0  0.00000000000E+00  0.00000000000E+00 -0.10401970527E+04  0.26158697706E+04  0.24001593173E+04 0.  0.
        1    1    3    3  502    0 -0.11968516706E+03  0.38150216142E+03  0.71310790219E+03  0.81755202805E+03  0.50400001928E-02 0.  1.
       -1    1    3    3    0  502  0.11968516706E+03 -0.38150216142E+03 -0.17533049549E+04  0.17983177426E+04  0.50400001928E-02 0. -1.
</event>
<event>
 5   0  0.1291468E-06  0.2400345E+04  0.7818609E-02  0.8439375E-01
        2   -1    0    0  501    0  0.00000000000E+00  0.00000000000E+00  0.14693648013E+04  0.14693648013E+04  0.25500000920E-02 0. -1.
       -2   -1    0    0    0  501  0.00000000000E+00  0.00000000000E+00 -0.98029674700E+03  0.98029674701E+03  0.25500000920E-02 0.  1.
    10030    2    1    2    0    0  0.00000000000E+00  0.00000000000E+00  0.48906805433E+03  0.24496615483E+04  0.24003445877E+04 0.  0.
        4    1    3    3  502    0  0.45201868949E+03 -0.35372239101E+01  0.13791673172E+04  0.14513571267E+04  0.12699999809E+01 0. -1.
       -4    1    3    3    0  502 -0.45201868949E+03  0.35372239101E+01 -0.89009926285E+03  0.99830442162E+03  0.12699999809E+01 0.  1.
</event>
<event>
 5   0  0.1307477E-06  0.2392653E+04  0.7818609E-02  0.8442259E-01
        2   -1    0    0  501    0  0.00000000000E+00  0.00000000000E+00  0.20438402716E+04  0.20438402716E+04  0.25500000920E-02 0.  1.
       -2   -1    0    0    0  501  0.00000000000E+00  0.00000000000E+00 -0.70024882344E+03  0.70024882344E+03  0.25500000920E-02 0. -1.
    10030    2    1    2    0    0  0.00000000000E+00  0.00000000000E+00  0.13435914481E+04  0.27440890950E+04  0.23926527082E+04 0.  0.
        5    1    3    3  502    0 -0.79273688447E+03  0.89044180352E+03  0.78565675282E+03  0.14277944518E+04  0.46999998093E+01 0.  1.
       -5    1    3    3    0  502  0.79273688447E+03 -0.89044180352E+03  0.55793469533E+03  0.13162946432E+04  0.46999998093E+01 0. -1.
</event>
<event>
 5   0  0.5452384E-07  0.2400509E+04  0.7818609E-02  0.8439313E-01
        1   -1    0    0  501    0  0.00000000000E+00  0.00000000000E+00  0.86634820769E+03  0.86634820770E+03  0.50400001928E-02 0. -1.
       -1   -1    0    0    0  501  0.00000000000E+00  0.00000000000E+00 -0.16628546781E+04  0.16628546781E+04  0.50400001928E-02 0.  1.
    10030    2    1    2    0    0  0.00000000000E+00  0.00000000000E+00 -0.79650647042E+03  0.25292028858E+04  0.24005092543E+04 0.  0.
        5    1    3    3  502    0  0.60897945811E+03  0.47985155216E+03 -0.13636021654E+04  0.15686129057E+04  0.46999998093E+01 0.  1.
       -5    1    3    3    0  502 -0.60897945811E+03 -0.47985155216E+03  0.56709569502E+03  0.96058998007E+03  0.46999998093E+01 0. -1.
</event>
<event>
 5   0  0.1275948E-06  0.2399924E+04  0.7818609E-02  0.8439532E-01
        2   -1    0    0  501    0  0.00000000000E+00  0.00000000000E+00  0.24325656039E+04  0.24325656039E+04  0.25500000920E-02 0.  1.
       -2   -1    0    0    0  501  0.00000000000E+00  0.00000000000E+00 -0.59193028579E+03  0.59193028580E+03  0.25500000920E-02 0. -1.
    10030    2    1    2    0    0  0.00000000000E+00  0.00000000000E+00  0.18406353181E+04  0.30244958897E+04  0.23999243764E+04 0.  0.
        1    1    3    3  502    0 -0.61595996457E+03 -0.90362330336E+02 -0.37248699889E+03  0.72547818235E+03  0.50400001928E-02 0. -1.
       -1    1    3    3    0  502  0.61595996457E+03  0.90362330336E+02  0.22131223170E+04  0.22990177073E+04  0.50400001928E-02 0.  1.
</event>
<event>
 5   0  0.1336057E-06  0.2400624E+04  0.7818609E-02  0.8439270E-01
        2   -1    0    0  501    0  0.00000000000E+00  0.00000000000E+00  0.19626845616E+04  0.19626845616E+04  0.25500000920E-02 0. -1.
       -2   -1    0    0    0  501  0.00000000000E+00  0.00000000000E+00 -0.73407046755E+03  0.73407046755E+03  0.25500000920E-02 0.  1.
    10030    2    1    2    0    0  0.00000000000E+00  0.00000000000E+00  0.12286140941E+04  0.26967550292E+04  0.24006238971E+04 0.  0.
        2    1    3    3  502    0 -0.35810400771E+03 -0.45259959698E+03  0.17965898509E+04  0.18870135050E+04  0.25500000920E-02 0. -1.
       -2    1    3    3    0  502  0.35810400771E+03  0.45259959698E+03 -0.56797575689E+03  0.80974152416E+03  0.25500000920E-02 0.  1.
</event>
<event>
 5   0  0.1336057E-06  0.2399436E+04  0.7818609E-02  0.8439715E-01
        2   -1    0    0  501    0  0.00000000000E+00  0.00000000000E+00  0.21819984265E+04  0.21819984265E+04  0.25500000920E-02 0. -1.
       -2   -1    0    0    0  501  0.00000000000E+00  0.00000000000E+00 -0.65963558772E+03  0.65963558772E+03  0.25500000920E-02 0.  1.
    10030    2    1    2    0    0  0.00000000000E+00  0.00000000000E+00  0.15223628388E+04  0.28416340142E+04  0.23994364459E+04 0.  0.
        2    1    3    3  502    0  0.28480038962E+03 -0.11096880066E+04  0.33945848634E+03  0.11948852656E+04  0.25500000920E-02 0.  1.
       -2    1    3    3    0  502 -0.28480038962E+03  0.11096880066E+04  0.11829043524E+04  0.16467487486E+04  0.25500000920E-02 0. -1.
</event>
<event>
 5   0  0.5363690E-07  0.2402372E+04  0.7818609E-02  0.8438616E-01
       -1   -1    0    0    0  501  0.00000000000E+00  0.00000000000E+00  0.11419573177E+04  0.11419573177E+04  0.50400001928E-02 0. -1.
        1   -1    0    0  501    0  0.00000000000E+00  0.00000000000E+00 -0.12634861742E+04  0.12634861742E+04  0.50400001928E-02 0.  1.
    10030    2    1    2    0    0  0.00000000000E+00  0.00000000000E+00 -0.12152885646E+03  0.24054434919E+04  0.24023715637E+04 0.  0.
        4    1    3    3  502    0 -0.62950242153E+03 -0.43076539300E+03 -0.98985910704E+03  0.12496618692E+04  0.12699999809E+01 0.  1.
       -4    1    3    3    0  502  0.62950242153E+03  0.43076539300E+03  0.86833025059E+03  0.11557816228E+04  0.12699999809E+01 0. -1.
</event>
<event>
 5   0  0.5527286E-07  0.2393419E+04  0.7818609E-02  0.8441971E-01
        1   -1    0    0  501    0  0.00000000000E+00  0.00000000000E+00  0.16082808333E+04  0.16082808333E+04  0.50400001928E-02 0.  1.
       -1   -1    0    0    0  501  0.00000000000E+00  0.00000000000E+00 -0.89046276263E+03  0.89046276264E+03  0.50400001928E-02 0. -1.
    10030    2    1    2    0    0  0.00000000000E+00  0.00000000000E+00  0.71781807067E+03  0.24987435959E+04  0.23934194734E+04 0.  0.
        1    1    3    3  502    0  0.22333841017E+03  0.27252276482E+03 -0.83508186452E+03  0.90637212185E+03  0.50400001928E-02 0. -1.
       -1    1    3    3    0  502 -0.22333841017E+03 -0.27252276482E+03  0.15528999352E+04  0.15923714741E+04  0.50400001928E-02 0.  1.
</event>
<event>
 5   0  0.1307477E-06  0.2400952E+04  0.7818609E-02  0.8439147E-01
       -2   -1    0    0    0  501  0.00000000000E+00  0.00000000000E+00  0.62807539877E+03  0.62807539877E+03  0.25500000920E-02 0.  1.
        2   -1    0    0  501    0  0.00000000000E+00  0.00000000000E+00 -0.22945379213E+04  0.22945379213E+04  0.25500000920E-02 0. -1.
    10030    2    1    2    0    0  0.00000000000E+00  0.00000000000E+00 -0.16664625226E+04  0.29226133201E+04  0.24009521611E+04 0.  0.
        5    1    3    3  502    0 -0.65557141310E+03  0.55129560040E+03  0.19059560921E+03  0.87752463951E+03  0.46999998093E+01 0.  1.
       -5    1    3    3    0  502  0.65557141310E+03 -0.55129560040E+03 -0.18570581318E+04  0.20450886806E+04  0.46999998093E+01 0. -1.
</event>
<event>
 5   0  0.5452384E-07  0.2400279E+04  0.7818609E-02  0.8439399E-01
        1   -1    0    0  501    0  0.00000000000E+00  0.00000000000E+00  0.74946085746E+03  0.74946085748E+03  0.50400001928E-02 0.  1.
       -1   -1    0    0    0  501  0.00000000000E+00  0.00000000000E+00 -0.19218283650E+04  0.19218283650E+04  0.50400001928E-02 0. -1.
    10030    2    1    2    0    0  0.00000000000E+00  0.00000000000E+00 -0.11723675075E+04  0.26712892225E+04  0.24002792624E+04 0.  0.
        5    1    3    3  502    0 -0.86717318357E+03  0.71238554348E+03 -0.11292893757E+03  0.11279439382E+04  0.46999998093E+01 0. -1.
       -5    1    3    3    0  502  0.86717318357E+03 -0.71238554348E+03 -0.10594385699E+04  0.15433452842E+04  0.46999998093E+01 0.  1.
</event>
<event>
 5   0  0.1336057E-06  0.2399726E+04  0.7818609E-02  0.8439606E-01
        2   -1    0    0  501    0  0.00000000000E+00  0.00000000000E+00  0.11010734827E+04  0.11010734827E+04  0.25500000920E-02 0. -1.
       -2   -1    0    0    0  501  0.00000000000E+00  0.00000000000E+00 -0.13075164212E+04  0.13075164212E+04  0.25500000920E-02 0.  1.
    10030    2    1    2    0    0  0.00000000000E+00  0.00000000000E+00 -0.20644293857E+03  0.24085899039E+04  0.23997263674E+04 0.  0.
        2    1    3    3  502    0 -0.46353142331E+03  0.85604244067E+03  0.60079756976E+03  0.11439526915E+04  0.25500000920E-02 0. -1.
       -2    1    3    3    0  502  0.46353142331E+03 -0.85604244067E+03 -0.80724050833E+03  0.12646372124E+04  0.25500000920E-02 0.  1.
</event>
<event>
 5   0  0.1291468E-06  0.2399856E+04  0.7818609E-02  0.8439558E-01
        2   -1    0    0  501    0  0.00000000000E+00  0.00000000000E+00  0.14219995868E+04  0.14219995868E+04  0.25500000920E-02 0. -1.
       -2   -1    0    0    0  501  0.00000000000E+00  0.00000000000E+00 -0.10125368173E+04  0.10125368173E+04  0.25500000920E-02 0.  1.
    10030    2    1    2    0    0  0.00000000000E+00  0.00000000000E+00  0.40946276948E+03  0.24345364042E+04  0.23998557756E+04 0.  0.
        4    1    3    3  502    0 -0.10960852454E+04  0.48687486357E+03  0.16711008279E+03  0.12109407048E+04  0.12699999809E+01 0.  1.
       -4    1    3    3    0  502  0.10960852454E+04 -0.48687486357E+03  0.24235268669E+03  0.12235956994E+04  0.12699999809E+01 0. -1.
</event>
<event>
 5   0  0.5363690E-07  0.2400815E+04  0.7818609E-02  0.8439198E-01
       -1   -1    0    0    0  501  0.00000000000E+00  0.00000000000E+00  0.10151317527E+04  0.10151317527E+04  0.50400001928E-02 0. -1.
        1   -1    0    0  501    0  0.00000000000E+00  0.00000000000E+00 -0.14194990184E+04  0.14194990184E+04  0.50400001928E-02 0.  1.
    10030    2    1    2    0    0  0.00000000000E+00  0.00000000000E+00 -0.40436726572E+03  0.24346307711E+04  0.24008153003E+04 0.  0.
        4    1    3    3  502    0 -0.19242026743E+03 -0.11533039170E+04  0.73381587776E+02  0.11715468213E+04  0.12699999809E+01 0.  1.
       -4    1    3    3    0  502  0.19242026743E+03  0.11533039170E+04 -0.47774885350E+03  0.12630839498E+04  0.12699999809E+01 0. -1.
</event>
<event>
 5   0  0.1307477E-06  0.2397421E+04  0.7818609E-02  0.8440470E-01
       -2   -1    0    0    0  501  0.00000000000E+00  0.00000000000E+00  0.10275299604E+04  0.10275299604E+04  0.25500000920E-02 0.  1.
        2   -1    0    0  501    0  0.00000000000E+00  0.00000000000E+00 -0.13984092470E+04  0.13984092470E+04  0.25500000920E-02 0. -1.
    10030    2    1    2    0    0  0.00000000000E+00  0.00000000000E+00 -0.37087928660E+03  0.24259392074E+04  0.23974214466E+04 0.  0.
        5    1    3    3  502    0  0.64570174199E+02 -0.14052195969E+03  0.10173839366E+04  0.10290810916E+04  0.46999998093E+01 0.  1.
       -5    1    3    3    0  502 -0.64570174199E+02  0.14052195969E+03 -0.13882632232E+04  0.13968581158E+04  0.46999998093E+01 0. -1.
</event>
<event>
 5   0  0.1308662E-06  0.2400458E+04  0.7818609E-02  0.8439332E-01
        2   -1    0    0  501    0  0.00000000000E+00  0.00000000000E+00  0.64146535196E+03  0.64146535197E+03  0.25500000920E-02 0. -1.
       -2   -1    0    0    0  501  0.00000000000E+00  0.00000000000E+00 -0.22457166518E+04  0.22457166518E+04  0.25500000920E-02 0.  1.
    10030    2    1    2    0    0  0.00000000000E+00  0.00000000000E+00 -0.16042512999E+04  0.28871820038E+04  0.24004578084E+04 0.  0.
        3    1    3    3  502    0  0.11510389698E+04 -0.21637787834E+03 -0.48655372537E+03  0.12682447059E+04  0.10100000352E+00 0. -1.
       -3    1    3    3    0  502 -0.11510389698E+04  0.21637787834E+03 -0.11176975745E+04  0.16189372979E+04  0.10100000352E+00 0.  1.
</event>
<event>
 5   0  0.1291468E-06  0.2399906E+04  0.7818609E-02  0.8439539E-01
       -2   -1    0    0    0  501  0.00000000000E+00  0.00000000000E+00  0.80845545243E+03  0.80845545244E+03  0.25500000920E-02 0. -1.
        2   -1    0    0  501    0  0.00000000000E+00  0.00000000000E+00 -0.17810349343E+04  0.17810349343E+04  0.25500000920E-02 0.  1.
    10030    2    1    2    0    0  0.00000000000E+00  0.00000000000E+00 -0.97257948183E+03  0.25894903867E+04  0.23999061678E+04 0.  0.
        4    1    3    3  502    0  0.64684254927E+03 -0.10091042502E+04 -0.54722314377E+03  0.13176310004E+04  0.12699999809E+01 0.  1.
       -4    1    3    3    0  502 -0.64684254927E+03  0.10091042502E+04 -0.42535633805E+03  0.12718593863E+04  0.12699999809E+01 0. -1.
</event>
<event>
 5   0  0.5690124E-07  0.2401609E+04  0.7818609E-02  0.8438902E-01
       -1   -1    0    0    0  501  0.00000000000E+00  0.00000000000E+00  0.83043328665E+03  0.83043328666E+03  0.50400001928E-02 0.  1.
        1   -1    0    0  501    0  0.00000000000E+00  0.00000000000E+00 -0.17363597900E+04  0.17363597900E+04  0.50400001928E-02 0. -1.
    10030    2    1    2    0    0  0.00000000000E+00  0.00000000000E+00 -0.90592650335E+03  0.25667930767E+04  0.24016086003E+04 0.  0.
        2    1    3    3  502    0 -0.34579946066E+03 -0.10647122742E+04 -0.91728849982E+03  0.14472759536E+04  0.25500000920E-02 0. -1.
       -2    1    3    3    0  502  0.34579946066E+03  0.10647122742E+04  0.11361996468E+02  0.11195171231E+04  0.25500000920E-02 0.  1.
</event>
<event>
 5   0  0.1307477E-06  0.2400249E+04  0.7818609E-02  0.8439410E-01
       -2   -1    0    0    0  501  0.00000000000E+00  0.00000000000E+00  0.76826286768E+03  0.76826286768E+03  0.25500000920E-02 0.  1.
        2   -1    0    0  501    0  0.00000000000E+00  0.00000000000E+00 -0.18747470016E+04  0.18747470016E+04  0.25500000920E-02 0. -1.
    10030    2    1    2    0    0  0.00000000000E+00  0.00000000000E+00 -0.11064841339E+04  0.26430098693E+04  0.24002487435E+04 0.  0.
        5    1    3    3  502    0 -0.97598709944E+03 -0.31082795865E+03 -0.12418830589E+04  0.16098013729E+04  0.46999998093E+01 0. -1.
       -5    1    3    3    0  502  0.97598709944E+03  0.31082795865E+03  0.13539892498E+03  0.10332084964E+04  0.46999998093E+01 0.  1.
</event>
<event>
 5   0  0.5452384E-07  0.2400103E+04  0.7818609E-02  0.8439465E-01
        1   -1    0    0  501    0  0.00000000000E+00  0.00000000000E+00  0.11330054918E+04  0.11330054918E+04  0.50400001928E-02 0. -1.
       -1   -1    0    0    0  501  0.00000000000E+00  0.00000000000E+00 -0.12710646323E+04  0.12710646323E+04  0.50400001928E-02 0.  1.
    10030    2    1    2    0    0  0.00000000000E+00  0.00000000000E+00 -0.13805914052E+03  0.24040701240E+04  0.24001026718E+04 0.  0.
        5    1    3    3  502    0 -0.72917397273E+03 -0.95310167191E+03 -0.67118730780E+02  0.12019253278E+04  0.46999998093E+01 0.  1.
       -5    1    3    3    0  502  0.72917397273E+03  0.95310167191E+03 -0.70940409741E+02  0.12021447963E+04  0.46999998093E+01 0. -1.
</event>
<event>
 5   0  0.1291468E-06  0.2401286E+04  0.7818609E-02  0.8439022E-01
        2   -1    0    0  501    0  0.00000000000E+00  0.00000000000E+00  0.16292095203E+04  0.16292095203E+04  0.25500000920E-02 0. -1.
       -2   -1    0    0    0  501  0.00000000000E+00  0.00000000000E+00 -0.88481172796E+03  0.88481172796E+03  0.25500000920E-02 0.  1.
    10030    2    1    2    0    0  0.00000000000E+00  0.00000000000E+00  0.74439779233E+03  0.25140212482E+04  0.24012860645E+04 0.  0.
        4    1    3    3  502    0  0.10296918878E+04 -0.29689054442E+03 -0.19463678012E+03  0.10891714595E+04  0.12699999809E+01 0.  1.
       -4    1    3    3    0  502 -0.10296918878E+04  0.29689054442E+03  0.93903457246E+03  0.14248497887E+04  0.12699999809E+01 0. -1.
</event>
<event>
 5   0  0.5527286E-07  0.2400279E+04  0.7818609E-02  0.8439399E-01
       -1   -1    0    0    0  501  0.00000000000E+00  0.00000000000E+00  0.10771284085E+04  0.10771284086E+04  0.50400001928E-02 0. -1.
        1   -1    0    0  501    0  0.00000000000E+00  0.00000000000E+00 -0.13371993540E+04  0.13371993540E+04  0.50400001928E-02 0.  1.
    10030    2    1    2    0    0  0.00000000000E+00  0.00000000000E+00 -0.26007094547E+03  0.24143277626E+04  0.24002794938E+04 0.  0.
        1    1    3    3  502    0  0.34080793840E+02  0.12554610803E+03 -0.13300865693E+04  0.13364331661E+04  0.50400001928E-02 0.  1.
       -1    1    3    3    0  502 -0.34080793840E+02 -0.12554610803E+03  0.10700156238E+04  0.10778945964E+04  0.50400001928E-02 0. -1.
</event>
<event>
 5   0  0.1307477E-06  0.2400195E+04  0.7818609E-02  0.8439430E-01
        2   -1    0    0  501    0  0.00000000000E+00  0.00000000000E+00  0.17384853687E+04  0.17384853687E+04  0.25500000920E-02 0. -1.
       -2   -1    0    0    0  501  0.00000000000E+00  0.00000000000E+00 -0.82844214051E+03  0.82844214051E+03  0.25500000920E-02 0.  1.
    10030    2    1    2    0    0  0.00000000000E+00  0.00000000000E+00  0.91004322822E+03  0.25669275092E+04  0.24001954421E+04 0.  0.
        5    1    3    3  502    0 -0.72003840360E+02 -0.47707458469E+03  0.16301831598E+04  0.17000893909E+04  0.46999998093E+01 0. -1.
       -5    1    3    3    0  502  0.72003840360E+02  0.47707458469E+03 -0.72013993160E+03  0.86683811837E+03  0.46999998093E+01 0.  1.
</event>
<event>
 5   0  0.5452384E-07  0.2400098E+04  0.7818609E-02  0.8439467E-01
        1   -1    0    0  501    0  0.00000000000E+00  0.00000000000E+00  0.19983418368E+04  0.19983418368E+04  0.50400001928E-02 0. -1.
       -1   -1    0    0    0  501  0.00000000000E+00  0.00000000000E+00 -0.72065623519E+03  0.72065623521E+03  0.50400001928E-02 0.  1.
    10030    2    1    2    0    0  0.00000000000E+00  0.00000000000E+00  0.12776856016E+04  0.27189980720E+04  0.24000979187E+04 0.  0.
        5    1    3    3  502    0  0.72215758302E+03  0.65759935010E+03  0.14287275255E+04  0.17306741207E+04  0.46999998093E+01 0. -1.
       -5    1    3    3    0  502 -0.72215758302E+03 -0.65759935010E+03 -0.15104192390E+03  0.98832395131E+03  0.46999998093E+01 0.  1.
</event>
<event>
 5   0  0.5452384E-07  0.2400403E+04  0.7818609E-02  0.8439353E-01
        1   -1    0    0  501    0  0.00000000000E+00  0.00000000000E+00  0.13137040700E+04  0.13137040700E+04  0.50400001928E-02 0. -1.
       -1   -1    0    0    0  501  0.00000000000E+00  0.00000000000E+00 -0.10965051341E+04  0.10965051341E+04  0.50400001928E-02 0.  1.
    10030    2    1    2    0    0  0.00000000000E+00  0.00000000000E+00  0.21719893593E+03  0.24102092041E+04  0.24004026808E+04 0.  0.
        5    1    3    3  502    0 -0.45335013182E+03  0.83353162019E+03  0.84655771909E+03  0.12716066080E+04  0.46999998093E+01 0. -1.
       -5    1    3    3    0  502  0.45335013182E+03 -0.83353162019E+03 -0.62935878316E+03  0.11386025961E+04  0.46999998093E+01 0.  1.
</event>
<event>
 5   0  0.1307477E-06  0.2400997E+04  0.7818609E-02  0.8439130E-01
        2   -1    0    0  501    0  0.00000000000E+00  0.00000000000E+00  0.14600431361E+04  0.14600431361E+04  0.25500000920E-02 0.  1.
       -2   -1    0    0    0  501  0.00000000000E+00  0.00000000000E+00 -0.98709163210E+03  0.98709163210E+03  0.25500000920E-02 0. -1.
    10030    2    1    2    0    0  0.00000000000E+00  0.00000000000E+00  0.47295150396E+03  0.24471347682E+04  0.24009967614E+04 0.  0.
        5    1    3    3  502    0 -0.10862934609E+04  0.42116910372E+03  0.53144574790E+03  0.12805754839E+04  0.46999998093E+01 0. -1.
       -5    1    3    3    0  502  0.10862934609E+04 -0.42116910372E+03 -0.58494243938E+02  0.11665592842E+04  0.46999998093E+01 0.  1.
</event>
<event>
 5   0  0.5363690E-07  0.2402586E+04  0.7818609E-02  0.8438536E-01
        1   -1    0    0  501    0  0.00000000000E+00  0.00000000000E+00  0.20377031424E+04  0.20377031424E+04  0.50400001928E-02 0.  1.
       -1   -1    0    0    0  501  0.00000000000E+00  0.00000000000E+00 -0.70820168694E+03  0.70820168696E+03  0.50400001928E-02 0. -1.
    10030    2    1    2    0    0  0.00000000000E+00  0.00000000000E+00  0.13295014554E+04  0.27459048293E+04  0.24025859426E+04 0.  0.
        4    1    3    3  502    0 -0.70265594268E+03 -0.63666110038E+03  0.15077401954E+04  0.17811077565E+04  0.12699999809E+01 0.  1.
       -4    1    3    3    0  502  0.70265594268E+03  0.63666110038E+03 -0.17823873993E+03  0.96479707288E+03  0.12699999809E+01 0. -1.
</event>
<event>
 5   0  0.5363690E-07  0.2401483E+04  0.7818609E-02  0.8438948E-01
        1   -1    0    0  501    0  0.00000000000E+00  0.00000000000E+00  0.19450606593E+04  0.19450606593E+04  0.50400001928E-02 0. -1.
       -1   -1    0    0    0  501  0.00000000000E+00  0.00000000000E+00 -0.74125212785E+03  0.74125212787E+03  0.50400001928E-02 0.  1.
    10030    2    1    2    0    0  0.00000000000E+00  0.00000000000E+00  0.12038085314E+04  0.26863127871E+04  0.24014831688E+04 0.  0.
        4    1    3    3  502    0  0.99611357464E+03 -0.67047033232E+03  0.59915980077E+03  0.13419265255E+04  0.12699999809E+01 0.  1.
       -4    1    3    3    0  502 -0.99611357464E+03  0.67047033232E+03  0.60464873064E+03  0.13443862616E+04  0.12699999809E+01 0. -1.
</event>
<event>
 5   0  0.5452384E-07  0.2401042E+04  0.7818609E-02  0.8439113E-01
       -1   -1    0    0    0  501  0.00000000000E+00  0.00000000000E+00  0.67537708244E+03  0.67537708246E+03  0.50400001928E-02 0. -1.
        1   -1    0    0  501    0  0.00000000000E+00  0.00000000000E+00 -0.21339945968E+04  0.21339945968E+04  0.50400001928E-02 0.  1.
    10030    2    1    2    0    0  0.00000000000E+00  0.00000000000E+00 -0.14586175144E+04  0.28093716793E+04  0.24010423110E+04 0.  0.
        5    1    3    3  502    0 -0.40513534584E+03 -0.10658690613E+04 -0.28992316088E+03  0.11765581301E+04  0.46999998093E+01 0.  1.
       -5    1    3    3    0  502  0.40513534584E+03  0.10658690613E+04 -0.11686943535E+04  0.16328135492E+04  0.46999998093E+01 0. -1.
</event>
<event>
 5   0  0.5363690E-07  0.2399486E+04  0.7818609E-02  0.8439696E-01
       -1   -1    0    0    0  501  0.00000000000E+00  0.00000000000E+00  0.12348205078E+04  0.12348205078E+04  0.50400001928E-02 0. -1.
        1   -1    0    0  501    0  0.00000000000E+00  0.00000000000E+00 -0.11656622711E+04  0.11656622712E+04  0.50400001928E-02 0.  1.
    10030    2    1    2    0    0  0.00000000000E+00  0.00000000000E+00  0.69158236608E+02  0.24004827789E+04  0.23994863430E+04 0.  0.
        4    1    3    3  502    0 -0.11052692967E+04 -0.41899434835E+03  0.24010440458E+03  0.12061626010E+04  0.12699999809E+01 0. -1.
       -4    1    3    3    0  502  0.11052692967E+04  0.41899434835E+03 -0.17094616797E+03  0.11943201779E+04  0.12699999809E+01 0.  1.
</event>
<event>
 5   0  0.5363690E-07  0.2400442E+04  0.7818609E-02  0.8439338E-01
       -1   -1    0    0    0  501  0.00000000000E+00  0.00000000000E+00  0.97719589894E+03  0.97719589895E+03  0.50400001928E-02 0. -1.
        1   -1    0    0  501    0  0.00000000000E+00  0.00000000000E+00 -0.14741475674E+04  0.14741475674E+04  0.50400001928E-02 0.  1.
    10030    2    1    2    0    0  0.00000000000E+00  0.00000000000E+00 -0.49695166844E+03  0.24513434663E+04  0.24004424236E+04 0.  0.
        4    1    3    3  502    0  0.14994525672E+03 -0.11829686391E+04 -0.10908618447E+03  0.11974137922E+04  0.12699999809E+01 0. -1.
       -4    1    3    3    0  502 -0.14994525672E+03  0.11829686391E+04 -0.38786548397E+03  0.12539296742E+04  0.12699999809E+01 0.  1.
</event>
<event>
 5   0  0.5363690E-07  0.2399927E+04  0.7818609E-02  0.8439531E-01
       -1   -1    0    0    0  501  0.00000000000E+00  0.00000000000E+00  0.20294523323E+04  0.20294523323E+04  0.50400001928E-02 0.  1.
        1   -1    0    0  501    0  0.00000000000E+00  0.00000000000E+00 -0.70950774291E+03  0.70950774293E+03  0.50400001928E-02 0. -1.
    10030    2    1    2    0    0  0.00000000000E+00  0.00000000000E+00  0.13199445894E+04  0.27389600752E+04  0.23999267853E+04 0.  0.
        4    1    3    3  502    0  0.10114462283E+04 -0.14428302159E+03 -0.58273995058E+02  0.10233467323E+04  0.12699999809E+01 0. -1.
       -4    1    3    3    0  502 -0.10114462283E+04  0.14428302159E+03  0.13782185844E+04  0.17156133429E+04  0.12699999809E+01 0.  1.
</event>
<event>
 5   0  0.5527286E-07  0.2398013E+04  0.7818609E-02  0.8440248E-01
        1   -1    0    0  501    0  0.00000000000E+00  0.00000000000E+00  0.21647527894E+04  0.21647527894E+04  0.50400001928E-02 0.  1.
       -1   -1    0    0    0  501  0.00000000000E+00  0.00000000000E+00 -0.66410184437E+03  0.66410184439E+03  0.50400001928E-02 0. -1.
    10030    2    1    2    0    0  0.00000000000E+00  0.00000000000E+00  0.15006509450E+04  0.28288546338E+04  0.23980127774E+04 0.  0.
        1    1    3    3  502    0  0.71101722107E+03  0.90784649065E+03  0.11377979326E+04  0.16199737266E+04  0.50400001928E-02 0.  1.
       -1    1    3    3    0  502 -0.71101722107E+03 -0.90784649065E+03  0.36285301240E+03  0.12088809072E+04  0.50400001928E-02 0. -1.
</event>
<event>
 5   0  0.1336057E-06  0.2401873E+04  0.7818609E-02  0.8438802E-01
       -2   -1    0    0    0  501  0.00000000000E+00  0.00000000000E+00  0.70282092318E+03  0.70282092318E+03  0.25500000920E-02 0. -1.
        2   -1    0    0  501    0  0.00000000000E+00  0.00000000000E+00 -0.20520861227E+04  0.20520861227E+04  0.25500000920E-02 0.  1.
    10030    2    1    2    0    0  0.00000000000E+00  0.00000000000E+00 -0.13492651995E+04  0.27549070459E+04  0.24018734881E+04 0.  0.
        2    1    3    3  502    0  0.97506238776E+03  0.41062154239E+03 -0.13263895943E+04  0.16966632156E+04  0.25500000920E-02 0.  1.
       -2    1    3    3    0  502 -0.97506238776E+03 -0.41062154239E+03 -0.22875605199E+02  0.10582438303E+04  0.25500000920E-02 0. -1.
</event>
<event>
 5   0  0.5527286E-07  0.2400219E+04  0.7818609E-02  0.8439422E-01
       -1   -1    0    0    0  501  0.00000000000E+00  0.00000000000E+00  0.10264506783E+04  0.10264506783E+04  0.50400001928E-02 0.  1.
        1   -1    0    0  501    0  0.00000000000E+00  0.00000000000E+00 -0.14031484161E+04  0.14031484161E+04  0.50400001928E-02 0. -1.
    10030    2    1    2    0    0  0.00000000000E+00  0.00000000000E+00 -0.37669773777E+03  0.24295990944E+04  0.24002188596E+04 0.  0.
        1    1    3    3  502    0 -0.20424206373E+03  0.11731430445E+04 -0.33945175070E+03  0.12382273275E+04  0.50400001928E-02 0. -1.
       -1    1    3    3    0  502  0.20424206373E+03 -0.11731430445E+04 -0.37245987069E+02  0.11913717669E+04  0.50400001928E-02 0.  1.
</event>
<event>
 5   0  0.5527286E-07  0.2400266E+04  0.7818609E-02  0.8439404E-01
       -1   -1    0    0    0  501  0.00000000000E+00  0.00000000000E+00  0.11312537588E+04  0.11312537588E+04  0.50400001928E-02 0.  1.
        1   -1    0    0  501    0  0.00000000000E+00  0.00000000000E+00 -0.12732059668E+04  0.12732059668E+04  0.50400001928E-02 0. -1.
    10030    2    1    2    0    0  0.00000000000E+00  0.00000000000E+00 -0.14195220795E+03  0.24044597257E+04  0.24002658484E+04 0.  0.
        1    1    3    3  502    0  0.41241862889E+03 -0.84451493537E+03  0.67666863956E+03  0.11580911231E+04  0.50400001928E-02 0.  1.
       -1    1    3    3    0  502 -0.41241862889E+03  0.84451493537E+03 -0.81862084751E+03  0.12463686026E+04  0.50400001928E-02 0. -1.
</event>
<event>
 5   0  0.1307477E-06  0.2399734E+04  0.7818609E-02  0.8439603E-01
        2   -1    0    0  501    0  0.00000000000E+00  0.00000000000E+00  0.13514079816E+04  0.13514079816E+04  0.25500000920E-02 0. -1.
       -2   -1    0    0    0  501  0.00000000000E+00  0.00000000000E+00 -0.10653187524E+04  0.10653187524E+04  0.25500000920E-02 0.  1.
    10030    2    1    2    0    0  0.00000000000E+00  0.00000000000E+00  0.28608922918E+03  0.24167267339E+04  0.23997335393E+04 0.  0.
        5    1    3    3  502    0 -0.67537360951E+03 -0.31095209659E+03 -0.80534445216E+03  0.10960942001E+04  0.46999998093E+01 0.  1.
       -5    1    3    3    0  502  0.67537360951E+03  0.31095209659E+03  0.10914336813E+04  0.13206325339E+04  0.46999998093E+01 0. -1.
</event>
<event>
 5   0  0.4483375E-07  0.2399967E+04  0.7818609E-02  0.8439516E-01
        4   -1    0    0  501    0  0.00000000000E+00  0.00000000000E+00  0.16805189947E+04  0.16805194746E+04  0.12699999809E+01 0.  1.
       -4   -1    0    0    0  501  0.00000000000E+00  0.00000000000E+00 -0.85685340226E+03  0.85685434343E+03  0.12699999809E+01 0. -1.
    10030    2    1    2    0    0  0.00000000000E+00  0.00000000000E+00  0.82366559243E+03  0.25373738180E+04  0.23999668506E+04 0.  0.
        1    1    3    3  502    0  0.43162695282E+03 -0.95336918667E+03 -0.20893412970E+03  0.10671776343E+04  0.50400001928E-02 0. -1.
       -1    1    3    3    0  502 -0.43162695282E+03  0.95336918667E+03  0.10325997221E+04  0.14701961837E+04  0.50400001928E-02 0.  1.
</event>
<event>
 5   0  0.5510176E-07  0.2399787E+04  0.7818609E-02  0.8439583E-01
        1   -1    0    0  501    0  0.00000000000E+00  0.00000000000E+00  0.18116303614E+04  0.18116303614E+04  0.50400001928E-02 0. -1.
       -1   -1    0    0    0  501  0.00000000000E+00  0.00000000000E+00 -0.79472284119E+03  0.79472284121E+03  0.50400001928E-02 0.  1.
    10030    2    1    2    0    0  0.00000000000E+00  0.00000000000E+00  0.10169075202E+04  0.26063532026E+04  0.23997866806E+04 0.  0.
        3    1    3    3  502    0  0.10533708681E+04  0.56968648979E+03  0.42709843038E+03  0.12714346077E+04  0.10100000352E+00 0.  1.
       -3    1    3    3    0  502 -0.10533708681E+04 -0.56968648979E+03  0.58980908986E+03  0.13349185949E+04  0.10100000352E+00 0. -1.
</event>
<event>
 5   0  0.5363690E-07  0.2399613E+04  0.7818609E-02  0.8439648E-01
        1   -1    0    0  501    0  0.00000000000E+00  0.00000000000E+00  0.12924064767E+04  0.12924064767E+04  0.50400001928E-02 0.  1.
       -1   -1    0    0    0  501  0.00000000000E+00  0.00000000000E+00 -0.11138414150E+04  0.11138414150E+04  0.50400001928E-02 0. -1.
    10030    2    1    2    0    0  0.00000000000E+00  0.00000000000E+00  0.17856506165E+03  0.24062478917E+04  0.23996131845E+04 0.  0.
        4    1    3    3  502    0  0.27618680076E+03 -0.10902395227E+04  0.50832895131E+03  0.12342209289E+04  0.12699999809E+01 0.  1.
       -4    1    3    3    0  502 -0.27618680076E+03  0.10902395227E+04 -0.32976388965E+03  0.11720269628E+04  0.12699999809E+01 0. -1.
</event>
<event>
 5   0  0.5363690E-07  0.2398800E+04  0.7818609E-02  0.8439953E-01
       -1   -1    0    0    0  501  0.00000000000E+00  0.00000000000E+00  0.10295922084E+04  0.10295922084E+04  0.50400001928E-02 0. -1.
        1   -1    0    0  501    0  0.00000000000E+00  0.00000000000E+00 -0.13972133610E+04  0.13972133610E+04  0.50400001928E-02 0.  1.
    10030    2    1    2    0    0  0.00000000000E+00  0.00000000000E+00 -0.36762115256E+03  0.24268055694E+04  0.23987996915E+04 0.  0.
        4    1    3    3  502    0  0.59967992547E+03 -0.58992848679E+03 -0.10487345305E+04  0.13444245464E+04  0.12699999809E+01 0.  1.
       -4    1    3    3    0  502 -0.59967992547E+03  0.58992848679E+03  0.68111337793E+03  0.10823810230E+04  0.12699999809E+01 0. -1.
</event>
<event>
 5   0  0.1291468E-06  0.2399715E+04  0.7818609E-02  0.8439610E-01
       -2   -1    0    0    0  501  0.00000000000E+00  0.00000000000E+00  0.13787289960E+04  0.13787289960E+04  0.25500000920E-02 0. -1.
        2   -1    0    0  501    0  0.00000000000E+00  0.00000000000E+00 -0.10441923815E+04  0.10441923815E+04  0.25500000920E-02 0.  1.
    10030    2    1    2    0    0  0.00000000000E+00  0.00000000000E+00  0.33453661449E+03  0.24229213775E+04  0.23997152446E+04 0.  0.
        4    1    3    3  502    0  0.11262847223E+04  0.18153551303E+03 -0.20805793912E+03  0.11596387960E+04  0.12699999809E+01 0.  1.
       -4    1    3    3    0  502 -0.11262847223E+04 -0.18153551303E+03  0.54259455361E+03  0.12632825815E+04  0.12699999809E+01 0. -1.
</event>
<event>
 5   0  0.4483375E-07  0.2399866E+04  0.7818609E-02  0.8439554E-01
       -3   -1    0    0    0  501  0.00000000000E+00  0.00000000000E+00  0.78730828113E+03  0.78730828761E+03  0.10100000352E+00 0.  1.
        3   -1    0    0  501    0  0.00000000000E+00  0.00000000000E+00 -0.18288127443E+04  0.18288127471E+04  0.10100000352E+00 0. -1.
    10030    2    1    2    0    0  0.00000000000E+00  0.00000000000E+00 -0.10415044632E+04  0.26161210347E+04  0.23998661882E+04 0.  0.
        1    1    3    3  502    0  0.73016951706E+01 -0.54526760850E+03 -0.16859324013E+04  0.17719306254E+04  0.50400001928E-02 0. -1.
       -1    1    3    3    0  502 -0.73016951706E+01  0.54526760850E+03  0.64442793812E+03  0.84419040926E+03  0.50400001928E-02 0.  1.
</event>
<event>
 5   0  0.5510176E-07  0.2400023E+04  0.7818609E-02  0.8439495E-01
        1   -1    0    0  501    0  0.00000000000E+00  0.00000000000E+00  0.30306348729E+04  0.30306348729E+04  0.50400001928E-02 0.  1.
       -1   -1    0    0    0  501  0.00000000000E+00  0.00000000000E+00 -0.47515708187E+03  0.47515708189E+03  0.50400001928E-02 0. -1.
    10030    2    1    2    0    0  0.00000000000E+00  0.00000000000E+00  0.25554777910E+04  0.35057919548E+04  0.24000230186E+04 0.  0.
        3    1    3    3  502    0 -0.24197409534E+03  0.84269524768E+03  0.24745959286E+04  0.26253212686E+04  0.10100000352E+00 0.  1.
       -3    1    3    3    0  502  0.24197409534E+03 -0.84269524768E+03  0.80881862356E+02  0.88047068613E+03  0.10100000352E+00 0. -1.
</event>
<event>
 5   0  0.1336057E-06  0.2400187E+04  0.7818609E-02  0.8439434E-01
        2   -1    0    0  501    0  0.00000000000E+00  0.00000000000E+00  0.96118947186E+03  0.96118947187E+03  0.25500000920E-02 0.  1.
       -2   -1    0    0    0  501  0.00000000000E+00  0.00000000000E+00 -0.14983770973E+04  0.14983770973E+04  0.25500000920E-02 0. -1.
    10030    2    1    2    0    0  0.00000000000E+00  0.00000000000E+00 -0.53718762545E+03  0.24595665692E+04  0.24001869017E+04 0.  0.
        2    1    3    3  502    0 -0.40513004287E+03 -0.16426872081E+03 -0.14138794518E+04  0.14799221833E+04  0.25500000920E-02 0. -1.
       -2    1    3    3    0  502  0.40513004287E+03  0.16426872081E+03  0.87669182640E+03  0.97964438587E+03  0.25500000920E-02 0.  1.
</event>
<event>
 5   0  0.1307477E-06  0.2399560E+04  0.7818609E-02  0.8439668E-01
       -2   -1    0    0    0  501  0.00000000000E+00  0.00000000000E+00  0.90318191472E+03  0.90318191472E+03  0.25500000920E-02 0.  1.
        2   -1    0    0  501    0  0.00000000000E+00  0.00000000000E+00 -0.15937781986E+04  0.15937781986E+04  0.25500000920E-02 0. -1.
    10030    2    1    2    0    0  0.00000000000E+00  0.00000000000E+00 -0.69059628384E+03  0.24969601133E+04  0.23995596638E+04 0.  0.
        5    1    3    3  502    0 -0.61515237170E+03  0.95152847440E+03  0.65215558115E+02  0.11349423056E+04  0.46999998093E+01 0. -1.
       -5    1    3    3    0  502  0.61515237170E+03 -0.95152847440E+03 -0.75581184195E+03  0.13620178077E+04  0.46999998093E+01 0.  1.
</event>
<event>
 5   0  0.1308662E-06  0.2402333E+04  0.7818609E-02  0.8438631E-01
       -2   -1    0    0    0  501  0.00000000000E+00  0.00000000000E+00  0.87694793697E+03  0.87694793697E+03  0.25500000920E-02 0. -1.
        2   -1    0    0  501    0  0.00000000000E+00  0.00000000000E+00 -0.16452522258E+04  0.16452522258E+04  0.25500000920E-02 0.  1.
    10030    2    1    2    0    0  0.00000000000E+00  0.00000000000E+00 -0.76830428881E+03  0.25222001628E+04  0.24023326541E+04 0.  0.
        3    1    3    3  502    0 -0.25835982532E+03  0.11653071390E+04 -0.52544028856E+03  0.13041388095E+04  0.10100000352E+00 0.  1.
       -3    1    3    3    0  502  0.25835982532E+03 -0.11653071390E+04 -0.24286400025E+03  0.12180613532E+04  0.10100000352E+00 0. -1.
</event>
<event>
 5   0  0.5690124E-07  0.2401610E+04  0.7818609E-02  0.8438901E-01
        1   -1    0    0  501    0  0.00000000000E+00  0.00000000000E+00  0.12019391945E+04  0.12019391945E+04  0.50400001928E-02 0. -1.
       -1   -1    0    0    0  501  0.00000000000E+00  0.00000000000E+00 -0.11996722038E+04  0.11996722038E+04  0.50400001928E-02 0.  1.
    10030    2    1    2    0    0  0.00000000000E+00  0.00000000000E+00  0.22669906716E+01  0.24016113983E+04  0.24016103283E+04 0.  0.
        2    1    3    3  502    0  0.12494339279E+03  0.54394055694E+03  0.10643605965E+04  0.12018093278E+04  0.25500000920E-02 0. -1.
       -2    1    3    3    0  502 -0.12494339279E+03 -0.54394055694E+03 -0.10620936058E+04  0.11998020705E+04  0.25500000920E-02 0.  1.
</event>
<event>
 5   0  0.1308662E-06  0.2399743E+04  0.7818609E-02  0.8439600E-01
        2   -1    0    0  501    0  0.00000000000E+00  0.00000000000E+00  0.18977767161E+04  0.18977767161E+04  0.25500000920E-02 0.  1.
       -2   -1    0    0    0  501  0.00000000000E+00  0.00000000000E+00 -0.75862007164E+03  0.75862007165E+03  0.25500000920E-02 0. -1.
    10030    2    1    2    0    0  0.00000000000E+00  0.00000000000E+00  0.11391566445E+04  0.26563967878E+04  0.23997429099E+04 0.  0.
        3    1    3    3  502    0  0.44906314533E+03  0.10880037165E+04  0.31167617394E+03  0.12176008554E+04  0.10100000352E+00 0.  1.
       -3    1    3    3    0  502 -0.44906314533E+03 -0.10880037165E+04  0.82748047054E+03  0.14387959323E+04  0.10100000352E+00 0. -1.
</event>
<event>
 5   0  0.5452384E-07  0.2399818E+04  0.7818609E-02  0.8439572E-01
       -1   -1    0    0    0  501  0.00000000000E+00  0.00000000000E+00  0.11056456963E+04  0.11056456963E+04  0.50400001928E-02 0.  1.
        1   -1    0    0  501    0  0.00000000000E+00  0.00000000000E+00 -0.13022088213E+04  0.13022088213E+04  0.50400001928E-02 0. -1.
    10030    2    1    2    0    0  0.00000000000E+00  0.00000000000E+00 -0.19656312505E+03  0.24078545176E+04  0.23998179756E+04 0.  0.
        5    1    3    3  502    0 -0.99404824236E+03  0.50461603668E+03  0.34704058212E+03  0.11675737699E+04  0.46999998093E+01 0. -1.
       -5    1    3    3    0  502  0.99404824236E+03 -0.50461603668E+03 -0.54360370717E+03  0.12402807477E+04  0.46999998093E+01 0.  1.
</event>
<event>
 5   0  0.5510176E-07  0.2400131E+04  0.7818609E-02  0.8439455E-01
        1   -1    0    0  501    0  0.00000000000E+00  0.00000000000E+00  0.13291678527E+04  0.13291678527E+04  0.50400001928E-02 0.  1.
       -1   -1    0    0    0  501  0.00000000000E+00  0.00000000000E+00 -0.10835024368E+04  0.10835024368E+04  0.50400001928E-02 0. -1.
    10030    2    1    2    0    0  0.00000000000E+00  0.00000000000E+00  0.24566541587E+03  0.24126702896E+04  0.24001305026E+04 0.  0.
        3    1    3    3  502    0  0.88759675712E+03  0.53361275640E+03 -0.48662365131E+03  0.11442784474E+04  0.10100000352E+00 0. -1.
       -3    1    3    3    0  502 -0.88759675712E+03 -0.53361275640E+03  0.73228906718E+03  0.12683918421E+04  0.10100000352E+00 0.  1.
</event>
<event>
 5   0  0.5363690E-07  0.2398475E+04  0.7818609E-02  0.8440075E-01
        1   -1    0    0  501    0  0.00000000000E+00  0.00000000000E+00  0.14168600289E+04  0.14168600289E+04  0.50400001928E-02 0. -1.
       -1   -1    0    0    0  501  0.00000000000E+00  0.00000000000E+00 -0.10150405547E+04  0.10150405547E+04  0.50400001928E-02 0.  1.
    10030    2    1    2    0    0  0.00000000000E+00  0.00000000000E+00  0.40181947415E+03  0.24319005836E+04  0.23984748401E+04 0.  0.
        4    1    3    3  502    0 -0.52566629019E+03  0.11531859464E+03  0.12875473253E+04  0.13954938748E+04  0.12699999809E+01 0. -1.
       -4    1    3    3    0  502  0.52566629019E+03 -0.11531859464E+03 -0.88572785111E+03  0.10364067088E+04  0.12699999809E+01 0.  1.
</event>
<event>
 5   0  0.1291468E-06  0.2400103E+04  0.7818609E-02  0.8439465E-01
        2   -1    0    0  501    0  0.00000000000E+00  0.00000000000E+00  0.12506772063E+04  0.12506772063E+04  0.25500000920E-02 0.  1.
       -2   -1    0    0    0  501  0.00000000000E+00  0.00000000000E+00 -0.11514754830E+04  0.11514754830E+04  0.25500000920E-02 0. -1.
    10030    2    1    2    0    0  0.00000000000E+00  0.00000000000E+00  0.99201723274E+02  0.24021526894E+04  0.24001034480E+04 0.  0.
        4    1    3    3  502    0 -0.27307660804E+03  0.11262212365E+04 -0.26239823093E+03  0.11881917151E+04  0.12699999809E+01 0. -1.
       -4    1    3    3    0  502  0.27307660804E+03 -0.11262212365E+04  0.36159995420E+03  0.12139609743E+04  0.12699999809E+01 0.  1.
</event>
<event>
 5   0  0.5363690E-07  0.2401521E+04  0.7818609E-02  0.8438934E-01
       -1   -1    0    0    0  501  0.00000000000E+00  0.00000000000E+00  0.12020344426E+04  0.12020344426E+04  0.50400001928E-02 0.  1.
        1   -1    0    0  501    0  0.00000000000E+00  0.00000000000E+00 -0.11994877108E+04  0.11994877108E+04  0.50400001928E-02 0. -1.
    10030    2    1    2    0    0  0.00000000000E+00  0.00000000000E+00  0.25467318151E+01  0.24015221534E+04  0.24015208031E+04 0.  0.
        4    1    3    3  502    0  0.71777920199E+03  0.30531417113E+01 -0.96133177981E+03  0.11997402670E+04  0.12699999809E+01 0. -1.
       -4    1    3    3    0  502 -0.71777920199E+03 -0.30531417113E+01  0.96387851162E+03  0.12017818864E+04  0.12699999809E+01 0.  1.
</event>
<event>
 5   0  0.1307477E-06  0.2400559E+04  0.7818609E-02  0.8439294E-01
        2   -1    0    0  501    0  0.00000000000E+00  0.00000000000E+00  0.14969925873E+04  0.14969925873E+04  0.25500000920E-02 0. -1.
       -2   -1    0    0    0  501  0.00000000000E+00  0.00000000000E+00 -0.96237699417E+03  0.96237699418E+03  0.25500000920E-02 0.  1.
    10030    2    1    2    0    0  0.00000000000E+00  0.00000000000E+00  0.53461559311E+03  0.24593695815E+04  0.24005592902E+04 0.  0.
        5    1    3    3  502    0  0.64339692316E+03  0.98016908757E+03  0.53042267919E+03  0.12868804721E+04  0.46999998093E+01 0. -1.
       -5    1    3    3    0  502 -0.64339692316E+03 -0.98016908757E+03  0.41929139173E+01  0.11724891093E+04  0.46999998093E+01 0.  1.
</event>
<event>
 5   0  0.5510176E-07  0.2396056E+04  0.7818609E-02  0.8440981E-01
        1   -1    0    0  501    0  0.00000000000E+00  0.00000000000E+00  0.14283167956E+04  0.14283167956E+04  0.50400001928E-02 0. -1.
       -1   -1    0    0    0  501  0.00000000000E+00  0.00000000000E+00 -0.10048691642E+04  0.10048691642E+04  0.50400001928E-02 0.  1.
    10030    2    1    2    0    0  0.00000000000E+00  0.00000000000E+00  0.42344763138E+03  0.24331859598E+04  0.23960563471E+04 0.  0.
        3    1    3    3  502    0 -0.10754865672E+04  0.39535305669E+03  0.56685153831E+03  0.12783958981E+04  0.10100000352E+00 0. -1.
       -3    1    3    3    0  502  0.10754865672E+04 -0.39535305669E+03 -0.14340390693E+03  0.11547900616E+04  0.10100000352E+00 0.  1.
</event>
<event>
 5   0  0.1336057E-06  0.2399428E+04  0.7818609E-02  0.8439718E-01
       -2   -1    0    0    0  501  0.00000000000E+00  0.00000000000E+00  0.87342281522E+03  0.87342281522E+03  0.25500000920E-02 0.  1.
        2   -1    0    0  501    0  0.00000000000E+00  0.00000000000E+00 -0.16478998491E+04  0.16478998491E+04  0.25500000920E-02 0. -1.
    10030    2    1    2    0    0  0.00000000000E+00  0.00000000000E+00 -0.77447703383E+03  0.25213226643E+04  0.23994277029E+04 0.  0.
        2    1    3    3  502    0 -0.71331368315E+03 -0.36738277112E+03  0.54999577492E+03  0.97277020078E+03  0.25500000920E-02 0.  1.
       -2    1    3    3    0  502  0.71331368315E+03  0.36738277112E+03 -0.13244728087E+04  0.15485524635E+04  0.25500000920E-02 0. -1.
</event>
<event>
 5   0  0.1291468E-06  0.2401016E+04  0.7818609E-02  0.8439123E-01
       -2   -1    0    0    0  501  0.00000000000E+00  0.00000000000E+00  0.85889331353E+03  0.85889331353E+03  0.25500000920E-02 0. -1.
        2   -1    0    0  501    0  0.00000000000E+00  0.00000000000E+00 -0.16779957362E+04  0.16779957362E+04  0.25500000920E-02 0.  1.
    10030    2    1    2    0    0  0.00000000000E+00  0.00000000000E+00 -0.81910242266E+03  0.25368890497E+04  0.24010158833E+04 0.  0.
        4    1    3    3  502    0 -0.64028983343E+03 -0.45966855653E+03  0.54720328209E+03  0.95953076943E+03  0.12699999809E+01 0. -1.
       -4    1    3    3    0  502  0.64028983343E+03  0.45966855653E+03 -0.13663057047E+04  0.15773582803E+04  0.12699999809E+01 0.  1.
</event>
<event>
 5   0  0.1336057E-06  0.2400122E+04  0.7818609E-02  0.8439458E-01
        2   -1    0    0  501    0  0.00000000000E+00  0.00000000000E+00  0.16705567738E+04  0.16705567738E+04  0.25500000920E-02 0.  1.
       -2   -1    0    0    0  501  0.00000000000E+00  0.00000000000E+00 -0.86207574240E+03  0.86207574240E+03  0.25500000920E-02 0. -1.
    10030    2    1    2    0    0  0.00000000000E+00  0.00000000000E+00  0.80848103138E+03  0.25326325162E+04  0.24001220560E+04 0.  0.
        2    1    3    3  502    0 -0.26039409967E+03 -0.51503851343E+03  0.15145082232E+04  0.16207420880E+04  0.25500000920E-02 0.  1.
       -2    1    3    3    0  502  0.26039409967E+03  0.51503851343E+03 -0.70602719185E+03  0.91189042823E+03  0.25500000920E-02 0. -1.
</event>
<event>
 5   0  0.5363690E-07  0.2394959E+04  0.7818609E-02  0.8441393E-01
        1   -1    0    0  501    0  0.00000000000E+00  0.00000000000E+00  0.16749761299E+04  0.16749761299E+04  0.50400001928E-02 0.  1.
       -1   -1    0    0    0  501  0.00000000000E+00  0.00000000000E+00 -0.85610611364E+03  0.85610611366E+03  0.50400001928E-02 0. -1.
    10030    2    1    2    0    0  0.00000000000E+00  0.00000000000E+00  0.81887001628E+03  0.25310822436E+04  0.23949591271E+04 0.  0.
        4    1    3    3  502    0 -0.98282069096E+03  0.36245477233E+03 -0.20375447763E+03  0.10671585977E+04  0.12699999809E+01 0.  1.
       -4    1    3    3    0  502  0.98282069096E+03 -0.36245477233E+03  0.10226244939E+04  0.14639236459E+04  0.12699999809E+01 0. -1.
</event>
<event>
 5   0  0.1307477E-06  0.2398521E+04  0.7818609E-02  0.8440057E-01
       -2   -1    0    0    0  501  0.00000000000E+00  0.00000000000E+00  0.63738337032E+03  0.63738337032E+03  0.25500000920E-02 0. -1.
        2   -1    0    0  501    0  0.00000000000E+00  0.00000000000E+00 -0.22564535551E+04  0.22564535551E+04  0.25500000920E-02 0.  1.
    10030    2    1    2    0    0  0.00000000000E+00  0.00000000000E+00 -0.16190701848E+04  0.28938369255E+04  0.23985211877E+04 0.  0.
        5    1    3    3  502    0  0.69827047486E+03  0.71023870424E+03 -0.16154461340E+04  0.18978168971E+04  0.46999998093E+01 0.  1.
       -5    1    3    3    0  502 -0.69827047486E+03 -0.71023870424E+03 -0.36240507759E+01  0.99602002832E+03  0.46999998093E+01 0. -1.
</event>
<event>
 5   0  0.5690124E-07  0.2399347E+04  0.7818609E-02  0.8439748E-01
        1   -1    0    0  501    0  0.00000000000E+00  0.00000000000E+00  0.13020562489E+04  0.13020562489E+04  0.50400001928E-02 0. -1.
       -1   -1    0    0    0  501  0.00000000000E+00  0.00000000000E+00 -0.11053416862E+04  0.11053416862E+04  0.50400001928E-02 0.  1.
    10030    2    1    2    0    0  0.00000000000E+00  0.00000000000E+00  0.19671456272E+03  0.24073979351E+04  0.23993474527E+04 0.  0.
        2    1    3    3  502    0  0.19241300775E+03  0.80873549047E+03  0.96621098986E+03  0.12746134850E+04  0.25500000920E-02 0. -1.
       -2    1    3    3    0  502 -0.19241300775E+03 -0.80873549047E+03 -0.76949642714E+03  0.11327844501E+04  0.25500000920E-02 0.  1.
</event>
<event>
 5   0  0.5527286E-07  0.2398600E+04  0.7818609E-02  0.8440028E-01
        1   -1    0    0  501    0  0.00000000000E+00  0.00000000000E+00  0.99360284426E+03  0.99360284427E+03  0.50400001928E-02 0.  1.
       -1   -1    0    0    0  501  0.00000000000E+00  0.00000000000E+00 -0.14475809838E+04  0.14475809838E+04  0.50400001928E-02 0. -1.
    10030    2    1    2    0    0  0.00000000000E+00  0.00000000000E+00 -0.45397813950E+03  0.24411838280E+04  0.23986000774E+04 0.  0.
        1    1    3    3  502    0  0.86136336840E+03  0.93442936762E+02 -0.10709529982E+04  0.13775408376E+04  0.50400001928E-02 0. -1.
       -1    1    3    3    0  502 -0.86136336840E+03 -0.93442936762E+02  0.61697485869E+03  0.10636429905E+04  0.50400001928E-02 0.  1.
</event>
<event>
 5   0  0.5452384E-07  0.2401025E+04  0.7818609E-02  0.8439120E-01
       -1   -1    0    0    0  501  0.00000000000E+00  0.00000000000E+00  0.19316177770E+04  0.19316177770E+04  0.50400001928E-02 0. -1.
        1   -1    0    0  501    0  0.00000000000E+00  0.00000000000E+00 -0.74612602704E+03  0.74612602706E+03  0.50400001928E-02 0.  1.
    10030    2    1    2    0    0  0.00000000000E+00  0.00000000000E+00  0.11854917500E+04  0.26777438041E+04  0.24010250292E+04 0.  0.
        5    1    3    3  502    0 -0.71290069219E+03 -0.83594804786E+02 -0.48044290066E+03  0.86374936128E+03  0.46999998093E+01 0.  1.
       -5    1    3    3    0  502  0.71290069219E+03  0.83594804786E+02  0.16659346506E+04  0.18139944428E+04  0.46999998093E+01 0. -1.
</event>
<event>
 5   0  0.5363690E-07  0.2398789E+04  0.7818609E-02  0.8439957E-01
       -1   -1    0    0    0  501  0.00000000000E+00  0.00000000000E+00  0.77303302559E+03  0.77303302561E+03  0.50400001928E-02 0. -1.
        1   -1    0    0  501    0  0.00000000000E+00  0.00000000000E+00 -0.18609124969E+04  0.18609124969E+04  0.50400001928E-02 0.  1.
    10030    2    1    2    0    0  0.00000000000E+00  0.00000000000E+00 -0.10878794713E+04  0.26339455225E+04  0.23987887092E+04 0.  0.
        4    1    3    3  502    0  0.55866589720E+03 -0.10507234621E+04 -0.37953605248E+03  0.12490702969E+04  0.12699999809E+01 0. -1.
       -4    1    3    3    0  502 -0.55866589720E+03  0.10507234621E+04 -0.70834341879E+03  0.13848752256E+04  0.12699999809E+01 0.  1.
</event>
<event>
 5   0  0.1275948E-06  0.2399991E+04  0.7818609E-02  0.8439507E-01
       -2   -1    0    0    0  501  0.00000000000E+00  0.00000000000E+00  0.13405101294E+04  0.13405101294E+04  0.25500000920E-02 0.  1.
        2   -1    0    0  501    0  0.00000000000E+00  0.00000000000E+00 -0.10742101018E+04  0.10742101018E+04  0.25500000920E-02 0. -1.
    10030    2    1    2    0    0  0.00000000000E+00  0.00000000000E+00  0.26630002761E+03  0.24147202313E+04  0.23999912689E+04 0.  0.
        1    1    3    3  502    0 -0.24012959199E+03  0.11391034444E+04  0.42609084002E+03  0.12396661978E+04  0.50400001928E-02 0.  1.
       -1    1    3    3    0  502  0.24012959199E+03 -0.11391034444E+04 -0.15979081241E+03  0.11750540335E+04  0.50400001928E-02 0. -1.
</event>
<event>
 5   0  0.5527286E-07  0.2399633E+04  0.7818609E-02  0.8439641E-01
        1   -1    0    0  501    0  0.00000000000E+00  0.00000000000E+00  0.12973006724E+04  0.12973006724E+04  0.50400001928E-02 0. -1.
       -1   -1    0    0    0  501  0.00000000000E+00  0.00000000000E+00 -0.11096579519E+04  0.11096579519E+04  0.50400001928E-02 0.  1.
    10030    2    1    2    0    0  0.00000000000E+00  0.00000000000E+00  0.18764272045E+03  0.24069586243E+04  0.23996333112E+04 0.  0.
        1    1    3    3  502    0 -0.86904053624E+03  0.81157927417E+03 -0.66878933935E+02  0.11909513692E+04  0.50400001928E-02 0.  1.
       -1    1    3    3    0  502  0.86904053624E+03 -0.81157927417E+03  0.25452165439E+03  0.12160072551E+04  0.50400001928E-02 0. -1.
</event>
<event>
 5   0  0.1308662E-06  0.2387836E+04  0.7818609E-02  0.8444072E-01
        2   -1    0    0  501    0  0.00000000000E+00  0.00000000000E+00  0.16460117743E+04  0.16460117743E+04  0.25500000920E-02 0.  1.
       -2   -1    0    0    0  501  0.00000000000E+00  0.00000000000E+00 -0.86599661878E+03  0.86599661878E+03  0.25500000920E-02 0. -1.
    10030    2    1    2    0    0  0.00000000000E+00  0.00000000000E+00  0.78001515553E+03  0.25120083931E+04  0.23878363688E+04 0.  0.
        3    1    3    3  502    0 -0.10978479160E+04 -0.42220577118E+03  0.60538004163E+03  0.13228804802E+04  0.10100000352E+00 0.  1.
       -3    1    3    3    0  502  0.10978479160E+04  0.42220577118E+03  0.17463511390E+03  0.11891279129E+04  0.10100000352E+00 0. -1.
</event>
<event>
 5   0  0.1275948E-06  0.2399607E+04  0.7818609E-02  0.8439651E-01
        2   -1    0    0  501    0  0.00000000000E+00  0.00000000000E+00  0.13532705942E+04  0.13532705942E+04  0.25500000920E-02 0.  1.
       -2   -1    0    0    0  501  0.00000000000E+00  0.00000000000E+00 -0.10637405511E+04  0.10637405511E+04  0.25500000920E-02 0. -1.
    10030    2    1    2    0    0  0.00000000000E+00  0.00000000000E+00  0.28953004314E+03  0.24170111453E+04  0.23996073076E+04 0.  0.
        1    1    3    3  502    0 -0.27265626580E+03  0.92327183729E+03 -0.57649864810E+03  0.11221065084E+04  0.50400001928E-02 0. -1.
       -1    1    3    3    0  502  0.27265626580E+03 -0.92327183729E+03  0.86602869124E+03  0.12949046370E+04  0.50400001928E-02 0.  1.
</event>
<event>
 5   0  0.1275948E-06  0.2400206E+04  0.7818609E-02  0.8439426E-01
        2   -1    0    0  501    0  0.00000000000E+00  0.00000000000E+00  0.21259120626E+04  0.21259120626E+04  0.25500000920E-02 0.  1.
       -2   -1    0    0    0  501  0.00000000000E+00  0.00000000000E+00 -0.67747288495E+03  0.67747288495E+03  0.25500000920E-02 0. -1.
    10030    2    1    2    0    0  0.00000000000E+00  0.00000000000E+00  0.14484391777E+04  0.28033849476E+04  0.24002064730E+04 0.  0.
        1    1    3    3  502    0 -0.11617326368E+04 -0.29163393489E+03  0.63701383366E+03  0.13566354322E+04  0.50400001928E-02 0. -1.
       -1    1    3    3    0  502  0.11617326368E+04  0.29163393489E+03  0.81142534404E+03  0.14467495154E+04  0.50400001928E-02 0.  1.
</event>
<event>
 5   0  0.1307477E-06  0.2400154E+04  0.7818609E-02  0.8439446E-01
       -2   -1    0    0    0  501  0.00000000000E+00  0.00000000000E+00  0.59314266624E+03  0.59314266624E+03  0.25500000920E-02 0.  1.
        2   -1    0    0  501    0  0.00000000000E+00  0.00000000000E+00 -0.24280581758E+04  0.24280581758E+04  0.25500000920E-02 0. -1.
    10030    2    1    2    0    0  0.00000000000E+00  0.00000000000E+00 -0.18349155095E+04  0.30212008420E+04  0.24001540785E+04 0.  0.
        5    1    3    3  502    0 -0.79043861474E+03 -0.33566618722E+02  0.21838303794E+03  0.82075158411E+03  0.46999998093E+01 0.  1.
       -5    1    3    3    0  502  0.79043861474E+03  0.33566618722E+02 -0.20532985475E+04  0.22004492579E+04  0.46999998093E+01 0. -1.
</event>
<event>
 5   0  0.5452384E-07  0.2399956E+04  0.7818609E-02  0.8439520E-01
        1   -1    0    0  501    0  0.00000000000E+00  0.00000000000E+00  0.91757989721E+03  0.91757989722E+03  0.50400001928E-02 0. -1.
       -1   -1    0    0    0  501  0.00000000000E+00  0.00000000000E+00 -0.15692879527E+04  0.15692879527E+04  0.50400001928E-02 0.  1.
    10030    2    1    2    0    0  0.00000000000E+00  0.00000000000E+00 -0.65170805548E+03  0.24868678499E+04  0.23999558982E+04 0.  0.
        5    1    3    3  502    0  0.53540766017E+03  0.85726756856E+03 -0.99608179634E+03  0.14190736703E+04  0.46999998093E+01 0.  1.
       -5    1    3    3    0  502 -0.53540766017E+03 -0.85726756856E+03  0.34437374086E+03  0.10677941796E+04  0.46999998093E+01 0. -1.
</event>
<event>
 5   0  0.1308662E-06  0.2398519E+04  0.7818609E-02  0.8440058E-01
       -2   -1    0    0    0  501  0.00000000000E+00  0.00000000000E+00  0.73101648449E+03  0.73101648450E+03  0.25500000920E-02 0. -1.
        2   -1    0    0  501    0  0.00000000000E+00  0.00000000000E+00 -0.19674290707E+04  0.19674290707E+04  0.25500000920E-02 0.  1.
    10030    2    1    2    0    0  0.00000000000E+00  0.00000000000E+00 -0.12364125862E+04  0.26984455552E+04  0.23985187786E+04 0.  0.
        3    1    3    3  502    0 -0.56004573290E+03 -0.58393327591E+03  0.37769438183E+03  0.89290668602E+03  0.10100000352E+00 0. -1.
       -3    1    3    3    0  502  0.56004573290E+03  0.58393327591E+03 -0.16141069681E+04  0.18055388692E+04  0.10100000352E+00 0.  1.
</event>
<event>
 5   0  0.5690124E-07  0.2399382E+04  0.7818609E-02  0.8439735E-01
        1   -1    0    0  501    0  0.00000000000E+00  0.00000000000E+00  0.11215552638E+04  0.11215552638E+04  0.50400001928E-02 0. -1.
       -1   -1    0    0    0  501  0.00000000000E+00  0.00000000000E+00 -0.12832701374E+04  0.12832701374E+04  0.50400001928E-02 0.  1.
    10030    2    1    2    0    0  0.00000000000E+00  0.00000000000E+00 -0.16171487360E+03  0.24048254012E+04  0.23993819017E+04 0.  0.
        2    1    3    3  502    0 -0.89375836191E+02 -0.15681768776E+03 -0.12695830062E+04  0.12823497327E+04  0.25500000920E-02 0.  1.
       -2    1    3    3    0  502  0.89375836191E+02  0.15681768776E+03  0.11078681326E+04  0.11224756686E+04  0.25500000920E-02 0. -1.
</event>
<event>
 5   0  0.5527286E-07  0.2399869E+04  0.7818609E-02  0.8439553E-01
       -1   -1    0    0    0  501  0.00000000000E+00  0.00000000000E+00  0.59744836851E+03  0.59744836853E+03  0.50400001928E-02 0. -1.
        1   -1    0    0  501    0  0.00000000000E+00  0.00000000000E+00 -0.24099864850E+04  0.24099864850E+04  0.50400001928E-02 0.  1.
    10030    2    1    2    0    0  0.00000000000E+00  0.00000000000E+00 -0.18125381165E+04  0.30074348536E+04  0.23998687411E+04 0.  0.
        1    1    3    3  502    0 -0.31905463154E+03 -0.43616020173E+03  0.43632250732E+03  0.69455662829E+03  0.50400001928E-02 0. -1.
       -1    1    3    3    0  502  0.31905463154E+03  0.43616020173E+03 -0.22488606238E+04  0.23128782253E+04  0.50400001928E-02 0.  1.
</event>
<event>
 5   0  0.5510176E-07  0.2400605E+04  0.7818609E-02  0.8439277E-01
        1   -1    0    0  501    0  0.00000000000E+00  0.00000000000E+00  0.16624193157E+04  0.16624193157E+04  0.50400001928E-02 0. -1.
       -1   -1    0    0    0  501  0.00000000000E+00  0.00000000000E+00 -0.86664436624E+03  0.86664436625E+03  0.50400001928E-02 0.  1.
    10030    2    1    2    0    0  0.00000000000E+00  0.00000000000E+00  0.79577494946E+03  0.25290636820E+04  0.24006052023E+04 0.  0.
        3    1    3    3  502    0  0.15546957870E+03  0.74860650313E+02  0.16492843096E+04  0.16582863597E+04  0.10100000352E+00 0. -1.
       -3    1    3    3    0  502 -0.15546957870E+03 -0.74860650313E+02 -0.85350936013E+03  0.87077732222E+03  0.10100000352E+00 0.  1.
</event>
<event>
 5   0  0.5510176E-07  0.2395662E+04  0.7818609E-02  0.8441129E-01
       -1   -1    0    0    0  501  0.00000000000E+00  0.00000000000E+00  0.15697397218E+04  0.15697397218E+04  0.50400001928E-02 0.  1.
        1   -1    0    0  501    0  0.00000000000E+00  0.00000000000E+00 -0.91403625271E+03  0.91403625273E+03  0.50400001928E-02 0. -1.
    10030    2    1    2    0    0  0.00000000000E+00  0.00000000000E+00  0.65570346904E+03  0.24837759745E+04  0.23956619236E+04 0.  0.
        3    1    3    3  502    0  0.45789632179E+03  0.22273958163E+03  0.14519424378E+04  0.15386418738E+04  0.10100000352E+00 0.  1.
       -3    1    3    3    0  502 -0.45789632179E+03 -0.22273958163E+03 -0.79623896879E+03  0.94513410073E+03  0.10100000352E+00 0. -1.
</event>
<event>
 5   0  0.1336057E-06  0.2400413E+04  0.7818609E-02  0.8439349E-01
       -2   -1    0    0    0  501  0.00000000000E+00  0.00000000000E+00  0.11560732676E+04  0.11560732676E+04  0.25500000920E-02 0. -1.
        2   -1    0    0  501    0  0.00000000000E+00  0.00000000000E+00 -0.12460249654E+04  0.12460249654E+04  0.25500000920E-02 0.  1.
    10030    2    1    2    0    0  0.00000000000E+00  0.00000000000E+00 -0.89951697800E+02  0.24020982330E+04  0.24004134255E+04 0.  0.
        2    1    3    3  502    0 -0.40312387697E+03 -0.53576214213E+03 -0.10411373636E+04  0.12383525116E+04  0.25500000920E-02 0.  1.
       -2    1    3    3    0  502  0.40312387697E+03  0.53576214213E+03  0.95118566584E+03  0.11637457214E+04  0.25500000920E-02 0. -1.
</event>
<event>
 5   0  0.5452384E-07  0.2401225E+04  0.7818609E-02  0.8439045E-01
        1   -1    0    0  501    0  0.00000000000E+00  0.00000000000E+00  0.14906886514E+04  0.14906886515E+04  0.50400001928E-02 0.  1.
       -1   -1    0    0    0  501  0.00000000000E+00  0.00000000000E+00 -0.96698286678E+03  0.96698286680E+03  0.50400001928E-02 0. -1.
    10030    2    1    2    0    0  0.00000000000E+00  0.00000000000E+00  0.52370578466E+03  0.24576715182E+04  0.24012250088E+04 0.  0.
        5    1    3    3  502    0 -0.49275612091E+02 -0.50281409112E+03 -0.85287690156E+03  0.99129773297E+03  0.46999998093E+01 0. -1.
       -5    1    3    3    0  502  0.49275612091E+02  0.50281409112E+03  0.13765826862E+04  0.14663737853E+04  0.46999998093E+01 0.  1.
</event>
<event>
 5   0  0.1307477E-06  0.2409715E+04  0.7818609E-02  0.8435875E-01
        2   -1    0    0  501    0  0.00000000000E+00  0.00000000000E+00  0.17968565972E+04  0.17968565972E+04  0.25500000920E-02 0. -1.
       -2   -1    0    0    0  501  0.00000000000E+00  0.00000000000E+00 -0.80790087439E+03  0.80790087440E+03  0.25500000920E-02 0.  1.
    10030    2    1    2    0    0  0.00000000000E+00  0.00000000000E+00  0.98895572282E+03  0.26047574716E+04  0.24097153492E+04 0.  0.
        5    1    3    3  502    0 -0.53833115985E+03 -0.78982701791E+03  0.12873550306E+04  0.16034126795E+04  0.46999998093E+01 0. -1.
       -5    1    3    3    0  502  0.53833115985E+03  0.78982701791E+03 -0.29839930776E+03  0.10013447921E+04  0.46999998093E+01 0.  1.
</event>
<event>
 5   0  0.5690124E-07  0.2399141E+04  0.7818609E-02  0.8439825E-01
       -1   -1    0    0    0  501  0.00000000000E+00  0.00000000000E+00  0.73424528213E+03  0.73424528215E+03  0.50400001928E-02 0. -1.
        1   -1    0    0  501    0  0.00000000000E+00  0.00000000000E+00 -0.19597937655E+04  0.19597937655E+04  0.50400001928E-02 0.  1.
    10030    2    1    2    0    0  0.00000000000E+00  0.00000000000E+00 -0.12255484834E+04  0.26940390477E+04  0.23991409515E+04 0.  0.
        2    1    3    3  502    0  0.37572988481E+02  0.21029387331E+03  0.71271361312E+03  0.74404027911E+03  0.25500000920E-02 0. -1.
       -2    1    3    3    0  502 -0.37572988481E+02 -0.21029387331E+03 -0.19382620965E+04  0.19499987685E+04  0.25500000920E-02 0.  1.
</event>
<event>
 5   0  0.4483375E-07  0.2398626E+04  0.7818609E-02  0.8440018E-01
       -4   -1    0    0    0  501  0.00000000000E+00  0.00000000000E+00  0.78767227681E+03  0.78767330065E+03  0.12699999809E+01 0.  1.
        4   -1    0    0  501    0  0.00000000000E+00  0.00000000000E+00 -0.18260771534E+04  0.18260775950E+04  0.12699999809E+01 0. -1.
    10030    2    1    2    0    0  0.00000000000E+00  0.00000000000E+00 -0.10384048766E+04  0.26137508956E+04  0.23986264938E+04 0.  0.
        5    1    3    3  502    0 -0.10559424767E+04  0.48798376620E+03 -0.83724812881E+03  0.14332303337E+04  0.46999998093E+01 0. -1.
       -5    1    3    3    0  502  0.10559424767E+04 -0.48798376620E+03 -0.20115674774E+03  0.11805205620E+04  0.46999998093E+01 0.  1.
</event>
<event>
 5   0  0.5527286E-07  0.2397362E+04  0.7818609E-02  0.8440492E-01
       -1   -1    0    0    0  501  0.00000000000E+00  0.00000000000E+00  0.56845359547E+03  0.56845359550E+03  0.50400001928E-02 0. -1.
        1   -1    0    0  501    0  0.00000000000E+00  0.00000000000E+00 -0.25276230172E+04  0.25276230172E+04  0.50400001928E-02 0.  1.
    10030    2    1    2    0    0  0.00000000000E+00  0.00000000000E+00 -0.19591694218E+04  0.30960766127E+04  0.23973622106E+04 0.  0.
        1    1    3    3  502    0 -0.20826951230E+03 -0.71442604998E+03 -0.21931749459E+04  0.23159872871E+04  0.50400001928E-02 0.  1.
       -1    1    3    3    0  502  0.20826951230E+03  0.71442604998E+03  0.23400552413E+03  0.78008932565E+03  0.50400001928E-02 0. -1.
</event>
<event>
 5   0  0.5690124E-07  0.2403369E+04  0.7818609E-02  0.8438243E-01
        1   -1    0    0  501    0  0.00000000000E+00  0.00000000000E+00  0.13319964387E+04  0.13319964387E+04  0.50400001928E-02 0. -1.
       -1   -1    0    0    0  501  0.00000000000E+00  0.00000000000E+00 -0.10841212645E+04  0.10841212645E+04  0.50400001928E-02 0.  1.
    10030    2    1    2    0    0  0.00000000000E+00  0.00000000000E+00  0.24787517418E+03  0.24161177033E+04  0.24033690216E+04 0.  0.
        2    1    3    3  502    0  0.29585435424E+03 -0.85152022667E+03 -0.67490268031E+03  0.11261039576E+04  0.25500000920E-02 0.  1.
       -2    1    3    3    0  502 -0.29585435424E+03  0.85152022667E+03  0.92277785450E+03  0.12900137457E+04  0.25500000920E-02 0. -1.
</event>
<event>
 5   0  0.1275948E-06  0.2398838E+04  0.7818609E-02  0.8439939E-01
       -2   -1    0    0    0  501  0.00000000000E+00  0.00000000000E+00  0.22522839961E+04  0.22522839961E+04  0.25500000920E-02 0.  1.
        2   -1    0    0  501    0  0.00000000000E+00  0.00000000000E+00 -0.63873189319E+03  0.63873189319E+03  0.25500000920E-02 0. -1.
    10030    2    1    2    0    0  0.00000000000E+00  0.00000000000E+00  0.16135521029E+04  0.28910158893E+04  0.23988377360E+04 0.  0.
        1    1    3    3  502    0 -0.26934876668E+03 -0.17014363199E+02  0.22152148284E+04  0.22315947174E+04  0.50400001928E-02 0.  1.
       -1    1    3    3    0  502  0.26934876668E+03  0.17014363199E+02 -0.60166272550E+03  0.65942117190E+03  0.50400001928E-02 0. -1.
</event>
<event>
 5   0  0.1275948E-06  0.2394647E+04  0.7818609E-02  0.8441510E-01
        2   -1    0    0  501    0  0.00000000000E+00  0.00000000000E+00  0.21931859134E+04  0.21931859134E+04  0.25500000920E-02 0. -1.
       -2   -1    0    0    0  501  0.00000000000E+00  0.00000000000E+00 -0.65365358923E+03  0.65365358923E+03  0.25500000920E-02 0.  1.
    10030    2    1    2    0    0  0.00000000000E+00  0.00000000000E+00  0.15395323242E+04  0.28468395026E+04  0.23946472343E+04 0.  0.
        1    1    3    3  502    0  0.71761106609E+03  0.83767523785E+03  0.21607239742E+03  0.11239896473E+04  0.50400001928E-02 0.  1.
       -1    1    3    3    0  502 -0.71761106609E+03 -0.83767523785E+03  0.13234599268E+04  0.17228498553E+04  0.50400001928E-02 0. -1.
</event>
<event>
 5   0  0.4483375E-07  0.2400770E+04  0.7818609E-02  0.8439215E-01
       -3   -1    0    0    0  501  0.00000000000E+00  0.00000000000E+00  0.11103196315E+04  0.11103196361E+04  0.10100000352E+00 0.  1.
        3   -1    0    0  501    0  0.00000000000E+00  0.00000000000E+00 -0.12977559745E+04  0.12977559784E+04  0.10100000352E+00 0. -1.
    10030    2    1    2    0    0  0.00000000000E+00  0.00000000000E+00 -0.18743634292E+03  0.24080756145E+04  0.24007698313E+04 0.  0.
        1    1    3    3  502    0  0.28709025332E+03  0.27880762642E+03 -0.12288729273E+04  0.12923943584E+04  0.50400001928E-02 0. -1.
       -1    1    3    3    0  502 -0.28709025332E+03 -0.27880762642E+03  0.10414365844E+04  0.11156812562E+04  0.50400001928E-02 0.  1.
</event>
<event>
 5   0  0.5363690E-07  0.2399659E+04  0.7818609E-02  0.8439631E-01
       -1   -1    0    0    0  501  0.00000000000E+00  0.00000000000E+00  0.77679626764E+03  0.77679626766E+03  0.50400001928E-02 0.  1.
        1   -1    0    0  501    0  0.00000000000E+00  0.00000000000E+00 -0.18532416911E+04  0.18532416911E+04  0.50400001928E-02 0. -1.
    10030    2    1    2    0    0  0.00000000000E+00  0.00000000000E+00 -0.10764454234E+04  0.26300379587E+04  0.23996593331E+04 0.  0.
        4    1    3    3  502    0 -0.49847969643E+03 -0.10736437534E+04 -0.32345975760E+03  0.12271188796E+04  0.12699999809E+01 0. -1.
       -4    1    3    3    0  502  0.49847969643E+03  0.10736437534E+04 -0.75298566582E+03  0.14029190792E+04  0.12699999809E+01 0.  1.
</event>
<event>
 5   0  0.1307477E-06  0.2399432E+04  0.7818609E-02  0.8439716E-01
       -2   -1    0    0    0  501  0.00000000000E+00  0.00000000000E+00  0.10504623450E+04  0.10504623450E+04  0.25500000920E-02 0. -1.
        2   -1    0    0  501    0  0.00000000000E+00  0.00000000000E+00 -0.13701763237E+04  0.13701763237E+04  0.25500000920E-02 0.  1.
    10030    2    1    2    0    0  0.00000000000E+00  0.00000000000E+00 -0.31971397874E+03  0.24206386687E+04  0.23994321278E+04 0.  0.
        5    1    3    3  502    0  0.70278205219E+01  0.10767226103E+04  0.37388949624E+03  0.11398229754E+04  0.46999998093E+01 0. -1.
       -5    1    3    3    0  502 -0.70278205219E+01 -0.10767226103E+04 -0.69360347498E+03  0.12808156933E+04  0.46999998093E+01 0.  1.
</event>
<event>
 5   0  0.5452384E-07  0.2400197E+04  0.7818609E-02  0.8439430E-01
        1   -1    0    0  501    0  0.00000000000E+00  0.00000000000E+00  0.12250498852E+04  0.12250498852E+04  0.50400001928E-02 0. -1.
       -1   -1    0    0    0  501  0.00000000000E+00  0.00000000000E+00 -0.11756549112E+04  0.11756549113E+04  0.50400001928E-02 0.  1.
    10030    2    1    2    0    0  0.00000000000E+00  0.00000000000E+00  0.49394973937E+02  0.24007047965E+04  0.24001965870E+04 0.  0.
        5    1    3    3  502    0 -0.58795089062E+02 -0.31439533775E+03  0.11816240893E+04  0.12241563909E+04  0.46999998093E+01 0. -1.
       -5    1    3    3    0  502  0.58795089062E+02  0.31439533775E+03 -0.11322291154E+04  0.11765484056E+04  0.46999998093E+01 0.  1.
</event>
<event>
 5   0  0.5690124E-07  0.2405138E+04  0.7818609E-02  0.8437583E-01
        1   -1    0    0  501    0  0.00000000000E+00  0.00000000000E+00  0.65979941184E+03  0.65979941185E+03  0.50400001928E-02 0.  1.
       -1   -1    0    0    0  501  0.00000000000E+00  0.00000000000E+00 -0.21918359421E+04  0.21918359421E+04  0.50400001928E-02 0. -1.
    10030    2    1    2    0    0  0.00000000000E+00  0.00000000000E+00 -0.15320365303E+04  0.28516353540E+04  0.24051378883E+04 0.  0.
        2    1    3    3  502    0  0.64440443886E+03 -0.25251979878E+02  0.43744012981E+03  0.77926158027E+03  0.25500000920E-02 0.  1.
       -2    1    3    3    0  502 -0.64440443886E+03  0.25251979878E+02 -0.19694766601E+04  0.20723737737E+04  0.25500000920E-02 0. -1.
</event>
<event>
 5   0  0.1307477E-06  0.2415556E+04  0.7818609E-02  0.8433702E-01
       -2   -1    0    0    0  501  0.00000000000E+00  0.00000000000E+00  0.85985925897E+03  0.85985925897E+03  0.25500000920E-02 0. -1.
        2   -1    0    0  501    0  0.00000000000E+00  0.00000000000E+00 -0.16964730603E+04  0.16964730603E+04  0.25500000920E-02 0.  1.
    10030    2    1    2    0    0  0.00000000000E+00  0.00000000000E+00 -0.83661380136E+03  0.25563323193E+04  0.24155563074E+04 0.  0.
        5    1    3    3  502    0 -0.29390015562E+02 -0.70312437300E+03  0.62045643278E+03  0.93820889566E+03  0.46999998093E+01 0. -1.
       -5    1    3    3    0  502  0.29390015562E+02  0.70312437300E+03 -0.14570702341E+04  0.16181234236E+04  0.46999998093E+01 0.  1.
</event>
<event>
 5   0  0.1275948E-06  0.2397970E+04  0.7818609E-02  0.8440264E-01
       -2   -1    0    0    0  501  0.00000000000E+00  0.00000000000E+00  0.63723365111E+03  0.63723365112E+03  0.25500000920E-02 0.  1.
        2   -1    0    0  501    0  0.00000000000E+00  0.00000000000E+00 -0.22559459915E+04  0.22559459915E+04  0.25500000920E-02 0. -1.
    10030    2    1    2    0    0  0.00000000000E+00  0.00000000000E+00 -0.16187123404E+04  0.28931796426E+04  0.23979697253E+04 0.  0.
        1    1    3    3  502    0 -0.14492471876E+03 -0.60181951587E+03  0.42952374729E+03  0.75344578657E+03  0.50400001928E-02 0.  1.
       -1    1    3    3    0  502  0.14492471876E+03  0.60181951587E+03 -0.20482360876E+04  0.21397338560E+04  0.50400001928E-02 0. -1.
</event>
<event>
 5   0  0.5690124E-07  0.2400195E+04  0.7818609E-02  0.8439431E-01
        1   -1    0    0  501    0  0.00000000000E+00  0.00000000000E+00  0.15472499123E+04  0.15472499123E+04  0.50400001928E-02 0.  1.
       -1   -1    0    0    0  501  0.00000000000E+00  0.00000000000E+00 -0.93083450533E+03  0.93083450534E+03  0.50400001928E-02 0. -1.
    10030    2    1    2    0    0  0.00000000000E+00  0.00000000000E+00  0.61641540697E+03  0.24780844176E+04  0.24001946644E+04 0.  0.
        2    1    3    3  502    0 -0.19330629842E+03 -0.66056989214E+03 -0.70681004863E+03  0.98655985742E+03  0.25500000920E-02 0. -1.
       -2    1    3    3    0  502  0.19330629842E+03  0.66056989214E+03  0.13232254556E+04  0.14915245602E+04  0.25500000920E-02 0.  1.
</event>
<event>
 5   0  0.5452384E-07  0.2399866E+04  0.7818609E-02  0.8439554E-01
       -1   -1    0    0    0  501  0.00000000000E+00  0.00000000000E+00  0.68991067458E+03  0.68991067460E+03  0.50400001928E-02 0.  1.
        1   -1    0    0  501    0  0.00000000000E+00  0.00000000000E+00 -0.20869936900E+04  0.20869936900E+04  0.50400001928E-02 0. -1.
    10030    2    1    2    0    0  0.00000000000E+00  0.00000000000E+00 -0.13970830154E+04  0.27769043646E+04  0.23998660167E+04 0.  0.
        5    1    3    3  502    0  0.45671547611E+03  0.80513557614E+01 -0.19824431514E+04  0.20343934695E+04  0.46999998093E+01 0. -1.
       -5    1    3    3    0  502 -0.45671547611E+03 -0.80513557614E+01  0.58536013598E+03  0.74251089504E+03  0.46999998093E+01 0.  1.
</event>
<event>
 5   0  0.5510176E-07  0.2400286E+04  0.7818609E-02  0.8439397E-01
       -1   -1    0    0    0  501  0.00000000000E+00  0.00000000000E+00  0.76246076070E+03  0.76246076072E+03  0.50400001928E-02 0. -1.
        1   -1    0    0  501    0  0.00000000000E+00  0.00000000000E+00 -0.18890713784E+04  0.18890713784E+04  0.50400001928E-02 0.  1.
    10030    2    1    2    0    0  0.00000000000E+00  0.00000000000E+00 -0.11266106177E+04  0.26515321391E+04  0.24002856498E+04 0.  0.
        3    1    3    3  502    0  0.11187724254E+03 -0.10774243246E+04  0.74840269505E+01  0.10832431460E+04  0.10100000352E+00 0.  1.
       -3    1    3    3    0  502 -0.11187724254E+03  0.10774243246E+04 -0.11340946446E+04  0.15682889930E+04  0.10100000352E+00 0. -1.
</event>
<event>
 5   0  0.5510176E-07  0.2400189E+04  0.7818609E-02  0.8439433E-01
        1   -1    0    0  501    0  0.00000000000E+00  0.00000000000E+00  0.19991463134E+04  0.19991463134E+04  0.50400001928E-02 0. -1.
       -1   -1    0    0    0  501  0.00000000000E+00  0.00000000000E+00 -0.72042117771E+03  0.72042117773E+03  0.50400001928E-02 0.  1.
    10030    2    1    2    0    0  0.00000000000E+00  0.00000000000E+00  0.12787251357E+04  0.27195674912E+04  0.24001894438E+04 0.  0.
        3    1    3    3  502    0  0.37452606443E+03 -0.10745937516E+04  0.20759865328E+03  0.11567708135E+04  0.10100000352E+00 0.  1.
       -3    1    3    3    0  502 -0.37452606443E+03  0.10745937516E+04  0.10711264824E+04  0.15627966776E+04  0.10100000352E+00 0. -1.
</event>
<event>
 5   0  0.5452384E-07  0.2400189E+04  0.7818609E-02  0.8439433E-01
        1   -1    0    0  501    0  0.00000000000E+00  0.00000000000E+00  0.14846627970E+04  0.14846627970E+04  0.50400001928E-02 0. -1.
       -1   -1    0    0    0  501  0.00000000000E+00  0.00000000000E+00 -0.97007034330E+03  0.97007034331E+03  0.50400001928E-02 0.  1.
    10030    2    1    2    0    0  0.00000000000E+00  0.00000000000E+00  0.51459245368E+03  0.24547331403E+04  0.24001894502E+04 0.  0.
        5    1    3    3  502    0 -0.43468290661E+03  0.87112477305E+03 -0.46036048911E+03  0.10769222207E+04  0.46999998093E+01 0. -1.
       -5    1    3    3    0  502  0.43468290661E+03 -0.87112477305E+03  0.97495294279E+03  0.13778109196E+04  0.46999998093E+01 0.  1.
</event>
<event>
 5   0  0.5363690E-07  0.2400599E+04  0.7818609E-02  0.8439279E-01
        1   -1    0    0  501    0  0.00000000000E+00  0.00000000000E+00  0.26544730467E+04  0.26544730467E+04  0.50400001928E-02 0. -1.
       -1   -1    0    0    0  501  0.00000000000E+00  0.00000000000E+00 -0.54275121136E+03  0.54275121138E+03  0.50400001928E-02 0.  1.
    10030    2    1    2    0    0  0.00000000000E+00  0.00000000000E+00  0.21117218353E+04  0.31972242581E+04  0.24005986434E+04 0.  0.
        4    1    3    3  502    0  0.10545743650E+04  0.22909461714E+03  0.35603341778E+03  0.11363858686E+04  0.12699999809E+01 0.  1.
       -4    1    3    3    0  502 -0.10545743650E+04 -0.22909461714E+03  0.17556884176E+04  0.20608383894E+04  0.12699999809E+01 0. -1.
</event>
<event>
 5   0  0.5452384E-07  0.2399759E+04  0.7818609E-02  0.8439594E-01
        1   -1    0    0  501    0  0.00000000000E+00  0.00000000000E+00  0.21730359211E+04  0.21730359212E+04  0.50400001928E-02 0. -1.
       -1   -1    0    0    0  501  0.00000000000E+00  0.00000000000E+00 -0.66253413098E+03  0.66253413100E+03  0.50400001928E-02 0.  1.
    10030    2    1    2    0    0  0.00000000000E+00  0.00000000000E+00  0.15105017902E+04  0.28355700522E+04  0.23997587092E+04 0.  0.
        5    1    3    3  502    0  0.65520434599E+03  0.88098986807E+03  0.18335771815E+03  0.11131388168E+04  0.46999998093E+01 0.  1.
       -5    1    3    3    0  502 -0.65520434599E+03 -0.88098986807E+03  0.13271440720E+04  0.17224312354E+04  0.46999998093E+01 0. -1.
</event>
<event>
 5   0  0.1291468E-06  0.2400973E+04  0.7818609E-02  0.8439140E-01
        2   -1    0    0  501    0  0.00000000000E+00  0.00000000000E+00  0.21633118090E+04  0.21633118090E+04  0.25500000920E-02 0.  1.
       -2   -1    0    0    0  501  0.00000000000E+00  0.00000000000E+00 -0.66618563019E+03  0.66618563019E+03  0.25500000920E-02 0. -1.
    10030    2    1    2    0    0  0.00000000000E+00  0.00000000000E+00  0.14971261788E+04  0.28294974392E+04  0.24009725036E+04 0.  0.
        4    1    3    3  502    0  0.38680219259E+03 -0.22967191480E+03 -0.56310153358E+03  0.72072884961E+03  0.12699999809E+01 0. -1.
       -4    1    3    3    0  502 -0.38680219259E+03  0.22967191480E+03  0.20602277124E+04  0.21087685896E+04  0.12699999809E+01 0.  1.
</event>
<event>
 5   0  0.5452384E-07  0.2403833E+04  0.7818609E-02  0.8438070E-01
       -1   -1    0    0    0  501  0.00000000000E+00  0.00000000000E+00  0.73748090773E+03  0.73748090774E+03  0.50400001928E-02 0. -1.
        1   -1    0    0  501    0  0.00000000000E+00  0.00000000000E+00 -0.19588349105E+04  0.19588349105E+04  0.50400001928E-02 0.  1.
    10030    2    1    2    0    0  0.00000000000E+00  0.00000000000E+00 -0.12213540028E+04  0.26963158183E+04  0.24038330624E+04 0.  0.
        5    1    3    3  502    0  0.11509103825E+04 -0.72204222240E+02 -0.99067955119E+03  0.15202882034E+04  0.46999998093E+01 0.  1.
       -5    1    3    3    0  502 -0.11509103825E+04  0.72204222240E+02 -0.23067445160E+03  0.11760276149E+04  0.46999998093E+01 0. -1.
</event>
<event>
 5   0  0.1308662E-06  0.2399536E+04  0.7818609E-02  0.8439677E-01
        2   -1    0    0  501    0  0.00000000000E+00  0.00000000000E+00  0.43622499585E+03  0.43622499586E+03  0.25500000920E-02 0.  1.
       -2   -1    0    0    0  501  0.00000000000E+00  0.00000000000E+00 -0.32997721104E+04  0.32997721104E+04  0.25500000920E-02 0. -1.
    10030    2    1    2    0    0  0.00000000000E+00  0.00000000000E+00 -0.28635471145E+04  0.37359971063E+04  0.23995358511E+04 0.  0.
        3    1    3    3  502    0 -0.10202894618E+04 -0.32582758966E+03 -0.22735280064E+04  0.25131820090E+04  0.10100000352E+00 0. -1.
       -3    1    3    3    0  502  0.10202894618E+04  0.32582758966E+03 -0.59001910814E+03  0.12228150973E+04  0.10100000352E+00 0.  1.
</event>
<event>
 5   0  0.1308662E-06  0.2415733E+04  0.7818609E-02  0.8433637E-01
        2   -1    0    0  501    0  0.00000000000E+00  0.00000000000E+00  0.10278649657E+04  0.10278649657E+04  0.25500000920E-02 0.  1.
       -2   -1    0    0    0  501  0.00000000000E+00  0.00000000000E+00 -0.14193898652E+04  0.14193898652E+04  0.25500000920E-02 0. -1.
    10030    2    1    2    0    0  0.00000000000E+00  0.00000000000E+00 -0.39152489950E+03  0.24472548309E+04  0.24157326964E+04 0.  0.
        3    1    3    3  502    0 -0.26330663741E+03  0.11419721070E+04  0.10047492696E+03  0.11762337776E+04  0.10100000352E+00 0.  1.
       -3    1    3    3    0  502  0.26330663741E+03 -0.11419721070E+04 -0.49199982645E+03  0.12710210533E+04  0.10100000352E+00 0. -1.
</event>
<event>
 5   0  0.5690124E-07  0.2400208E+04  0.7818609E-02  0.8439426E-01
        1   -1    0    0  501    0  0.00000000000E+00  0.00000000000E+00  0.95568361681E+03  0.95568361682E+03  0.50400001928E-02 0.  1.
       -1   -1    0    0    0  501  0.00000000000E+00  0.00000000000E+00 -0.15070356142E+04  0.15070356142E+04  0.50400001928E-02 0. -1.
    10030    2    1    2    0    0  0.00000000000E+00  0.00000000000E+00 -0.55135199736E+03  0.24627192310E+04  0.24002076964E+04 0.  0.
        2    1    3    3  502    0 -0.85507891704E+03 -0.99249481510E+02  0.58230732606E+03  0.10392748606E+04  0.25500000920E-02 0.  1.
       -2    1    3    3    0  502  0.85507891704E+03  0.99249481510E+02 -0.11336593234E+04  0.14234443704E+04  0.25500000920E-02 0. -1.
</event>
<event>
 5   0  0.1307477E-06  0.2401214E+04  0.7818609E-02  0.8439049E-01
       -2   -1    0    0    0  501  0.00000000000E+00  0.00000000000E+00  0.90736498067E+03  0.90736498068E+03  0.25500000920E-02 0. -1.
        2   -1    0    0  501    0  0.00000000000E+00  0.00000000000E+00 -0.15886192083E+04  0.15886192083E+04  0.25500000920E-02 0.  1.
    10030    2    1    2    0    0  0.00000000000E+00  0.00000000000E+00 -0.68125422762E+03  0.24959841890E+04  0.24012142239E+04 0.  0.
        5    1    3    3  502    0 -0.32467520740E+03 -0.10138006609E+04  0.23646890426E+03  0.10904794372E+04  0.46999998093E+01 0.  1.
       -5    1    3    3    0  502  0.32467520740E+03  0.10138006609E+04 -0.91772313188E+03  0.14055047517E+04  0.46999998093E+01 0. -1.
</event>
<event>
 5   0  0.5452384E-07  0.2399823E+04  0.7818609E-02  0.8439570E-01
       -1   -1    0    0    0  501  0.00000000000E+00  0.00000000000E+00  0.12371885541E+04  0.12371885542E+04  0.50400001928E-02 0.  1.
        1   -1    0    0  501    0  0.00000000000E+00  0.00000000000E+00 -0.11637571423E+04  0.11637571423E+04  0.50400001928E-02 0. -1.
    10030    2    1    2    0    0  0.00000000000E+00  0.00000000000E+00  0.73431411847E+02  0.24009456965E+04  0.23998225070E+04 0.  0.
        5    1    3    3  502    0 -0.30359640175E+03 -0.11111389927E+04  0.37297461829E+03  0.12107571153E+04  0.46999998093E+01 0.  1.
       -5    1    3    3    0  502  0.30359640175E+03  0.11111389927E+04 -0.29954320645E+03  0.11901885812E+04  0.46999998093E+01 0. -1.
</event>
<event>
 5   0  0.5690124E-07  0.2399897E+04  0.7818609E-02  0.8439542E-01
       -1   -1    0    0    0  501  0.00000000000E+00  0.00000000000E+00  0.91367027463E+03  0.91367027464E+03  0.50400001928E-02 0. -1.
        1   -1    0    0  501    0  0.00000000000E+00  0.00000000000E+00 -0.15759257702E+04  0.15759257702E+04  0.50400001928E-02 0.  1.
    10030    2    1    2    0    0  0.00000000000E+00  0.00000000000E+00 -0.66225549553E+03  0.24895960448E+04  0.23998971072E+04 0.  0.
        2    1    3    3  502    0 -0.86034060389E+02 -0.35823267366E+02 -0.15721658541E+04  0.15749255978E+04  0.25500000920E-02 0.  1.
       -2    1    3    3    0  502  0.86034060389E+02  0.35823267366E+02  0.90991035852E+03  0.91467044698E+03  0.25500000920E-02 0. -1.
</event>
<event>
 5   0  0.1307477E-06  0.2399739E+04  0.7818609E-02  0.8439601E-01
       -2   -1    0    0    0  501  0.00000000000E+00  0.00000000000E+00  0.12089452573E+04  0.12089452573E+04  0.25500000920E-02 0.  1.
        2   -1    0    0  501    0  0.00000000000E+00  0.00000000000E+00 -0.11908618288E+04  0.11908618288E+04  0.25500000920E-02 0. -1.
    10030    2    1    2    0    0  0.00000000000E+00  0.00000000000E+00  0.18083428456E+02  0.23998070861E+04  0.23997389525E+04 0.  0.
        5    1    3    3  502    0 -0.56094674670E+03  0.31854922590E+01  0.10697288277E+04  0.12078962103E+04  0.46999998093E+01 0.  1.
       -5    1    3    3    0  502  0.56094674670E+03 -0.31854922590E+01 -0.10516453993E+04  0.11919108758E+04  0.46999998093E+01 0. -1.
</event>
<event>
 5   0  0.1275948E-06  0.2396272E+04  0.7818609E-02  0.8440901E-01
        2   -1    0    0  501    0  0.00000000000E+00  0.00000000000E+00  0.17736639527E+04  0.17736639527E+04  0.25500000920E-02 0.  1.
       -2   -1    0    0    0  501  0.00000000000E+00  0.00000000000E+00 -0.80935830677E+03  0.80935830677E+03  0.25500000920E-02 0. -1.
    10030    2    1    2    0    0  0.00000000000E+00  0.00000000000E+00  0.96430564595E+03  0.25830222595E+04  0.23962718156E+04 0.  0.
        1    1    3    3  502    0 -0.21038937287E+03  0.55882233507E+03 -0.63754151859E+03  0.87350173345E+03  0.50400001928E-02 0. -1.
       -1    1    3    3    0  502  0.21038937287E+03 -0.55882233507E+03  0.16018471645E+04  0.17095205260E+04  0.50400001928E-02 0.  1.
</event>
<event>
 5   0  0.5690124E-07  0.2400464E+04  0.7818609E-02  0.8439330E-01
        1   -1    0    0  501    0  0.00000000000E+00  0.00000000000E+00  0.12155824321E+04  0.12155824321E+04  0.50400001928E-02 0. -1.
       -1   -1    0    0    0  501  0.00000000000E+00  0.00000000000E+00 -0.11850757148E+04  0.11850757148E+04  0.50400001928E-02 0.  1.
    10030    2    1    2    0    0  0.00000000000E+00  0.00000000000E+00  0.30506717337E+02  0.24006581469E+04  0.24004643048E+04 0.  0.
        2    1    3    3  502    0  0.90042150140E+03 -0.57028229305E+03 -0.53667565663E+03  0.11933153541E+04  0.25500000920E-02 0.  1.
       -2    1    3    3    0  502 -0.90042150140E+03  0.57028229305E+03  0.56718237397E+03  0.12073427928E+04  0.25500000920E-02 0. -1.
</event>
<event>
 5   0  0.1275948E-06  0.2399835E+04  0.7818609E-02  0.8439565E-01
       -2   -1    0    0    0  501  0.00000000000E+00  0.00000000000E+00  0.10534733068E+04  0.10534733068E+04  0.25500000920E-02 0. -1.
        2   -1    0    0  501    0  0.00000000000E+00  0.00000000000E+00 -0.13667188292E+04  0.13667188292E+04  0.25500000920E-02 0.  1.
    10030    2    1    2    0    0  0.00000000000E+00  0.00000000000E+00 -0.31324552239E+03  0.24201921360E+04  0.23998348313E+04 0.  0.
        1    1    3    3  502    0 -0.86021110516E+03 -0.81567823904E+03 -0.34396094557E+03  0.12343432534E+04  0.50400001928E-02 0.  1.
       -1    1    3    3    0  502  0.86021110516E+03  0.81567823904E+03  0.30715423183E+02  0.11858488826E+04  0.50400001928E-02 0. -1.
</event>
<event>
 5   0  0.5363690E-07  0.2399857E+04  0.7818609E-02  0.8439557E-01
       -1   -1    0    0    0  501  0.00000000000E+00  0.00000000000E+00  0.10182953534E+04  0.10182953534E+04  0.50400001928E-02 0.  1.
        1   -1    0    0  501    0  0.00000000000E+00  0.00000000000E+00 -0.14139591053E+04  0.14139591054E+04  0.50400001928E-02 0. -1.
    10030    2    1    2    0    0  0.00000000000E+00  0.00000000000E+00 -0.39566375198E+03  0.24322544587E+04  0.23998566514E+04 0.  0.
        4    1    3    3  502    0 -0.99780170659E+03 -0.26787364394E+03  0.42070357893E+03  0.11155077987E+04  0.12699999809E+01 0.  1.
       -4    1    3    3    0  502  0.99780170659E+03  0.26787364394E+03 -0.81636733090E+03  0.13167466600E+04  0.12699999809E+01 0. -1.
</event>
<event>
 5   0  0.1308662E-06  0.2400038E+04  0.7818609E-02  0.8439489E-01
        2   -1    0    0  501    0  0.00000000000E+00  0.00000000000E+00  0.13285003584E+04  0.13285003584E+04  0.25500000920E-02 0.  1.
       -2   -1    0    0    0  501  0.00000000000E+00  0.00000000000E+00 -0.10839631202E+04  0.10839631202E+04  0.25500000920E-02 0. -1.
    10030    2    1    2    0    0  0.00000000000E+00  0.00000000000E+00  0.24453723817E+03  0.24124634786E+04  0.24000378278E+04 0.  0.
        3    1    3    3  502    0  0.59438931579E+03 -0.56302109961E+03  0.10041671685E+04  0.12956246099E+04  0.10100000352E+00 0.  1.
       -3    1    3    3    0  502 -0.59438931579E+03  0.56302109961E+03 -0.75962993035E+03  0.11168388687E+04  0.10100000352E+00 0. -1.
</event>
<event>
 5   0  0.5363690E-07  0.2399954E+04  0.7818609E-02  0.8439521E-01
       -1   -1    0    0    0  501  0.00000000000E+00  0.00000000000E+00  0.64322163382E+03  0.64322163384E+03  0.50400001928E-02 0. -1.
        1   -1    0    0  501    0  0.00000000000E+00  0.00000000000E+00 -0.22386444825E+04  0.22386444825E+04  0.50400001928E-02 0.  1.
    10030    2    1    2    0    0  0.00000000000E+00  0.00000000000E+00 -0.15954228487E+04  0.28818661163E+04  0.23999538009E+04 0.  0.
        4    1    3    3  502    0  0.40594089407E+03 -0.56874962256E+03  0.37371797151E+03  0.79242089685E+03  0.12699999809E+01 0. -1.
       -4    1    3    3    0  502 -0.40594089407E+03  0.56874962256E+03 -0.19691408202E+04  0.20894452195E+04  0.12699999809E+01 0.  1.
</event>
<event>
 5   0  0.1308662E-06  0.2399325E+04  0.7818609E-02  0.8439756E-01
       -2   -1    0    0    0  501  0.00000000000E+00  0.00000000000E+00  0.81542008913E+03  0.81542008913E+03  0.25500000920E-02 0.  1.
        2   -1    0    0  501    0  0.00000000000E+00  0.00000000000E+00 -0.17649681381E+04  0.17649681381E+04  0.25500000920E-02 0. -1.
    10030    2    1    2    0    0  0.00000000000E+00  0.00000000000E+00 -0.94954804894E+03  0.25803882272E+04  0.23993253022E+04 0.  0.
        3    1    3    3  502    0  0.89499644989E+03  0.58352842026E+03 -0.10615344679E+04  0.15061140393E+04  0.10100000352E+00 0.  1.
       -3    1    3    3    0  502 -0.89499644989E+03 -0.58352842026E+03  0.11198641898E+03  0.10742741879E+04  0.10100000352E+00 0. -1.
</event>
<event>
 5   0  0.1291468E-06  0.2399110E+04  0.7818609E-02  0.8439837E-01
        2   -1    0    0  501    0  0.00000000000E+00  0.00000000000E+00  0.13573324137E+04  0.13573324137E+04  0.25500000920E-02 0.  1.
       -2   -1    0    0    0  501  0.00000000000E+00  0.00000000000E+00 -0.10601181842E+04  0.10601181842E+04  0.25500000920E-02 0. -1.
    10030    2    1    2    0    0  0.00000000000E+00  0.00000000000E+00  0.29721422948E+03  0.24174505979E+04  0.23991104800E+04 0.  0.
        4    1    3    3  502    0 -0.10148739260E+04 -0.63945299274E+03  0.14067641250E+03  0.12077502563E+04  0.12699999809E+01 0. -1.
       -4    1    3    3    0  502  0.10148739260E+04  0.63945299274E+03  0.15653781698E+03  0.12097003417E+04  0.12699999809E+01 0.  1.
</event>
<event>
 5   0  0.1336057E-06  0.2399430E+04  0.7818609E-02  0.8439717E-01
       -2   -1    0    0    0  501  0.00000000000E+00  0.00000000000E+00  0.71254612519E+03  0.71254612519E+03  0.25500000920E-02 0.  1.
        2   -1    0    0  501    0  0.00000000000E+00  0.00000000000E+00 -0.20199622643E+04  0.20199622643E+04  0.25500000920E-02 0. -1.
    10030    2    1    2    0    0  0.00000000000E+00  0.00000000000E+00 -0.13074161391E+04  0.27325083895E+04  0.23994301694E+04 0.  0.
        2    1    3    3  502    0  0.25054821666E+03  0.26756927468E+03 -0.19546265551E+04  0.19887012585E+04  0.25500000920E-02 0. -1.
       -2    1    3    3    0  502 -0.25054821666E+03 -0.26756927468E+03  0.64721041596E+03  0.74380713102E+03  0.25500000920E-02 0.  1.
</event>
<event>
 5   0  0.1336057E-06  0.2400986E+04  0.7818609E-02  0.8439134E-01
       -2   -1    0    0    0  501  0.00000000000E+00  0.00000000000E+00  0.10285675044E+04  0.10285675044E+04  0.25500000920E-02 0. -1.
        2   -1    0    0  501    0  0.00000000000E+00  0.00000000000E+00 -0.14011564091E+04  0.14011564091E+04  0.25500000920E-02 0.  1.
    10030    2    1    2    0    0  0.00000000000E+00  0.00000000000E+00 -0.37258890467E+03  0.24297239135E+04  0.24009864231E+04 0.  0.
        2    1    3    3  502    0 -0.63610966254E+03 -0.57479962237E+03 -0.10366819901E+04  0.13452656456E+04  0.25500000920E-02 0.  1.
       -2    1    3    3    0  502  0.63610966254E+03  0.57479962237E+03  0.66409308545E+03  0.10844582679E+04  0.25500000920E-02 0. -1.
</event>
<event>
 5   0  0.5363690E-07  0.2400577E+04  0.7818609E-02  0.8439287E-01
        1   -1    0    0  501    0  0.00000000000E+00  0.00000000000E+00  0.10816109355E+04  0.10816109355E+04  0.50400001928E-02 0.  1.
       -1   -1    0    0    0  501  0.00000000000E+00  0.00000000000E+00 -0.13319879691E+04  0.13319879691E+04  0.50400001928E-02 0. -1.
    10030    2    1    2    0    0  0.00000000000E+00  0.00000000000E+00 -0.25037703356E+03  0.24135989046E+04  0.24005772251E+04 0.  0.
        4    1    3    3  502    0 -0.20727572704E+03 -0.11804301955E+04 -0.19121411054E+03  0.12136486816E+04  0.12699999809E+01 0. -1.
       -4    1    3    3    0  502  0.20727572704E+03  0.11804301955E+04 -0.59162923019E+02  0.11999502230E+04  0.12699999809E+01 0.  1.
</event>
<event>
 5   0  0.1336057E-06  0.2399892E+04  0.7818609E-02  0.8439544E-01
        2   -1    0    0  501    0  0.00000000000E+00  0.00000000000E+00  0.21019950502E+04  0.21019950502E+04  0.25500000920E-02 0. -1.
       -2   -1    0    0    0  501  0.00000000000E+00  0.00000000000E+00 -0.68500200824E+03  0.68500200824E+03  0.25500000920E-02 0.  1.
    10030    2    1    2    0    0  0.00000000000E+00  0.00000000000E+00  0.14169930420E+04  0.27869970584E+04  0.23998923565E+04 0.  0.
        2    1    3    3  502    0  0.51385165821E+02 -0.85885305553E+03  0.16798341525E+04  0.18873557657E+04  0.25500000920E-02 0. -1.
       -2    1    3    3    0  502 -0.51385165821E+02  0.85885305553E+03 -0.26284111055E+03  0.89964129277E+03  0.25500000920E-02 0.  1.
</event>
<event>
 5   0  0.1307477E-06  0.2400232E+04  0.7818609E-02  0.8439417E-01
       -2   -1    0    0    0  501  0.00000000000E+00  0.00000000000E+00  0.13003790035E+04  0.13003790035E+04  0.25500000920E-02 0.  1.
        2   -1    0    0  501    0  0.00000000000E+00  0.00000000000E+00 -0.11075831701E+04  0.11075831701E+04  0.25500000920E-02 0. -1.
    10030    2    1    2    0    0  0.00000000000E+00  0.00000000000E+00  0.19279583338E+03  0.24079621737E+04  0.24002315714E+04 0.  0.
        5    1    3    3  502    0  0.51464010453E+03 -0.10836526438E+04  0.63150272659E+02  0.12013190819E+04  0.46999998093E+01 0. -1.
       -5    1    3    3    0  502 -0.51464010453E+03  0.10836526438E+04  0.12964556072E+03  0.12066430918E+04  0.46999998093E+01 0.  1.
</event>
<event>
 5   0  0.1307477E-06  0.2401016E+04  0.7818609E-02  0.8439123E-01
       -2   -1    0    0    0  501  0.00000000000E+00  0.00000000000E+00  0.88130588383E+03  0.88130588383E+03  0.25500000920E-02 0.  1.
        2   -1    0    0  501    0  0.00000000000E+00  0.00000000000E+00 -0.16353223151E+04  0.16353223151E+04  0.25500000920E-02 0. -1.
    10030    2    1    2    0    0  0.00000000000E+00  0.00000000000E+00 -0.75401643129E+03  0.25166281989E+04  0.24010157669E+04 0.  0.
        5    1    3    3  502    0  0.36996321809E+03  0.11116758922E+04 -0.10267868912E+03  0.11761211992E+04  0.46999998093E+01 0.  1.
       -5    1    3    3    0  502 -0.36996321809E+03 -0.11116758922E+04 -0.65133774216E+03  0.13405069997E+04  0.46999998093E+01 0. -1.
</event>
<event>
 5   0  0.1308662E-06  0.2400251E+04  0.7818609E-02  0.8439409E-01
        2   -1    0    0  501    0  0.00000000000E+00  0.00000000000E+00  0.10043923774E+04  0.10043923774E+04  0.25500000920E-02 0.  1.
       -2   -1    0    0    0  501  0.00000000000E+00  0.00000000000E+00 -0.14340029674E+04  0.14340029674E+04  0.25500000920E-02 0. -1.
    10030    2    1    2    0    0  0.00000000000E+00  0.00000000000E+00 -0.42961058999E+03  0.24383953448E+04  0.24002513615E+04 0.  0.
        3    1    3    3  502    0 -0.87321353485E+03 -0.20894466816E+03  0.59417997927E+03  0.10766659694E+04  0.10100000352E+00 0.  1.
       -3    1    3    3    0  502  0.87321353485E+03  0.20894466816E+03 -0.10237905693E+04  0.13617293754E+04  0.10100000352E+00 0. -1.
</event>
<event>
 5   0  0.5452384E-07  0.2399608E+04  0.7818609E-02  0.8439650E-01
       -1   -1    0    0    0  501  0.00000000000E+00  0.00000000000E+00  0.14118123846E+04  0.14118123846E+04  0.50400001928E-02 0. -1.
        1   -1    0    0  501    0  0.00000000000E+00  0.00000000000E+00 -0.10196326995E+04  0.10196326996E+04  0.50400001928E-02 0.  1.
    10030    2    1    2    0    0  0.00000000000E+00  0.00000000000E+00  0.39217968501E+03  0.24314450841E+04  0.23996083622E+04 0.  0.
        5    1    3    3  502    0  0.17466260295E+03 -0.61014461834E+03  0.12277954239E+04  0.13821313878E+04  0.46999998093E+01 0. -1.
       -5    1    3    3    0  502 -0.17466260295E+03  0.61014461834E+03 -0.83561573892E+03  0.10493136963E+04  0.46999998093E+01 0.  1.
</event>
<event>
 5   0  0.5527286E-07  0.2398350E+04  0.7818609E-02  0.8440122E-01
        1   -1    0    0  501    0  0.00000000000E+00  0.00000000000E+00  0.97274203774E+03  0.97274203775E+03  0.50400001928E-02 0.  1.
       -1   -1    0    0    0  501  0.00000000000E+00  0.00000000000E+00 -0.14783161453E+04  0.14783161453E+04  0.50400001928E-02 0. -1.
    10030    2    1    2    0    0  0.00000000000E+00  0.00000000000E+00 -0.50557410758E+03  0.24510581831E+04  0.23983496489E+04 0.  0.
        1    1    3    3  502    0 -0.83425686040E+03 -0.86106878068E+03 -0.22783102361E+03  0.12203814689E+04  0.50400001928E-02 0.  1.
       -1    1    3    3    0  502  0.83425686040E+03  0.86106878068E+03 -0.27774308397E+03  0.12306767142E+04  0.50400001928E-02 0. -1.
</event>
<event>
 5   0  0.1308662E-06  0.2399845E+04  0.7818609E-02  0.8439561E-01
       -2   -1    0    0    0  501  0.00000000000E+00  0.00000000000E+00  0.10382623653E+04  0.10382623653E+04  0.25500000920E-02 0. -1.
        2   -1    0    0  501    0  0.00000000000E+00  0.00000000000E+00 -0.13867539203E+04  0.13867539203E+04  0.25500000920E-02 0.  1.
    10030    2    1    2    0    0  0.00000000000E+00  0.00000000000E+00 -0.34849155494E+03  0.24250162856E+04  0.23998453329E+04 0.  0.
        3    1    3    3  502    0  0.17035422944E+03  0.53170125758E+03 -0.12475005299E+04  0.13667422483E+04  0.10100000352E+00 0.  1.
       -3    1    3    3    0  502 -0.17035422944E+03 -0.53170125758E+03  0.89900897500E+03  0.10582740373E+04  0.10100000352E+00 0. -1.
</event>
<event>
 5   0  0.5690124E-07  0.2392327E+04  0.7818609E-02  0.8442382E-01
       -1   -1    0    0    0  501  0.00000000000E+00  0.00000000000E+00  0.92631762829E+03  0.92631762830E+03  0.50400001928E-02 0. -1.
        1   -1    0    0  501    0  0.00000000000E+00  0.00000000000E+00 -0.15446176935E+04  0.15446176935E+04  0.50400001928E-02 0.  1.
    10030    2    1    2    0    0  0.00000000000E+00  0.00000000000E+00 -0.61830006524E+03  0.24709353218E+04  0.23923265651E+04 0.  0.
        2    1    3    3  502    0  0.54974042951E+03 -0.32566066054E+03  0.73528269378E+03  0.97412013912E+03  0.25500000920E-02 0. -1.
       -2    1    3    3    0  502 -0.54974042951E+03  0.32566066054E+03 -0.13535827590E+04  0.14968151827E+04  0.25500000920E-02 0.  1.
</event>
<event>
 5   0  0.1291468E-06  0.2401759E+04  0.7818609E-02  0.8438845E-01
       -2   -1    0    0    0  501  0.00000000000E+00  0.00000000000E+00  0.19955705529E+04  0.19955705529E+04  0.25500000920E-02 0. -1.
        2   -1    0    0  501    0  0.00000000000E+00  0.00000000000E+00 -0.72265621454E+03  0.72265621455E+03  0.25500000920E-02 0.  1.
    10030    2    1    2    0    0  0.00000000000E+00  0.00000000000E+00  0.12729143384E+04  0.27182267675E+04  0.24017589068E+04 0.  0.
        4    1    3    3  502    0  0.59778353009E+03 -0.21705448105E+02 -0.54204318328E+03  0.80723522022E+03  0.12699999809E+01 0.  1.
       -4    1    3    3    0  502 -0.59778353009E+03  0.21705448105E+02  0.18149575217E+04  0.19109915473E+04  0.12699999809E+01 0. -1.
</event>
<event>
 5   0  0.5363690E-07  0.2400132E+04  0.7818609E-02  0.8439454E-01
       -1   -1    0    0    0  501  0.00000000000E+00  0.00000000000E+00  0.10575628281E+04  0.10575628281E+04  0.50400001928E-02 0. -1.
        1   -1    0    0  501    0  0.00000000000E+00  0.00000000000E+00 -0.13617705912E+04  0.13617705912E+04  0.50400001928E-02 0.  1.
    10030    2    1    2    0    0  0.00000000000E+00  0.00000000000E+00 -0.30420776308E+03  0.24193334193E+04  0.24001316278E+04 0.  0.
        4    1    3    3  502    0  0.60636653055E+03 -0.15451568239E+03  0.88010067874E+03  0.10798769759E+04  0.12699999809E+01 0. -1.
       -4    1    3    3    0  502 -0.60636653055E+03  0.15451568239E+03 -0.11843084418E+04  0.13394564434E+04  0.12699999809E+01 0.  1.
</event>
<event>
 5   0  0.1291468E-06  0.2397372E+04  0.7818609E-02  0.8440488E-01
       -2   -1    0    0    0  501  0.00000000000E+00  0.00000000000E+00  0.11397804310E+04  0.11397804311E+04  0.25500000920E-02 0. -1.
        2   -1    0    0  501    0  0.00000000000E+00  0.00000000000E+00 -0.12606363343E+04  0.12606363343E+04  0.25500000920E-02 0.  1.
    10030    2    1    2    0    0  0.00000000000E+00  0.00000000000E+00 -0.12085590321E+03  0.24004167653E+04  0.23973724153E+04 0.  0.
        4    1    3    3  502    0  0.28310716280E+03  0.30644749264E+02  0.11054209681E+04  0.11415103573E+04  0.12699999809E+01 0. -1.
       -4    1    3    3    0  502 -0.28310716280E+03 -0.30644749264E+02 -0.12262768713E+04  0.12589064080E+04  0.12699999809E+01 0.  1.
</event>
<event>
 5   0  0.1275948E-06  0.2400044E+04  0.7818609E-02  0.8439487E-01
       -2   -1    0    0    0  501  0.00000000000E+00  0.00000000000E+00  0.78220756005E+03  0.78220756005E+03  0.25500000920E-02 0.  1.
        2   -1    0    0  501    0  0.00000000000E+00  0.00000000000E+00 -0.18410108333E+04  0.18410108333E+04  0.25500000920E-02 0. -1.
    10030    2    1    2    0    0  0.00000000000E+00  0.00000000000E+00 -0.10588032732E+04  0.26232183934E+04  0.24000438262E+04 0.  0.
        1    1    3    3  502    0  0.36762837863E+03 -0.74480924874E+03  0.41725516807E+03  0.92951240825E+03  0.50400001928E-02 0.  1.
       -1    1    3    3    0  502 -0.36762837863E+03  0.74480924874E+03 -0.14760584413E+04  0.16937059851E+04  0.50400001928E-02 0. -1.
</event>
<event>
 5   0  0.1336057E-06  0.2399951E+04  0.7818609E-02  0.8439522E-01
       -2   -1    0    0    0  501  0.00000000000E+00  0.00000000000E+00  0.12975620408E+04  0.12975620408E+04  0.25500000920E-02 0. -1.
        2   -1    0    0  501    0  0.00000000000E+00  0.00000000000E+00 -0.11097285915E+04  0.11097285915E+04  0.25500000920E-02 0.  1.
    10030    2    1    2    0    0  0.00000000000E+00  0.00000000000E+00  0.18783344930E+03  0.24072906324E+04  0.23999514128E+04 0.  0.
        2    1    3    3  502    0  0.71057675354E+03  0.80819429982E+03 -0.43859692055E+03  0.11620949220E+04  0.25500000920E-02 0.  1.
       -2    1    3    3    0  502 -0.71057675354E+03 -0.80819429982E+03  0.62643036985E+03  0.12451957104E+04  0.25500000920E-02 0. -1.
</event>
<event>
 5   0  0.5510176E-07  0.2401475E+04  0.7818609E-02  0.8438952E-01
        1   -1    0    0  501    0  0.00000000000E+00  0.00000000000E+00  0.13802062428E+04  0.13802062428E+04  0.50400001928E-02 0.  1.
       -1   -1    0    0    0  501  0.00000000000E+00  0.00000000000E+00 -0.10446048476E+04  0.10446048476E+04  0.50400001928E-02 0. -1.
    10030    2    1    2    0    0  0.00000000000E+00  0.00000000000E+00  0.33560139514E+03  0.24248110904E+04  0.24014746569E+04 0.  0.
        3    1    3    3  502    0  0.66190957165E+02 -0.35345432739E+03 -0.98895796608E+03  0.10523065491E+04  0.10100000352E+00 0. -1.
       -3    1    3    3    0  502 -0.66190957165E+02  0.35345432739E+03  0.13245593612E+04  0.13725045413E+04  0.10100000352E+00 0.  1.
</event>
<event>
 5   0  0.5527286E-07  0.2399850E+04  0.7818609E-02  0.8439560E-01
       -1   -1    0    0    0  501  0.00000000000E+00  0.00000000000E+00  0.85629107044E+03  0.85629107046E+03  0.50400001928E-02 0.  1.
        1   -1    0    0  501    0  0.00000000000E+00  0.00000000000E+00 -0.16814604059E+04  0.16814604059E+04  0.50400001928E-02 0. -1.
    10030    2    1    2    0    0  0.00000000000E+00  0.00000000000E+00 -0.82516933546E+03  0.25377514764E+04  0.23998496044E+04 0.  0.
        1    1    3    3  502    0  0.82648805051E+03  0.73700968138E+03 -0.90125804250E+03  0.14277716299E+04  0.50400001928E-02 0.  1.
       -1    1    3    3    0  502 -0.82648805051E+03 -0.73700968138E+03  0.76088707041E+02  0.11099798464E+04  0.50400001928E-02 0. -1.
</event>
<event>
 5   0  0.5690124E-07  0.2396336E+04  0.7818609E-02  0.8440877E-01
        1   -1    0    0  501    0  0.00000000000E+00  0.00000000000E+00  0.13631666800E+04  0.13631666800E+04  0.50400001928E-02 0.  1.
       -1   -1    0    0    0  501  0.00000000000E+00  0.00000000000E+00 -0.10531406438E+04  0.10531406438E+04  0.50400001928E-02 0. -1.
    10030    2    1    2    0    0  0.00000000000E+00  0.00000000000E+00  0.31002603621E+03  0.24163073238E+04  0.23963357318E+04 0.  0.
        2    1    3    3  502    0 -0.17427140557E+03 -0.66124994916E+03  0.11470746298E+04  0.13354408352E+04  0.25500000920E-02 0.  1.
       -2    1    3    3    0  502  0.17427140557E+03  0.66124994916E+03 -0.83704859356E+03  0.10808664885E+04  0.25500000920E-02 0. -1.
</event>
<event>
 5   0  0.1336057E-06  0.2399885E+04  0.7818609E-02  0.8439546E-01
       -2   -1    0    0    0  501  0.00000000000E+00  0.00000000000E+00  0.67823711317E+03  0.67823711318E+03  0.25500000920E-02 0. -1.
        2   -1    0    0  501    0  0.00000000000E+00  0.00000000000E+00 -0.21229485651E+04  0.21229485651E+04  0.25500000920E-02 0.  1.
    10030    2    1    2    0    0  0.00000000000E+00  0.00000000000E+00 -0.14447114519E+04  0.28011856782E+04  0.23998854191E+04 0.  0.
        2    1    3    3  502    0  0.38833241040E+03 -0.53542072687E+03 -0.18909632799E+04  0.20033021593E+04  0.25500000920E-02 0.  1.
       -2    1    3    3    0  502 -0.38833241040E+03  0.53542072687E+03  0.44625182800E+03  0.79788351890E+03  0.25500000920E-02 0. -1.
</event>
<event>
 5   0  0.1307477E-06  0.2398218E+04  0.7818609E-02  0.8440171E-01
        2   -1    0    0  501    0  0.00000000000E+00  0.00000000000E+00  0.18280587817E+04  0.18280587817E+04  0.25500000920E-02 0. -1.
       -2   -1    0    0    0  501  0.00000000000E+00  0.00000000000E+00 -0.78655166168E+03  0.78655166169E+03  0.25500000920E-02 0.  1.
    10030    2    1    2    0    0  0.00000000000E+00  0.00000000000E+00  0.10415071201E+04  0.26146104434E+04  0.23982182323E+04 0.  0.
        5    1    3    3  502    0  0.18091343428E+03  0.90884215440E+03  0.13504159284E+04  0.16377939437E+04  0.46999998093E+01 0. -1.
       -5    1    3    3    0  502 -0.18091343428E+03 -0.90884215440E+03 -0.30890880833E+03  0.97681649975E+03  0.46999998093E+01 0.  1.
</event>
<event>
 5   0  0.5527286E-07  0.2399985E+04  0.7818609E-02  0.8439509E-01
       -1   -1    0    0    0  501  0.00000000000E+00  0.00000000000E+00  0.10151058003E+04  0.10151058003E+04  0.50400001928E-02 0. -1.
        1   -1    0    0  501    0  0.00000000000E+00  0.00000000000E+00 -0.14185530820E+04  0.14185530820E+04  0.50400001928E-02 0.  1.
    10030    2    1    2    0    0  0.00000000000E+00  0.00000000000E+00 -0.40344728170E+03  0.24336588822E+04  0.23999845512E+04 0.  0.
        1    1    3    3  502    0  0.21641331414E+03 -0.10109418717E+04 -0.81948686930E+03  0.13192410392E+04  0.50400001928E-02 0.  1.
       -1    1    3    3    0  502 -0.21641331414E+03  0.10109418717E+04  0.41603958760E+03  0.11144178431E+04  0.50400001928E-02 0. -1.
</event>
<event>
 5   0  0.1275948E-06  0.2401183E+04  0.7818609E-02  0.8439061E-01
       -2   -1    0    0    0  501  0.00000000000E+00  0.00000000000E+00  0.16402980545E+04  0.16402980545E+04  0.25500000920E-02 0.  1.
        2   -1    0    0  501    0  0.00000000000E+00  0.00000000000E+00 -0.87875503563E+03  0.87875503563E+03  0.25500000920E-02 0. -1.
    10030    2    1    2    0    0  0.00000000000E+00  0.00000000000E+00  0.76154301886E+03  0.25190530901E+04  0.24011831878E+04 0.  0.
        1    1    3    3  502    0 -0.10244327494E+04  0.13913067328E+03 -0.25960245895E+03  0.10659330368E+04  0.50400001928E-02 0.  1.
       -1    1    3    3    0  502  0.10244327494E+04 -0.13913067328E+03  0.10211454778E+04  0.14531200533E+04  0.50400001928E-02 0. -1.
</event>
<event>
 5   0  0.5527286E-07  0.2399763E+04  0.7818609E-02  0.8439592E-01
       -1   -1    0    0    0  501  0.00000000000E+00  0.00000000000E+00  0.10067442646E+04  0.10067442646E+04  0.50400001928E-02 0. -1.
        1   -1    0    0  501    0  0.00000000000E+00  0.00000000000E+00 -0.14300711002E+04  0.14300711003E+04  0.50400001928E-02 0.  1.
    10030    2    1    2    0    0  0.00000000000E+00  0.00000000000E+00 -0.42332683566E+03  0.24368153648E+04  0.23997632201E+04 0.  0.
        1    1    3    3  502    0  0.48081184502E+03 -0.15192568447E+03 -0.13172599409E+04  0.14104733942E+04  0.50400001928E-02 0.  1.
       -1    1    3    3    0  502 -0.48081184502E+03  0.15192568447E+03  0.89393310526E+03  0.10263419706E+04  0.50400001928E-02 0. -1.
</event>
<event>
 5   0  0.1307477E-06  0.2399510E+04  0.7818609E-02  0.8439687E-01
        2   -1    0    0  501    0  0.00000000000E+00  0.00000000000E+00  0.99278265823E+03  0.99278265823E+03  0.25500000920E-02 0. -1.
       -2   -1    0    0    0  501  0.00000000000E+00  0.00000000000E+00 -0.14498767444E+04  0.14498767444E+04  0.25500000920E-02 0.  1.
    10030    2    1    2    0    0  0.00000000000E+00  0.00000000000E+00 -0.45709408622E+03  0.24426594027E+04  0.23995103571E+04 0.  0.
        5    1    3    3  502    0 -0.30971336490E+03 -0.55974689906E+03  0.80466824198E+03  0.10279844498E+04  0.46999998093E+01 0. -1.
       -5    1    3    3    0  502  0.30971336490E+03  0.55974689906E+03 -0.12617623282E+04  0.14146749529E+04  0.46999998093E+01 0.  1.
</event>
<event>
 5   0  0.1275948E-06  0.2399300E+04  0.7818609E-02  0.8439766E-01
        2   -1    0    0  501    0  0.00000000000E+00  0.00000000000E+00  0.15005671778E+04  0.15005671778E+04  0.25500000920E-02 0. -1.
       -2   -1    0    0    0  501  0.00000000000E+00  0.00000000000E+00 -0.95907748392E+03  0.95907748392E+03  0.25500000920E-02 0.  1.
    10030    2    1    2    0    0  0.00000000000E+00  0.00000000000E+00  0.54148969393E+03  0.24596446618E+04  0.23993000591E+04 0.  0.
        1    1    3    3  502    0 -0.14406217603E+03  0.62334091115E+03  0.13110848457E+04  0.14588527255E+04  0.50400001928E-02 0. -1.
       -1    1    3    3    0  502  0.14406217603E+03 -0.62334091115E+03 -0.76959515176E+03  0.10007919363E+04  0.50400001928E-02 0.  1.
</event>
<event>
 5   0  0.1307477E-06  0.2401056E+04  0.7818609E-02  0.8439108E-01
        2   -1    0    0  501    0  0.00000000000E+00  0.00000000000E+00  0.15876397265E+04  0.15876397265E+04  0.25500000920E-02 0. -1.
       -2   -1    0    0    0  501  0.00000000000E+00  0.00000000000E+00 -0.90780514606E+03  0.90780514607E+03  0.25500000920E-02 0.  1.
    10030    2    1    2    0    0  0.00000000000E+00  0.00000000000E+00  0.67983458040E+03  0.24954448725E+04  0.24010560292E+04 0.  0.
        5    1    3    3  502    0 -0.20923774898E+02  0.11838834933E+04  0.54576259577E+03  0.13038009169E+04  0.46999998093E+01 0.  1.
       -5    1    3    3    0  502  0.20923774898E+02 -0.11838834933E+04  0.13407198463E+03  0.11916439556E+04  0.46999998093E+01 0. -1.
</event>
<event>
 5   0  0.1307477E-06  0.2400024E+04  0.7818609E-02  0.8439495E-01
       -2   -1    0    0    0  501  0.00000000000E+00  0.00000000000E+00  0.96891503415E+03  0.96891503416E+03  0.25500000920E-02 0.  1.
        2   -1    0    0  501    0  0.00000000000E+00  0.00000000000E+00 -0.14862275850E+04  0.14862275850E+04  0.25500000920E-02 0. -1.
    10030    2    1    2    0    0  0.00000000000E+00  0.00000000000E+00 -0.51731255086E+03  0.24551426192E+04  0.24000235426E+04 0.  0.
        5    1    3    3  502    0  0.39007901123E+02 -0.10669515584E+04 -0.81905022474E+03  0.13456495105E+04  0.46999998093E+01 0. -1.
       -5    1    3    3    0  502 -0.39007901123E+02  0.10669515584E+04  0.30173767388E+03  0.11094931087E+04  0.46999998093E+01 0.  1.
</event>
<event>
 5   0  0.5690124E-07  0.2400170E+04  0.7818609E-02  0.8439440E-01
       -1   -1    0    0    0  501  0.00000000000E+00  0.00000000000E+00  0.71210057251E+03  0.71210057253E+03  0.50400001928E-02 0.  1.
        1   -1    0    0  501    0  0.00000000000E+00  0.00000000000E+00 -0.20224723126E+04  0.20224723127E+04  0.50400001928E-02 0. -1.
    10030    2    1    2    0    0  0.00000000000E+00  0.00000000000E+00 -0.13103717401E+04  0.27345728852E+04  0.24001697371E+04 0.  0.
        2    1    3    3  502    0  0.77248774669E+03 -0.73648426676E+03 -0.30053299233E+02  0.10677310498E+04  0.25500000920E-02 0.  1.
       -2    1    3    3    0  502 -0.77248774669E+03  0.73648426676E+03 -0.12803184409E+04  0.16668418354E+04  0.25500000920E-02 0. -1.
</event>
<event>
 5   0  0.1275948E-06  0.2399251E+04  0.7818609E-02  0.8439784E-01
       -2   -1    0    0    0  501  0.00000000000E+00  0.00000000000E+00  0.64064786262E+03  0.64064786263E+03  0.25500000920E-02 0.  1.
        2   -1    0    0  501    0  0.00000000000E+00  0.00000000000E+00 -0.22463213250E+04  0.22463213250E+04  0.25500000920E-02 0. -1.
    10030    2    1    2    0    0  0.00000000000E+00  0.00000000000E+00 -0.16056734624E+04  0.28869691876E+04  0.23992506794E+04 0.  0.
        1    1    3    3  502    0  0.81980499497E+03 -0.32064424502E+03 -0.17834969797E+04  0.19889078507E+04  0.50400001928E-02 0. -1.
       -1    1    3    3    0  502 -0.81980499497E+03  0.32064424502E+03  0.17782351735E+03  0.89806133698E+03  0.50400001928E-02 0.  1.
</event>
<event>
 5   0  0.5690124E-07  0.2399540E+04  0.7818609E-02  0.8439676E-01
        1   -1    0    0  501    0  0.00000000000E+00  0.00000000000E+00  0.13322076335E+04  0.13322076335E+04  0.50400001928E-02 0.  1.
       -1   -1    0    0    0  501  0.00000000000E+00  0.00000000000E+00 -0.10804984772E+04  0.10804984772E+04  0.50400001928E-02 0. -1.
    10030    2    1    2    0    0  0.00000000000E+00  0.00000000000E+00  0.25170915630E+03  0.24127061108E+04  0.23995402221E+04 0.  0.
        2    1    3    3  502    0  0.10359289139E+04  0.45516437873E+02  0.73267888744E+03  0.12696609047E+04  0.25500000920E-02 0.  1.
       -2    1    3    3    0  502 -0.10359289139E+04 -0.45516437873E+02 -0.48096973114E+03  0.11430452061E+04  0.25500000920E-02 0. -1.
</event>
<event>
 5   0  0.1291468E-06  0.2400487E+04  0.7818609E-02  0.8439321E-01
       -2   -1    0    0    0  501  0.00000000000E+00  0.00000000000E+00  0.88567509990E+03  0.88567509991E+03  0.25500000920E-02 0. -1.
        2   -1    0    0  501    0  0.00000000000E+00  0.00000000000E+00 -0.16265382935E+04  0.16265382935E+04  0.25500000920E-02 0.  1.
    10030    2    1    2    0    0  0.00000000000E+00  0.00000000000E+00 -0.74086319355E+03  0.25122133934E+04  0.24004870052E+04 0.  0.
        4    1    3    3  502    0 -0.16621069400E+03  0.79356586968E+02  0.87079662665E+03  0.89006282956E+03  0.12699999809E+01 0. -1.
       -4    1    3    3    0  502  0.16621069400E+03 -0.79356586968E+02 -0.16116598202E+04  0.16221505638E+04  0.12699999809E+01 0.  1.
</event>
<event>
 5   0  0.5510176E-07  0.2401011E+04  0.7818609E-02  0.8439125E-01
       -1   -1    0    0    0  501  0.00000000000E+00  0.00000000000E+00  0.80239101198E+03  0.80239101199E+03  0.50400001928E-02 0. -1.
        1   -1    0    0  501    0  0.00000000000E+00  0.00000000000E+00 -0.17961481790E+04  0.17961481790E+04  0.50400001928E-02 0.  1.
    10030    2    1    2    0    0  0.00000000000E+00  0.00000000000E+00 -0.99375716703E+03  0.25985391910E+04  0.24010107497E+04 0.  0.
        3    1    3    3  502    0 -0.69824749039E+03 -0.93340298014E+03 -0.80759053786E+03  0.14180949080E+04  0.10100000352E+00 0.  1.
       -3    1    3    3    0  502  0.69824749039E+03  0.93340298014E+03 -0.18616662917E+03  0.11804442830E+04  0.10100000352E+00 0. -1.
</event>
<event>
 5   0  0.1308662E-06  0.2400580E+04  0.7818609E-02  0.8439286E-01
        2   -1    0    0  501    0  0.00000000000E+00  0.00000000000E+00  0.13507721895E+04  0.13507721895E+04  0.25500000920E-02 0.  1.
       -2   -1    0    0    0  501  0.00000000000E+00  0.00000000000E+00 -0.10665723986E+04  0.10665723986E+04  0.25500000920E-02 0. -1.
    10030    2    1    2    0    0  0.00000000000E+00  0.00000000000E+00  0.28419979096E+03  0.24173445881E+04  0.24005802083E+04 0.  0.
        3    1    3    3  502    0  0.10228829798E+04 -0.39547300595E+03  0.63336732117E+03  0.12664290989E+04  0.10100000352E+00 0.  1.
       -3    1    3    3    0  502 -0.10228829798E+04  0.39547300595E+03 -0.34916753021E+03  0.11509154892E+04  0.10100000352E+00 0. -1.
</event>
<event>
 5   0  0.5363690E-07  0.2400539E+04  0.7818609E-02  0.8439302E-01
       -1   -1    0    0    0  501  0.00000000000E+00  0.00000000000E+00  0.52219284371E+03  0.52219284373E+03  0.50400001928E-02 0.  1.
        1   -1    0    0  501    0  0.00000000000E+00  0.00000000000E+00 -0.27588413155E+04  0.27588413155E+04  0.50400001928E-02 0. -1.
    10030    2    1    2    0    0  0.00000000000E+00  0.00000000000E+00 -0.22366484718E+04  0.32810341592E+04  0.24005392660E+04 0.  0.
        4    1    3    3  502    0 -0.40439893440E+03 -0.69668323305E+03 -0.23344909384E+04  0.24695658687E+04  0.12699999809E+01 0. -1.
       -4    1    3    3    0  502  0.40439893440E+03  0.69668323305E+03  0.97842466632E+02  0.81146829053E+03  0.12699999809E+01 0.  1.
</event>
<event>
 5   0  0.1275948E-06  0.2399701E+04  0.7818609E-02  0.8439616E-01
        2   -1    0    0  501    0  0.00000000000E+00  0.00000000000E+00  0.15728327490E+04  0.15728327490E+04  0.25500000920E-02 0. -1.
       -2   -1    0    0    0  501  0.00000000000E+00  0.00000000000E+00 -0.91531741204E+03  0.91531741204E+03  0.25500000920E-02 0.  1.
    10030    2    1    2    0    0  0.00000000000E+00  0.00000000000E+00  0.65751533696E+03  0.24881501610E+04  0.23997009825E+04 0.  0.
        1    1    3    3  502    0  0.74665594834E+03  0.41938778450E+02 -0.64411572399E+03  0.98698481865E+03  0.50400001928E-02 0.  1.
       -1    1    3    3    0  502 -0.74665594834E+03 -0.41938778450E+02  0.13016310610E+04  0.15011653424E+04  0.50400001928E-02 0. -1.
</event>
<event>
 5   0  0.5452384E-07  0.2406780E+04  0.7818609E-02  0.8436970E-01
        1   -1    0    0  501    0  0.00000000000E+00  0.00000000000E+00  0.18812689599E+04  0.18812689599E+04  0.50400001928E-02 0. -1.
       -1   -1    0    0    0  501  0.00000000000E+00  0.00000000000E+00 -0.76977158099E+03  0.76977158101E+03  0.50400001928E-02 0.  1.
    10030    2    1    2    0    0  0.00000000000E+00  0.00000000000E+00  0.11114973789E+04  0.26510405409E+04  0.24067799081E+04 0.  0.
        5    1    3    3  502    0  0.65132122067E+03 -0.48215899657E+03  0.15356579881E+04  0.17363652199E+04  0.46999998093E+01 0. -1.
       -5    1    3    3    0  502 -0.65132122067E+03  0.48215899657E+03 -0.42416060920E+03  0.91467532101E+03  0.46999998093E+01 0.  1.
</event>
<event>
 5   0  0.5363690E-07  0.2399941E+04  0.7818609E-02  0.8439526E-01
        1   -1    0    0  501    0  0.00000000000E+00  0.00000000000E+00  0.11916384760E+04  0.11916384760E+04  0.50400001928E-02 0. -1.
       -1   -1    0    0    0  501  0.00000000000E+00  0.00000000000E+00 -0.12083606103E+04  0.12083606103E+04  0.50400001928E-02 0.  1.
    10030    2    1    2    0    0  0.00000000000E+00  0.00000000000E+00 -0.16722134262E+02  0.23999990863E+04  0.23999408294E+04 0.  0.
        4    1    3    3  502    0  0.31320208493E+03  0.63574986932E+03 -0.97670990061E+03  0.12067465704E+04  0.12699999809E+01 0.  1.
       -4    1    3    3    0  502 -0.31320208493E+03 -0.63574986932E+03  0.95998776635E+03  0.11932525159E+04  0.12699999809E+01 0. -1.
</event>
<event>
 5   0  0.1308662E-06  0.2400323E+04  0.7818609E-02  0.8439383E-01
        2   -1    0    0  501    0  0.00000000000E+00  0.00000000000E+00  0.17281313539E+04  0.17281313539E+04  0.25500000920E-02 0. -1.
       -2   -1    0    0    0  501  0.00000000000E+00  0.00000000000E+00 -0.83349402059E+03  0.83349402060E+03  0.25500000920E-02 0.  1.
    10030    2    1    2    0    0  0.00000000000E+00  0.00000000000E+00  0.89463733334E+03  0.25616253745E+04  0.24003226036E+04 0.  0.
        3    1    3    3  502    0 -0.24954523015E+03 -0.97381566124E+03  0.11469639032E+04  0.15251609651E+04  0.10100000352E+00 0. -1.
       -3    1    3    3    0  502  0.24954523015E+03  0.97381566124E+03 -0.25232656988E+03  0.10364644094E+04  0.10100000352E+00 0.  1.
</event>
<event>
 5   0  0.5452384E-07  0.2400563E+04  0.7818609E-02  0.8439293E-01
       -1   -1    0    0    0  501  0.00000000000E+00  0.00000000000E+00  0.73433348402E+03  0.73433348403E+03  0.50400001928E-02 0.  1.
        1   -1    0    0  501    0  0.00000000000E+00  0.00000000000E+00 -0.19618825860E+04  0.19618825860E+04  0.50400001928E-02 0. -1.
    10030    2    1    2    0    0  0.00000000000E+00  0.00000000000E+00 -0.12275491020E+04  0.26962160701E+04  0.24005633294E+04 0.  0.
        5    1    3    3  502    0  0.21661108795E+03 -0.11634487727E+04 -0.38880429773E+03  0.12456822556E+04  0.46999998093E+01 0.  1.
       -5    1    3    3    0  502 -0.21661108795E+03  0.11634487727E+04 -0.83874480429E+03  0.14505338144E+04  0.46999998093E+01 0. -1.
</event>
<event>
 5   0  0.5510176E-07  0.2400639E+04  0.7818609E-02  0.8439264E-01
        1   -1    0    0  501    0  0.00000000000E+00  0.00000000000E+00  0.10426820160E+04  0.10426820160E+04  0.50400001928E-02 0.  1.
       -1   -1    0    0    0  501  0.00000000000E+00  0.00000000000E+00 -0.13817895783E+04  0.13817895783E+04  0.50400001928E-02 0. -1.
    10030    2    1    2    0    0  0.00000000000E+00  0.00000000000E+00 -0.33910756231E+03  0.24244715944E+04  0.24006392010E+04 0.  0.
        3    1    3    3  502    0 -0.32891654511E+03 -0.89121677937E+03 -0.91053622713E+03  0.13158760096E+04  0.10100000352E+00 0. -1.
       -3    1    3    3    0  502  0.32891654511E+03  0.89121677937E+03  0.57142866482E+03  0.11085955848E+04  0.10100000352E+00 0.  1.
</event>
<event>
 5   0  0.5690124E-07  0.2400318E+04  0.7818609E-02  0.8439385E-01
       -1   -1    0    0    0  501  0.00000000000E+00  0.00000000000E+00  0.63599240507E+03  0.63599240509E+03  0.50400001928E-02 0.  1.
        1   -1    0    0  501    0  0.00000000000E+00  0.00000000000E+00 -0.22647771468E+04  0.22647771468E+04  0.50400001928E-02 0. -1.
    10030    2    1    2    0    0  0.00000000000E+00  0.00000000000E+00 -0.16287847417E+04  0.29007695518E+04  0.24003175328E+04 0.  0.
        2    1    3    3  502    0  0.61165790876E+03 -0.78044993620E+03 -0.16314930771E+04  0.19091875657E+04  0.25500000920E-02 0. -1.
       -2    1    3    3    0  502 -0.61165790876E+03  0.78044993620E+03  0.27083354052E+01  0.99158198619E+03  0.25500000920E-02 0.  1.
</event>
<event>
 5   0  0.1336057E-06  0.2401323E+04  0.7818609E-02  0.8439008E-01
       -2   -1    0    0    0  501  0.00000000000E+00  0.00000000000E+00  0.64307750192E+03  0.64307750192E+03  0.25500000920E-02 0. -1.
        2   -1    0    0  501    0  0.00000000000E+00  0.00000000000E+00 -0.22417024970E+04  0.22417024970E+04  0.25500000920E-02 0.  1.
    10030    2    1    2    0    0  0.00000000000E+00  0.00000000000E+00 -0.15986249951E+04  0.28847799989E+04  0.24013233367E+04 0.  0.
        2    1    3    3  502    0 -0.29126790660E+03 -0.65646407590E+03  0.35659249109E+03  0.80183556985E+03  0.25500000920E-02 0. -1.
       -2    1    3    3    0  502  0.29126790660E+03  0.65646407590E+03 -0.19552174861E+04  0.20829444290E+04  0.25500000920E-02 0.  1.
</event>
<event>
 5   0  0.5363690E-07  0.2398969E+04  0.7818609E-02  0.8439890E-01
        1   -1    0    0  501    0  0.00000000000E+00  0.00000000000E+00  0.26354897409E+04  0.26354897409E+04  0.50400001928E-02 0. -1.
       -1   -1    0    0    0  501  0.00000000000E+00  0.00000000000E+00 -0.54591883922E+03  0.54591883924E+03  0.50400001928E-02 0.  1.
    10030    2    1    2    0    0  0.00000000000E+00  0.00000000000E+00  0.20895709017E+04  0.31814085801E+04  0.23989693622E+04 0.  0.
        4    1    3    3  502    0 -0.26743248360E+03 -0.49432188442E+03  0.24500655466E+04  0.25137018626E+04  0.12699999809E+01 0. -1.
       -4    1    3    3    0  502  0.26743248360E+03  0.49432188442E+03 -0.36049464491E+03  0.66770671751E+03  0.12699999809E+01 0.  1.
</event>
<event>
 5   0  0.5690124E-07  0.2400365E+04  0.7818609E-02  0.8439367E-01
        1   -1    0    0  501    0  0.00000000000E+00  0.00000000000E+00  0.86338638498E+03  0.86338638500E+03  0.50400001928E-02 0. -1.
       -1   -1    0    0    0  501  0.00000000000E+00  0.00000000000E+00 -0.16683587740E+04  0.16683587740E+04  0.50400001928E-02 0.  1.
    10030    2    1    2    0    0  0.00000000000E+00  0.00000000000E+00 -0.80497238904E+03  0.25317451590E+04  0.24003651812E+04 0.  0.
        2    1    3    3  502    0  0.63009582192E+03 -0.97989409251E+03 -0.98208747773E+02  0.11691270827E+04  0.25500000920E-02 0. -1.
       -2    1    3    3    0  502 -0.63009582192E+03  0.97989409251E+03 -0.70676364127E+03  0.13626180763E+04  0.25500000920E-02 0.  1.
</event>
<event>
 5   0  0.5510176E-07  0.2399329E+04  0.7818609E-02  0.8439755E-01
        1   -1    0    0  501    0  0.00000000000E+00  0.00000000000E+00  0.20599783246E+04  0.20599783246E+04  0.50400001928E-02 0.  1.
       -1   -1    0    0    0  501  0.00000000000E+00  0.00000000000E+00 -0.69864592014E+03  0.69864592016E+03  0.50400001928E-02 0. -1.
    10030    2    1    2    0    0  0.00000000000E+00  0.00000000000E+00  0.13613324045E+04  0.27586242448E+04  0.23993294498E+04 0.  0.
        3    1    3    3  502    0 -0.70233935049E+03 -0.18509729399E+02 -0.43735496901E+03  0.82758839555E+03  0.10100000352E+00 0. -1.
       -3    1    3    3    0  502  0.70233935049E+03  0.18509729399E+02  0.17986873735E+04  0.19310358492E+04  0.10100000352E+00 0.  1.
</event>
<event>
 5   0  0.1275948E-06  0.2400363E+04  0.7818609E-02  0.8439368E-01
        2   -1    0    0  501    0  0.00000000000E+00  0.00000000000E+00  0.24680458744E+04  0.24680458744E+04  0.25500000920E-02 0.  1.
       -2   -1    0    0    0  501  0.00000000000E+00  0.00000000000E+00 -0.58363401880E+03  0.58363401880E+03  0.25500000920E-02 0. -1.
    10030    2    1    2    0    0  0.00000000000E+00  0.00000000000E+00  0.18844118556E+04  0.30516798932E+04  0.24003629161E+04 0.  0.
        1    1    3    3  502    0  0.63701076116E+03  0.92739452691E+03  0.14734260331E+04  0.18538682783E+04  0.50400001928E-02 0.  1.
       -1    1    3    3    0  502 -0.63701076116E+03 -0.92739452691E+03  0.41098582251E+03  0.11978116149E+04  0.50400001928E-02 0. -1.
</event>
<event>
 5   0  0.1291468E-06  0.2399663E+04  0.7818609E-02  0.8439630E-01
       -2   -1    0    0    0  501  0.00000000000E+00  0.00000000000E+00  0.80876771490E+03  0.80876771490E+03  0.25500000920E-02 0. -1.
        2   -1    0    0  501    0  0.00000000000E+00  0.00000000000E+00 -0.17799861519E+04  0.17799861519E+04  0.25500000920E-02 0.  1.
    10030    2    1    2    0    0  0.00000000000E+00  0.00000000000E+00 -0.97121843702E+03  0.25887538668E+04  0.23996627535E+04 0.  0.
        4    1    3    3  502    0 -0.95016265782E+03  0.66919826973E+03 -0.80737053808E+03  0.14150915869E+04  0.12699999809E+01 0.  1.
       -4    1    3    3    0  502  0.95016265782E+03 -0.66919826973E+03 -0.16384789894E+03  0.11736622800E+04  0.12699999809E+01 0. -1.
</event>
<event>
 5   0  0.5527286E-07  0.2399833E+04  0.7818609E-02  0.8439566E-01
        1   -1    0    0  501    0  0.00000000000E+00  0.00000000000E+00  0.19545924430E+04  0.19545924430E+04  0.50400001928E-02 0.  1.
       -1   -1    0    0    0  501  0.00000000000E+00  0.00000000000E+00 -0.73662418849E+03  0.73662418850E+03  0.50400001928E-02 0. -1.
    10030    2    1    2    0    0  0.00000000000E+00  0.00000000000E+00  0.12179682545E+04  0.26912166315E+04  0.23998333877E+04 0.  0.
        1    1    3    3  502    0  0.70380206001E+03 -0.30365158013E+03  0.16442531634E+04  0.18141416943E+04  0.50400001928E-02 0.  1.
       -1    1    3    3    0  502 -0.70380206001E+03  0.30365158013E+03 -0.42628490890E+03  0.87707493715E+03  0.50400001928E-02 0. -1.
</event>
<event>
 5   0  0.1275948E-06  0.2399565E+04  0.7818609E-02  0.8439667E-01
       -2   -1    0    0    0  501  0.00000000000E+00  0.00000000000E+00  0.85706084297E+03  0.85706084298E+03  0.25500000920E-02 0. -1.
        2   -1    0    0  501    0  0.00000000000E+00  0.00000000000E+00 -0.16795512224E+04  0.16795512224E+04  0.25500000920E-02 0.  1.
    10030    2    1    2    0    0  0.00000000000E+00  0.00000000000E+00 -0.82249037939E+03  0.25366120653E+04  0.23995646159E+04 0.  0.
        1    1    3    3  502    0 -0.47433790515E+03  0.94231908605E+03  0.19280601866E+03  0.10724438769E+04  0.50400001928E-02 0. -1.
       -1    1    3    3    0  502  0.47433790515E+03 -0.94231908605E+03 -0.10152963981E+04  0.14641681885E+04  0.50400001928E-02 0.  1.
</event>
<event>
 5   0  0.1291468E-06  0.2399688E+04  0.7818609E-02  0.8439620E-01
        2   -1    0    0  501    0  0.00000000000E+00  0.00000000000E+00  0.16355105074E+04  0.16355105074E+04  0.25500000920E-02 0. -1.
       -2   -1    0    0    0  501  0.00000000000E+00  0.00000000000E+00 -0.88023037930E+03  0.88023037931E+03  0.25500000920E-02 0.  1.
    10030    2    1    2    0    0  0.00000000000E+00  0.00000000000E+00  0.75528012809E+03  0.25157408867E+04  0.23996883417E+04 0.  0.
        4    1    3    3  502    0 -0.43774239982E+03  0.51222240164E+03 -0.66316393935E+03  0.94539844548E+03  0.12699999809E+01 0.  1.
       -4    1    3    3    0  502  0.43774239982E+03 -0.51222240164E+03  0.14184440674E+04  0.15703424412E+04  0.12699999809E+01 0. -1.
</event>
<event>
 5   0  0.1307477E-06  0.2400862E+04  0.7818609E-02  0.8439181E-01
        2   -1    0    0  501    0  0.00000000000E+00  0.00000000000E+00  0.18798694064E+04  0.18798694064E+04  0.25500000920E-02 0.  1.
       -2   -1    0    0    0  501  0.00000000000E+00  0.00000000000E+00 -0.76656068976E+03  0.76656068976E+03  0.25500000920E-02 0. -1.
    10030    2    1    2    0    0  0.00000000000E+00  0.00000000000E+00  0.11133087167E+04  0.26464300962E+04  0.24008615028E+04 0.  0.
        5    1    3    3  502    0  0.51311536804E+03  0.10161142961E+04  0.13657548532E+03  0.11464949179E+04  0.46999998093E+01 0. -1.
       -5    1    3    3    0  502 -0.51311536804E+03 -0.10161142961E+04  0.97673323136E+03  0.14999351782E+04  0.46999998093E+01 0.  1.
</event>
<event>
 5   0  0.1275948E-06  0.2401553E+04  0.7818609E-02  0.8438922E-01
       -2   -1    0    0    0  501  0.00000000000E+00  0.00000000000E+00  0.93068964069E+03  0.93068964069E+03  0.25500000920E-02 0.  1.
        2   -1    0    0  501    0  0.00000000000E+00  0.00000000000E+00 -0.15492424176E+04  0.15492424176E+04  0.25500000920E-02 0. -1.
    10030    2    1    2    0    0  0.00000000000E+00  0.00000000000E+00 -0.61855277693E+03  0.24799320583E+04  0.24015527219E+04 0.  0.
        1    1    3    3  502    0  0.69392684380E+03  0.97268680540E+03 -0.18618111398E+03  0.12092632026E+04  0.50400001928E-02 0.  1.
       -1    1    3    3    0  502 -0.69392684380E+03 -0.97268680540E+03 -0.43237166295E+03  0.12706688557E+04  0.50400001928E-02 0. -1.
</event>
<event>
 5   0  0.1307477E-06  0.2399843E+04  0.7818609E-02  0.8439562E-01
       -2   -1    0    0    0  501  0.00000000000E+00  0.00000000000E+00  0.16106389640E+04  0.16106389640E+04  0.25500000920E-02 0.  1.
        2   -1    0    0  501    0  0.00000000000E+00  0.00000000000E+00 -0.89393837630E+03  0.89393837630E+03  0.25500000920E-02 0. -1.
    10030    2    1    2    0    0  0.00000000000E+00  0.00000000000E+00  0.71670058767E+03  0.25045773403E+04  0.23998433118E+04 0.  0.
        5    1    3    3  502    0 -0.22811504380E+03 -0.42043804364E+03 -0.79012323600E+03  0.92364573285E+03  0.46999998093E+01 0. -1.
       -5    1    3    3    0  502  0.22811504380E+03  0.42043804364E+03  0.15068238237E+04  0.15809316074E+04  0.46999998093E+01 0.  1.
</event>
<event>
 5   0  0.1275948E-06  0.2399140E+04  0.7818609E-02  0.8439826E-01
        2   -1    0    0  501    0  0.00000000000E+00  0.00000000000E+00  0.29151194621E+04  0.29151194621E+04  0.25500000920E-02 0.  1.
       -2   -1    0    0    0  501  0.00000000000E+00  0.00000000000E+00 -0.49362236659E+03  0.49362236660E+03  0.25500000920E-02 0. -1.
    10030    2    1    2    0    0  0.00000000000E+00  0.00000000000E+00  0.24214970955E+04  0.34087418287E+04  0.23991399857E+04 0.  0.
        1    1    3    3  502    0  0.49450151403E+03 -0.12142730424E+03  0.27539506516E+04  0.28006285953E+04  0.50400001928E-02 0.  1.
       -1    1    3    3    0  502 -0.49450151403E+03  0.12142730424E+03 -0.33245355610E+03  0.60811323335E+03  0.50400001928E-02 0. -1.
</event>
<event>
 5   0  0.5363690E-07  0.2399505E+04  0.7818609E-02  0.8439689E-01
        1   -1    0    0  501    0  0.00000000000E+00  0.00000000000E+00  0.13473647928E+04  0.13473647928E+04  0.50400001928E-02 0. -1.
       -1   -1    0    0    0  501  0.00000000000E+00  0.00000000000E+00 -0.10683122205E+04  0.10683122205E+04  0.50400001928E-02 0.  1.
    10030    2    1    2    0    0  0.00000000000E+00  0.00000000000E+00  0.27905257231E+03  0.24156770133E+04  0.23995051770E+04 0.  0.
        4    1    3    3  502    0 -0.93989059206E+03 -0.34104977819E+03 -0.52803805292E+03  0.11307232528E+04  0.12699999809E+01 0.  1.
       -4    1    3    3    0  502  0.93989059206E+03  0.34104977819E+03  0.80709062523E+03  0.12849537604E+04  0.12699999809E+01 0. -1.
</event>
<event>
 5   0  0.5510176E-07  0.2399705E+04  0.7818609E-02  0.8439614E-01
        1   -1    0    0  501    0  0.00000000000E+00  0.00000000000E+00  0.14372450537E+04  0.14372450537E+04  0.50400001928E-02 0. -1.
       -1   -1    0    0    0  501  0.00000000000E+00  0.00000000000E+00 -0.10016702974E+04  0.10016702974E+04  0.50400001928E-02 0.  1.
    10030    2    1    2    0    0  0.00000000000E+00  0.00000000000E+00  0.43557475630E+03  0.24389153512E+04  0.23997047156E+04 0.  0.
        3    1    3    3  502    0  0.10849852664E+04  0.32059740063E+03  0.62390376630E+03  0.12919874773E+04  0.10100000352E+00 0.  1.
       -3    1    3    3    0  502 -0.10849852664E+04 -0.32059740063E+03 -0.18832900999E+03  0.11469278739E+04  0.10100000352E+00 0. -1.
</event>
<event>
 5   0  0.1275948E-06  0.2397277E+04  0.7818609E-02  0.8440524E-01
       -2   -1    0    0    0  501  0.00000000000E+00  0.00000000000E+00  0.49281937725E+03  0.49281937726E+03  0.25500000920E-02 0.  1.
        2   -1    0    0  501    0  0.00000000000E+00  0.00000000000E+00 -0.29153354976E+04  0.29153354976E+04  0.25500000920E-02 0. -1.
    10030    2    1    2    0    0  0.00000000000E+00  0.00000000000E+00 -0.24225161203E+04  0.34081548748E+04  0.23972766419E+04 0.  0.
        1    1    3    3  502    0 -0.15757295362E+03 -0.43872215992E+03  0.35866783335E+03  0.58817428031E+03  0.50400001928E-02 0.  1.
       -1    1    3    3    0  502  0.15757295362E+03  0.43872215992E+03 -0.27811839537E+04  0.28199805945E+04  0.50400001928E-02 0. -1.
</event>
<event>
 5   0  0.5690124E-07  0.2400009E+04  0.7818609E-02  0.8439500E-01
       -1   -1    0    0    0  501  0.00000000000E+00  0.00000000000E+00  0.97949146468E+03  0.97949146469E+03  0.50400001928E-02 0. -1.
        1   -1    0    0  501    0  0.00000000000E+00  0.00000000000E+00 -0.14701611250E+04  0.14701611250E+04  0.50400001928E-02 0.  1.
    10030    2    1    2    0    0  0.00000000000E+00  0.00000000000E+00 -0.49066966034E+03  0.24496525897E+04  0.24000085614E+04 0.  0.
        2    1    3    3  502    0 -0.30674384009E+03  0.80713759689E+03  0.60523775535E+03  0.10544551315E+04  0.25500000920E-02 0. -1.
       -2    1    3    3    0  502  0.30674384009E+03 -0.80713759689E+03 -0.10959074157E+04  0.13951974583E+04  0.25500000920E-02 0.  1.
</event>
<event>
 5   0  0.1336057E-06  0.2399821E+04  0.7818609E-02  0.8439571E-01
       -2   -1    0    0    0  501  0.00000000000E+00  0.00000000000E+00  0.63971431044E+03  0.63971431045E+03  0.25500000920E-02 0.  1.
        2   -1    0    0  501    0  0.00000000000E+00  0.00000000000E+00 -0.22506688847E+04  0.22506688847E+04  0.25500000920E-02 0. -1.
    10030    2    1    2    0    0  0.00000000000E+00  0.00000000000E+00 -0.16109545742E+04  0.28903831951E+04  0.23998209046E+04 0.  0.
        2    1    3    3  502    0  0.48907639866E+03  0.32559794633E+02 -0.21245903133E+04  0.21803990147E+04  0.25500000920E-02 0. -1.
       -2    1    3    3    0  502 -0.48907639866E+03 -0.32559794633E+02  0.51363573908E+03  0.70998418041E+03  0.25500000920E-02 0.  1.
</event>
<event>
 5   0  0.5363690E-07  0.2399913E+04  0.7818609E-02  0.8439536E-01
       -1   -1    0    0    0  501  0.00000000000E+00  0.00000000000E+00  0.12742374326E+04  0.12742374326E+04  0.50400001928E-02 0. -1.
        1   -1    0    0  501    0  0.00000000000E+00  0.00000000000E+00 -0.11300056390E+04  0.11300056391E+04  0.50400001928E-02 0.  1.
    10030    2    1    2    0    0  0.00000000000E+00  0.00000000000E+00  0.14423179353E+03  0.24042430716E+04  0.23999129020E+04 0.  0.
        4    1    3    3  502    0  0.71125085389E+03 -0.75460917116E+03 -0.53277906051E+03  0.11658335724E+04  0.12699999809E+01 0.  1.
       -4    1    3    3    0  502 -0.71125085389E+03  0.75460917116E+03  0.67701085404E+03  0.12384094992E+04  0.12699999809E+01 0. -1.
</event>
<event>
 5   0  0.1307477E-06  0.2400093E+04  0.7818609E-02  0.8439469E-01
        2   -1    0    0  501    0  0.00000000000E+00  0.00000000000E+00  0.13896532730E+04  0.13896532730E+04  0.25500000920E-02 0.  1.
       -2   -1    0    0    0  501  0.00000000000E+00  0.00000000000E+00 -0.10363097703E+04  0.10363097703E+04  0.25500000920E-02 0. -1.
    10030    2    1    2    0    0  0.00000000000E+00  0.00000000000E+00  0.35334350273E+03  0.24259630433E+04  0.24000927183E+04 0.  0.
        5    1    3    3  502    0 -0.89946418730E+03  0.72979930494E+03  0.49381532400E+03  0.12591737426E+04  0.46999998093E+01 0.  1.
       -5    1    3    3    0  502  0.89946418730E+03 -0.72979930494E+03 -0.14047182127E+03  0.11667893007E+04  0.46999998093E+01 0. -1.
</event>
<event>
 5   0  0.5363690E-07  0.2401610E+04  0.7818609E-02  0.8438901E-01
       -1   -1    0    0    0  501  0.00000000000E+00  0.00000000000E+00  0.15475420959E+04  0.15475420960E+04  0.50400001928E-02 0.  1.
        1   -1    0    0  501    0  0.00000000000E+00  0.00000000000E+00 -0.93175687539E+03  0.93175687540E+03  0.50400001928E-02 0. -1.
    10030    2    1    2    0    0  0.00000000000E+00  0.00000000000E+00  0.61578522056E+03  0.24792989714E+04  0.24016102830E+04 0.  0.
        4    1    3    3  502    0 -0.10941711119E+04  0.29941931064E+02 -0.20186647859E+03  0.11130402640E+04  0.12699999809E+01 0.  1.
       -4    1    3    3    0  502  0.10941711119E+04 -0.29941931064E+02  0.81765169915E+03  0.13662587073E+04  0.12699999809E+01 0. -1.
</event>
<event>
 5   0  0.1275948E-06  0.2399915E+04  0.7818609E-02  0.8439536E-01
        2   -1    0    0  501    0  0.00000000000E+00  0.00000000000E+00  0.14724865153E+04  0.14724865153E+04  0.25500000920E-02 0.  1.
       -2   -1    0    0    0  501  0.00000000000E+00  0.00000000000E+00 -0.97786803100E+03  0.97786803100E+03  0.25500000920E-02 0. -1.
    10030    2    1    2    0    0  0.00000000000E+00  0.00000000000E+00  0.49461848433E+03  0.24503545463E+04  0.23999145730E+04 0.  0.
        1    1    3    3  502    0 -0.38441669657E+03 -0.35348098285E+03 -0.85575464300E+03  0.10025173369E+04  0.50400001928E-02 0. -1.
       -1    1    3    3    0  502  0.38441669657E+03  0.35348098285E+03  0.13503731273E+04  0.14478372094E+04  0.50400001928E-02 0.  1.
</event>
<event>
 5   0  0.5690124E-07  0.2400513E+04  0.7818609E-02  0.8439312E-01
       -1   -1    0    0    0  501  0.00000000000E+00  0.00000000000E+00  0.57824546064E+03  0.57824546066E+03  0.50400001928E-02 0.  1.
        1   -1    0    0  501    0  0.00000000000E+00  0.00000000000E+00 -0.24913556817E+04  0.24913556817E+04  0.50400001928E-02 0. -1.
    10030    2    1    2    0    0  0.00000000000E+00  0.00000000000E+00 -0.19131102210E+04  0.30696011423E+04  0.24005125401E+04 0.  0.
        2    1    3    3  502    0  0.10511173728E+04  0.42575719221E+03 -0.14591750049E+04  0.18480553599E+04  0.25500000920E-02 0. -1.
       -2    1    3    3    0  502 -0.10511173728E+04 -0.42575719221E+03 -0.45393521615E+03  0.12215457825E+04  0.25500000920E-02 0.  1.
</event>
<event>
 5   0  0.5690124E-07  0.2401685E+04  0.7818609E-02  0.8438873E-01
        1   -1    0    0  501    0  0.00000000000E+00  0.00000000000E+00  0.10872211494E+04  0.10872211494E+04  0.50400001928E-02 0.  1.
       -1   -1    0    0    0  501  0.00000000000E+00  0.00000000000E+00 -0.13263376830E+04  0.13263376830E+04  0.50400001928E-02 0. -1.
    10030    2    1    2    0    0  0.00000000000E+00  0.00000000000E+00 -0.23911653354E+03  0.24135588324E+04  0.24016847255E+04 0.  0.
        2    1    3    3  502    0 -0.23712448207E+03 -0.96534132717E+03 -0.79661802159E+03  0.12738572017E+04  0.25500000920E-02 0. -1.
       -2    1    3    3    0  502  0.23712448207E+03  0.96534132717E+03  0.55750148805E+03  0.11397016307E+04  0.25500000920E-02 0.  1.
</event>
<event>
 5   0  0.5510176E-07  0.2399149E+04  0.7818609E-02  0.8439822E-01
       -1   -1    0    0    0  501  0.00000000000E+00  0.00000000000E+00  0.13243405221E+04  0.13243405221E+04  0.50400001928E-02 0. -1.
        1   -1    0    0  501    0  0.00000000000E+00  0.00000000000E+00 -0.10865623551E+04  0.10865623551E+04  0.50400001928E-02 0.  1.
    10030    2    1    2    0    0  0.00000000000E+00  0.00000000000E+00  0.23777816705E+03  0.24109028772E+04  0.23991486462E+04 0.  0.
        3    1    3    3  502    0  0.13685317625E+03 -0.39842277895E+02 -0.10780225265E+04  0.10874046058E+04  0.10100000352E+00 0.  1.
       -3    1    3    3    0  502 -0.13685317625E+03  0.39842277895E+02  0.13158006935E+04  0.13234982714E+04  0.10100000352E+00 0. -1.
</event>
<event>
 5   0  0.5452384E-07  0.2400944E+04  0.7818609E-02  0.8439150E-01
       -1   -1    0    0    0  501  0.00000000000E+00  0.00000000000E+00  0.83154927027E+03  0.83154927029E+03  0.50400001928E-02 0.  1.
        1   -1    0    0  501    0  0.00000000000E+00  0.00000000000E+00 -0.17330703677E+04  0.17330703677E+04  0.50400001928E-02 0. -1.
    10030    2    1    2    0    0  0.00000000000E+00  0.00000000000E+00 -0.90152109745E+03  0.25646196380E+04  0.24009443139E+04 0.  0.
        5    1    3    3  502    0 -0.40012938592E+03  0.33326438963E+03  0.70461496506E+03  0.87616951434E+03  0.46999998093E+01 0.  1.
       -5    1    3    3    0  502  0.40012938592E+03 -0.33326438963E+03 -0.16061360625E+04  0.16884501237E+04  0.46999998093E+01 0. -1.
</event>
<event>
 5   0  0.5363690E-07  0.2403995E+04  0.7818609E-02  0.8438009E-01
       -1   -1    0    0    0  501  0.00000000000E+00  0.00000000000E+00  0.10430190759E+04  0.10430190759E+04  0.50400001928E-02 0. -1.
        1   -1    0    0  501    0  0.00000000000E+00  0.00000000000E+00 -0.13852075120E+04  0.13852075120E+04  0.50400001928E-02 0.  1.
    10030    2    1    2    0    0  0.00000000000E+00  0.00000000000E+00 -0.34218843613E+03  0.24282265879E+04  0.24039948911E+04 0.  0.
        4    1    3    3  502    0 -0.11222528612E+04 -0.38456112617E+03 -0.36658445576E+03  0.12416619993E+04  0.12699999809E+01 0.  1.
       -4    1    3    3    0  502  0.11222528612E+04  0.38456112617E+03  0.24396019637E+02  0.11865645886E+04  0.12699999809E+01 0. -1.
</event>
<event>
 5   0  0.1291468E-06  0.2399560E+04  0.7818609E-02  0.8439668E-01
       -2   -1    0    0    0  501  0.00000000000E+00  0.00000000000E+00  0.96505148208E+03  0.96505148209E+03  0.25500000920E-02 0.  1.
        2   -1    0    0  501    0  0.00000000000E+00  0.00000000000E+00 -0.14916016243E+04  0.14916016243E+04  0.25500000920E-02 0. -1.
    10030    2    1    2    0    0  0.00000000000E+00  0.00000000000E+00 -0.52655014219E+03  0.24566531064E+04  0.23995602582E+04 0.  0.
        4    1    3    3  502    0 -0.25950672244E+03  0.13822689690E+03  0.92759487937E+03  0.97307979485E+03  0.12699999809E+01 0.  1.
       -4    1    3    3    0  502  0.25950672244E+03 -0.13822689690E+03 -0.14541450216E+04  0.14835733115E+04  0.12699999809E+01 0. -1.
</event>
<event>
 5   0  0.1275948E-06  0.2412007E+04  0.7818609E-02  0.8435022E-01
       -2   -1    0    0    0  501  0.00000000000E+00  0.00000000000E+00  0.10988584549E+04  0.10988584549E+04  0.25500000920E-02 0.  1.
        2   -1    0    0  501    0  0.00000000000E+00  0.00000000000E+00 -0.13235954798E+04  0.13235954798E+04  0.25500000920E-02 0. -1.
    10030    2    1    2    0    0  0.00000000000E+00  0.00000000000E+00 -0.22473702492E+03  0.24224539347E+04  0.24120067030E+04 0.  0.
        1    1    3    3  502    0  0.30989330931E+03 -0.11093313684E+04 -0.47139995129E+03  0.12445351993E+04  0.50400001928E-02 0. -1.
       -1    1    3    3    0  502 -0.30989330931E+03  0.11093313684E+04  0.24666292638E+03  0.11779187355E+04  0.50400001928E-02 0.  1.
</event>
<event>
 5   0  0.1307477E-06  0.2400140E+04  0.7818609E-02  0.8439451E-01
        2   -1    0    0  501    0  0.00000000000E+00  0.00000000000E+00  0.11738711487E+04  0.11738711487E+04  0.25500000920E-02 0.  1.
       -2   -1    0    0    0  501  0.00000000000E+00  0.00000000000E+00 -0.12268539196E+04  0.12268539196E+04  0.25500000920E-02 0. -1.
    10030    2    1    2    0    0  0.00000000000E+00  0.00000000000E+00 -0.52982770872E+02  0.24007250683E+04  0.24001403458E+04 0.  0.
        5    1    3    3  502    0  0.45438307358E+03 -0.74606756057E+03  0.79654900314E+03  0.11821984549E+04  0.46999998093E+01 0.  1.
       -5    1    3    3    0  502 -0.45438307358E+03  0.74606756057E+03 -0.84953177401E+03  0.12185266134E+04  0.46999998093E+01 0. -1.
</event>
<event>
 5   0  0.1336057E-06  0.2399696E+04  0.7818609E-02  0.8439617E-01
        2   -1    0    0  501    0  0.00000000000E+00  0.00000000000E+00  0.84458823692E+03  0.84458823692E+03  0.25500000920E-02 0. -1.
       -2   -1    0    0    0  501  0.00000000000E+00  0.00000000000E+00 -0.17045411313E+04  0.17045411313E+04  0.25500000920E-02 0.  1.
    10030    2    1    2    0    0  0.00000000000E+00  0.00000000000E+00 -0.85995289439E+03  0.25491293682E+04  0.23996961381E+04 0.  0.
        2    1    3    3  502    0 -0.99521479833E+03 -0.54648447898E+03 -0.17823765711E+02  0.11355243138E+04  0.25500000920E-02 0. -1.
       -2    1    3    3    0  502  0.99521479833E+03  0.54648447898E+03 -0.84212912867E+03  0.14136050544E+04  0.25500000920E-02 0.  1.
</event>
<event>
 5   0  0.5690124E-07  0.2399384E+04  0.7818609E-02  0.8439734E-01
       -1   -1    0    0    0  501  0.00000000000E+00  0.00000000000E+00  0.92250895126E+03  0.92250895128E+03  0.50400001928E-02 0.  1.
        1   -1    0    0  501    0  0.00000000000E+00  0.00000000000E+00 -0.15601592157E+04  0.15601592157E+04  0.50400001928E-02 0. -1.
    10030    2    1    2    0    0  0.00000000000E+00  0.00000000000E+00 -0.63765026445E+03  0.24826681670E+04  0.23993839559E+04 0.  0.
        2    1    3    3  502    0 -0.10956803316E+04 -0.17676859915E+03 -0.79015635790E+03  0.13623911320E+04  0.25500000920E-02 0. -1.
       -2    1    3    3    0  502  0.10956803316E+04  0.17676859915E+03  0.15250609346E+03  0.11202770350E+04  0.25500000920E-02 0.  1.
</event>
<event>
 5   0  0.5527286E-07  0.2397973E+04  0.7818609E-02  0.8440263E-01
       -1   -1    0    0    0  501  0.00000000000E+00  0.00000000000E+00  0.77133590591E+03  0.77133590592E+03  0.50400001928E-02 0. -1.
        1   -1    0    0  501    0  0.00000000000E+00  0.00000000000E+00 -0.18637387278E+04  0.18637387279E+04  0.50400001928E-02 0.  1.
    10030    2    1    2    0    0  0.00000000000E+00  0.00000000000E+00 -0.10924028219E+04  0.26350746338E+04  0.23979729774E+04 0.  0.
        1    1    3    3  502    0 -0.38449838777E+03 -0.89742867520E+03 -0.13109679864E+04  0.16345807715E+04  0.50400001928E-02 0.  1.
       -1    1    3    3    0  502  0.38449838777E+03  0.89742867520E+03  0.21856516444E+03  0.10004938623E+04  0.50400001928E-02 0. -1.
</event>
<event>
 5   0  0.1307477E-06  0.2399784E+04  0.7818609E-02  0.8439584E-01
        2   -1    0    0  501    0  0.00000000000E+00  0.00000000000E+00  0.14208499380E+04  0.14208499380E+04  0.25500000920E-02 0. -1.
       -2   -1    0    0    0  501  0.00000000000E+00  0.00000000000E+00 -0.10132956907E+04  0.10132956907E+04  0.25500000920E-02 0.  1.
    10030    2    1    2    0    0  0.00000000000E+00  0.00000000000E+00  0.40755424727E+03  0.24341456287E+04  0.23997842564E+04 0.  0.
        5    1    3    3  502    0 -0.31564371929E+03 -0.18079194990E+03 -0.95601188058E+03  0.10228868425E+04  0.46999998093E+01 0.  1.
       -5    1    3    3    0  502  0.31564371929E+03  0.18079194990E+03  0.13635661278E+04  0.14112587862E+04  0.46999998093E+01 0. -1.
</event>
<event>
 5   0  0.1275948E-06  0.2400116E+04  0.7818609E-02  0.8439460E-01
        2   -1    0    0  501    0  0.00000000000E+00  0.00000000000E+00  0.12726421627E+04  0.12726421627E+04  0.25500000920E-02 0.  1.
       -2   -1    0    0    0  501  0.00000000000E+00  0.00000000000E+00 -0.11316135187E+04  0.11316135187E+04  0.25500000920E-02 0. -1.
    10030    2    1    2    0    0  0.00000000000E+00  0.00000000000E+00  0.14102864398E+03  0.24042556814E+04  0.24001158937E+04 0.  0.
        1    1    3    3  502    0  0.60204212570E+03 -0.10378643064E+04  0.93401844045E+02  0.12034703752E+04  0.50400001928E-02 0. -1.
       -1    1    3    3    0  502 -0.60204212570E+03  0.10378643064E+04  0.47626799931E+02  0.12007853062E+04  0.50400001928E-02 0.  1.
</event>
<event>
 5   0  0.5452384E-07  0.2403251E+04  0.7818609E-02  0.8438288E-01
        1   -1    0    0  501    0  0.00000000000E+00  0.00000000000E+00  0.79507057893E+03  0.79507057894E+03  0.50400001928E-02 0. -1.
       -1   -1    0    0    0  501  0.00000000000E+00  0.00000000000E+00 -0.18160696543E+04  0.18160696543E+04  0.50400001928E-02 0.  1.
    10030    2    1    2    0    0  0.00000000000E+00  0.00000000000E+00 -0.10209990754E+04  0.26111402332E+04  0.24032507580E+04 0.  0.
        5    1    3    3  502    0  0.32956234070E+03  0.22022068865E+03  0.72198668697E+03  0.82364759107E+03  0.46999998093E+01 0. -1.
       -5    1    3    3    0  502 -0.32956234070E+03 -0.22022068865E+03 -0.17429857623E+04  0.17874926422E+04  0.46999998093E+01 0.  1.
</event>
<event>
 5   0  0.5510176E-07  0.2399106E+04  0.7818609E-02  0.8439838E-01
        1   -1    0    0  501    0  0.00000000000E+00  0.00000000000E+00  0.15744538546E+04  0.15744538547E+04  0.50400001928E-02 0.  1.
       -1   -1    0    0    0  501  0.00000000000E+00  0.00000000000E+00 -0.91392178394E+03  0.91392178396E+03  0.50400001928E-02 0. -1.
    10030    2    1    2    0    0  0.00000000000E+00  0.00000000000E+00  0.66053207070E+03  0.24883756386E+04  0.23991062299E+04 0.  0.
        3    1    3    3  502    0 -0.14254058143E+03  0.11849964404E+03  0.15595091891E+04  0.15704868367E+04  0.10100000352E+00 0.  1.
       -3    1    3    3    0  502  0.14254058143E+03 -0.11849964404E+03 -0.89897711845E+03  0.91788880192E+03  0.10100000352E+00 0. -1.
</event>
<event>
 5   0  0.1307477E-06  0.2399461E+04  0.7818609E-02  0.8439706E-01
        2   -1    0    0  501    0  0.00000000000E+00  0.00000000000E+00  0.67830056251E+03  0.67830056252E+03  0.25500000920E-02 0.  1.
       -2   -1    0    0    0  501  0.00000000000E+00  0.00000000000E+00 -0.21219986185E+04  0.21219986185E+04  0.25500000920E-02 0. -1.
    10030    2    1    2    0    0  0.00000000000E+00  0.00000000000E+00 -0.14436980560E+04  0.28002991810E+04  0.23994606532E+04 0.  0.
        5    1    3    3  502    0 -0.91799802615E+03 -0.47703204467E+02  0.17786890931E+03  0.93629878278E+03  0.46999998093E+01 0.  1.
       -5    1    3    3    0  502  0.91799802615E+03  0.47703204467E+02 -0.16215669653E+04  0.18640003983E+04  0.46999998093E+01 0. -1.
</event>
<event>
 5   0  0.5510176E-07  0.2399638E+04  0.7818609E-02  0.8439639E-01
       -1   -1    0    0    0  501  0.00000000000E+00  0.00000000000E+00  0.90130258876E+03  0.90130258877E+03  0.50400001928E-02 0. -1.
        1   -1    0    0  501    0  0.00000000000E+00  0.00000000000E+00 -0.15972050943E+04  0.15972050943E+04  0.50400001928E-02 0.  1.
    10030    2    1    2    0    0  0.00000000000E+00  0.00000000000E+00 -0.69590250555E+03  0.24985076831E+04  0.23996375445E+04 0.  0.
        3    1    3    3  502    0 -0.91210406353E+03  0.45469091232E+03 -0.10071953642E+04  0.14328712993E+04  0.10100000352E+00 0.  1.
       -3    1    3    3    0  502  0.91210406353E+03 -0.45469091232E+03  0.31129285863E+03  0.10656363838E+04  0.10100000352E+00 0. -1.
</event>
<event>
 5   0  0.1307477E-06  0.2399574E+04  0.7818609E-02  0.8439663E-01
        2   -1    0    0  501    0  0.00000000000E+00  0.00000000000E+00  0.13907460576E+04  0.13907460576E+04  0.25500000920E-02 0. -1.
       -2   -1    0    0    0  501  0.00000000000E+00  0.00000000000E+00 -0.10350479283E+04  0.10350479283E+04  0.25500000920E-02 0.  1.
    10030    2    1    2    0    0  0.00000000000E+00  0.00000000000E+00  0.35569812931E+03  0.24257939858E+04  0.23995739835E+04 0.  0.
        5    1    3    3  502    0  0.94020252733E+03 -0.12237249094E+03  0.92107696640E+03  0.13218777126E+04  0.46999998093E+01 0. -1.
       -5    1    3    3    0  502 -0.94020252733E+03  0.12237249094E+03 -0.56537883710E+03  0.11039162733E+04  0.46999998093E+01 0.  1.
</event>
<event>
 5   0  0.5690124E-07  0.2399940E+04  0.7818609E-02  0.8439526E-01
        1   -1    0    0  501    0  0.00000000000E+00  0.00000000000E+00  0.14208044776E+04  0.14208044776E+04  0.50400001928E-02 0. -1.
       -1   -1    0    0    0  501  0.00000000000E+00  0.00000000000E+00 -0.10134593586E+04  0.10134593586E+04  0.50400001928E-02 0.  1.
    10030    2    1    2    0    0  0.00000000000E+00  0.00000000000E+00  0.40734511901E+03  0.24342638362E+04  0.23999396614E+04 0.  0.
        2    1    3    3  502    0  0.52971627811E+03  0.33519153953E+03  0.12415246333E+04  0.13908041266E+04  0.25500000920E-02 0. -1.
       -2    1    3    3    0  502 -0.52971627811E+03 -0.33519153953E+03 -0.83417951430E+03  0.10434597096E+04  0.25500000920E-02 0.  1.
</event>
<event>
 5   0  0.1275948E-06  0.2400167E+04  0.7818609E-02  0.8439441E-01
        2   -1    0    0  501    0  0.00000000000E+00  0.00000000000E+00  0.25043875314E+04  0.25043875314E+04  0.25500000920E-02 0. -1.
       -2   -1    0    0    0  501  0.00000000000E+00  0.00000000000E+00 -0.57507089778E+03  0.57507089779E+03  0.25500000920E-02 0.  1.
    10030    2    1    2    0    0  0.00000000000E+00  0.00000000000E+00  0.19293166337E+04  0.30794584292E+04  0.24001669826E+04 0.  0.
        1    1    3    3  502    0  0.24784351105E+03 -0.10895592227E+04  0.40300291284E+03  0.11878455512E+04  0.50400001928E-02 0.  1.
       -1    1    3    3    0  502 -0.24784351105E+03  0.10895592227E+04  0.15263137208E+04  0.18916128780E+04  0.50400001928E-02 0. -1.
</event>
<event>
 5   0  0.5690124E-07  0.2404458E+04  0.7818609E-02  0.8437837E-01
       -1   -1    0    0    0  501  0.00000000000E+00  0.00000000000E+00  0.11517081543E+04  0.11517081543E+04  0.50400001928E-02 0. -1.
        1   -1    0    0  501    0  0.00000000000E+00  0.00000000000E+00 -0.12549657729E+04  0.12549657729E+04  0.50400001928E-02 0.  1.
    10030    2    1    2    0    0  0.00000000000E+00  0.00000000000E+00 -0.10325761862E+03  0.24066739272E+04  0.24044577883E+04 0.  0.
        2    1    3    3  502    0  0.58283558383E+03 -0.25584224635E+03 -0.10724716422E+04  0.12471359173E+04  0.25500000920E-02 0.  1.
       -2    1    3    3    0  502 -0.58283558383E+03  0.25584224635E+03  0.96921402361E+03  0.11595380099E+04  0.25500000920E-02 0. -1.
</event>
<event>
 5   0  0.1291468E-06  0.2400932E+04  0.7818609E-02  0.8439155E-01
        2   -1    0    0  501    0  0.00000000000E+00  0.00000000000E+00  0.11752244416E+04  0.11752244416E+04  0.25500000920E-02 0.  1.
       -2   -1    0    0    0  501  0.00000000000E+00  0.00000000000E+00 -0.12262496314E+04  0.12262496314E+04  0.25500000920E-02 0. -1.
    10030    2    1    2    0    0  0.00000000000E+00  0.00000000000E+00 -0.51025189853E+02  0.24014740730E+04  0.24009319343E+04 0.  0.
        4    1    3    3  502    0 -0.83384266737E+03  0.70960282544E+03 -0.51785047942E+03  0.12111979589E+04  0.12699999809E+01 0. -1.
       -4    1    3    3    0  502  0.83384266737E+03 -0.70960282544E+03  0.46682528956E+03  0.11902761140E+04  0.12699999809E+01 0.  1.
</event>
<event>
 5   0  0.5363690E-07  0.2399647E+04  0.7818609E-02  0.8439636E-01
        1   -1    0    0  501    0  0.00000000000E+00  0.00000000000E+00  0.81344012284E+03  0.81344012285E+03  0.50400001928E-02 0.  1.
       -1   -1    0    0    0  501  0.00000000000E+00  0.00000000000E+00 -0.17697390861E+04  0.17697390861E+04  0.50400001928E-02 0. -1.
    10030    2    1    2    0    0  0.00000000000E+00  0.00000000000E+00 -0.95629896328E+03  0.25831792090E+04  0.23996472904E+04 0.  0.
        4    1    3    3  502    0 -0.10315717455E+04  0.60381270052E+03 -0.36604463923E+03  0.12500881306E+04  0.12699999809E+01 0. -1.
       -4    1    3    3    0  502  0.10315717455E+04 -0.60381270052E+03 -0.59025432405E+03  0.13330910784E+04  0.12699999809E+01 0.  1.
</event>
<event>
 5   0  0.5690124E-07  0.2401320E+04  0.7818609E-02  0.8439009E-01
        1   -1    0    0  501    0  0.00000000000E+00  0.00000000000E+00  0.22984424517E+04  0.22984424517E+04  0.50400001928E-02 0. -1.
       -1   -1    0    0    0  501  0.00000000000E+00  0.00000000000E+00 -0.62720079151E+03  0.62720079153E+03  0.50400001928E-02 0.  1.
    10030    2    1    2    0    0  0.00000000000E+00  0.00000000000E+00  0.16712416602E+04  0.29256432432E+04  0.24013204076E+04 0.  0.
        2    1    3    3  502    0  0.26731171989E+03  0.16016056890E+03  0.22483148239E+04  0.22698075933E+04  0.25500000920E-02 0. -1.
       -2    1    3    3    0  502 -0.26731171989E+03 -0.16016056890E+03 -0.57707316370E+03  0.65583564990E+03  0.25500000920E-02 0.  1.
</event>
<event>
 5   0  0.5452384E-07  0.2400872E+04  0.7818609E-02  0.8439177E-01
       -1   -1    0    0    0  501  0.00000000000E+00  0.00000000000E+00  0.15032201590E+04  0.15032201590E+04  0.50400001928E-02 0.  1.
        1   -1    0    0  501    0  0.00000000000E+00  0.00000000000E+00 -0.95863961579E+03  0.95863961580E+03  0.50400001928E-02 0. -1.
    10030    2    1    2    0    0  0.00000000000E+00  0.00000000000E+00  0.54458054319E+03  0.24618597748E+04  0.24008718380E+04 0.  0.
        5    1    3    3  502    0 -0.74926762185E+03 -0.69969253115E+03  0.91269713574E+03  0.13725923499E+04  0.46999998093E+01 0.  1.
       -5    1    3    3    0  502  0.74926762185E+03  0.69969253115E+03 -0.36811659256E+03  0.10892674249E+04  0.46999998093E+01 0. -1.
</event>
<event>
 5   0  0.5690124E-07  0.2400205E+04  0.7818609E-02  0.8439427E-01
        1   -1    0    0  501    0  0.00000000000E+00  0.00000000000E+00  0.70215345711E+03  0.70215345713E+03  0.50400001928E-02 0.  1.
       -1   -1    0    0    0  501  0.00000000000E+00  0.00000000000E+00 -0.20511834605E+04  0.20511834605E+04  0.50400001928E-02 0. -1.
    10030    2    1    2    0    0  0.00000000000E+00  0.00000000000E+00 -0.13490300034E+04  0.27533369176E+04  0.24002046229E+04 0.  0.
        2    1    3    3  502    0 -0.32806998158E+03 -0.81333102675E+03  0.26522430072E+03  0.91623206754E+03  0.25500000920E-02 0.  1.
       -2    1    3    3    0  502  0.32806998158E+03  0.81333102675E+03 -0.16142543041E+04  0.18371048501E+04  0.25500000920E-02 0. -1.
</event>
<event>
 5   0  0.5510176E-07  0.2397731E+04  0.7818609E-02  0.8440353E-01
        1   -1    0    0  501    0  0.00000000000E+00  0.00000000000E+00  0.11464948663E+04  0.11464948663E+04  0.50400001928E-02 0.  1.
       -1   -1    0    0    0  501  0.00000000000E+00  0.00000000000E+00 -0.12536285533E+04  0.12536285533E+04  0.50400001928E-02 0. -1.
    10030    2    1    2    0    0  0.00000000000E+00  0.00000000000E+00 -0.10713368696E+03  0.24001234196E+04  0.23977311781E+04 0.  0.
        3    1    3    3  502    0 -0.10402513206E+04 -0.52150927043E+03  0.23513721099E+03  0.11871749018E+04  0.10100000352E+00 0.  1.
       -3    1    3    3    0  502  0.10402513206E+04  0.52150927043E+03 -0.34227089795E+03  0.12129485179E+04  0.10100000352E+00 0. -1.
</event>
<event>
 5   0  0.5452384E-07  0.2401304E+04  0.7818609E-02  0.8439015E-01
        1   -1    0    0  501    0  0.00000000000E+00  0.00000000000E+00  0.15628000252E+04  0.15628000252E+04  0.50400001928E-02 0.  1.
       -1   -1    0    0    0  501  0.00000000000E+00  0.00000000000E+00 -0.92242480696E+03  0.92242480697E+03  0.50400001928E-02 0. -1.
    10030    2    1    2    0    0  0.00000000000E+00  0.00000000000E+00  0.64037521820E+03  0.24852248321E+04  0.24013042386E+04 0.  0.
        5    1    3    3  502    0 -0.11331253122E+04  0.35861973532E+03  0.14405682264E+03  0.11972282764E+04  0.46999998093E+01 0. -1.
       -5    1    3    3    0  502  0.11331253122E+04 -0.35861973532E+03  0.49631839556E+03  0.12879965557E+04  0.46999998093E+01 0.  1.
</event>
<event>
 5   0  0.5452384E-07  0.2400177E+04  0.7818609E-02  0.8439437E-01
       -1   -1    0    0    0  501  0.00000000000E+00  0.00000000000E+00  0.60723541793E+03  0.60723541796E+03  0.50400001928E-02 0.  1.
        1   -1    0    0  501    0  0.00000000000E+00  0.00000000000E+00 -0.23717523369E+04  0.23717523369E+04  0.50400001928E-02 0. -1.
    10030    2    1    2    0    0  0.00000000000E+00  0.00000000000E+00 -0.17645169190E+04  0.29789877549E+04  0.24001766781E+04 0.  0.
        5    1    3    3  502    0  0.19322512307E+03 -0.95122640257E+03 -0.17581491444E+04  0.20083022983E+04  0.46999998093E+01 0. -1.
       -5    1    3    3    0  502 -0.19322512307E+03  0.95122640257E+03 -0.63677745428E+01  0.97068545661E+03  0.46999998093E+01 0.  1.
</event>
<event>
 5   0  0.5452384E-07  0.2400334E+04  0.7818609E-02  0.8439378E-01
       -1   -1    0    0    0  501  0.00000000000E+00  0.00000000000E+00  0.11068648427E+04  0.11068648427E+04  0.50400001928E-02 0.  1.
        1   -1    0    0  501    0  0.00000000000E+00  0.00000000000E+00 -0.13013341681E+04  0.13013341682E+04  0.50400001928E-02 0. -1.
    10030    2    1    2    0    0  0.00000000000E+00  0.00000000000E+00 -0.19446932548E+03  0.24081990108E+04  0.24003341762E+04 0.  0.
        5    1    3    3  502    0  0.99202454799E+03  0.48879294300E+03  0.37049853320E+03  0.11663286407E+04  0.46999998093E+01 0.  1.
       -5    1    3    3    0  502 -0.99202454799E+03 -0.48879294300E+03 -0.56496785868E+03  0.12418703702E+04  0.46999998093E+01 0. -1.
</event>
<event>
 5   0  0.1291468E-06  0.2399354E+04  0.7818609E-02  0.8439746E-01
        2   -1    0    0  501    0  0.00000000000E+00  0.00000000000E+00  0.24914806499E+04  0.24914806499E+04  0.25500000920E-02 0. -1.
       -2   -1    0    0    0  501  0.00000000000E+00  0.00000000000E+00 -0.57765826284E+03  0.57765826284E+03  0.25500000920E-02 0.  1.
    10030    2    1    2    0    0  0.00000000000E+00  0.00000000000E+00  0.19138223871E+04  0.30691389128E+04  0.23993535664E+04 0.  0.
        4    1    3    3  502    0 -0.78119376744E+03 -0.90950750764E+03  0.90332153879E+03  0.15011525652E+04  0.12699999809E+01 0.  1.
       -4    1    3    3    0  502  0.78119376744E+03  0.90950750764E+03  0.10105008483E+04  0.15679863475E+04  0.12699999809E+01 0. -1.
</event>
<event>
 5   0  0.5363690E-07  0.2395661E+04  0.7818609E-02  0.8441130E-01
       -1   -1    0    0    0  501  0.00000000000E+00  0.00000000000E+00  0.58311631565E+03  0.58311631567E+03  0.50400001928E-02 0.  1.
        1   -1    0    0  501    0  0.00000000000E+00  0.00000000000E+00 -0.24605682117E+04  0.24605682117E+04  0.50400001928E-02 0. -1.
    10030    2    1    2    0    0  0.00000000000E+00  0.00000000000E+00 -0.18774518961E+04  0.30436845274E+04  0.23956606354E+04 0.  0.
        4    1    3    3  502    0 -0.63377655232E+03 -0.25658299709E+03  0.31082022332E+03  0.75107814293E+03  0.12699999809E+01 0.  1.
       -4    1    3    3    0  502  0.63377655232E+03  0.25658299709E+03 -0.21882721194E+04  0.22926063845E+04  0.12699999809E+01 0. -1.
</event>
<event>
 5   0  0.1308662E-06  0.2398654E+04  0.7818609E-02  0.8440007E-01
        2   -1    0    0  501    0  0.00000000000E+00  0.00000000000E+00  0.19392804702E+04  0.19392804702E+04  0.25500000920E-02 0.  1.
       -2   -1    0    0    0  501  0.00000000000E+00  0.00000000000E+00 -0.74171108348E+03  0.74171108348E+03  0.25500000920E-02 0. -1.
    10030    2    1    2    0    0  0.00000000000E+00  0.00000000000E+00  0.11975693867E+04  0.26809915537E+04  0.23986544718E+04 0.  0.
        3    1    3    3  502    0  0.99656903605E+03 -0.78908375220E+02  0.13393522461E+04  0.16712991428E+04  0.10100000352E+00 0. -1.
       -3    1    3    3    0  502 -0.99656903605E+03  0.78908375220E+02 -0.14178285935E+03  0.10096924109E+04  0.10100000352E+00 0.  1.
</event>
<event>
 5   0  0.1275948E-06  0.2390155E+04  0.7818609E-02  0.8443199E-01
       -2   -1    0    0    0  501  0.00000000000E+00  0.00000000000E+00  0.13505236138E+04  0.13505236138E+04  0.25500000920E-02 0.  1.
        2   -1    0    0  501    0  0.00000000000E+00  0.00000000000E+00 -0.10575235182E+04  0.10575235182E+04  0.25500000920E-02 0. -1.
    10030    2    1    2    0    0  0.00000000000E+00  0.00000000000E+00  0.29300009553E+03  0.24080471320E+04  0.23901552113E+04 0.  0.
        1    1    3    3  502    0  0.11494455547E+04 -0.12302367902E+03  0.45183731737E+03  0.12411756001E+04  0.50400001928E-02 0.  1.
       -1    1    3    3    0  502 -0.11494455547E+04  0.12302367902E+03 -0.15883722184E+03  0.11668715319E+04  0.50400001928E-02 0. -1.
</event>
<event>
 5   0  0.5363690E-07  0.2399884E+04  0.7818609E-02  0.8439547E-01
        1   -1    0    0  501    0  0.00000000000E+00  0.00000000000E+00  0.13244875916E+04  0.13244875916E+04  0.50400001928E-02 0. -1.
       -1   -1    0    0    0  501  0.00000000000E+00  0.00000000000E+00 -0.10871080518E+04  0.10871080518E+04  0.50400001928E-02 0.  1.
    10030    2    1    2    0    0  0.00000000000E+00  0.00000000000E+00  0.23737953976E+03  0.24115956434E+04  0.23998842683E+04 0.  0.
        4    1    3    3  502    0 -0.57591348997E+03  0.98857686685E+03  0.48225493214E+03  0.12415844724E+04  0.12699999809E+01 0.  1.
       -4    1    3    3    0  502  0.57591348997E+03 -0.98857686685E+03 -0.24487539238E+03  0.11700111710E+04  0.12699999809E+01 0. -1.
</event>
<event>
 5   0  0.1275948E-06  0.2403280E+04  0.7818609E-02  0.8438277E-01
       -2   -1    0    0    0  501  0.00000000000E+00  0.00000000000E+00  0.16636593449E+04  0.16636593449E+04  0.25500000920E-02 0. -1.
        2   -1    0    0  501    0  0.00000000000E+00  0.00000000000E+00 -0.86792912350E+03  0.86792912351E+03  0.25500000920E-02 0.  1.
    10030    2    1    2    0    0  0.00000000000E+00  0.00000000000E+00  0.79573022139E+03  0.25315884684E+04  0.24032797565E+04 0.  0.
        1    1    3    3  502    0 -0.10932064567E+04  0.42629448624E+03  0.67075396660E+03  0.13515688032E+04  0.50400001928E-02 0. -1.
       -1    1    3    3    0  502  0.10932064567E+04 -0.42629448624E+03  0.12497625479E+03  0.11800196652E+04  0.50400001928E-02 0.  1.
</event>
<event>
 5   0  0.1308662E-06  0.2399642E+04  0.7818609E-02  0.8439637E-01
        2   -1    0    0  501    0  0.00000000000E+00  0.00000000000E+00  0.16622076028E+04  0.16622076028E+04  0.25500000920E-02 0. -1.
       -2   -1    0    0    0  501  0.00000000000E+00  0.00000000000E+00 -0.86605961306E+03  0.86605961306E+03  0.25500000920E-02 0.  1.
    10030    2    1    2    0    0  0.00000000000E+00  0.00000000000E+00  0.79614798971E+03  0.25282672158E+04  0.23996423678E+04 0.  0.
        3    1    3    3  502    0  0.36332913565E+03  0.61590223288E+03  0.14131617922E+04  0.15837834077E+04  0.10100000352E+00 0. -1.
       -3    1    3    3    0  502 -0.36332913565E+03 -0.61590223288E+03 -0.61701380247E+03  0.94448380818E+03  0.10100000352E+00 0.  1.
</event>
<event>
 5   0  0.5690124E-07  0.2398466E+04  0.7818609E-02  0.8440078E-01
       -1   -1    0    0    0  501  0.00000000000E+00  0.00000000000E+00  0.79113468193E+03  0.79113468195E+03  0.50400001928E-02 0.  1.
        1   -1    0    0  501    0  0.00000000000E+00  0.00000000000E+00 -0.18178447055E+04  0.18178447055E+04  0.50400001928E-02 0. -1.
    10030    2    1    2    0    0  0.00000000000E+00  0.00000000000E+00 -0.10267100236E+04  0.26089793875E+04  0.23984661706E+04 0.  0.
        2    1    3    3  502    0  0.62437868168E+03 -0.99612041608E+02 -0.16218073567E+04  0.17406982505E+04  0.25500000920E-02 0. -1.
       -2    1    3    3    0  502 -0.62437868168E+03  0.99612041608E+02  0.59509733312E+03  0.86828113699E+03  0.25500000920E-02 0.  1.
</event>
<event>
 5   0  0.1308662E-06  0.2398713E+04  0.7818609E-02  0.8439986E-01
        2   -1    0    0  501    0  0.00000000000E+00  0.00000000000E+00  0.22055764525E+04  0.22055764525E+04  0.25500000920E-02 0.  1.
       -2   -1    0    0    0  501  0.00000000000E+00  0.00000000000E+00 -0.65219036284E+03  0.65219036284E+03  0.25500000920E-02 0. -1.
    10030    2    1    2    0    0  0.00000000000E+00  0.00000000000E+00  0.15533860896E+04  0.28577668153E+04  0.23987127438E+04 0.  0.
        3    1    3    3  502    0  0.88790417658E+03  0.37646836388E+03 -0.72744455803E+02  0.96715770267E+03  0.10100000352E+00 0. -1.
       -3    1    3    3    0  502 -0.88790417658E+03 -0.37646836388E+03  0.16261305454E+04  0.18906091126E+04  0.10100000352E+00 0.  1.
</event>
<event>
 5   0  0.5363690E-07  0.2397642E+04  0.7818609E-02  0.8440387E-01
        1   -1    0    0  501    0  0.00000000000E+00  0.00000000000E+00  0.21721902250E+04  0.21721902250E+04  0.50400001928E-02 0.  1.
       -1   -1    0    0    0  501  0.00000000000E+00  0.00000000000E+00 -0.66162312684E+03  0.66162312686E+03  0.50400001928E-02 0. -1.
    10030    2    1    2    0    0  0.00000000000E+00  0.00000000000E+00  0.15105670981E+04  0.28338133518E+04  0.23976415819E+04 0.  0.
        4    1    3    3  502    0  0.85567183504E+03 -0.56657283639E+02 -0.23483939794E+03  0.88912062893E+03  0.12699999809E+01 0. -1.
       -4    1    3    3    0  502 -0.85567183504E+03  0.56657283639E+02  0.17454064961E+04  0.19446927229E+04  0.12699999809E+01 0.  1.
</event>
<event>
 5   0  0.5690124E-07  0.2400171E+04  0.7818609E-02  0.8439440E-01
       -1   -1    0    0    0  501  0.00000000000E+00  0.00000000000E+00  0.10392200852E+04  0.10392200852E+04  0.50400001928E-02 0. -1.
        1   -1    0    0  501    0  0.00000000000E+00  0.00000000000E+00 -0.13858518989E+04  0.13858518989E+04  0.50400001928E-02 0.  1.
    10030    2    1    2    0    0  0.00000000000E+00  0.00000000000E+00 -0.34663181371E+03  0.24250719841E+04  0.24001709343E+04 0.  0.
        2    1    3    3  502    0 -0.45728246797E+03  0.44719351489E+03 -0.11992895169E+04  0.13591852856E+04  0.25500000920E-02 0.  1.
       -2    1    3    3    0  502  0.45728246797E+03 -0.44719351489E+03  0.85265770316E+03  0.10658866985E+04  0.25500000920E-02 0. -1.
</event>
<event>
 5   0  0.5527286E-07  0.2399542E+04  0.7818609E-02  0.8439675E-01
        1   -1    0    0  501    0  0.00000000000E+00  0.00000000000E+00  0.18822645325E+04  0.18822645325E+04  0.50400001928E-02 0. -1.
       -1   -1    0    0    0  501  0.00000000000E+00  0.00000000000E+00 -0.76474401534E+03  0.76474401536E+03  0.50400001928E-02 0.  1.
    10030    2    1    2    0    0  0.00000000000E+00  0.00000000000E+00  0.11175205171E+04  0.26470085478E+04  0.23995420701E+04 0.  0.
        1    1    3    3  502    0 -0.56570226877E+03  0.29675518571E+03  0.16790587923E+04  0.17964746381E+04  0.50400001928E-02 0. -1.
       -1    1    3    3    0  502  0.56570226877E+03 -0.29675518571E+03 -0.56153827519E+03  0.85053390977E+03  0.50400001928E-02 0.  1.
</event>
<event>
 5   0  0.1275948E-06  0.2399382E+04  0.7818609E-02  0.8439735E-01
        2   -1    0    0  501    0  0.00000000000E+00  0.00000000000E+00  0.91780058507E+03  0.91780058507E+03  0.25500000920E-02 0.  1.
       -2   -1    0    0    0  501  0.00000000000E+00  0.00000000000E+00 -0.15681605197E+04  0.15681605197E+04  0.25500000920E-02 0. -1.
    10030    2    1    2    0    0  0.00000000000E+00  0.00000000000E+00 -0.65035993462E+03  0.24859611048E+04  0.23993821225E+04 0.  0.
        1    1    3    3  502    0  0.48795452525E+03 -0.10557155369E+04 -0.20240703137E+02  0.11632044531E+04  0.50400001928E-02 0.  1.
       -1    1    3    3    0  502 -0.48795452525E+03  0.10557155369E+04 -0.63011923149E+03  0.13227566517E+04  0.50400001928E-02 0. -1.
</event>
<event>
 5   0  0.5527286E-07  0.2399033E+04  0.7818609E-02  0.8439866E-01
       -1   -1    0    0    0  501  0.00000000000E+00  0.00000000000E+00  0.62331810764E+03  0.62331810766E+03  0.50400001928E-02 0. -1.
        1   -1    0    0  501    0  0.00000000000E+00  0.00000000000E+00 -0.23083551380E+04  0.23083551380E+04  0.50400001928E-02 0.  1.
    10030    2    1    2    0    0  0.00000000000E+00  0.00000000000E+00 -0.16850370304E+04  0.29316732457E+04  0.23990327688E+04 0.  0.
        1    1    3    3  502    0  0.69915456822E+03 -0.55583123187E+02  0.34663794852E+03  0.78234548712E+03  0.50400001928E-02 0. -1.
       -1    1    3    3    0  502 -0.69915456822E+03  0.55583123187E+02 -0.20316749789E+04  0.21493277586E+04  0.50400001928E-02 0.  1.
</event>
<event>
 5   0  0.5363690E-07  0.2400976E+04  0.7818609E-02  0.8439138E-01
       -1   -1    0    0    0  501  0.00000000000E+00  0.00000000000E+00  0.54489686808E+03  0.54489686810E+03  0.50400001928E-02 0. -1.
        1   -1    0    0  501    0  0.00000000000E+00  0.00000000000E+00 -0.26448509434E+04  0.26448509434E+04  0.50400001928E-02 0.  1.
    10030    2    1    2    0    0  0.00000000000E+00  0.00000000000E+00 -0.20999540753E+04  0.31897478115E+04  0.24009756314E+04 0.  0.
        4    1    3    3  502    0  0.87028706815E+03 -0.59245032668E+02  0.45759158790E+02  0.87350161328E+03  0.12699999809E+01 0. -1.
       -4    1    3    3    0  502 -0.87028706815E+03  0.59245032668E+02 -0.21457132341E+04  0.23162461982E+04  0.12699999809E+01 0.  1.
</event>
<event>
 5   0  0.1336057E-06  0.2399031E+04  0.7818609E-02  0.8439866E-01
       -2   -1    0    0    0  501  0.00000000000E+00  0.00000000000E+00  0.80761520975E+03  0.80761520975E+03  0.25500000920E-02 0.  1.
        2   -1    0    0  501    0  0.00000000000E+00  0.00000000000E+00 -0.17815883368E+04  0.17815883368E+04  0.25500000920E-02 0. -1.
    10030    2    1    2    0    0  0.00000000000E+00  0.00000000000E+00 -0.97397312709E+03  0.25892035466E+04  0.23990313365E+04 0.  0.
        2    1    3    3  502    0 -0.74177145871E+03  0.94203397727E+03 -0.44983508670E+03  0.12806266109E+04  0.25500000920E-02 0.  1.
       -2    1    3    3    0  502  0.74177145871E+03 -0.94203397727E+03 -0.52413804039E+03  0.13085769357E+04  0.25500000920E-02 0. -1.
</event>
<event>
 5   0  0.1336057E-06  0.2400267E+04  0.7818609E-02  0.8439404E-01
       -2   -1    0    0    0  501  0.00000000000E+00  0.00000000000E+00  0.15914225031E+04  0.15914225031E+04  0.25500000920E-02 0. -1.
        2   -1    0    0  501    0  0.00000000000E+00  0.00000000000E+00 -0.90505230871E+03  0.90505230871E+03  0.25500000920E-02 0.  1.
    10030    2    1    2    0    0  0.00000000000E+00  0.00000000000E+00  0.68637019444E+03  0.24964748119E+04  0.24002671606E+04 0.  0.
        2    1    3    3  502    0 -0.30911794002E+02  0.10369827929E+03 -0.89996827500E+03  0.90645009137E+03  0.25500000920E-02 0.  1.
       -2    1    3    3    0  502  0.30911794002E+02 -0.10369827929E+03  0.15863384694E+04  0.15900247205E+04  0.25500000920E-02 0. -1.
</event>
<event>
 5   0  0.4483375E-07  0.2402244E+04  0.7818609E-02  0.8438664E-01
        4   -1    0    0  501    0  0.00000000000E+00  0.00000000000E+00  0.13515216176E+04  0.13515222143E+04  0.12699999809E+01 0.  1.
       -4   -1    0    0    0  501  0.00000000000E+00  0.00000000000E+00 -0.10674583021E+04  0.10674590575E+04  0.12699999809E+01 0. -1.
    10030    2    1    2    0    0  0.00000000000E+00  0.00000000000E+00  0.28406331554E+03  0.24189812718E+04  0.24022444560E+04 0.  0.
        2    1    3    3  502    0 -0.92135437718E+03 -0.76205346680E+03  0.26888003864E+02  0.11959692050E+04  0.25500000920E-02 0.  1.
       -2    1    3    3    0  502  0.92135437718E+03  0.76205346680E+03  0.25717531168E+03  0.12230120668E+04  0.25500000920E-02 0. -1.
</event>
<event>
 5   0  0.1275948E-06  0.2398963E+04  0.7818609E-02  0.8439892E-01
       -2   -1    0    0    0  501  0.00000000000E+00  0.00000000000E+00  0.93914488862E+03  0.93914488863E+03  0.25500000920E-02 0. -1.
        2   -1    0    0  501    0  0.00000000000E+00  0.00000000000E+00 -0.15319854583E+04  0.15319854583E+04  0.25500000920E-02 0.  1.
    10030    2    1    2    0    0  0.00000000000E+00  0.00000000000E+00 -0.59284056968E+03  0.24711303469E+04  0.23989633700E+04 0.  0.
        1    1    3    3  502    0  0.18468577049E+03 -0.42622274408E+03 -0.14355731531E+04  0.15088555065E+04  0.50400001928E-02 0.  1.
       -1    1    3    3    0  502 -0.18468577049E+03  0.42622274408E+03  0.84273258344E+03  0.96227484047E+03  0.50400001928E-02 0. -1.
</event>
<event>
 5   0  0.5510176E-07  0.2400439E+04  0.7818609E-02  0.8439339E-01
       -1   -1    0    0    0  501  0.00000000000E+00  0.00000000000E+00  0.82908157914E+03  0.82908157916E+03  0.50400001928E-02 0. -1.
        1   -1    0    0  501    0  0.00000000000E+00  0.00000000000E+00 -0.17374964398E+04  0.17374964398E+04  0.50400001928E-02 0.  1.
    10030    2    1    2    0    0  0.00000000000E+00  0.00000000000E+00 -0.90841486063E+03  0.25665780189E+04  0.24004385367E+04 0.  0.
        3    1    3    3  502    0  0.10460589666E+04 -0.12886356746E+03  0.15971133207E+03  0.10659985461E+04  0.10100000352E+00 0. -1.
       -3    1    3    3    0  502 -0.10460589666E+04  0.12886356746E+03 -0.10681261927E+04  0.15005794728E+04  0.10100000352E+00 0.  1.
</event>
<event>
 5   0  0.1291468E-06  0.2399232E+04  0.7818609E-02  0.8439791E-01
        2   -1    0    0  501    0  0.00000000000E+00  0.00000000000E+00  0.19345866392E+04  0.19345866392E+04  0.25500000920E-02 0.  1.
       -2   -1    0    0    0  501  0.00000000000E+00  0.00000000000E+00 -0.74386902644E+03  0.74386902644E+03  0.25500000920E-02 0. -1.
    10030    2    1    2    0    0  0.00000000000E+00  0.00000000000E+00  0.11907176128E+04  0.26784556657E+04  0.23992324438E+04 0.  0.
        4    1    3    3  502    0  0.88434346342E+02 -0.13654089307E+03 -0.73149721678E+03  0.74936896129E+03  0.12699999809E+01 0. -1.
       -4    1    3    3    0  502 -0.88434346342E+02  0.13654089307E+03  0.19222148295E+04  0.19290867044E+04  0.12699999809E+01 0.  1.
</event>
<event>
 5   0  0.1307477E-06  0.2400240E+04  0.7818609E-02  0.8439414E-01
       -2   -1    0    0    0  501  0.00000000000E+00  0.00000000000E+00  0.60225095701E+03  0.60225095702E+03  0.25500000920E-02 0. -1.
        2   -1    0    0  501    0  0.00000000000E+00  0.00000000000E+00 -0.23915078299E+04  0.23915078299E+04  0.25500000920E-02 0.  1.
    10030    2    1    2    0    0  0.00000000000E+00  0.00000000000E+00 -0.17892568729E+04  0.29937587869E+04  0.24002398874E+04 0.  0.
        5    1    3    3  502    0 -0.51860840485E+02 -0.49982509456E+03  0.46470149753E+03  0.68445908842E+03  0.46999998093E+01 0. -1.
       -5    1    3    3    0  502  0.51860840485E+02  0.49982509456E+03 -0.22539583704E+04  0.23092996985E+04  0.46999998093E+01 0.  1.
</event>
<event>
 5   0  0.1308662E-06  0.2400319E+04  0.7818609E-02  0.8439384E-01
        2   -1    0    0  501    0  0.00000000000E+00  0.00000000000E+00  0.96471362099E+03  0.96471362100E+03  0.25500000920E-02 0.  1.
       -2   -1    0    0    0  501  0.00000000000E+00  0.00000000000E+00 -0.14930676236E+04  0.14930676236E+04  0.25500000920E-02 0. -1.
    10030    2    1    2    0    0  0.00000000000E+00  0.00000000000E+00 -0.52835400263E+03  0.24577812446E+04  0.24003188735E+04 0.  0.
        3    1    3    3  502    0 -0.82174834532E+03  0.82570196545E+03  0.31400442066E+02  0.11653497658E+04  0.10100000352E+00 0. -1.
       -3    1    3    3    0  502  0.82174834532E+03 -0.82570196545E+03 -0.55975444470E+03  0.12924314788E+04  0.10100000352E+00 0.  1.
</event>
<event>
 5   0  0.5527286E-07  0.2399645E+04  0.7818609E-02  0.8439637E-01
        1   -1    0    0  501    0  0.00000000000E+00  0.00000000000E+00  0.14569265241E+04  0.14569265242E+04  0.50400001928E-02 0.  1.
       -1   -1    0    0    0  501  0.00000000000E+00  0.00000000000E+00 -0.98808944470E+03  0.98808944472E+03  0.50400001928E-02 0. -1.
    10030    2    1    2    0    0  0.00000000000E+00  0.00000000000E+00  0.46883707944E+03  0.24450159689E+04  0.23996447406E+04 0.  0.
        1    1    3    3  502    0 -0.91616785659E+03 -0.68007410060E+03 -0.14369004406E+03  0.11500048489E+04  0.50400001928E-02 0. -1.
       -1    1    3    3    0  502  0.91616785659E+03  0.68007410060E+03  0.61252712350E+03  0.12950111200E+04  0.50400001928E-02 0.  1.
</event>
<event>
 5   0  0.5690124E-07  0.2399925E+04  0.7818609E-02  0.8439532E-01
        1   -1    0    0  501    0  0.00000000000E+00  0.00000000000E+00  0.18974457822E+04  0.18974457822E+04  0.50400001928E-02 0. -1.
       -1   -1    0    0    0  501  0.00000000000E+00  0.00000000000E+00 -0.75886758620E+03  0.75886758622E+03  0.50400001928E-02 0.  1.
    10030    2    1    2    0    0  0.00000000000E+00  0.00000000000E+00  0.11385781960E+04  0.26563133684E+04  0.23999250828E+04 0.  0.
        2    1    3    3  502    0  0.11616061691E+04  0.88598220712E+02  0.25093001862E+03  0.11916981208E+04  0.25500000920E-02 0.  1.
       -2    1    3    3    0  502 -0.11616061691E+04 -0.88598220712E+02  0.88764817741E+03  0.14646152477E+04  0.25500000920E-02 0. -1.
</event>
<event>
 5   0  0.5690124E-07  0.2399726E+04  0.7818609E-02  0.8439606E-01
       -1   -1    0    0    0  501  0.00000000000E+00  0.00000000000E+00  0.69771989725E+03  0.69771989727E+03  0.50400001928E-02 0.  1.
        1   -1    0    0  501    0  0.00000000000E+00  0.00000000000E+00 -0.20633947762E+04  0.20633947762E+04  0.50400001928E-02 0. -1.
    10030    2    1    2    0    0  0.00000000000E+00  0.00000000000E+00 -0.13656748790E+04  0.27611146735E+04  0.23997263105E+04 0.  0.
        2    1    3    3  502    0 -0.77253722366E+03  0.16894787188E+02 -0.17389892409E+04  0.19029405603E+04  0.25500000920E-02 0. -1.
       -2    1    3    3    0  502  0.77253722366E+03 -0.16894787188E+02  0.37331436197E+03  0.85817411323E+03  0.25500000920E-02 0.  1.
</event>
<event>
 5   0  0.1336057E-06  0.2397196E+04  0.7818609E-02  0.8440554E-01
       -2   -1    0    0    0  501  0.00000000000E+00  0.00000000000E+00  0.84425084643E+03  0.84425084643E+03  0.25500000920E-02 0.  1.
        2   -1    0    0  501    0  0.00000000000E+00  0.00000000000E+00 -0.17016706501E+04  0.17016706501E+04  0.25500000920E-02 0. -1.
    10030    2    1    2    0    0  0.00000000000E+00  0.00000000000E+00 -0.85741980365E+03  0.25459214965E+04  0.23971957673E+04 0.  0.
        2    1    3    3  502    0  0.33576546320E+03 -0.30851257861E+03 -0.16059571717E+04  0.16694361008E+04  0.25500000920E-02 0. -1.
       -2    1    3    3    0  502 -0.33576546320E+03  0.30851257861E+03  0.74853736806E+03  0.87648539567E+03  0.25500000920E-02 0.  1.
</event>
<event>
 5   0  0.1291468E-06  0.2401559E+04  0.7818609E-02  0.8438920E-01
        2   -1    0    0  501    0  0.00000000000E+00  0.00000000000E+00  0.16863847569E+04  0.16863847569E+04  0.25500000920E-02 0. -1.
       -2   -1    0    0    0  501  0.00000000000E+00  0.00000000000E+00 -0.85500724136E+03  0.85500724137E+03  0.25500000920E-02 0.  1.
    10030    2    1    2    0    0  0.00000000000E+00  0.00000000000E+00  0.83137751551E+03  0.25413919982E+04  0.24015588095E+04 0.  0.
        4    1    3    3  502    0  0.14058612102E+03  0.11499483363E+03 -0.84038642196E+03  0.85979021877E+03  0.12699999809E+01 0.  1.
       -4    1    3    3    0  502 -0.14058612102E+03 -0.11499483363E+03  0.16717639375E+04  0.16816017795E+04  0.12699999809E+01 0. -1.
</event>
<event>
 5   0  0.1307477E-06  0.2400226E+04  0.7818609E-02  0.8439419E-01
       -2   -1    0    0    0  501  0.00000000000E+00  0.00000000000E+00  0.11015490955E+04  0.11015490955E+04  0.25500000920E-02 0. -1.
        2   -1    0    0  501    0  0.00000000000E+00  0.00000000000E+00 -0.13074958547E+04  0.13074958547E+04  0.25500000920E-02 0.  1.
    10030    2    1    2    0    0  0.00000000000E+00  0.00000000000E+00 -0.20594675914E+03  0.24090449502E+04  0.24002257195E+04 0.  0.
        5    1    3    3  502    0 -0.83409289276E+02 -0.11843802257E+04  0.72411803635E+02  0.11895289773E+04  0.46999998093E+01 0. -1.
       -5    1    3    3    0  502  0.83409289276E+02  0.11843802257E+04 -0.27835856278E+03  0.12195159729E+04  0.46999998093E+01 0.  1.
</event>
<event>
 5   0  0.5527286E-07  0.2399252E+04  0.7818609E-02  0.8439784E-01
       -1   -1    0    0    0  501  0.00000000000E+00  0.00000000000E+00  0.80888528534E+03  0.80888528536E+03  0.50400001928E-02 0. -1.
        1   -1    0    0  501    0  0.00000000000E+00  0.00000000000E+00 -0.17791177197E+04  0.17791177197E+04  0.50400001928E-02 0.  1.
    10030    2    1    2    0    0  0.00000000000E+00  0.00000000000E+00 -0.97023243433E+03  0.25880030050E+04  0.23992516703E+04 0.  0.
        1    1    3    3  502    0  0.10434420581E+04 -0.17814073701E+03  0.12373279061E+03  0.10657463367E+04  0.50400001928E-02 0. -1.
       -1    1    3    3    0  502 -0.10434420581E+04  0.17814073701E+03 -0.10939652249E+04  0.15222566683E+04  0.50400001928E-02 0.  1.
</event>
<event>
 5   0  0.5363690E-07  0.2392436E+04  0.7818609E-02  0.8442341E-01
        1   -1    0    0  501    0  0.00000000000E+00  0.00000000000E+00  0.11326201712E+04  0.11326201712E+04  0.50400001928E-02 0. -1.
       -1   -1    0    0    0  501  0.00000000000E+00  0.00000000000E+00 -0.12633865448E+04  0.12633865448E+04  0.50400001928E-02 0.  1.
    10030    2    1    2    0    0  0.00000000000E+00  0.00000000000E+00 -0.13076637364E+03  0.23960067160E+04  0.23924356499E+04 0.  0.
        4    1    3    3  502    0  0.83056533009E+02  0.33497720571E+03 -0.12124431127E+04  0.12606062155E+04  0.12699999809E+01 0.  1.
       -4    1    3    3    0  502 -0.83056533009E+02 -0.33497720571E+03  0.10816767391E+04  0.11354005006E+04  0.12699999809E+01 0. -1.
</event>
<event>
 5   0  0.1336057E-06  0.2398106E+04  0.7818609E-02  0.8440213E-01
       -2   -1    0    0    0  501  0.00000000000E+00  0.00000000000E+00  0.11998549322E+04  0.11998549322E+04  0.25500000920E-02 0.  1.
        2   -1    0    0  501    0  0.00000000000E+00  0.00000000000E+00 -0.11982519083E+04  0.11982519083E+04  0.25500000920E-02 0. -1.
    10030    2    1    2    0    0  0.00000000000E+00  0.00000000000E+00  0.16030238890E+01  0.23981068406E+04  0.23981063048E+04 0.  0.
        2    1    3    3  502    0 -0.78965187508E+02 -0.64620955274E+03 -0.10061277946E+04  0.11983803345E+04  0.25500000920E-02 0. -1.
       -2    1    3    3    0  502  0.78965187508E+02  0.64620955274E+03  0.10077308185E+04  0.11997265061E+04  0.25500000920E-02 0.  1.
</event>
<event>
 5   0  0.1275948E-06  0.2399895E+04  0.7818609E-02  0.8439543E-01
       -2   -1    0    0    0  501  0.00000000000E+00  0.00000000000E+00  0.76364741456E+03  0.76364741456E+03  0.25500000920E-02 0. -1.
        2   -1    0    0  501    0  0.00000000000E+00  0.00000000000E+00 -0.18855223194E+04  0.18855223194E+04  0.25500000920E-02 0.  1.
    10030    2    1    2    0    0  0.00000000000E+00  0.00000000000E+00 -0.11218749049E+04  0.26491697340E+04  0.23998952013E+04 0.  0.
        1    1    3    3  502    0  0.65487664405E+03  0.42034920332E+03 -0.15692220912E+04  0.17515749608E+04  0.50400001928E-02 0.  1.
       -1    1    3    3    0  502 -0.65487664405E+03 -0.42034920332E+03  0.44734718638E+03  0.89759477318E+03  0.50400001928E-02 0. -1.
</event>
<event>
 5   0  0.1275948E-06  0.2405079E+04  0.7818609E-02  0.8437605E-01
       -2   -1    0    0    0  501  0.00000000000E+00  0.00000000000E+00  0.65842791722E+03  0.65842791723E+03  0.25500000920E-02 0.  1.
        2   -1    0    0  501    0  0.00000000000E+00  0.00000000000E+00 -0.21962935067E+04  0.21962935067E+04  0.25500000920E-02 0. -1.
    10030    2    1    2    0    0  0.00000000000E+00  0.00000000000E+00 -0.15378655895E+04  0.28547214239E+04  0.24050787590E+04 0.  0.
        1    1    3    3  502    0 -0.11420097422E+04 -0.14004914703E+02 -0.32209714725E+03  0.11866460977E+04  0.50400001928E-02 0.  1.
       -1    1    3    3    0  502  0.11420097422E+04  0.14004914703E+02 -0.12157684422E+04  0.16680753262E+04  0.50400001928E-02 0. -1.
</event>
<event>
 5   0  0.5690124E-07  0.2399194E+04  0.7818609E-02  0.8439805E-01
        1   -1    0    0  501    0  0.00000000000E+00  0.00000000000E+00  0.82238672858E+03  0.82238672860E+03  0.50400001928E-02 0.  1.
       -1   -1    0    0    0  501  0.00000000000E+00  0.00000000000E+00 -0.17498247562E+04  0.17498247562E+04  0.50400001928E-02 0. -1.
    10030    2    1    2    0    0  0.00000000000E+00  0.00000000000E+00 -0.92743802764E+03  0.25722114848E+04  0.23991937453E+04 0.  0.
        2    1    3    3  502    0  0.86736962288E+03 -0.38033574633E+03 -0.12530514522E+04  0.15707078928E+04  0.25500000920E-02 0. -1.
       -2    1    3    3    0  502 -0.86736962288E+03  0.38033574633E+03  0.32561342454E+03  0.10015035920E+04  0.25500000920E-02 0.  1.
</event>
<event>
 5   0  0.1307477E-06  0.2400325E+04  0.7818609E-02  0.8439382E-01
        2   -1    0    0  501    0  0.00000000000E+00  0.00000000000E+00  0.18585386533E+04  0.18585386533E+04  0.25500000920E-02 0. -1.
       -2   -1    0    0    0  501  0.00000000000E+00  0.00000000000E+00 -0.77501224554E+03  0.77501224555E+03  0.25500000920E-02 0.  1.
    10030    2    1    2    0    0  0.00000000000E+00  0.00000000000E+00  0.10835264078E+04  0.26335508989E+04  0.24003251573E+04 0.  0.
        5    1    3    3  502    0 -0.73629237386E+03  0.10945606799E+03 -0.49112297766E+03  0.89181329874E+03  0.46999998093E+01 0.  1.
       -5    1    3    3    0  502  0.73629237386E+03 -0.10945606799E+03  0.15746493854E+04  0.17417376001E+04  0.46999998093E+01 0. -1.
</event>
<event>
 5   0  0.5363690E-07  0.2400673E+04  0.7818609E-02  0.8439252E-01
        1   -1    0    0  501    0  0.00000000000E+00  0.00000000000E+00  0.10194709290E+04  0.10194709290E+04  0.50400001928E-02 0. -1.
       -1   -1    0    0    0  501  0.00000000000E+00  0.00000000000E+00 -0.14132896639E+04  0.14132896640E+04  0.50400001928E-02 0.  1.
    10030    2    1    2    0    0  0.00000000000E+00  0.00000000000E+00 -0.39381873499E+03  0.24327605929E+04  0.24006730111E+04 0.  0.
        4    1    3    3  502    0 -0.82906140792E+03  0.84166685995E+03  0.18201763370E+02  0.11815578015E+04  0.12699999809E+01 0. -1.
       -4    1    3    3    0  502  0.82906140792E+03 -0.84166685995E+03 -0.41202049836E+03  0.12512027914E+04  0.12699999809E+01 0.  1.
</event>
<event>
 5   0  0.5527286E-07  0.2399712E+04  0.7818609E-02  0.8439611E-01
       -1   -1    0    0    0  501  0.00000000000E+00  0.00000000000E+00  0.13598007444E+04  0.13598007444E+04  0.50400001928E-02 0. -1.
        1   -1    0    0  501    0  0.00000000000E+00  0.00000000000E+00 -0.10587244635E+04  0.10587244635E+04  0.50400001928E-02 0.  1.
    10030    2    1    2    0    0  0.00000000000E+00  0.00000000000E+00  0.30107628096E+03  0.24185252079E+04  0.23997119107E+04 0.  0.
        1    1    3    3  502    0  0.33502838895E+03  0.11317237124E+04  0.36812823778E+03  0.12363498624E+04  0.50400001928E-02 0.  1.
       -1    1    3    3    0  502 -0.33502838895E+03 -0.11317237124E+04 -0.67051956821E+02  0.11821753455E+04  0.50400001928E-02 0. -1.
</event>
<event>
 5   0  0.5527286E-07  0.2401229E+04  0.7818609E-02  0.8439044E-01
        1   -1    0    0  501    0  0.00000000000E+00  0.00000000000E+00  0.17451325615E+04  0.17451325615E+04  0.50400001928E-02 0. -1.
       -1   -1    0    0    0  501  0.00000000000E+00  0.00000000000E+00 -0.82599728226E+03  0.82599728228E+03  0.50400001928E-02 0.  1.
    10030    2    1    2    0    0  0.00000000000E+00  0.00000000000E+00  0.91913527921E+03  0.25711298438E+04  0.24012286463E+04 0.  0.
        1    1    3    3  502    0  0.80871269040E+03  0.25587588391E+02 -0.49021389401E+03  0.94603414431E+03  0.50400001928E-02 0.  1.
       -1    1    3    3    0  502 -0.80871269040E+03 -0.25587588391E+02  0.14093491732E+04  0.16250956995E+04  0.50400001928E-02 0. -1.
</event>
<event>
 5   0  0.5690124E-07  0.2400002E+04  0.7818609E-02  0.8439503E-01
       -1   -1    0    0    0  501  0.00000000000E+00  0.00000000000E+00  0.11499012634E+04  0.11499012635E+04  0.50400001928E-02 0.  1.
        1   -1    0    0  501    0  0.00000000000E+00  0.00000000000E+00 -0.12522833929E+04  0.12522833929E+04  0.50400001928E-02 0. -1.
    10030    2    1    2    0    0  0.00000000000E+00  0.00000000000E+00 -0.10238212945E+03  0.24021846564E+04  0.24000018798E+04 0.  0.
        2    1    3    3  502    0 -0.69115208079E+03 -0.49932050725E+02 -0.10317850326E+04  0.12428856592E+04  0.25500000920E-02 0. -1.
       -2    1    3    3    0  502  0.69115208079E+03  0.49932050725E+02  0.92940290311E+03  0.11592989971E+04  0.25500000920E-02 0.  1.
</event>
<event>
 5   0  0.5510176E-07  0.2400366E+04  0.7818609E-02  0.8439366E-01
       -1   -1    0    0    0  501  0.00000000000E+00  0.00000000000E+00  0.76643680511E+03  0.76643680513E+03  0.50400001928E-02 0.  1.
        1   -1    0    0  501    0  0.00000000000E+00  0.00000000000E+00 -0.18793976030E+04  0.18793976030E+04  0.50400001928E-02 0. -1.
    10030    2    1    2    0    0  0.00000000000E+00  0.00000000000E+00 -0.11129607979E+04  0.26458344082E+04  0.24003662174E+04 0.  0.
        3    1    3    3  502    0  0.10891599860E+04  0.34786807216E+03 -0.95870486300E+03  0.14921114889E+04  0.10100000352E+00 0. -1.
       -3    1    3    3    0  502 -0.10891599860E+04 -0.34786807216E+03 -0.15425593493E+03  0.11537229193E+04  0.10100000352E+00 0.  1.
</event>
<event>
 5   0  0.1308662E-06  0.2399072E+04  0.7818609E-02  0.8439851E-01
       -2   -1    0    0    0  501  0.00000000000E+00  0.00000000000E+00  0.82878288770E+03  0.82878288770E+03  0.25500000920E-02 0.  1.
        2   -1    0    0  501    0  0.00000000000E+00  0.00000000000E+00 -0.17361445107E+04  0.17361445107E+04  0.25500000920E-02 0. -1.
    10030    2    1    2    0    0  0.00000000000E+00  0.00000000000E+00 -0.90736162297E+03  0.25649273984E+04  0.23990722048E+04 0.  0.
        3    1    3    3  502    0  0.11514844470E+04  0.23130310351E+03 -0.71440309238E+03  0.13746960922E+04  0.10100000352E+00 0. -1.
       -3    1    3    3    0  502 -0.11514844470E+04 -0.23130310351E+03 -0.19295853059E+03  0.11902313061E+04  0.10100000352E+00 0.  1.
</event>
<event>
 5   0  0.5510176E-07  0.2399945E+04  0.7818609E-02  0.8439524E-01
       -1   -1    0    0    0  501  0.00000000000E+00  0.00000000000E+00  0.58249980419E+03  0.58249980421E+03  0.50400001928E-02 0. -1.
        1   -1    0    0  501    0  0.00000000000E+00  0.00000000000E+00 -0.24719895446E+04  0.24719895446E+04  0.50400001928E-02 0.  1.
    10030    2    1    2    0    0  0.00000000000E+00  0.00000000000E+00 -0.18894897405E+04  0.30544893489E+04  0.23999445208E+04 0.  0.
        3    1    3    3  502    0 -0.10746273076E+04  0.23841479234E+03 -0.33666603998E+03  0.11510905682E+04  0.10100000352E+00 0. -1.
       -3    1    3    3    0  502  0.10746273076E+04 -0.23841479234E+03 -0.15528237005E+04  0.19033987807E+04  0.10100000352E+00 0.  1.
</event>
<event>
 5   0  0.1291468E-06  0.2399802E+04  0.7818609E-02  0.8439578E-01
        2   -1    0    0  501    0  0.00000000000E+00  0.00000000000E+00  0.15041225399E+04  0.15041225399E+04  0.25500000920E-02 0.  1.
       -2   -1    0    0    0  501  0.00000000000E+00  0.00000000000E+00 -0.95721052386E+03  0.95721052386E+03  0.25500000920E-02 0. -1.
    10030    2    1    2    0    0  0.00000000000E+00  0.00000000000E+00  0.54691201605E+03  0.24613330638E+04  0.23998015954E+04 0.  0.
        4    1    3    3  502    0 -0.27034145644E+03  0.10541870679E+04 -0.24483789962E+03  0.11155008235E+04  0.12699999809E+01 0. -1.
       -4    1    3    3    0  502  0.27034145644E+03 -0.10541870679E+04  0.79174991567E+03  0.13458322403E+04  0.12699999809E+01 0.  1.
</event>
<event>
 5   0  0.1308662E-06  0.2400491E+04  0.7818609E-02  0.8439320E-01
       -2   -1    0    0    0  501  0.00000000000E+00  0.00000000000E+00  0.14976359721E+04  0.14976359721E+04  0.25500000920E-02 0.  1.
        2   -1    0    0  501    0  0.00000000000E+00  0.00000000000E+00 -0.96190910432E+03  0.96190910433E+03  0.25500000920E-02 0. -1.
    10030    2    1    2    0    0  0.00000000000E+00  0.00000000000E+00  0.53572686776E+03  0.24595450764E+04  0.24004913468E+04 0.  0.
        3    1    3    3  502    0  0.42331251194E+03 -0.58269732056E+03 -0.71589196983E+03  0.10154954322E+04  0.10100000352E+00 0. -1.
       -3    1    3    3    0  502 -0.42331251194E+03  0.58269732056E+03  0.12516188376E+04  0.14440496442E+04  0.10100000352E+00 0.  1.
</event>
<event>
 5   0  0.1336057E-06  0.2401465E+04  0.7818609E-02  0.8438955E-01
       -2   -1    0    0    0  501  0.00000000000E+00  0.00000000000E+00  0.15408104376E+04  0.15408104376E+04  0.25500000920E-02 0. -1.
        2   -1    0    0  501    0  0.00000000000E+00  0.00000000000E+00 -0.93571448654E+03  0.93571448654E+03  0.25500000920E-02 0.  1.
    10030    2    1    2    0    0  0.00000000000E+00  0.00000000000E+00  0.60509595109E+03  0.24765249242E+04  0.24014650924E+04 0.  0.
        2    1    3    3  502    0 -0.17909090028E+03 -0.66246868818E+03  0.13186465852E+04  0.14865285500E+04  0.25500000920E-02 0. -1.
       -2    1    3    3    0  502  0.17909090028E+03  0.66246868818E+03 -0.71355063410E+03  0.98999637414E+03  0.25500000920E-02 0.  1.
</event>
<event>
 5   0  0.5452384E-07  0.2397766E+04  0.7818609E-02  0.8440340E-01
       -1   -1    0    0    0  501  0.00000000000E+00  0.00000000000E+00  0.74052044203E+03  0.74052044205E+03  0.50400001928E-02 0.  1.
        1   -1    0    0  501    0  0.00000000000E+00  0.00000000000E+00 -0.19409598704E+04  0.19409598704E+04  0.50400001928E-02 0. -1.
    10030    2    1    2    0    0  0.00000000000E+00  0.00000000000E+00 -0.12004394283E+04  0.26814803124E+04  0.23977660113E+04 0.  0.
        5    1    3    3  502    0 -0.11795595153E+04 -0.15168498832E+03 -0.43087797339E+03  0.12649296043E+04  0.46999998093E+01 0.  1.
       -5    1    3    3    0  502  0.11795595153E+04  0.15168498832E+03 -0.76956145495E+03  0.14165507081E+04  0.46999998093E+01 0. -1.
</event>
<event>
 5   0  0.5527286E-07  0.2399685E+04  0.7818609E-02  0.8439622E-01
        1   -1    0    0  501    0  0.00000000000E+00  0.00000000000E+00  0.26707662653E+04  0.26707662653E+04  0.50400001928E-02 0.  1.
       -1   -1    0    0    0  501  0.00000000000E+00  0.00000000000E+00 -0.53902942831E+03  0.53902942833E+03  0.50400001928E-02 0. -1.
    10030    2    1    2    0    0  0.00000000000E+00  0.00000000000E+00  0.21317368370E+04  0.32097956936E+04  0.23996846569E+04 0.  0.
        1    1    3    3  502    0  0.50476606742E+03 -0.86210344492E+03  0.19547479409E+04  0.21952336197E+04  0.50400001928E-02 0.  1.
       -1    1    3    3    0  502 -0.50476606742E+03  0.86210344492E+03  0.17698889613E+03  0.10145620740E+04  0.50400001928E-02 0. -1.
</event>
<event>
 5   0  0.1291468E-06  0.2399779E+04  0.7818609E-02  0.8439586E-01
       -2   -1    0    0    0  501  0.00000000000E+00  0.00000000000E+00  0.71034030874E+03  0.71034030874E+03  0.25500000920E-02 0.  1.
        2   -1    0    0  501    0  0.00000000000E+00  0.00000000000E+00 -0.20268248366E+04  0.20268248366E+04  0.25500000920E-02 0. -1.
    10030    2    1    2    0    0  0.00000000000E+00  0.00000000000E+00 -0.13164845279E+04  0.27371651454E+04  0.23997794734E+04 0.  0.
        4    1    3    3  502    0 -0.37065943085E+03  0.97463564441E+03  0.18879139636E+02  0.10429099136E+04  0.12699999809E+01 0.  1.
       -4    1    3    3    0  502  0.37065943085E+03 -0.97463564441E+03 -0.13353636675E+04  0.16942552318E+04  0.12699999809E+01 0. -1.
</event>
<event>
 5   0  0.1291468E-06  0.2400357E+04  0.7818609E-02  0.8439370E-01
        2   -1    0    0  501    0  0.00000000000E+00  0.00000000000E+00  0.11180593011E+04  0.11180593011E+04  0.25500000920E-02 0.  1.
       -2   -1    0    0    0  501  0.00000000000E+00  0.00000000000E+00 -0.12883293064E+04  0.12883293064E+04  0.25500000920E-02 0. -1.
    10030    2    1    2    0    0  0.00000000000E+00  0.00000000000E+00 -0.17027000533E+03  0.24063886075E+04  0.24003571100E+04 0.  0.
        4    1    3    3  502    0 -0.47610423054E+03  0.10991317345E+04 -0.97053760920E+01  0.11978570931E+04  0.12699999809E+01 0. -1.
       -4    1    3    3    0  502  0.47610423054E+03 -0.10991317345E+04 -0.16056462923E+03  0.12085315144E+04  0.12699999809E+01 0.  1.
</event>
<event>
 5   0  0.1307477E-06  0.2398882E+04  0.7818609E-02  0.8439922E-01
        2   -1    0    0  501    0  0.00000000000E+00  0.00000000000E+00  0.12723285416E+04  0.12723285416E+04  0.25500000920E-02 0. -1.
       -2   -1    0    0    0  501  0.00000000000E+00  0.00000000000E+00 -0.11307287813E+04  0.11307287813E+04  0.25500000920E-02 0.  1.
    10030    2    1    2    0    0  0.00000000000E+00  0.00000000000E+00  0.14159976029E+03  0.24030573229E+04  0.23988818239E+04 0.  0.
        5    1    3    3  502    0  0.89615971939E+03  0.66492731157E+03 -0.36974490783E+03  0.11755696318E+04  0.46999998093E+01 0. -1.
       -5    1    3    3    0  502 -0.89615971939E+03 -0.66492731157E+03  0.51134466811E+03  0.12274876912E+04  0.46999998093E+01 0.  1.
</event>
<event>
 5   0  0.1308662E-06  0.2400079E+04  0.7818609E-02  0.8439474E-01
       -2   -1    0    0    0  501  0.00000000000E+00  0.00000000000E+00  0.10630890042E+04  0.10630890043E+04  0.25500000920E-02 0.  1.
        2   -1    0    0  501    0  0.00000000000E+00  0.00000000000E+00 -0.13546318618E+04  0.13546318618E+04  0.25500000920E-02 0. -1.
    10030    2    1    2    0    0  0.00000000000E+00  0.00000000000E+00 -0.29154285752E+03  0.24177208660E+04  0.24000785296E+04 0.  0.
        3    1    3    3  502    0 -0.38163107345E+03  0.14386596326E+03 -0.12826748632E+04  0.13459548680E+04  0.10100000352E+00 0. -1.
       -3    1    3    3    0  502  0.38163107345E+03 -0.14386596326E+03  0.99113200573E+03  0.10717659981E+04  0.10100000352E+00 0.  1.
</event>
<event>
 5   0  0.1291468E-06  0.2399247E+04  0.7818609E-02  0.8439785E-01
       -2   -1    0    0    0  501  0.00000000000E+00  0.00000000000E+00  0.90585169185E+03  0.90585169185E+03  0.25500000920E-02 0. -1.
        2   -1    0    0  501    0  0.00000000000E+00  0.00000000000E+00 -0.15886671133E+04  0.15886671133E+04  0.25500000920E-02 0.  1.
    10030    2    1    2    0    0  0.00000000000E+00  0.00000000000E+00 -0.68281542145E+03  0.24945188052E+04  0.23992472089E+04 0.  0.
        4    1    3    3  502    0 -0.11173590208E+03 -0.25033793548E+03  0.87284646540E+03  0.91488609062E+03  0.12699999809E+01 0. -1.
       -4    1    3    3    0  502  0.11173590208E+03  0.25033793548E+03 -0.15556618868E+04  0.15796327145E+04  0.12699999809E+01 0.  1.
</event>
<event>
 5   0  0.5452384E-07  0.2398461E+04  0.7818609E-02  0.8440080E-01
        1   -1    0    0  501    0  0.00000000000E+00  0.00000000000E+00  0.11463114836E+04  0.11463114836E+04  0.50400001928E-02 0. -1.
       -1   -1    0    0    0  501  0.00000000000E+00  0.00000000000E+00 -0.12545927856E+04  0.12545927856E+04  0.50400001928E-02 0.  1.
    10030    2    1    2    0    0  0.00000000000E+00  0.00000000000E+00 -0.10828130202E+03  0.24009042692E+04  0.23984612712E+04 0.  0.
        5    1    3    3  502    0 -0.62092451938E+03  0.36807917311E+03  0.90448946876E+03  0.11572177088E+04  0.46999998093E+01 0. -1.
       -5    1    3    3    0  502  0.62092451938E+03 -0.36807917311E+03 -0.10127707708E+04  0.12436865604E+04  0.46999998093E+01 0.  1.
</event>
<event>
 5   0  0.5690124E-07  0.2399326E+04  0.7818609E-02  0.8439756E-01
        1   -1    0    0  501    0  0.00000000000E+00  0.00000000000E+00  0.16686008271E+04  0.16686008271E+04  0.50400001928E-02 0.  1.
       -1   -1    0    0    0  501  0.00000000000E+00  0.00000000000E+00 -0.86251362303E+03  0.86251362305E+03  0.50400001928E-02 0. -1.
    10030    2    1    2    0    0  0.00000000000E+00  0.00000000000E+00  0.80608720404E+03  0.25311144501E+04  0.23993256926E+04 0.  0.
        2    1    3    3  502    0  0.11503022171E+04 -0.16086209825E+03  0.86355974381E+02  0.11647013178E+04  0.25500000920E-02 0.  1.
       -2    1    3    3    0  502 -0.11503022171E+04  0.16086209825E+03  0.71973122966E+03  0.13664131324E+04  0.25500000920E-02 0. -1.
</event>
<event>
 5   0  0.1291468E-06  0.2401778E+04  0.7818609E-02  0.8438838E-01
        2   -1    0    0  501    0  0.00000000000E+00  0.00000000000E+00  0.10739127198E+04  0.10739127198E+04  0.25500000920E-02 0. -1.
       -2   -1    0    0    0  501  0.00000000000E+00  0.00000000000E+00 -0.13428783179E+04  0.13428783179E+04  0.25500000920E-02 0.  1.
    10030    2    1    2    0    0  0.00000000000E+00  0.00000000000E+00 -0.26896559815E+03  0.24167910377E+04  0.24017777638E+04 0.  0.
        4    1    3    3  502    0  0.40272491316E+03  0.66609257899E+03  0.78570920218E+03  0.11059869994E+04  0.12699999809E+01 0. -1.
       -4    1    3    3    0  502 -0.40272491316E+03 -0.66609257899E+03 -0.10546748003E+04  0.13108040383E+04  0.12699999809E+01 0.  1.
</event>
<event>
 5   0  0.1308662E-06  0.2399820E+04  0.7818609E-02  0.8439571E-01
       -2   -1    0    0    0  501  0.00000000000E+00  0.00000000000E+00  0.10452748851E+04  0.10452748851E+04  0.25500000920E-02 0. -1.
        2   -1    0    0  501    0  0.00000000000E+00  0.00000000000E+00 -0.13774216143E+04  0.13774216143E+04  0.25500000920E-02 0.  1.
    10030    2    1    2    0    0  0.00000000000E+00  0.00000000000E+00 -0.33214672918E+03  0.24226964994E+04  0.23998201763E+04 0.  0.
        3    1    3    3  502    0 -0.92002472218E+03 -0.20324442664E+03  0.58399667388E+03  0.11085151833E+04  0.10100000352E+00 0. -1.
       -3    1    3    3    0  502  0.92002472218E+03  0.20324442664E+03 -0.91614340307E+03  0.13141813161E+04  0.10100000352E+00 0.  1.
</event>
<event>
 5   0  0.4483375E-07  0.2399265E+04  0.7818609E-02  0.8439779E-01
       -3   -1    0    0    0  501  0.00000000000E+00  0.00000000000E+00  0.11074253814E+04  0.11074253860E+04  0.10100000352E+00 0. -1.
        3   -1    0    0  501    0  0.00000000000E+00  0.00000000000E+00 -0.12995166203E+04  0.12995166242E+04  0.10100000352E+00 0.  1.
    10030    2    1    2    0    0  0.00000000000E+00  0.00000000000E+00 -0.19209123888E+03  0.24069420103E+04  0.23992646367E+04 0.  0.
        4    1    3    3  502    0 -0.73995994087E+01  0.11995059385E+04 -0.11180689592E+03  0.12047288681E+04  0.12699999809E+01 0.  1.
       -4    1    3    3    0  502  0.73995994087E+01 -0.11995059385E+04 -0.80284342965E+02  0.12022131422E+04  0.12699999809E+01 0. -1.
</event>
<event>
 5   0  0.1336057E-06  0.2399979E+04  0.7818609E-02  0.8439511E-01
       -2   -1    0    0    0  501  0.00000000000E+00  0.00000000000E+00  0.60748146428E+03  0.60748146428E+03  0.25500000920E-02 0. -1.
        2   -1    0    0  501    0  0.00000000000E+00  0.00000000000E+00 -0.23704008320E+04  0.23704008320E+04  0.25500000920E-02 0.  1.
    10030    2    1    2    0    0  0.00000000000E+00  0.00000000000E+00 -0.17629193678E+04  0.29778822963E+04  0.23999788069E+04 0.  0.
        2    1    3    3  502    0 -0.21933922401E+03  0.88253193265E+03 -0.18529336336E+04  0.20640579831E+04  0.25500000920E-02 0.  1.
       -2    1    3    3    0  502  0.21933922401E+03 -0.88253193265E+03  0.90014265796E+02  0.91382431319E+03  0.25500000920E-02 0. -1.
</event>
<event>
 5   0  0.1291468E-06  0.2400449E+04  0.7818609E-02  0.8439335E-01
       -2   -1    0    0    0  501  0.00000000000E+00  0.00000000000E+00  0.20301598917E+04  0.20301598917E+04  0.25500000920E-02 0.  1.
        2   -1    0    0  501    0  0.00000000000E+00  0.00000000000E+00 -0.70956938472E+03  0.70956938472E+03  0.25500000920E-02 0. -1.
    10030    2    1    2    0    0  0.00000000000E+00  0.00000000000E+00  0.13205905070E+04  0.27397292764E+04  0.24004493790E+04 0.  0.
        4    1    3    3  502    0  0.11946453444E+03 -0.11603853745E+04  0.98265404747E+03  0.15252464005E+04  0.12699999809E+01 0.  1.
       -4    1    3    3    0  502 -0.11946453444E+03  0.11603853745E+04  0.33793645953E+03  0.12144828759E+04  0.12699999809E+01 0. -1.
</event>
<event>
 5   0  0.5527286E-07  0.2400716E+04  0.7818609E-02  0.8439236E-01
       -1   -1    0    0    0  501  0.00000000000E+00  0.00000000000E+00  0.12272093040E+04  0.12272093040E+04  0.50400001928E-02 0. -1.
        1   -1    0    0  501    0  0.00000000000E+00  0.00000000000E+00 -0.11740940660E+04  0.11740940661E+04  0.50400001928E-02 0.  1.
    10030    2    1    2    0    0  0.00000000000E+00  0.00000000000E+00  0.53115237983E+02  0.24013033701E+04  0.24007158613E+04 0.  0.
        1    1    3    3  502    0  0.39597998113E+03 -0.58322495416E+03 -0.94522924866E+03  0.11791564040E+04  0.50400001928E-02 0.  1.
       -1    1    3    3    0  502 -0.39597998113E+03  0.58322495416E+03  0.99834448665E+03  0.12221469661E+04  0.50400001928E-02 0. -1.
</event>
<event>
 5   0  0.1336057E-06  0.2399802E+04  0.7818609E-02  0.8439578E-01
        2   -1    0    0  501    0  0.00000000000E+00  0.00000000000E+00  0.11615658828E+04  0.11615658828E+04  0.25500000920E-02 0. -1.
       -2   -1    0    0    0  501  0.00000000000E+00  0.00000000000E+00 -0.12395014648E+04  0.12395014648E+04  0.25500000920E-02 0.  1.
    10030    2    1    2    0    0  0.00000000000E+00  0.00000000000E+00 -0.77935582001E+02  0.24010673476E+04  0.23998021695E+04 0.  0.
        2    1    3    3  502    0 -0.11625569112E+04 -0.16236182394E+03 -0.28782101053E+03  0.12086111317E+04  0.25500000920E-02 0.  1.
       -2    1    3    3    0  502  0.11625569112E+04  0.16236182394E+03  0.20988542853E+03  0.11924562159E+04  0.25500000920E-02 0. -1.
</event>
<event>
 5   0  0.5452384E-07  0.2400442E+04  0.7818609E-02  0.8439338E-01
       -1   -1    0    0    0  501  0.00000000000E+00  0.00000000000E+00  0.14478809610E+04  0.14478809610E+04  0.50400001928E-02 0.  1.
        1   -1    0    0  501    0  0.00000000000E+00  0.00000000000E+00 -0.99492347389E+03  0.99492347390E+03  0.50400001928E-02 0. -1.
    10030    2    1    2    0    0  0.00000000000E+00  0.00000000000E+00  0.45295748710E+03  0.24428044349E+04  0.24004422555E+04 0.  0.
        5    1    3    3  502    0  0.26602074763E+03 -0.98843715768E+03  0.86422287797E+03  0.13396560475E+04  0.46999998093E+01 0.  1.
       -5    1    3    3    0  502 -0.26602074763E+03  0.98843715768E+03 -0.41126539087E+03  0.11031483874E+04  0.46999998093E+01 0. -1.
</event>
<event>
 5   0  0.5510176E-07  0.2400529E+04  0.7818609E-02  0.8439305E-01
       -1   -1    0    0    0  501  0.00000000000E+00  0.00000000000E+00  0.80544719415E+03  0.80544719416E+03  0.50400001928E-02 0. -1.
        1   -1    0    0  501    0  0.00000000000E+00  0.00000000000E+00 -0.17886153063E+04  0.17886153063E+04  0.50400001928E-02 0.  1.
    10030    2    1    2    0    0  0.00000000000E+00  0.00000000000E+00 -0.98316811215E+03  0.25940625005E+04  0.24005292582E+04 0.  0.
        3    1    3    3  502    0  0.68971169353E+03 -0.98092029008E+03 -0.54802863012E+03  0.13184241447E+04  0.10100000352E+00 0.  1.
       -3    1    3    3    0  502 -0.68971169353E+03  0.98092029008E+03 -0.43513948204E+03  0.12756383558E+04  0.10100000352E+00 0. -1.
</event>
<event>
 5   0  0.1307477E-06  0.2400145E+04  0.7818609E-02  0.8439449E-01
       -2   -1    0    0    0  501  0.00000000000E+00  0.00000000000E+00  0.82110634889E+03  0.82110634889E+03  0.25500000920E-02 0. -1.
        2   -1    0    0  501    0  0.00000000000E+00  0.00000000000E+00 -0.17539430295E+04  0.17539430295E+04  0.25500000920E-02 0.  1.
    10030    2    1    2    0    0  0.00000000000E+00  0.00000000000E+00 -0.93283668059E+03  0.25750493784E+04  0.24001447932E+04 0.  0.
        5    1    3    3  502    0  0.30291760743E+03 -0.17168233625E+02  0.77926835509E+03  0.83626256904E+03  0.46999998093E+01 0. -1.
       -5    1    3    3    0  502 -0.30291760743E+03  0.17168233625E+02 -0.17121050357E+04  0.17387868093E+04  0.46999998093E+01 0.  1.
</event>
<event>
 5   0  0.5452384E-07  0.2400740E+04  0.7818609E-02  0.8439226E-01
       -1   -1    0    0    0  501  0.00000000000E+00  0.00000000000E+00  0.98129520052E+03  0.98129520053E+03  0.50400001928E-02 0.  1.
        1   -1    0    0  501    0  0.00000000000E+00  0.00000000000E+00 -0.14683539764E+04  0.14683539764E+04  0.50400001928E-02 0. -1.
    10030    2    1    2    0    0  0.00000000000E+00  0.00000000000E+00 -0.48705877588E+03  0.24496491769E+04  0.24007404772E+04 0.  0.
        5    1    3    3  502    0  0.85314476867E+03  0.67452671830E+03 -0.76183869383E+03  0.13278789762E+04  0.46999998093E+01 0. -1.
       -5    1    3    3    0  502 -0.85314476867E+03 -0.67452671830E+03  0.27477991795E+03  0.11217702008E+04  0.46999998093E+01 0.  1.
</event>
<event>
 5   0  0.1308662E-06  0.2400015E+04  0.7818609E-02  0.8439498E-01
        2   -1    0    0  501    0  0.00000000000E+00  0.00000000000E+00  0.23146800961E+04  0.23146800961E+04  0.25500000920E-02 0. -1.
       -2   -1    0    0    0  501  0.00000000000E+00  0.00000000000E+00 -0.62212411378E+03  0.62212411378E+03  0.25500000920E-02 0.  1.
    10030    2    1    2    0    0  0.00000000000E+00  0.00000000000E+00  0.16925559824E+04  0.29368042099E+04  0.24000152529E+04 0.  0.
        3    1    3    3  502    0 -0.32068921775E+03 -0.26343564981E+03  0.22240668304E+04  0.22624573349E+04  0.10100000352E+00 0. -1.
       -3    1    3    3    0  502  0.32068921775E+03  0.26343564981E+03 -0.53151084808E+03  0.67434687498E+03  0.10100000352E+00 0.  1.
</event>
<event>
 5   0  0.5527286E-07  0.2402470E+04  0.7818609E-02  0.8438579E-01
        1   -1    0    0  501    0  0.00000000000E+00  0.00000000000E+00  0.89907529040E+03  0.89907529041E+03  0.50400001928E-02 0.  1.
       -1   -1    0    0    0  501  0.00000000000E+00  0.00000000000E+00 -0.16049438776E+04  0.16049438776E+04  0.50400001928E-02 0. -1.
    10030    2    1    2    0    0  0.00000000000E+00  0.00000000000E+00 -0.70586858720E+03  0.25040191680E+04  0.24024698815E+04 0.  0.
        1    1    3    3  502    0 -0.49895906980E+03 -0.23576876069E+03  0.75913189185E+03  0.93852452877E+03  0.50400001928E-02 0.  1.
       -1    1    3    3    0  502  0.49895906980E+03  0.23576876069E+03 -0.14650004790E+04  0.15654946392E+04  0.50400001928E-02 0. -1.
</event>
<event>
 5   0  0.5452384E-07  0.2398891E+04  0.7818609E-02  0.8439919E-01
       -1   -1    0    0    0  501  0.00000000000E+00  0.00000000000E+00  0.14878439752E+04  0.14878439752E+04  0.50400001928E-02 0.  1.
        1   -1    0    0  501    0  0.00000000000E+00  0.00000000000E+00 -0.96694898851E+03  0.96694898852E+03  0.50400001928E-02 0. -1.
    10030    2    1    2    0    0  0.00000000000E+00  0.00000000000E+00  0.52089498671E+03  0.24547929637E+04  0.23988907661E+04 0.  0.
        5    1    3    3  502    0  0.42362722499E+03 -0.49047450390E+03 -0.77233982285E+03  0.10082440958E+04  0.46999998093E+01 0. -1.
       -5    1    3    3    0  502 -0.42362722499E+03  0.49047450390E+03  0.12932348096E+04  0.14465488680E+04  0.46999998093E+01 0.  1.
</event>
<event>
 5   0  0.1308662E-06  0.2400881E+04  0.7818609E-02  0.8439174E-01
        2   -1    0    0  501    0  0.00000000000E+00  0.00000000000E+00  0.12906783142E+04  0.12906783142E+04  0.25500000920E-02 0.  1.
       -2   -1    0    0    0  501  0.00000000000E+00  0.00000000000E+00 -0.11165119151E+04  0.11165119151E+04  0.25500000920E-02 0. -1.
    10030    2    1    2    0    0  0.00000000000E+00  0.00000000000E+00  0.17416639907E+03  0.24071902293E+04  0.24008812685E+04 0.  0.
        3    1    3    3  502    0  0.70756093820E+02  0.76780749989E+03  0.10095677267E+04  0.12703392408E+04  0.10100000352E+00 0. -1.
       -3    1    3    3    0  502 -0.70756093820E+02 -0.76780749989E+03 -0.83540132764E+03  0.11368509885E+04  0.10100000352E+00 0.  1.
</event>
<event>
 5   0  0.1307477E-06  0.2399807E+04  0.7818609E-02  0.8439576E-01
        2   -1    0    0  501    0  0.00000000000E+00  0.00000000000E+00  0.11250978796E+04  0.11250978796E+04  0.25500000920E-02 0.  1.
       -2   -1    0    0    0  501  0.00000000000E+00  0.00000000000E+00 -0.12796832041E+04  0.12796832041E+04  0.25500000920E-02 0. -1.
    10030    2    1    2    0    0  0.00000000000E+00  0.00000000000E+00 -0.15458532453E+03  0.24047810837E+04  0.23998073752E+04 0.  0.
        5    1    3    3  502    0  0.80503349426E+03 -0.18572701769E+03 -0.94925316671E+03  0.12584423374E+04  0.46999998093E+01 0. -1.
       -5    1    3    3    0  502 -0.80503349426E+03  0.18572701769E+03  0.79466784218E+03  0.11463387463E+04  0.46999998093E+01 0.  1.
</event>
<event>
 5   0  0.1307477E-06  0.2400127E+04  0.7818609E-02  0.8439456E-01
       -2   -1    0    0    0  501  0.00000000000E+00  0.00000000000E+00  0.11109045969E+04  0.11109045969E+04  0.25500000920E-02 0.  1.
        2   -1    0    0  501    0  0.00000000000E+00  0.00000000000E+00 -0.12963782632E+04  0.12963782632E+04  0.25500000920E-02 0. -1.
    10030    2    1    2    0    0  0.00000000000E+00  0.00000000000E+00 -0.18547366633E+03  0.24072828601E+04  0.24001271398E+04 0.  0.
        5    1    3    3  502    0  0.71755687469E+03  0.33574300592E+03 -0.99682275091E+03  0.12732984415E+04  0.46999998093E+01 0.  1.
       -5    1    3    3    0  502 -0.71755687469E+03 -0.33574300592E+03  0.81134908459E+03  0.11339844185E+04  0.46999998093E+01 0. -1.
</event>
<event>
 5   0  0.5363690E-07  0.2400496E+04  0.7818609E-02  0.8439318E-01
        1   -1    0    0  501    0  0.00000000000E+00  0.00000000000E+00  0.98395678328E+03  0.98395678329E+03  0.50400001928E-02 0.  1.
       -1   -1    0    0    0  501  0.00000000000E+00  0.00000000000E+00 -0.14640837889E+04  0.14640837889E+04  0.50400001928E-02 0. -1.
    10030    2    1    2    0    0  0.00000000000E+00  0.00000000000E+00 -0.48012700566E+03  0.24480405722E+04  0.24004959283E+04 0.  0.
        4    1    3    3  502    0  0.11659425860E+03  0.83209113407E+03 -0.11141413249E+04  0.13954506015E+04  0.12699999809E+01 0. -1.
       -4    1    3    3    0  502 -0.11659425860E+03 -0.83209113407E+03  0.63401431924E+03  0.10525899707E+04  0.12699999809E+01 0.  1.
</event>
<event>
 5   0  0.5452384E-07  0.2400009E+04  0.7818609E-02  0.8439500E-01
       -1   -1    0    0    0  501  0.00000000000E+00  0.00000000000E+00  0.92285365781E+03  0.92285365782E+03  0.50400001928E-02 0.  1.
        1   -1    0    0  501    0  0.00000000000E+00  0.00000000000E+00 -0.15603886064E+04  0.15603886064E+04  0.50400001928E-02 0. -1.
    10030    2    1    2    0    0  0.00000000000E+00  0.00000000000E+00 -0.63753494859E+03  0.24832422642E+04  0.24000086108E+04 0.  0.
        5    1    3    3  502    0 -0.11648522560E+04  0.66637561395E+02 -0.28564198819E+02  0.11671158239E+04  0.46999998093E+01 0.  1.
       -5    1    3    3    0  502  0.11648522560E+04 -0.66637561395E+02 -0.60897074977E+03  0.13161264403E+04  0.46999998093E+01 0. -1.
</event>
<event>
 5   0  0.5363690E-07  0.2399938E+04  0.7818609E-02  0.8439527E-01
        1   -1    0    0  501    0  0.00000000000E+00  0.00000000000E+00  0.20605964484E+04  0.20605964484E+04  0.50400001928E-02 0.  1.
       -1   -1    0    0    0  501  0.00000000000E+00  0.00000000000E+00 -0.69879082920E+03  0.69879082922E+03  0.50400001928E-02 0. -1.
    10030    2    1    2    0    0  0.00000000000E+00  0.00000000000E+00  0.13618056192E+04  0.27593872776E+04  0.23999382499E+04 0.  0.
        4    1    3    3  502    0  0.11420643246E+04 -0.10844076204E+03  0.27626398386E+03  0.11799973399E+04  0.12699999809E+01 0. -1.
       -4    1    3    3    0  502 -0.11420643246E+04  0.10844076204E+03  0.10855416353E+04  0.15793899377E+04  0.12699999809E+01 0.  1.
</event>
<event>
 5   0  0.5510176E-07  0.2397705E+04  0.7818609E-02  0.8440363E-01
       -1   -1    0    0    0  501  0.00000000000E+00  0.00000000000E+00  0.15993064185E+04  0.15993064185E+04  0.50400001928E-02 0. -1.
        1   -1    0    0  501    0  0.00000000000E+00  0.00000000000E+00 -0.89866918703E+03  0.89866918705E+03  0.50400001928E-02 0.  1.
    10030    2    1    2    0    0  0.00000000000E+00  0.00000000000E+00  0.70063723148E+03  0.24979756056E+04  0.23977050686E+04 0.  0.
        3    1    3    3  502    0 -0.10977176633E+04 -0.47404209593E+03  0.44082755096E+03  0.12743739313E+04  0.10100000352E+00 0.  1.
       -3    1    3    3    0  502  0.10977176633E+04  0.47404209593E+03  0.25980968052E+03  0.12236016743E+04  0.10100000352E+00 0. -1.
</event>
<event>
 5   0  0.5363690E-07  0.2399630E+04  0.7818609E-02  0.8439642E-01
        1   -1    0    0  501    0  0.00000000000E+00  0.00000000000E+00  0.17359455700E+04  0.17359455700E+04  0.50400001928E-02 0.  1.
       -1   -1    0    0    0  501  0.00000000000E+00  0.00000000000E+00 -0.82926315764E+03  0.82926315766E+03  0.50400001928E-02 0. -1.
    10030    2    1    2    0    0  0.00000000000E+00  0.00000000000E+00  0.90668241235E+03  0.25652087277E+04  0.23996297255E+04 0.  0.
        4    1    3    3  502    0 -0.45279457826E+03 -0.53826148196E+03 -0.58574059142E+03  0.91533709987E+03  0.12699999809E+01 0. -1.
       -4    1    3    3    0  502  0.45279457826E+03  0.53826148196E+03  0.14924230038E+04  0.16498716278E+04  0.12699999809E+01 0.  1.
</event>
<event>
 5   0  0.1308662E-06  0.2399984E+04  0.7818609E-02  0.8439509E-01
        2   -1    0    0  501    0  0.00000000000E+00  0.00000000000E+00  0.24396320584E+04  0.24396320584E+04  0.25500000920E-02 0.  1.
       -2   -1    0    0    0  501  0.00000000000E+00  0.00000000000E+00 -0.59024520440E+03  0.59024520441E+03  0.25500000920E-02 0. -1.
    10030    2    1    2    0    0  0.00000000000E+00  0.00000000000E+00  0.18493868540E+04  0.30298772628E+04  0.23999842691E+04 0.  0.
        3    1    3    3  502    0  0.17689729316E+03 -0.79267098575E+03 -0.19053663116E+03  0.83422069142E+03  0.10100000352E+00 0. -1.
       -3    1    3    3    0  502 -0.17689729316E+03  0.79267098575E+03  0.20399234851E+04  0.21956565714E+04  0.10100000352E+00 0.  1.
</event>
<event>
 5   0  0.1307477E-06  0.2401282E+04  0.7818609E-02  0.8439024E-01
        2   -1    0    0  501    0  0.00000000000E+00  0.00000000000E+00  0.22857457545E+04  0.22857457545E+04  0.25500000920E-02 0.  1.
       -2   -1    0    0    0  501  0.00000000000E+00  0.00000000000E+00 -0.63066456253E+03  0.63066456254E+03  0.25500000920E-02 0. -1.
    10030    2    1    2    0    0  0.00000000000E+00  0.00000000000E+00  0.16550811920E+04  0.29164103170E+04  0.24012820295E+04 0.  0.
        5    1    3    3  502    0  0.66765697217E+03 -0.85549346229E+03  0.20364743741E+03  0.11041418683E+04  0.46999998093E+01 0. -1.
       -5    1    3    3    0  502 -0.66765697217E+03  0.85549346229E+03  0.14514337546E+04  0.18122684488E+04  0.46999998093E+01 0.  1.
</event>
<event>
 5   0  0.1307477E-06  0.2399251E+04  0.7818609E-02  0.8439784E-01
       -2   -1    0    0    0  501  0.00000000000E+00  0.00000000000E+00  0.12317129601E+04  0.12317129601E+04  0.25500000920E-02 0.  1.
        2   -1    0    0  501    0  0.00000000000E+00  0.00000000000E+00 -0.11683742298E+04  0.11683742298E+04  0.25500000920E-02 0. -1.
    10030    2    1    2    0    0  0.00000000000E+00  0.00000000000E+00  0.63338730252E+02  0.24000871899E+04  0.23992512842E+04 0.  0.
        5    1    3    3  502    0 -0.10573189556E+04 -0.20322872016E+03 -0.49752751938E+03  0.11860779945E+04  0.46999998093E+01 0.  1.
       -5    1    3    3    0  502  0.10573189556E+04  0.20322872016E+03  0.56086624964E+03  0.12140091954E+04  0.46999998093E+01 0. -1.
</event>
<event>
 5   0  0.5527286E-07  0.2399896E+04  0.7818609E-02  0.8439543E-01
       -1   -1    0    0    0  501  0.00000000000E+00  0.00000000000E+00  0.18678284255E+04  0.18678284256E+04  0.50400001928E-02 0.  1.
        1   -1    0    0  501    0  0.00000000000E+00  0.00000000000E+00 -0.77088165401E+03  0.77088165403E+03  0.50400001928E-02 0. -1.
    10030    2    1    2    0    0  0.00000000000E+00  0.00000000000E+00  0.10969467715E+04  0.26387100796E+04  0.23998955528E+04 0.  0.
        1    1    3    3  502    0  0.78646973816E+03  0.66566810047E+02  0.15422439821E+04  0.17324786549E+04  0.50400001928E-02 0.  1.
       -1    1    3    3    0  502 -0.78646973816E+03 -0.66566810047E+02 -0.44529721061E+03  0.90623142467E+03  0.50400001928E-02 0. -1.
</event>
<event>
 5   0  0.1275948E-06  0.2400686E+04  0.7818609E-02  0.8439247E-01
        2   -1    0    0  501    0  0.00000000000E+00  0.00000000000E+00  0.14844933214E+04  0.14844933214E+04  0.25500000920E-02 0. -1.
       -2   -1    0    0    0  501  0.00000000000E+00  0.00000000000E+00 -0.97058242912E+03  0.97058242912E+03  0.25500000920E-02 0.  1.
    10030    2    1    2    0    0  0.00000000000E+00  0.00000000000E+00  0.51391089224E+03  0.24550757505E+04  0.24006858469E+04 0.  0.
        1    1    3    3  502    0 -0.14974759921E+03  0.10445690090E+04  0.84199545394E+03  0.13500018898E+04  0.50400001928E-02 0. -1.
       -1    1    3    3    0  502  0.14974759921E+03 -0.10445690090E+04 -0.32808456171E+03  0.11050738607E+04  0.50400001928E-02 0.  1.
</event>
<event>
 5   0  0.1275948E-06  0.2400110E+04  0.7818609E-02  0.8439462E-01
       -2   -1    0    0    0  501  0.00000000000E+00  0.00000000000E+00  0.13478465197E+04  0.13478465197E+04  0.25500000920E-02 0.  1.
        2   -1    0    0  501    0  0.00000000000E+00  0.00000000000E+00 -0.10684686317E+04  0.10684686317E+04  0.25500000920E-02 0. -1.
    10030    2    1    2    0    0  0.00000000000E+00  0.00000000000E+00  0.27937788796E+03  0.24163151514E+04  0.24001097697E+04 0.  0.
        1    1    3    3  502    0 -0.23275460200E+03 -0.48019398991E+03  0.12218282136E+04  0.13332760990E+04  0.50400001928E-02 0.  1.
       -1    1    3    3    0  502  0.23275460200E+03  0.48019398991E+03 -0.94245032563E+03  0.10830390524E+04  0.50400001928E-02 0. -1.
</event>
<event>
 5   0  0.5510176E-07  0.2402827E+04  0.7818609E-02  0.8438446E-01
       -1   -1    0    0    0  501  0.00000000000E+00  0.00000000000E+00  0.13356931116E+04  0.13356931116E+04  0.50400001928E-02 0.  1.
        1   -1    0    0  501    0  0.00000000000E+00  0.00000000000E+00 -0.10806329120E+04  0.10806329121E+04  0.50400001928E-02 0. -1.
    10030    2    1    2    0    0  0.00000000000E+00  0.00000000000E+00  0.25506019955E+03  0.24163260236E+04  0.24028266161E+04 0.  0.
        3    1    3    3  502    0  0.86831356393E+03 -0.15319009874E+03 -0.69311731760E+03  0.11215379074E+04  0.10100000352E+00 0. -1.
       -3    1    3    3    0  502 -0.86831356393E+03  0.15319009874E+03  0.94817751715E+03  0.12947881162E+04  0.10100000352E+00 0.  1.
</event>
<event>
 5   0  0.1291468E-06  0.2399996E+04  0.7818609E-02  0.8439505E-01
        2   -1    0    0  501    0  0.00000000000E+00  0.00000000000E+00  0.89074403587E+03  0.89074403587E+03  0.25500000920E-02 0. -1.
       -2   -1    0    0    0  501  0.00000000000E+00  0.00000000000E+00 -0.16166209492E+04  0.16166209492E+04  0.25500000920E-02 0.  1.
    10030    2    1    2    0    0  0.00000000000E+00  0.00000000000E+00 -0.72587691334E+03  0.25073649851E+04  0.23999962240E+04 0.  0.
        4    1    3    3  502    0 -0.93066834563E+03  0.57110906609E+03 -0.88288249955E+03  0.14042052043E+04  0.12699999809E+01 0.  1.
       -4    1    3    3    0  502  0.93066834563E+03 -0.57110906609E+03  0.15700558620E+03  0.11031597808E+04  0.12699999809E+01 0. -1.
</event>
<event>
 5   0  0.5690124E-07  0.2400299E+04  0.7818609E-02  0.8439392E-01
        1   -1    0    0  501    0  0.00000000000E+00  0.00000000000E+00  0.16730304530E+04  0.16730304530E+04  0.50400001928E-02 0. -1.
       -1   -1    0    0    0  501  0.00000000000E+00  0.00000000000E+00 -0.86092826663E+03  0.86092826664E+03  0.50400001928E-02 0.  1.
    10030    2    1    2    0    0  0.00000000000E+00  0.00000000000E+00  0.81210218640E+03  0.25339587197E+04  0.24002993213E+04 0.  0.
        2    1    3    3  502    0 -0.68305890927E+03 -0.93179238480E+03  0.74903107899E+03  0.13769001704E+04  0.25500000920E-02 0.  1.
       -2    1    3    3    0  502  0.68305890927E+03  0.93179238480E+03  0.63071107415E+02  0.11570585493E+04  0.25500000920E-02 0. -1.
</event>
<event>
 5   0  0.1336057E-06  0.2399694E+04  0.7818609E-02  0.8439618E-01
       -2   -1    0    0    0  501  0.00000000000E+00  0.00000000000E+00  0.94793873661E+03  0.94793873661E+03  0.25500000920E-02 0.  1.
        2   -1    0    0  501    0  0.00000000000E+00  0.00000000000E+00 -0.15186986341E+04  0.15186986341E+04  0.25500000920E-02 0. -1.
    10030    2    1    2    0    0  0.00000000000E+00  0.00000000000E+00 -0.57075989753E+03  0.24666373708E+04  0.23996943677E+04 0.  0.
        2    1    3    3  502    0 -0.10036191982E+04  0.12538728999E+03  0.37811890018E+03  0.10797904288E+04  0.25500000920E-02 0.  1.
       -2    1    3    3    0  502  0.10036191982E+04 -0.12538728999E+03 -0.94887879771E+03  0.13868469419E+04  0.25500000920E-02 0. -1.
</event>
<event>
 5   0  0.5527286E-07  0.2399566E+04  0.7818609E-02  0.8439666E-01
       -1   -1    0    0    0  501  0.00000000000E+00  0.00000000000E+00  0.78798621921E+03  0.78798621923E+03  0.50400001928E-02 0. -1.
        1   -1    0    0  501    0  0.00000000000E+00  0.00000000000E+00 -0.18267828513E+04  0.18267828513E+04  0.50400001928E-02 0.  1.
    10030    2    1    2    0    0  0.00000000000E+00  0.00000000000E+00 -0.10387966321E+04  0.26147690705E+04  0.23995663878E+04 0.  0.
        1    1    3    3  502    0  0.46054860733E+03  0.89662791214E+03 -0.12284746015E+04  0.15890866808E+04  0.50400001928E-02 0.  1.
       -1    1    3    3    0  502 -0.46054860733E+03 -0.89662791214E+03  0.18967796939E+03  0.10256823897E+04  0.50400001928E-02 0. -1.
</event>
<event>
 5   0  0.1336057E-06  0.2399754E+04  0.7818609E-02  0.8439596E-01
       -2   -1    0    0    0  501  0.00000000000E+00  0.00000000000E+00  0.74411834232E+03  0.74411834233E+03  0.25500000920E-02 0.  1.
        2   -1    0    0  501    0  0.00000000000E+00  0.00000000000E+00 -0.19347788933E+04  0.19347788933E+04  0.25500000920E-02 0. -1.
    10030    2    1    2    0    0  0.00000000000E+00  0.00000000000E+00 -0.11906605510E+04  0.26788972356E+04  0.23997537064E+04 0.  0.
        2    1    3    3  502    0 -0.10270305315E+04 -0.11407378101E+03 -0.12761034386E+04  0.16420245206E+04  0.25500000920E-02 0. -1.
       -2    1    3    3    0  502  0.10270305315E+04  0.11407378101E+03  0.85442887660E+02  0.10368727150E+04  0.25500000920E-02 0.  1.
</event>
<event>
 5   0  0.1307477E-06  0.2400507E+04  0.7818609E-02  0.8439314E-01
        2   -1    0    0  501    0  0.00000000000E+00  0.00000000000E+00  0.18411419511E+04  0.18411419511E+04  0.25500000920E-02 0. -1.
       -2   -1    0    0    0  501  0.00000000000E+00  0.00000000000E+00 -0.78245408429E+03  0.78245408429E+03  0.25500000920E-02 0.  1.
    10030    2    1    2    0    0  0.00000000000E+00  0.00000000000E+00  0.10586878668E+04  0.26235960354E+04  0.24005074792E+04 0.  0.
        5    1    3    3  502    0 -0.11758175929E+04  0.21971636379E+03  0.63734359667E+03  0.13553786344E+04  0.46999998093E+01 0.  1.
       -5    1    3    3    0  502  0.11758175929E+04 -0.21971636379E+03  0.42134427018E+03  0.12682174010E+04  0.46999998093E+01 0. -1.
</event>
<event>
 5   0  0.1307477E-06  0.2406750E+04  0.7818609E-02  0.8436981E-01
        2   -1    0    0  501    0  0.00000000000E+00  0.00000000000E+00  0.32852594296E+04  0.32852594296E+04  0.25500000920E-02 0. -1.
       -2   -1    0    0    0  501  0.00000000000E+00  0.00000000000E+00 -0.44079044140E+03  0.44079044141E+03  0.25500000920E-02 0.  1.
    10030    2    1    2    0    0  0.00000000000E+00  0.00000000000E+00  0.28444689882E+04  0.37260498711E+04  0.24067496373E+04 0.  0.
        5    1    3    3  502    0  0.60904990291E+03  0.63393536407E+03  0.15002845753E+03  0.89182198791E+03  0.46999998093E+01 0.  1.
       -5    1    3    3    0  502 -0.60904990291E+03 -0.63393536407E+03  0.26944405307E+04  0.28342278832E+04  0.46999998093E+01 0. -1.
</event>
<event>
 5   0  0.1307477E-06  0.2400896E+04  0.7818609E-02  0.8439168E-01
        2   -1    0    0  501    0  0.00000000000E+00  0.00000000000E+00  0.15111235985E+04  0.15111235985E+04  0.25500000920E-02 0. -1.
       -2   -1    0    0    0  501  0.00000000000E+00  0.00000000000E+00 -0.95364514624E+03  0.95364514624E+03  0.25500000920E-02 0.  1.
    10030    2    1    2    0    0  0.00000000000E+00  0.00000000000E+00  0.55747845225E+03  0.24647687447E+04  0.24008962369E+04 0.  0.
        5    1    3    3  502    0  0.63117893303E+03  0.40098398564E+03  0.12428061600E+04  0.14504358806E+04  0.46999998093E+01 0. -1.
       -5    1    3    3    0  502 -0.63117893303E+03 -0.40098398564E+03 -0.68532770779E+03  0.10143328642E+04  0.46999998093E+01 0.  1.
</event>
<event>
 5   0  0.5527286E-07  0.2399147E+04  0.7818609E-02  0.8439823E-01
       -1   -1    0    0    0  501  0.00000000000E+00  0.00000000000E+00  0.13451811776E+04  0.13451811776E+04  0.50400001928E-02 0. -1.
        1   -1    0    0  501    0  0.00000000000E+00  0.00000000000E+00 -0.10697266949E+04  0.10697266949E+04  0.50400001928E-02 0.  1.
    10030    2    1    2    0    0  0.00000000000E+00  0.00000000000E+00  0.27545448265E+03  0.24149078725E+04  0.23991466943E+04 0.  0.
        1    1    3    3  502    0 -0.55143770662E+03 -0.39426540943E+02  0.12093046055E+04  0.13296825280E+04  0.50400001928E-02 0. -1.
       -1    1    3    3    0  502  0.55143770662E+03  0.39426540943E+02 -0.93385012282E+03  0.10852253445E+04  0.50400001928E-02 0.  1.
</event>
<event>
 5   0  0.5510176E-07  0.2400881E+04  0.7818609E-02  0.8439174E-01
        1   -1    0    0  501    0  0.00000000000E+00  0.00000000000E+00  0.16822632916E+04  0.16822632916E+04  0.50400001928E-02 0. -1.
       -1   -1    0    0    0  501  0.00000000000E+00  0.00000000000E+00 -0.85661814591E+03  0.85661814592E+03  0.50400001928E-02 0.  1.
    10030    2    1    2    0    0  0.00000000000E+00  0.00000000000E+00  0.82564514566E+03  0.25388814375E+04  0.24008808898E+04 0.  0.
        3    1    3    3  502    0 -0.63309640357E+03 -0.41699193085E+03 -0.57146496306E+03  0.94935006231E+03  0.10100000352E+00 0.  1.
       -3    1    3    3    0  502  0.63309640357E+03  0.41699193085E+03  0.13971101087E+04  0.15895313752E+04  0.10100000352E+00 0. -1.
</event>
<event>
 5   0  0.5510176E-07  0.2404251E+04  0.7818609E-02  0.8437914E-01
       -1   -1    0    0    0  501  0.00000000000E+00  0.00000000000E+00  0.17342835083E+04  0.17342835083E+04  0.50400001928E-02 0. -1.
        1   -1    0    0  501    0  0.00000000000E+00  0.00000000000E+00 -0.83325808030E+03  0.83325808032E+03  0.50400001928E-02 0.  1.
    10030    2    1    2    0    0  0.00000000000E+00  0.00000000000E+00  0.90102542796E+03  0.25675415886E+04  0.24042510242E+04 0.  0.
        3    1    3    3  502    0 -0.69291381399E+02  0.65225479394E+03 -0.62531439462E+03  0.90623160068E+03  0.10100000352E+00 0.  1.
       -3    1    3    3    0  502  0.69291381399E+02 -0.65225479394E+03  0.15263398226E+04  0.16613099879E+04  0.10100000352E+00 0. -1.
</event>
<event>
 5   0  0.1275948E-06  0.2402378E+04  0.7818609E-02  0.8438614E-01
        2   -1    0    0  501    0  0.00000000000E+00  0.00000000000E+00  0.26438650051E+04  0.26438650051E+04  0.25500000920E-02 0. -1.
       -2   -1    0    0    0  501  0.00000000000E+00  0.00000000000E+00 -0.54573719573E+03  0.54573719574E+03  0.25500000920E-02 0.  1.
    10030    2    1    2    0    0  0.00000000000E+00  0.00000000000E+00  0.20981278094E+04  0.31896022009E+04  0.24023783830E+04 0.  0.
        1    1    3    3  502    0 -0.29293397956E+03  0.33062717756E+03 -0.43398531082E+03  0.61924784776E+03  0.50400001928E-02 0.  1.
       -1    1    3    3    0  502  0.29293397956E+03 -0.33062717756E+03  0.25321131202E+04  0.25703543531E+04  0.50400001928E-02 0. -1.
</event>
<event>
 5   0  0.5452384E-07  0.2401501E+04  0.7818609E-02  0.8438942E-01
       -1   -1    0    0    0  501  0.00000000000E+00  0.00000000000E+00  0.71153055945E+03  0.71153055946E+03  0.50400001928E-02 0. -1.
        1   -1    0    0  501    0  0.00000000000E+00  0.00000000000E+00 -0.20263379473E+04  0.20263379473E+04  0.50400001928E-02 0.  1.
    10030    2    1    2    0    0  0.00000000000E+00  0.00000000000E+00 -0.13148073879E+04  0.27378685068E+04  0.24015006752E+04 0.  0.
        5    1    3    3  502    0 -0.61632017889E+03  0.10011764540E+04 -0.37913790554E+03  0.12353025930E+04  0.46999998093E+01 0. -1.
       -5    1    3    3    0  502  0.61632017889E+03 -0.10011764540E+04 -0.93566948232E+03  0.15025659137E+04  0.46999998093E+01 0.  1.
</event>
<event>
 5   0  0.1275948E-06  0.2399911E+04  0.7818609E-02  0.8439537E-01
        2   -1    0    0  501    0  0.00000000000E+00  0.00000000000E+00  0.15728617566E+04  0.15728617566E+04  0.25500000920E-02 0.  1.
       -2   -1    0    0    0  501  0.00000000000E+00  0.00000000000E+00 -0.91546064494E+03  0.91546064495E+03  0.25500000920E-02 0. -1.
    10030    2    1    2    0    0  0.00000000000E+00  0.00000000000E+00  0.65740111165E+03  0.24883224015E+04  0.23999108634E+04 0.  0.
        1    1    3    3  502    0 -0.50057618183E+02 -0.39444137073E+03  0.15025765645E+04  0.15542927949E+04  0.50400001928E-02 0.  1.
       -1    1    3    3    0  502  0.50057618183E+02  0.39444137073E+03 -0.84517545281E+03  0.93402960667E+03  0.50400001928E-02 0. -1.
</event>
<event>
 5   0  0.1308662E-06  0.2405183E+04  0.7818609E-02  0.8437566E-01
       -2   -1    0    0    0  501  0.00000000000E+00  0.00000000000E+00  0.14897962413E+04  0.14897962413E+04  0.25500000920E-02 0.  1.
        2   -1    0    0  501    0  0.00000000000E+00  0.00000000000E+00 -0.97075436159E+03  0.97075436159E+03  0.25500000920E-02 0. -1.
    10030    2    1    2    0    0  0.00000000000E+00  0.00000000000E+00  0.51904187967E+03  0.24605506028E+04  0.24051829029E+04 0.  0.
        3    1    3    3  502    0 -0.45193471417E+03 -0.23337473399E+03 -0.85529762054E+03  0.99510943229E+03  0.10100000352E+00 0. -1.
       -3    1    3    3    0  502  0.45193471417E+03  0.23337473399E+03  0.13743395002E+04  0.14654411706E+04  0.10100000352E+00 0.  1.
</event>
<event>
 5   0  0.1336057E-06  0.2400532E+04  0.7818609E-02  0.8439305E-01
       -2   -1    0    0    0  501  0.00000000000E+00  0.00000000000E+00  0.17508205492E+04  0.17508205492E+04  0.25500000920E-02 0. -1.
        2   -1    0    0  501    0  0.00000000000E+00  0.00000000000E+00 -0.82283593098E+03  0.82283593098E+03  0.25500000920E-02 0.  1.
    10030    2    1    2    0    0  0.00000000000E+00  0.00000000000E+00  0.92798461826E+03  0.25736564802E+04  0.24005316550E+04 0.  0.
        2    1    3    3  502    0 -0.92940911754E+03 -0.75557413437E+03  0.54665317337E+03  0.13166333097E+04  0.25500000920E-02 0. -1.
       -2    1    3    3    0  502  0.92940911754E+03  0.75557413437E+03  0.38133144489E+03  0.12570231705E+04  0.25500000920E-02 0.  1.
</event>
<event>
 5   0  0.5690124E-07  0.2405076E+04  0.7818609E-02  0.8437606E-01
        1   -1    0    0  501    0  0.00000000000E+00  0.00000000000E+00  0.72482909643E+03  0.72482909645E+03  0.50400001928E-02 0. -1.
       -1   -1    0    0    0  501  0.00000000000E+00  0.00000000000E+00 -0.19950872743E+04  0.19950872743E+04  0.50400001928E-02 0.  1.
    10030    2    1    2    0    0  0.00000000000E+00  0.00000000000E+00 -0.12702581779E+04  0.27199163708E+04  0.24050757214E+04 0.  0.
        2    1    3    3  502    0 -0.72590200711E+03 -0.20432716945E+03 -0.16944537291E+04  0.18546850827E+04  0.25500000920E-02 0.  1.
       -2    1    3    3    0  502  0.72590200711E+03  0.20432716945E+03  0.42419555121E+03  0.86523128802E+03  0.25500000920E-02 0. -1.
</event>
<event>
 5   0  0.1307477E-06  0.2400747E+04  0.7818609E-02  0.8439224E-01
       -2   -1    0    0    0  501  0.00000000000E+00  0.00000000000E+00  0.72896165594E+03  0.72896165594E+03  0.25500000920E-02 0.  1.
        2   -1    0    0  501    0  0.00000000000E+00  0.00000000000E+00 -0.19766429452E+04  0.19766429452E+04  0.25500000920E-02 0. -1.
    10030    2    1    2    0    0  0.00000000000E+00  0.00000000000E+00 -0.12476812893E+04  0.27056046011E+04  0.24007473124E+04 0.  0.
        5    1    3    3  502    0 -0.67167849892E+03 -0.45841112075E+03  0.37121827379E+03  0.89393392280E+03  0.46999998093E+01 0.  1.
       -5    1    3    3    0  502  0.67167849892E+03  0.45841112075E+03 -0.16188995630E+04  0.18116706783E+04  0.46999998093E+01 0. -1.
</event>
<event>
 5   0  0.4483375E-07  0.2399376E+04  0.7818609E-02  0.8439737E-01
        3   -1    0    0  501    0  0.00000000000E+00  0.00000000000E+00  0.15314208470E+04  0.15314208503E+04  0.10100000352E+00 0. -1.
       -3   -1    0    0    0  501  0.00000000000E+00  0.00000000000E+00 -0.93981458796E+03  0.93981459339E+03  0.10100000352E+00 0.  1.
    10030    2    1    2    0    0  0.00000000000E+00  0.00000000000E+00  0.59160625903E+03  0.24712354437E+04  0.23993763049E+04 0.  0.
        3    1    3    3  502    0  0.69163438555E+03 -0.33331368765E+03  0.12452550471E+04  0.14629136270E+04  0.10100000352E+00 0. -1.
       -3    1    3    3    0  502 -0.69163438555E+03  0.33331368765E+03 -0.65364878807E+03  0.10083218167E+04  0.10100000352E+00 0.  1.
</event>
<event>
 5   0  0.1307477E-06  0.2400647E+04  0.7818609E-02  0.8439261E-01
        2   -1    0    0  501    0  0.00000000000E+00  0.00000000000E+00  0.17041619255E+04  0.17041619255E+04  0.25500000920E-02 0.  1.
       -2   -1    0    0    0  501  0.00000000000E+00  0.00000000000E+00 -0.84544579115E+03  0.84544579116E+03  0.25500000920E-02 0. -1.
    10030    2    1    2    0    0  0.00000000000E+00  0.00000000000E+00  0.85871613438E+03  0.25496077167E+04  0.24006470189E+04 0.  0.
        5    1    3    3  502    0  0.70931964541E+03 -0.96440881901E+03  0.33716312770E+03  0.12437523042E+04  0.46999998093E+01 0.  1.
       -5    1    3    3    0  502 -0.70931964541E+03  0.96440881901E+03  0.52155300668E+03  0.13058554125E+04  0.46999998093E+01 0. -1.
</event>
<event>
 5   0  0.1275948E-06  0.2400076E+04  0.7818609E-02  0.8439475E-01
        2   -1    0    0  501    0  0.00000000000E+00  0.00000000000E+00  0.19686028308E+04  0.19686028308E+04  0.25500000920E-02 0. -1.
       -2   -1    0    0    0  501  0.00000000000E+00  0.00000000000E+00 -0.73152944687E+03  0.73152944687E+03  0.25500000920E-02 0.  1.
    10030    2    1    2    0    0  0.00000000000E+00  0.00000000000E+00  0.12370733839E+04  0.27001322776E+04  0.24000757820E+04 0.  0.
        1    1    3    3  502    0  0.38898119008E+03  0.10418859069E+04  0.11257425524E+04  0.15824439654E+04  0.50400001928E-02 0. -1.
       -1    1    3    3    0  502 -0.38898119008E+03 -0.10418859069E+04  0.11133083145E+03  0.11176883122E+04  0.50400001928E-02 0.  1.
</event>
<event>
 5   0  0.1291468E-06  0.2400096E+04  0.7818609E-02  0.8439467E-01
        2   -1    0    0  501    0  0.00000000000E+00  0.00000000000E+00  0.17482786824E+04  0.17482786825E+04  0.25500000920E-02 0.  1.
       -2   -1    0    0    0  501  0.00000000000E+00  0.00000000000E+00 -0.82373349590E+03  0.82373349591E+03  0.25500000920E-02 0. -1.
    10030    2    1    2    0    0  0.00000000000E+00  0.00000000000E+00  0.92454518655E+03  0.25720121784E+04  0.24000964238E+04 0.  0.
        4    1    3    3  502    0  0.17794352778E+03 -0.28172767379E+03  0.16977074372E+04  0.17301001521E+04  0.12699999809E+01 0.  1.
       -4    1    3    3    0  502 -0.17794352778E+03  0.28172767379E+03 -0.77316225061E+03  0.84191202624E+03  0.12699999809E+01 0. -1.
</event>
<event>
 5   0  0.5690124E-07  0.2407687E+04  0.7818609E-02  0.8436631E-01
        1   -1    0    0  501    0  0.00000000000E+00  0.00000000000E+00  0.17500178279E+04  0.17500178280E+04  0.50400001928E-02 0.  1.
       -1   -1    0    0    0  501  0.00000000000E+00  0.00000000000E+00 -0.82812848153E+03  0.82812848154E+03  0.50400001928E-02 0. -1.
    10030    2    1    2    0    0  0.00000000000E+00  0.00000000000E+00  0.92188934642E+03  0.25781463095E+04  0.24076873605E+04 0.  0.
        2    1    3    3  502    0  0.82027232293E+02 -0.77199101314E+03 -0.52427135663E+03  0.93678121597E+03  0.25500000920E-02 0. -1.
       -2    1    3    3    0  502 -0.82027232293E+02  0.77199101314E+03  0.14461607030E+04  0.16413650935E+04  0.25500000920E-02 0.  1.
</event>
<event>
 5   0  0.5690124E-07  0.2400255E+04  0.7818609E-02  0.8439408E-01
       -1   -1    0    0    0  501  0.00000000000E+00  0.00000000000E+00  0.15618028383E+04  0.15618028383E+04  0.50400001928E-02 0. -1.
        1   -1    0    0  501    0  0.00000000000E+00  0.00000000000E+00 -0.92220738872E+03  0.92220738873E+03  0.50400001928E-02 0.  1.
    10030    2    1    2    0    0  0.00000000000E+00  0.00000000000E+00  0.63959544958E+03  0.24840102270E+04  0.24002550841E+04 0.  0.
        2    1    3    3  502    0 -0.92641196783E+03 -0.20331992442E+01 -0.46975460924E+03  0.10387072065E+04  0.25500000920E-02 0.  1.
       -2    1    3    3    0  502  0.92641196783E+03  0.20331992442E+01  0.11093500588E+04  0.14453030205E+04  0.25500000920E-02 0. -1.
</event>
<event>
 5   0  0.1307477E-06  0.2400841E+04  0.7818609E-02  0.8439189E-01
       -2   -1    0    0    0  501  0.00000000000E+00  0.00000000000E+00  0.88162257860E+03  0.88162257861E+03  0.25500000920E-02 0. -1.
        2   -1    0    0  501    0  0.00000000000E+00  0.00000000000E+00 -0.16344968396E+04  0.16344968396E+04  0.25500000920E-02 0.  1.
    10030    2    1    2    0    0  0.00000000000E+00  0.00000000000E+00 -0.75287426103E+03  0.25161194182E+04  0.24008409514E+04 0.  0.
        5    1    3    3  502    0  0.71964334800E+03 -0.53993056713E+02 -0.13817599380E+04  0.15588728026E+04  0.46999998093E+01 0.  1.
       -5    1    3    3    0  502 -0.71964334800E+03  0.53993056713E+02  0.62888567695E+03  0.95724661564E+03  0.46999998093E+01 0. -1.
</event>
<event>
 5   0  0.1308662E-06  0.2399614E+04  0.7818609E-02  0.8439648E-01
        2   -1    0    0  501    0  0.00000000000E+00  0.00000000000E+00  0.18082364711E+04  0.18082364711E+04  0.25500000920E-02 0. -1.
       -2   -1    0    0    0  501  0.00000000000E+00  0.00000000000E+00 -0.79610016831E+03  0.79610016832E+03  0.25500000920E-02 0.  1.
    10030    2    1    2    0    0  0.00000000000E+00  0.00000000000E+00  0.10121363028E+04  0.26043366394E+04  0.23996144348E+04 0.  0.
        3    1    3    3  502    0  0.44148941003E+03 -0.71576421346E+03  0.14348248590E+04  0.16631156588E+04  0.10100000352E+00 0. -1.
       -3    1    3    3    0  502 -0.44148941003E+03  0.71576421346E+03 -0.42268855625E+03  0.94122098055E+03  0.10100000352E+00 0.  1.
</event>
<event>
 5   0  0.5690124E-07  0.2400856E+04  0.7818609E-02  0.8439183E-01
        1   -1    0    0  501    0  0.00000000000E+00  0.00000000000E+00  0.11162102789E+04  0.11162102789E+04  0.50400001928E-02 0.  1.
       -1   -1    0    0    0  501  0.00000000000E+00  0.00000000000E+00 -0.12909994466E+04  0.12909994466E+04  0.50400001928E-02 0. -1.
    10030    2    1    2    0    0  0.00000000000E+00  0.00000000000E+00 -0.17478916768E+03  0.24072097255E+04  0.24008555578E+04 0.  0.
        2    1    3    3  502    0 -0.80684851454E+03  0.60227964837E+03 -0.74279236715E+03  0.12511937504E+04  0.25500000920E-02 0. -1.
       -2    1    3    3    0  502  0.80684851454E+03 -0.60227964837E+03  0.56800319948E+03  0.11560159752E+04  0.25500000920E-02 0.  1.
</event>
<event>
 5   0  0.1291468E-06  0.2403259E+04  0.7818609E-02  0.8438284E-01
       -2   -1    0    0    0  501  0.00000000000E+00  0.00000000000E+00  0.74248296537E+03  0.74248296538E+03  0.25500000920E-02 0. -1.
        2   -1    0    0  501    0  0.00000000000E+00  0.00000000000E+00 -0.19447097279E+04  0.19447097279E+04  0.25500000920E-02 0.  1.
    10030    2    1    2    0    0  0.00000000000E+00  0.00000000000E+00 -0.12022267625E+04  0.26871926932E+04  0.24032593248E+04 0.  0.
        4    1    3    3  502    0  0.45774488170E+02 -0.56542280612E+03 -0.17855631849E+04  0.18735089414E+04  0.12699999809E+01 0.  1.
       -4    1    3    3    0  502 -0.45774488170E+02  0.56542280612E+03  0.58333642238E+03  0.81368375184E+03  0.12699999809E+01 0. -1.
</event>
<event>
 5   0  0.5363690E-07  0.2397342E+04  0.7818609E-02  0.8440499E-01
       -1   -1    0    0    0  501  0.00000000000E+00  0.00000000000E+00  0.78978794157E+03  0.78978794159E+03  0.50400001928E-02 0. -1.
        1   -1    0    0  501    0  0.00000000000E+00  0.00000000000E+00 -0.18192373378E+04  0.18192373379E+04  0.50400001928E-02 0.  1.
    10030    2    1    2    0    0  0.00000000000E+00  0.00000000000E+00 -0.10294493963E+04  0.26090252794E+04  0.23973416213E+04 0.  0.
        4    1    3    3  502    0 -0.11657859587E+04  0.14960157012E+03 -0.77081651095E+03  0.14055594039E+04  0.12699999809E+01 0.  1.
       -4    1    3    3    0  502  0.11657859587E+04 -0.14960157012E+03 -0.25863288532E+03  0.12034658756E+04  0.12699999809E+01 0. -1.
</event>
<event>
 5   0  0.5510176E-07  0.2401425E+04  0.7818609E-02  0.8438970E-01
       -1   -1    0    0    0  501  0.00000000000E+00  0.00000000000E+00  0.75832972229E+03  0.75832972230E+03  0.50400001928E-02 0.  1.
        1   -1    0    0  501    0  0.00000000000E+00  0.00000000000E+00 -0.19011660498E+04  0.19011660498E+04  0.50400001928E-02 0. -1.
    10030    2    1    2    0    0  0.00000000000E+00  0.00000000000E+00 -0.11428363275E+04  0.26594957721E+04  0.24014251790E+04 0.  0.
        3    1    3    3  502    0 -0.22035446642E+02 -0.34850351518E+03  0.70085229901E+03  0.78302887318E+03  0.10100000352E+00 0.  1.
       -3    1    3    3    0  502  0.22035446642E+02  0.34850351518E+03 -0.18436886265E+04  0.18764668989E+04  0.10100000352E+00 0. -1.
</event>
<event>
 5   0  0.1275948E-06  0.2401183E+04  0.7818609E-02  0.8439061E-01
       -2   -1    0    0    0  501  0.00000000000E+00  0.00000000000E+00  0.86346893510E+03  0.86346893511E+03  0.25500000920E-02 0. -1.
        2   -1    0    0  501    0  0.00000000000E+00  0.00000000000E+00 -0.16693359399E+04  0.16693359399E+04  0.25500000920E-02 0.  1.
    10030    2    1    2    0    0  0.00000000000E+00  0.00000000000E+00 -0.80586700475E+03  0.25328048750E+04  0.24011828138E+04 0.  0.
        1    1    3    3  502    0 -0.38479482230E+03  0.51356572873E+03 -0.14732479518E+04  0.16069462780E+04  0.50400001928E-02 0.  1.
       -1    1    3    3    0  502  0.38479482230E+03 -0.51356572873E+03  0.66738094705E+03  0.92585859692E+03  0.50400001928E-02 0. -1.
</event>
<event>
 5   0  0.5690124E-07  0.2399362E+04  0.7818609E-02  0.8439742E-01
       -1   -1    0    0    0  501  0.00000000000E+00  0.00000000000E+00  0.59362496408E+03  0.59362496410E+03  0.50400001928E-02 0.  1.
        1   -1    0    0  501    0  0.00000000000E+00  0.00000000000E+00 -0.24244846411E+04  0.24244846411E+04  0.50400001928E-02 0. -1.
    10030    2    1    2    0    0  0.00000000000E+00  0.00000000000E+00 -0.18308596770E+04  0.30181096052E+04  0.23993620885E+04 0.  0.
        2    1    3    3  502    0  0.22278629166E+03  0.41505019697E+03  0.47242527071E+03  0.66714768543E+03  0.25500000920E-02 0.  1.
       -2    1    3    3    0  502 -0.22278629166E+03 -0.41505019697E+03 -0.23032849477E+04  0.23509619197E+04  0.25500000920E-02 0. -1.
</event>
<event>
 5   0  0.1275948E-06  0.2400438E+04  0.7818609E-02  0.8439339E-01
        2   -1    0    0  501    0  0.00000000000E+00  0.00000000000E+00  0.15087107004E+04  0.15087107004E+04  0.25500000920E-02 0. -1.
       -2   -1    0    0    0  501  0.00000000000E+00  0.00000000000E+00 -0.95480612463E+03  0.95480612463E+03  0.25500000920E-02 0.  1.
    10030    2    1    2    0    0  0.00000000000E+00  0.00000000000E+00  0.55390457581E+03  0.24635168251E+04  0.24004384742E+04 0.  0.
        1    1    3    3  502    0 -0.48646252303E+03 -0.49595964328E+03 -0.72749245955E+03  0.10059160168E+04  0.50400001928E-02 0.  1.
       -1    1    3    3    0  502  0.48646252303E+03  0.49595964328E+03  0.12813970354E+04  0.14576008083E+04  0.50400001928E-02 0. -1.
</event>
<event>
 5   0  0.1308662E-06  0.2399499E+04  0.7818609E-02  0.8439691E-01
        2   -1    0    0  501    0  0.00000000000E+00  0.00000000000E+00  0.16748073820E+04  0.16748073820E+04  0.25500000920E-02 0. -1.
       -2   -1    0    0    0  501  0.00000000000E+00  0.00000000000E+00 -0.85944145329E+03  0.85944145330E+03  0.25500000920E-02 0.  1.
    10030    2    1    2    0    0  0.00000000000E+00  0.00000000000E+00  0.81536592872E+03  0.25342488353E+04  0.23994990230E+04 0.  0.
        3    1    3    3  502    0  0.88122992993E+03 -0.81177127431E+03  0.47330162118E+03  0.12882364791E+04  0.10100000352E+00 0. -1.
       -3    1    3    3    0  502 -0.88122992993E+03  0.81177127431E+03  0.34206430754E+03  0.12460123562E+04  0.10100000352E+00 0.  1.
</event>
<event>
 5   0  0.5527286E-07  0.2400720E+04  0.7818609E-02  0.8439234E-01
        1   -1    0    0  501    0  0.00000000000E+00  0.00000000000E+00  0.11713392205E+04  0.11713392205E+04  0.50400001928E-02 0.  1.
       -1   -1    0    0    0  501  0.00000000000E+00  0.00000000000E+00 -0.12301000182E+04  0.12301000182E+04  0.50400001928E-02 0. -1.
    10030    2    1    2    0    0  0.00000000000E+00  0.00000000000E+00 -0.58760797680E+02  0.24014392387E+04  0.24007202223E+04 0.  0.
        1    1    3    3  502    0  0.45034947388E+03  0.83060278676E+01 -0.11423594732E+04  0.12279530955E+04  0.50400001928E-02 0. -1.
       -1    1    3    3    0  502 -0.45034947388E+03 -0.83060278676E+01  0.10835986755E+04  0.11734861432E+04  0.50400001928E-02 0.  1.
</event>
<event>
 5   0  0.5527286E-07  0.2401018E+04  0.7818609E-02  0.8439123E-01
        1   -1    0    0  501    0  0.00000000000E+00  0.00000000000E+00  0.22134485948E+04  0.22134485949E+04  0.50400001928E-02 0.  1.
       -1   -1    0    0    0  501  0.00000000000E+00  0.00000000000E+00 -0.65112035978E+03  0.65112035980E+03  0.50400001928E-02 0. -1.
    10030    2    1    2    0    0  0.00000000000E+00  0.00000000000E+00  0.15623282351E+04  0.28645689547E+04  0.24010176555E+04 0.  0.
        1    1    3    3  502    0 -0.84125739329E+03 -0.47424698118E+02  0.18013970635E+04  0.19887167933E+04  0.50400001928E-02 0.  1.
       -1    1    3    3    0  502  0.84125739329E+03  0.47424698118E+02 -0.23906882840E+03  0.87585216132E+03  0.50400001928E-02 0. -1.
</event>
<event>
 5   0  0.1275948E-06  0.2399373E+04  0.7818609E-02  0.8439738E-01
       -2   -1    0    0    0  501  0.00000000000E+00  0.00000000000E+00  0.10053764174E+04  0.10053764174E+04  0.25500000920E-02 0. -1.
        2   -1    0    0  501    0  0.00000000000E+00  0.00000000000E+00 -0.14315509516E+04  0.14315509516E+04  0.25500000920E-02 0.  1.
    10030    2    1    2    0    0  0.00000000000E+00  0.00000000000E+00 -0.42617453423E+03  0.24369273691E+04  0.23993728907E+04 0.  0.
        1    1    3    3  502    0 -0.29918374829E+03 -0.13506335570E+03 -0.13850519734E+04  0.14234191211E+04  0.50400001928E-02 0.  1.
       -1    1    3    3    0  502  0.29918374829E+03  0.13506335570E+03  0.95887743917E+03  0.10135082479E+04  0.50400001928E-02 0. -1.
</event>
<event>
 5   0  0.5690124E-07  0.2400001E+04  0.7818609E-02  0.8439503E-01
       -1   -1    0    0    0  501  0.00000000000E+00  0.00000000000E+00  0.12338033990E+04  0.12338033990E+04  0.50400001928E-02 0.  1.
        1   -1    0    0  501    0  0.00000000000E+00  0.00000000000E+00 -0.11671237988E+04  0.11671237988E+04  0.50400001928E-02 0. -1.
    10030    2    1    2    0    0  0.00000000000E+00  0.00000000000E+00  0.66679600177E+02  0.24009271978E+04  0.24000010917E+04 0.  0.
        2    1    3    3  502    0  0.40142189603E+03 -0.15226403717E+03 -0.10876627407E+04  0.11693306261E+04  0.25500000920E-02 0. -1.
       -2    1    3    3    0  502 -0.40142189603E+03  0.15226403717E+03  0.11543423409E+04  0.12315965718E+04  0.25500000920E-02 0.  1.
</event>
<event>
 5   0  0.5527286E-07  0.2400023E+04  0.7818609E-02  0.8439495E-01
       -1   -1    0    0    0  501  0.00000000000E+00  0.00000000000E+00  0.14451818782E+04  0.14451818782E+04  0.50400001928E-02 0.  1.
        1   -1    0    0  501    0  0.00000000000E+00  0.00000000000E+00 -0.99643365521E+03  0.99643365522E+03  0.50400001928E-02 0. -1.
    10030    2    1    2    0    0  0.00000000000E+00  0.00000000000E+00  0.44874822295E+03  0.24416155334E+04  0.24000232177E+04 0.  0.
        1    1    3    3  502    0 -0.85174113942E+03 -0.77155279510E+03 -0.12696749995E+03  0.11562341589E+04  0.50400001928E-02 0. -1.
       -1    1    3    3    0  502  0.85174113942E+03  0.77155279510E+03  0.57571572290E+03  0.12853813745E+04  0.50400001928E-02 0.  1.
</event>
<event>
 5   0  0.1308662E-06  0.2396057E+04  0.7818609E-02  0.8440981E-01
       -2   -1    0    0    0  501  0.00000000000E+00  0.00000000000E+00  0.45084930800E+03  0.45084930801E+03  0.25500000920E-02 0.  1.
        2   -1    0    0  501    0  0.00000000000E+00  0.00000000000E+00 -0.31834866370E+04  0.31834866370E+04  0.25500000920E-02 0. -1.
    10030    2    1    2    0    0  0.00000000000E+00  0.00000000000E+00 -0.27326373290E+04  0.36343359450E+04  0.23960573844E+04 0.  0.
        3    1    3    3  502    0  0.39100057934E+03 -0.11577245219E+03 -0.30749824551E+04  0.31019029358E+04  0.10100000352E+00 0. -1.
       -3    1    3    3    0  502 -0.39100057934E+03  0.11577245219E+03  0.34234512610E+03  0.53243300921E+03  0.10100000352E+00 0.  1.
</event>
<event>
 5   0  0.5363690E-07  0.2397847E+04  0.7818609E-02  0.8440310E-01
       -1   -1    0    0    0  501  0.00000000000E+00  0.00000000000E+00  0.13660401667E+04  0.13660401667E+04  0.50400001928E-02 0. -1.
        1   -1    0    0  501    0  0.00000000000E+00  0.00000000000E+00 -0.10522511282E+04  0.10522511282E+04  0.50400001928E-02 0.  1.
    10030    2    1    2    0    0  0.00000000000E+00  0.00000000000E+00  0.31378903849E+03  0.24182912949E+04  0.23978467896E+04 0.  0.
        4    1    3    3  502    0 -0.23916459855E+03 -0.50704800048E+03 -0.91191407335E+03  0.10704607746E+04  0.12699999809E+01 0.  1.
       -4    1    3    3    0  502  0.23916459855E+03  0.50704800048E+03  0.12257031118E+04  0.13478305202E+04  0.12699999809E+01 0. -1.
</event>
<event>
 5   0  0.5527286E-07  0.2398439E+04  0.7818609E-02  0.8440088E-01
        1   -1    0    0  501    0  0.00000000000E+00  0.00000000000E+00  0.13344060651E+04  0.13344060651E+04  0.50400001928E-02 0.  1.
       -1   -1    0    0    0  501  0.00000000000E+00  0.00000000000E+00 -0.10777285337E+04  0.10777285337E+04  0.50400001928E-02 0. -1.
    10030    2    1    2    0    0  0.00000000000E+00  0.00000000000E+00  0.25667753141E+03  0.24121345989E+04  0.23984390691E+04 0.  0.
        1    1    3    3  502    0  0.10275342961E+04  0.23807736803E+03 -0.44555081094E+03  0.11449991651E+04  0.50400001928E-02 0. -1.
       -1    1    3    3    0  502 -0.10275342961E+04 -0.23807736803E+03  0.70222834235E+03  0.12671354338E+04  0.50400001928E-02 0.  1.
</event>
<event>
 5   0  0.5527286E-07  0.2399426E+04  0.7818609E-02  0.8439719E-01
        1   -1    0    0  501    0  0.00000000000E+00  0.00000000000E+00  0.13027049733E+04  0.13027049733E+04  0.50400001928E-02 0.  1.
       -1   -1    0    0    0  501  0.00000000000E+00  0.00000000000E+00 -0.11048634724E+04  0.11048634724E+04  0.50400001928E-02 0. -1.
    10030    2    1    2    0    0  0.00000000000E+00  0.00000000000E+00  0.19784150087E+03  0.24075684457E+04  0.23994258816E+04 0.  0.
        1    1    3    3  502    0  0.84333245619E+03  0.41280907354E+03 -0.65040007227E+03  0.11422089200E+04  0.50400001928E-02 0. -1.
       -1    1    3    3    0  502 -0.84333245619E+03 -0.41280907354E+03  0.84824157314E+03  0.12653595257E+04  0.50400001928E-02 0.  1.
</event>
<event>
 5   0  0.1336057E-06  0.2392350E+04  0.7818609E-02  0.8442373E-01
       -2   -1    0    0    0  501  0.00000000000E+00  0.00000000000E+00  0.76084761256E+03  0.76084761256E+03  0.25500000920E-02 0. -1.
        2   -1    0    0  501    0  0.00000000000E+00  0.00000000000E+00 -0.18805800074E+04  0.18805800074E+04  0.25500000920E-02 0.  1.
    10030    2    1    2    0    0  0.00000000000E+00  0.00000000000E+00 -0.11197323948E+04  0.26414276199E+04  0.23923501490E+04 0.  0.
        2    1    3    3  502    0  0.57002282809E+03 -0.78744225261E+03  0.20972866778E+03  0.99447344853E+03  0.25500000920E-02 0. -1.
       -2    1    3    3    0  502 -0.57002282809E+03  0.78744225261E+03 -0.13294610626E+04  0.16469541714E+04  0.25500000920E-02 0.  1.
</event>
<event>
 5   0  0.1291468E-06  0.2406488E+04  0.7818609E-02  0.8437079E-01
       -2   -1    0    0    0  501  0.00000000000E+00  0.00000000000E+00  0.11250154845E+04  0.11250154845E+04  0.25500000920E-02 0. -1.
        2   -1    0    0  501    0  0.00000000000E+00  0.00000000000E+00 -0.12869121944E+04  0.12869121944E+04  0.25500000920E-02 0.  1.
    10030    2    1    2    0    0  0.00000000000E+00  0.00000000000E+00 -0.16189670991E+03  0.24119276789E+04  0.24064880186E+04 0.  0.
        4    1    3    3  502    0 -0.10315074886E+04 -0.29033951210E+03 -0.62944199582E+03  0.12427805801E+04  0.12699999809E+01 0.  1.
       -4    1    3    3    0  502  0.10315074886E+04  0.29033951210E+03  0.46754528591E+03  0.11691470988E+04  0.12699999809E+01 0. -1.
</event>
<event>
 5   0  0.1308662E-06  0.2397557E+04  0.7818609E-02  0.8440419E-01
       -2   -1    0    0    0  501  0.00000000000E+00  0.00000000000E+00  0.71555261197E+03  0.71555261198E+03  0.25500000920E-02 0. -1.
        2   -1    0    0  501    0  0.00000000000E+00  0.00000000000E+00 -0.20083363034E+04  0.20083363034E+04  0.25500000920E-02 0.  1.
    10030    2    1    2    0    0  0.00000000000E+00  0.00000000000E+00 -0.12927836914E+04  0.27238889154E+04  0.23975573300E+04 0.  0.
        3    1    3    3  502    0  0.99449440832E+03  0.64369860225E+03 -0.85496400568E+03  0.14609347966E+04  0.10100000352E+00 0.  1.
       -3    1    3    3    0  502 -0.99449440832E+03 -0.64369860225E+03 -0.43781968574E+03  0.12629541188E+04  0.10100000352E+00 0. -1.
</event>
<event>
 5   0  0.5510176E-07  0.2399675E+04  0.7818609E-02  0.8439625E-01
       -1   -1    0    0    0  501  0.00000000000E+00  0.00000000000E+00  0.89490254976E+03  0.89490254977E+03  0.50400001928E-02 0. -1.
        1   -1    0    0  501    0  0.00000000000E+00  0.00000000000E+00 -0.16086775433E+04  0.16086775433E+04  0.50400001928E-02 0.  1.
    10030    2    1    2    0    0  0.00000000000E+00  0.00000000000E+00 -0.71377499354E+03  0.25035800931E+04  0.23996746740E+04 0.  0.
        3    1    3    3  502    0 -0.59105850612E+03 -0.70567034210E+02 -0.14437634336E+04  0.15616602468E+04  0.10100000352E+00 0.  1.
       -3    1    3    3    0  502  0.59105850612E+03  0.70567034210E+02  0.72998844007E+03  0.94191984628E+03  0.10100000352E+00 0. -1.
</event>
<event>
 5   0  0.1307477E-06  0.2399574E+04  0.7818609E-02  0.8439663E-01
        2   -1    0    0  501    0  0.00000000000E+00  0.00000000000E+00  0.13272911941E+04  0.13272911941E+04  0.25500000920E-02 0. -1.
       -2   -1    0    0    0  501  0.00000000000E+00  0.00000000000E+00 -0.10845309945E+04  0.10845309945E+04  0.25500000920E-02 0.  1.
    10030    2    1    2    0    0  0.00000000000E+00  0.00000000000E+00  0.24276019957E+03  0.24118221886E+04  0.23995736611E+04 0.  0.
        5    1    3    3  502    0 -0.66556432470E+03  0.18899774943E+03 -0.86381216049E+03  0.11067472874E+04  0.46999998093E+01 0.  1.
       -5    1    3    3    0  502  0.66556432470E+03 -0.18899774943E+03  0.11065723601E+04  0.13050749012E+04  0.46999998093E+01 0. -1.
</event>
<event>
 5   0  0.1336057E-06  0.2401738E+04  0.7818609E-02  0.8438853E-01
        2   -1    0    0  501    0  0.00000000000E+00  0.00000000000E+00  0.16637363739E+04  0.16637363739E+04  0.25500000920E-02 0.  1.
       -2   -1    0    0    0  501  0.00000000000E+00  0.00000000000E+00 -0.86677548050E+03  0.86677548050E+03  0.25500000920E-02 0. -1.
    10030    2    1    2    0    0  0.00000000000E+00  0.00000000000E+00  0.79696089339E+03  0.25305118544E+04  0.24017376167E+04 0.  0.
        2    1    3    3  502    0  0.63118032753E+03  0.29747494511E+03 -0.63126842456E+03  0.94094621137E+03  0.25500000920E-02 0. -1.
       -2    1    3    3    0  502 -0.63118032753E+03 -0.29747494511E+03  0.14282293179E+04  0.15895656430E+04  0.25500000920E-02 0.  1.
</event>
<event>
 5   0  0.5510176E-07  0.2400781E+04  0.7818609E-02  0.8439211E-01
       -1   -1    0    0    0  501  0.00000000000E+00  0.00000000000E+00  0.93088473436E+03  0.93088473438E+03  0.50400001928E-02 0.  1.
        1   -1    0    0  501    0  0.00000000000E+00  0.00000000000E+00 -0.15479226630E+04  0.15479226630E+04  0.50400001928E-02 0. -1.
    10030    2    1    2    0    0  0.00000000000E+00  0.00000000000E+00 -0.61703792862E+03  0.24788073974E+04  0.24007811870E+04 0.  0.
        3    1    3    3  502    0 -0.19920104503E+03 -0.11407310803E+04 -0.63500646680E+03  0.13206747052E+04  0.10100000352E+00 0. -1.
       -3    1    3    3    0  502  0.19920104503E+03  0.11407310803E+04  0.17968538177E+02  0.11581326921E+04  0.10100000352E+00 0.  1.
</event>
<event>
 5   0  0.1307477E-06  0.2401779E+04  0.7818609E-02  0.8438838E-01
       -2   -1    0    0    0  501  0.00000000000E+00  0.00000000000E+00  0.10567925079E+04  0.10567925080E+04  0.25500000920E-02 0.  1.
        2   -1    0    0  501    0  0.00000000000E+00  0.00000000000E+00 -0.13646342043E+04  0.13646342043E+04  0.25500000920E-02 0. -1.
    10030    2    1    2    0    0  0.00000000000E+00  0.00000000000E+00 -0.30784169636E+03  0.24214267123E+04  0.24017786769E+04 0.  0.
        5    1    3    3  502    0 -0.10824201741E+04  0.22291096583E+03 -0.62764815467E+03  0.12709394274E+04  0.46999998093E+01 0. -1.
       -5    1    3    3    0  502  0.10824201741E+04 -0.22291096583E+03  0.31980645831E+03  0.11504872849E+04  0.46999998093E+01 0.  1.
</event>
<event>
 5   0  0.4483375E-07  0.2399636E+04  0.7818609E-02  0.8439640E-01
       -3   -1    0    0    0  501  0.00000000000E+00  0.00000000000E+00  0.10101973425E+04  0.10101973476E+04  0.10100000352E+00 0.  1.
        3   -1    0    0  501    0  0.00000000000E+00  0.00000000000E+00 -0.14250318792E+04  0.14250318828E+04  0.10100000352E+00 0. -1.
    10030    2    1    2    0    0  0.00000000000E+00  0.00000000000E+00 -0.41483453669E+03  0.24352292303E+04  0.23996361623E+04 0.  0.
        2    1    3    3  502    0  0.89559214727E+03 -0.79762532806E+03 -0.24361095529E+03  0.12237801092E+04  0.25500000920E-02 0.  1.
       -2    1    3    3    0  502 -0.89559214727E+03  0.79762532806E+03 -0.17122358140E+03  0.12114491211E+04  0.25500000920E-02 0. -1.
</event>
<event>
 5   0  0.1307477E-06  0.2398895E+04  0.7818609E-02  0.8439918E-01
        2   -1    0    0  501    0  0.00000000000E+00  0.00000000000E+00  0.19053961133E+04  0.19053961133E+04  0.25500000920E-02 0. -1.
       -2   -1    0    0    0  501  0.00000000000E+00  0.00000000000E+00 -0.75505237604E+03  0.75505237605E+03  0.25500000920E-02 0.  1.
    10030    2    1    2    0    0  0.00000000000E+00  0.00000000000E+00  0.11503437373E+04  0.26604484894E+04  0.23988946310E+04 0.  0.
        5    1    3    3  502    0 -0.96658831320E+03 -0.78517821256E+02  0.13579574596E+04  0.16686906746E+04  0.46999998093E+01 0. -1.
       -5    1    3    3    0  502  0.96658831320E+03  0.78517821256E+02 -0.20761372230E+03  0.99175781477E+03  0.46999998093E+01 0.  1.
</event>
<event>
 5   0  0.1275948E-06  0.2400468E+04  0.7818609E-02  0.8439328E-01
       -2   -1    0    0    0  501  0.00000000000E+00  0.00000000000E+00  0.97494111450E+03  0.97494111450E+03  0.25500000920E-02 0.  1.
        2   -1    0    0  501    0  0.00000000000E+00  0.00000000000E+00 -0.14775884334E+04  0.14775884334E+04  0.25500000920E-02 0. -1.
    10030    2    1    2    0    0  0.00000000000E+00  0.00000000000E+00 -0.50264731892E+03  0.24525295479E+04  0.24004680494E+04 0.  0.
        1    1    3    3  502    0 -0.11754764050E+04 -0.55004022827E+02 -0.49264865663E+03  0.12757244687E+04  0.50400001928E-02 0. -1.
       -1    1    3    3    0  502  0.11754764050E+04  0.55004022827E+02 -0.99986622932E+01  0.11768050792E+04  0.50400001928E-02 0.  1.
</event>
<event>
 5   0  0.1291468E-06  0.2400477E+04  0.7818609E-02  0.8439325E-01
        2   -1    0    0  501    0  0.00000000000E+00  0.00000000000E+00  0.71857191051E+03  0.71857191051E+03  0.25500000920E-02 0. -1.
       -2   -1    0    0    0  501  0.00000000000E+00  0.00000000000E+00 -0.20047711817E+04  0.20047711818E+04  0.25500000920E-02 0.  1.
    10030    2    1    2    0    0  0.00000000000E+00  0.00000000000E+00 -0.12861992712E+04  0.27233430923E+04  0.24004768345E+04 0.  0.
        4    1    3    3  502    0  0.28370141864E+03  0.10693732311E+04 -0.11519083080E+03  0.11123471323E+04  0.12699999809E+01 0. -1.
       -4    1    3    3    0  502 -0.28370141864E+03 -0.10693732311E+04 -0.11710084404E+04  0.16109959599E+04  0.12699999809E+01 0.  1.
</event>
<event>
 5   0  0.5510176E-07  0.2399836E+04  0.7818609E-02  0.8439565E-01
       -1   -1    0    0    0  501  0.00000000000E+00  0.00000000000E+00  0.12531393711E+04  0.12531393711E+04  0.50400001928E-02 0. -1.
        1   -1    0    0  501    0  0.00000000000E+00  0.00000000000E+00 -0.11489566187E+04  0.11489566187E+04  0.50400001928E-02 0.  1.
    10030    2    1    2    0    0  0.00000000000E+00  0.00000000000E+00  0.10418275240E+03  0.24020959898E+04  0.23998356399E+04 0.  0.
        3    1    3    3  502    0  0.63228520502E+02  0.92418905081E+03 -0.71130614417E+03  0.11679382211E+04  0.10100000352E+00 0.  1.
       -3    1    3    3    0  502 -0.63228520502E+02 -0.92418905081E+03  0.81548889657E+03  0.12341577687E+04  0.10100000352E+00 0. -1.
</event>
<event>
 5   0  0.5363690E-07  0.2400729E+04  0.7818609E-02  0.8439231E-01
       -1   -1    0    0    0  501  0.00000000000E+00  0.00000000000E+00  0.81590720838E+03  0.81590720840E+03  0.50400001928E-02 0. -1.
        1   -1    0    0  501    0  0.00000000000E+00  0.00000000000E+00 -0.17659790494E+04  0.17659790495E+04  0.50400001928E-02 0.  1.
    10030    2    1    2    0    0  0.00000000000E+00  0.00000000000E+00 -0.95007184106E+03  0.25818862578E+04  0.24007290862E+04 0.  0.
        4    1    3    3  502    0  0.31917907159E+03  0.51715405244E+03 -0.15883049761E+04  0.17005992778E+04  0.12699999809E+01 0.  1.
       -4    1    3    3    0  502 -0.31917907159E+03 -0.51715405244E+03  0.63823313501E+03  0.88128698006E+03  0.12699999809E+01 0. -1.
</event>
<event>
 5   0  0.1275948E-06  0.2400343E+04  0.7818609E-02  0.8439375E-01
        2   -1    0    0  501    0  0.00000000000E+00  0.00000000000E+00  0.85272467120E+03  0.85272467121E+03  0.25500000920E-02 0. -1.
       -2   -1    0    0    0  501  0.00000000000E+00  0.00000000000E+00 -0.16891876718E+04  0.16891876718E+04  0.25500000920E-02 0.  1.
    10030    2    1    2    0    0  0.00000000000E+00  0.00000000000E+00 -0.83646300058E+03  0.25419123430E+04  0.24003433105E+04 0.  0.
        1    1    3    3  502    0  0.49108800309E+03 -0.10383102234E+04 -0.78683587716E+03  0.13922522201E+04  0.50400001928E-02 0.  1.
       -1    1    3    3    0  502 -0.49108800309E+03  0.10383102234E+04 -0.49627123426E+02  0.11496601229E+04  0.50400001928E-02 0. -1.
</event>
<event>
 5   0  0.5527286E-07  0.2405297E+04  0.7818609E-02  0.8437523E-01
        1   -1    0    0  501    0  0.00000000000E+00  0.00000000000E+00  0.12658893693E+04  0.12658893693E+04  0.50400001928E-02 0.  1.
       -1   -1    0    0    0  501  0.00000000000E+00  0.00000000000E+00 -0.11425669561E+04  0.11425669561E+04  0.50400001928E-02 0. -1.
    10030    2    1    2    0    0  0.00000000000E+00  0.00000000000E+00  0.12332241319E+03  0.24084563255E+04  0.24052969576E+04 0.  0.
        1    1    3    3  502    0 -0.88515908397E+03 -0.64187734848E+03 -0.43984616880E+03  0.11785490175E+04  0.50400001928E-02 0. -1.
       -1    1    3    3    0  502  0.88515908397E+03  0.64187734848E+03  0.56316858199E+03  0.12299073080E+04  0.50400001928E-02 0.  1.
</event>
<event>
 5   0  0.1291468E-06  0.2395899E+04  0.7818609E-02  0.8441041E-01
       -2   -1    0    0    0  501  0.00000000000E+00  0.00000000000E+00  0.11922794764E+04  0.11922794764E+04  0.25500000920E-02 0. -1.
        2   -1    0    0  501    0  0.00000000000E+00  0.00000000000E+00 -0.12036463447E+04  0.12036463447E+04  0.25500000920E-02 0.  1.
    10030    2    1    2    0    0  0.00000000000E+00  0.00000000000E+00 -0.11366868277E+02  0.23959258211E+04  0.23958988574E+04 0.  0.
        4    1    3    3  502    0  0.76260066901E+03  0.34704142624E+03 -0.86189613518E+03  0.12020249967E+04  0.12699999809E+01 0.  1.
       -4    1    3    3    0  502 -0.76260066901E+03 -0.34704142624E+03  0.85052926690E+03  0.11939008245E+04  0.12699999809E+01 0. -1.
</event>
<event>
 5   0  0.1307477E-06  0.2400703E+04  0.7818609E-02  0.8439240E-01
        2   -1    0    0  501    0  0.00000000000E+00  0.00000000000E+00  0.13447464894E+04  0.13447464894E+04  0.25500000920E-02 0. -1.
       -2   -1    0    0    0  501  0.00000000000E+00  0.00000000000E+00 -0.10714612199E+04  0.10714612199E+04  0.25500000920E-02 0.  1.
    10030    2    1    2    0    0  0.00000000000E+00  0.00000000000E+00  0.27328526951E+03  0.24162077094E+04  0.24007029921E+04 0.  0.
        5    1    3    3  502    0 -0.69907514603E+03  0.48460187708E+02  0.11174967301E+04  0.13190433963E+04  0.46999998093E+01 0. -1.
       -5    1    3    3    0  502  0.69907514603E+03 -0.48460187708E+02 -0.84421146062E+03  0.10971643130E+04  0.46999998093E+01 0.  1.
</event>
<event>
 5   0  0.1307477E-06  0.2405281E+04  0.7818609E-02  0.8437529E-01
        2   -1    0    0  501    0  0.00000000000E+00  0.00000000000E+00  0.17166731849E+04  0.17166731849E+04  0.25500000920E-02 0. -1.
       -2   -1    0    0    0  501  0.00000000000E+00  0.00000000000E+00 -0.84252718139E+03  0.84252718139E+03  0.25500000920E-02 0.  1.
    10030    2    1    2    0    0  0.00000000000E+00  0.00000000000E+00  0.87414600347E+03  0.25592003662E+04  0.24052807069E+04 0.  0.
        5    1    3    3  502    0 -0.62141052666E+03  0.29311663198E+03 -0.61313293813E+03  0.92088136717E+03  0.46999998093E+01 0.  1.
       -5    1    3    3    0  502  0.62141052666E+03 -0.29311663198E+03  0.14872789416E+04  0.16383189991E+04  0.46999998093E+01 0. -1.
</event>
<event>
 5   0  0.5363690E-07  0.2400324E+04  0.7818609E-02  0.8439382E-01
       -1   -1    0    0    0  501  0.00000000000E+00  0.00000000000E+00  0.71303198938E+03  0.71303198940E+03  0.50400001928E-02 0.  1.
        1   -1    0    0  501    0  0.00000000000E+00  0.00000000000E+00 -0.20200895077E+04  0.20200895077E+04  0.50400001928E-02 0. -1.
    10030    2    1    2    0    0  0.00000000000E+00  0.00000000000E+00 -0.13070575183E+04  0.27331214971E+04  0.24003236785E+04 0.  0.
        4    1    3    3  502    0 -0.63969311000E+03  0.42777971760E+03  0.39512998718E+03  0.86506189458E+03  0.12699999809E+01 0.  1.
       -4    1    3    3    0  502  0.63969311000E+03 -0.42777971760E+03 -0.17021875055E+04  0.18680596025E+04  0.12699999809E+01 0. -1.
</event>
<event>
 5   0  0.5363690E-07  0.2401141E+04  0.7818609E-02  0.8439076E-01
       -1   -1    0    0    0  501  0.00000000000E+00  0.00000000000E+00  0.13390561311E+04  0.13390561311E+04  0.50400001928E-02 0. -1.
        1   -1    0    0  501    0  0.00000000000E+00  0.00000000000E+00 -0.10764071987E+04  0.10764071987E+04  0.50400001928E-02 0.  1.
    10030    2    1    2    0    0  0.00000000000E+00  0.00000000000E+00  0.26264893233E+03  0.24154633298E+04  0.24011411112E+04 0.  0.
        4    1    3    3  502    0  0.11634647238E+04  0.24854339873E+03  0.29335682268E+03  0.12253504898E+04  0.12699999809E+01 0. -1.
       -4    1    3    3    0  502 -0.11634647238E+04 -0.24854339873E+03 -0.30707890346E+02  0.11901128400E+04  0.12699999809E+01 0.  1.
</event>
<event>
 5   0  0.5527286E-07  0.2400447E+04  0.7818609E-02  0.8439336E-01
        1   -1    0    0  501    0  0.00000000000E+00  0.00000000000E+00  0.95504867308E+03  0.95504867309E+03  0.50400001928E-02 0.  1.
       -1   -1    0    0    0  501  0.00000000000E+00  0.00000000000E+00 -0.15083382945E+04  0.15083382945E+04  0.50400001928E-02 0. -1.
    10030    2    1    2    0    0  0.00000000000E+00  0.00000000000E+00 -0.55328962140E+03  0.24633869676E+04  0.24004470306E+04 0.  0.
        1    1    3    3  502    0 -0.35801396249E+03 -0.11278633287E+04 -0.48262331708E+03  0.12779573357E+04  0.50400001928E-02 0. -1.
       -1    1    3    3    0  502  0.35801396249E+03  0.11278633287E+04 -0.70666304323E+02  0.11854296319E+04  0.50400001928E-02 0.  1.
</event>
<event>
 5   0  0.1307477E-06  0.2399907E+04  0.7818609E-02  0.8439538E-01
       -2   -1    0    0    0  501  0.00000000000E+00  0.00000000000E+00  0.77073529600E+03  0.77073529600E+03  0.25500000920E-02 0. -1.
        2   -1    0    0  501    0  0.00000000000E+00  0.00000000000E+00 -0.18682011564E+04  0.18682011564E+04  0.25500000920E-02 0.  1.
    10030    2    1    2    0    0  0.00000000000E+00  0.00000000000E+00 -0.10974658604E+04  0.26389364524E+04  0.23999071410E+04 0.  0.
        5    1    3    3  502    0  0.44340454748E+03  0.72823758908E+03  0.37971511246E+03  0.93335054268E+03  0.46999998093E+01 0. -1.
       -5    1    3    3    0  502 -0.44340454748E+03 -0.72823758908E+03 -0.14771809729E+04  0.17055859098E+04  0.46999998093E+01 0.  1.
</event>
<event>
 5   0  0.1291468E-06  0.2400796E+04  0.7818609E-02  0.8439206E-01
       -2   -1    0    0    0  501  0.00000000000E+00  0.00000000000E+00  0.55382684470E+03  0.55382684470E+03  0.25500000920E-02 0. -1.
        2   -1    0    0  501    0  0.00000000000E+00  0.00000000000E+00 -0.26018153586E+04  0.26018153586E+04  0.25500000920E-02 0.  1.
    10030    2    1    2    0    0  0.00000000000E+00  0.00000000000E+00 -0.20479885139E+04  0.31556422033E+04  0.24007958602E+04 0.  0.
        4    1    3    3  502    0 -0.48738961159E+03  0.59813973258E+02  0.41577163067E+03  0.64342366032E+03  0.12699999809E+01 0. -1.
       -4    1    3    3    0  502  0.48738961159E+03 -0.59813973258E+02 -0.24637601446E+04  0.25122185430E+04  0.12699999809E+01 0.  1.
</event>
<event>
 5   0  0.1275948E-06  0.2399986E+04  0.7818609E-02  0.8439509E-01
        2   -1    0    0  501    0  0.00000000000E+00  0.00000000000E+00  0.22966917885E+04  0.22966917885E+04  0.25500000920E-02 0. -1.
       -2   -1    0    0    0  501  0.00000000000E+00  0.00000000000E+00 -0.62698158113E+03  0.62698158113E+03  0.25500000920E-02 0.  1.
    10030    2    1    2    0    0  0.00000000000E+00  0.00000000000E+00  0.16697102074E+04  0.29236733696E+04  0.23999862074E+04 0.  0.
        1    1    3    3  502    0 -0.19225079907E+03 -0.11833084883E+04  0.77034660996E+03  0.14249958764E+04  0.50400001928E-02 0. -1.
       -1    1    3    3    0  502  0.19225079907E+03  0.11833084883E+04  0.89936359742E+03  0.14986774932E+04  0.50400001928E-02 0.  1.
</event>
<event>
 5   0  0.1275948E-06  0.2400292E+04  0.7818609E-02  0.8439394E-01
       -2   -1    0    0    0  501  0.00000000000E+00  0.00000000000E+00  0.98654008564E+03  0.98654008564E+03  0.25500000920E-02 0. -1.
        2   -1    0    0  501    0  0.00000000000E+00  0.00000000000E+00 -0.14600017515E+04  0.14600017515E+04  0.25500000920E-02 0.  1.
    10030    2    1    2    0    0  0.00000000000E+00  0.00000000000E+00 -0.47346166582E+03  0.24465418371E+04  0.24002918597E+04 0.  0.
        1    1    3    3  502    0  0.87488736533E+03 -0.79838519371E+03 -0.39341304870E+02  0.11850715412E+04  0.50400001928E-02 0.  1.
       -1    1    3    3    0  502 -0.87488736533E+03  0.79838519371E+03 -0.43412036095E+03  0.12614702959E+04  0.50400001928E-02 0. -1.
</event>
<event>
 5   0  0.5690124E-07  0.2411172E+04  0.7818609E-02  0.8435333E-01
       -1   -1    0    0    0  501  0.00000000000E+00  0.00000000000E+00  0.88984677446E+03  0.88984677447E+03  0.50400001928E-02 0. -1.
        1   -1    0    0  501    0  0.00000000000E+00  0.00000000000E+00 -0.16333577625E+04  0.16333577625E+04  0.50400001928E-02 0.  1.
    10030    2    1    2    0    0  0.00000000000E+00  0.00000000000E+00 -0.74351098800E+03  0.25232045369E+04  0.24111724422E+04 0.  0.
        2    1    3    3  502    0  0.20834068179E+03  0.72019118908E+03  0.61622873610E+03  0.97047361825E+03  0.25500000920E-02 0. -1.
       -2    1    3    3    0  502 -0.20834068179E+03 -0.72019118908E+03 -0.13597397241E+04  0.15527309187E+04  0.25500000920E-02 0.  1.
</event>
<event>
 5   0  0.5452384E-07  0.2400493E+04  0.7818609E-02  0.8439319E-01
       -1   -1    0    0    0  501  0.00000000000E+00  0.00000000000E+00  0.80603646028E+03  0.80603646029E+03  0.50400001928E-02 0. -1.
        1   -1    0    0  501    0  0.00000000000E+00  0.00000000000E+00 -0.17872532859E+04  0.17872532859E+04  0.50400001928E-02 0.  1.
    10030    2    1    2    0    0  0.00000000000E+00  0.00000000000E+00 -0.98121682561E+03  0.25932897462E+04  0.24004927096E+04 0.  0.
        5    1    3    3  502    0  0.52224082443E+03 -0.17801876526E+02 -0.16579077196E+04  0.17383131140E+04  0.46999998093E+01 0.  1.
       -5    1    3    3    0  502 -0.52224082443E+03  0.17801876526E+02  0.67669089403E+03  0.85497663218E+03  0.46999998093E+01 0. -1.
</event>
<event>
 5   0  0.1307477E-06  0.2400041E+04  0.7818609E-02  0.8439488E-01
       -2   -1    0    0    0  501  0.00000000000E+00  0.00000000000E+00  0.13966359503E+04  0.13966359503E+04  0.25500000920E-02 0. -1.
        2   -1    0    0  501    0  0.00000000000E+00  0.00000000000E+00 -0.10310842713E+04  0.10310842713E+04  0.25500000920E-02 0.  1.
    10030    2    1    2    0    0  0.00000000000E+00  0.00000000000E+00  0.36555167901E+03  0.24277202216E+04  0.24000411339E+04 0.  0.
        5    1    3    3  502    0  0.17922428379E+03 -0.92356663288E+03 -0.57075197553E+03  0.11003983719E+04  0.46999998093E+01 0.  1.
       -5    1    3    3    0  502 -0.17922428379E+03  0.92356663288E+03  0.93630365454E+03  0.13273218497E+04  0.46999998093E+01 0. -1.
</event>
<event>
 5   0  0.5363690E-07  0.2399837E+04  0.7818609E-02  0.8439565E-01
       -1   -1    0    0    0  501  0.00000000000E+00  0.00000000000E+00  0.15458166451E+04  0.15458166451E+04  0.50400001928E-02 0.  1.
        1   -1    0    0  501    0  0.00000000000E+00  0.00000000000E+00 -0.93141985885E+03  0.93141985886E+03  0.50400001928E-02 0. -1.
    10030    2    1    2    0    0  0.00000000000E+00  0.00000000000E+00  0.61439678623E+03  0.24772365039E+04  0.23998369290E+04 0.  0.
        4    1    3    3  502    0 -0.18091920949E+03 -0.44420156121E+03  0.14425610800E+04  0.15202075088E+04  0.12699999809E+01 0.  1.
       -4    1    3    3    0  502  0.18091920949E+03  0.44420156121E+03 -0.82816429373E+03  0.95702899520E+03  0.12699999809E+01 0. -1.
</event>
<event>
 5   0  0.1336057E-06  0.2398574E+04  0.7818609E-02  0.8440038E-01
        2   -1    0    0  501    0  0.00000000000E+00  0.00000000000E+00  0.23235037377E+04  0.23235037377E+04  0.25500000920E-02 0. -1.
       -2   -1    0    0    0  501  0.00000000000E+00  0.00000000000E+00 -0.61901717883E+03  0.61901717883E+03  0.25500000920E-02 0.  1.
    10030    2    1    2    0    0  0.00000000000E+00  0.00000000000E+00  0.17044865588E+04  0.29425209165E+04  0.23985735166E+04 0.  0.
        2    1    3    3  502    0 -0.72844749588E+03 -0.87689456127E+03  0.13091406858E+04  0.17359231438E+04  0.25500000920E-02 0.  1.
       -2    1    3    3    0  502  0.72844749588E+03  0.87689456127E+03  0.39534587303E+03  0.12065977727E+04  0.25500000920E-02 0. -1.
</event>
<event>
 5   0  0.5527286E-07  0.2402243E+04  0.7818609E-02  0.8438664E-01
        1   -1    0    0  501    0  0.00000000000E+00  0.00000000000E+00  0.14386725635E+04  0.14386725635E+04  0.50400001928E-02 0.  1.
       -1   -1    0    0    0  501  0.00000000000E+00  0.00000000000E+00 -0.10027942282E+04  0.10027942282E+04  0.50400001928E-02 0. -1.
    10030    2    1    2    0    0  0.00000000000E+00  0.00000000000E+00  0.43587833529E+03  0.24414667916E+04  0.24022427378E+04 0.  0.
        1    1    3    3  502    0 -0.71972235669E+03 -0.31855933384E+03  0.11400642545E+04  0.13853616223E+04  0.50400001928E-02 0.  1.
       -1    1    3    3    0  502  0.71972235669E+03  0.31855933384E+03 -0.70418591925E+03  0.10561051694E+04  0.50400001928E-02 0. -1.
</event>
<event>
 5   0  0.1308662E-06  0.2400168E+04  0.7818609E-02  0.8439441E-01
        2   -1    0    0  501    0  0.00000000000E+00  0.00000000000E+00  0.15439515823E+04  0.15439515823E+04  0.25500000920E-02 0. -1.
       -2   -1    0    0    0  501  0.00000000000E+00  0.00000000000E+00 -0.93280197096E+03  0.93280197096E+03  0.25500000920E-02 0.  1.
    10030    2    1    2    0    0  0.00000000000E+00  0.00000000000E+00  0.61114961135E+03  0.24767535533E+04  0.24001675600E+04 0.  0.
        3    1    3    3  502    0  0.24305173093E+03  0.10983021423E+04 -0.12593000021E+03  0.11319011065E+04  0.10100000352E+00 0.  1.
       -3    1    3    3    0  502 -0.24305173093E+03 -0.10983021423E+04  0.73707961156E+03  0.13448524468E+04  0.10100000352E+00 0. -1.
</event>
<event>
 5   0  0.1307477E-06  0.2399687E+04  0.7818609E-02  0.8439621E-01
        2   -1    0    0  501    0  0.00000000000E+00  0.00000000000E+00  0.13179999641E+04  0.13179999641E+04  0.25500000920E-02 0. -1.
       -2   -1    0    0    0  501  0.00000000000E+00  0.00000000000E+00 -0.10922798503E+04  0.10922798503E+04  0.25500000920E-02 0.  1.
    10030    2    1    2    0    0  0.00000000000E+00  0.00000000000E+00  0.22572011377E+03  0.24102798143E+04  0.23996873158E+04 0.  0.
        5    1    3    3  502    0  0.99438222756E+03  0.48227337896E+03  0.58206132239E+03  0.12490801013E+04  0.46999998093E+01 0. -1.
       -5    1    3    3    0  502 -0.99438222756E+03 -0.48227337896E+03 -0.35634120862E+03  0.11611997130E+04  0.46999998093E+01 0.  1.
</event>
<event>
 5   0  0.5527286E-07  0.2400080E+04  0.7818609E-02  0.8439474E-01
        1   -1    0    0  501    0  0.00000000000E+00  0.00000000000E+00  0.23692257727E+04  0.23692257727E+04  0.50400001928E-02 0.  1.
       -1   -1    0    0    0  501  0.00000000000E+00  0.00000000000E+00 -0.60783379017E+03  0.60783379019E+03  0.50400001928E-02 0. -1.
    10030    2    1    2    0    0  0.00000000000E+00  0.00000000000E+00  0.17613919826E+04  0.29770595629E+04  0.24000795664E+04 0.  0.
        1    1    3    3  502    0  0.17764865997E+03  0.50256081300E+02 -0.59011276466E+03  0.61831852239E+03  0.50400001928E-02 0. -1.
       -1    1    3    3    0  502 -0.17764865997E+03 -0.50256081300E+02  0.23515047472E+04  0.23587410405E+04  0.50400001928E-02 0.  1.
</event>
<event>
 5   0  0.5363690E-07  0.2400616E+04  0.7818609E-02  0.8439273E-01
       -1   -1    0    0    0  501  0.00000000000E+00  0.00000000000E+00  0.12604002890E+04  0.12604002890E+04  0.50400001928E-02 0.  1.
        1   -1    0    0  501    0  0.00000000000E+00  0.00000000000E+00 -0.11430811015E+04  0.11430811015E+04  0.50400001928E-02 0. -1.
    10030    2    1    2    0    0  0.00000000000E+00  0.00000000000E+00  0.11731918750E+03  0.24034813905E+04  0.24006163798E+04 0.  0.
        4    1    3    3  502    0  0.19751467033E+03 -0.11754759929E+04  0.20018700137E+03  0.12086489578E+04  0.12699999809E+01 0.  1.
       -4    1    3    3    0  502 -0.19751467033E+03  0.11754759929E+04 -0.82867813866E+02  0.11948324327E+04  0.12699999809E+01 0. -1.
</event>
<event>
 5   0  0.5452384E-07  0.2399310E+04  0.7818609E-02  0.8439762E-01
        1   -1    0    0  501    0  0.00000000000E+00  0.00000000000E+00  0.17286384253E+04  0.17286384253E+04  0.50400001928E-02 0.  1.
       -1   -1    0    0    0  501  0.00000000000E+00  0.00000000000E+00 -0.83254654179E+03  0.83254654180E+03  0.50400001928E-02 0. -1.
    10030    2    1    2    0    0  0.00000000000E+00  0.00000000000E+00  0.89609188348E+03  0.25611849671E+04  0.23993098533E+04 0.  0.
        5    1    3    3  502    0  0.36346780327E+01 -0.17693128984E+03 -0.81852644857E+03  0.83745180710E+03  0.46999998093E+01 0. -1.
       -5    1    3    3    0  502 -0.36346780327E+01  0.17693128984E+03  0.17146183320E+04  0.17237331600E+04  0.46999998093E+01 0.  1.
</event>
<event>
 5   0  0.5452384E-07  0.2401457E+04  0.7818609E-02  0.8438958E-01
       -1   -1    0    0    0  501  0.00000000000E+00  0.00000000000E+00  0.67747351422E+03  0.67747351424E+03  0.50400001928E-02 0. -1.
        1   -1    0    0  501    0  0.00000000000E+00  0.00000000000E+00 -0.21281257191E+04  0.21281257191E+04  0.50400001928E-02 0.  1.
    10030    2    1    2    0    0  0.00000000000E+00  0.00000000000E+00 -0.14506522049E+04  0.28055992334E+04  0.24014568992E+04 0.  0.
        5    1    3    3  502    0 -0.10328606742E+04 -0.42066762442E+03 -0.12451356761E+04  0.16715703289E+04  0.46999998093E+01 0.  1.
       -5    1    3    3    0  502  0.10328606742E+04  0.42066762442E+03 -0.20551652878E+03  0.11340289045E+04  0.46999998093E+01 0. -1.
</event>
<event>
 5   0  0.1307477E-06  0.2400141E+04  0.7818609E-02  0.8439451E-01
       -2   -1    0    0    0  501  0.00000000000E+00  0.00000000000E+00  0.20302668819E+04  0.20302668819E+04  0.25500000920E-02 0.  1.
        2   -1    0    0  501    0  0.00000000000E+00  0.00000000000E+00 -0.70934948282E+03  0.70934948282E+03  0.25500000920E-02 0. -1.
    10030    2    1    2    0    0  0.00000000000E+00  0.00000000000E+00  0.13209173991E+04  0.27396163648E+04  0.24001406315E+04 0.  0.
        5    1    3    3  502    0 -0.24221289501E+03  0.45747365781E+03  0.18962736553E+04  0.19656614917E+04  0.46999998093E+01 0.  1.
       -5    1    3    3    0  502  0.24221289501E+03 -0.45747365781E+03 -0.57535625616E+03  0.77395487310E+03  0.46999998093E+01 0. -1.
</event>
<event>
 5   0  0.1307477E-06  0.2398313E+04  0.7818609E-02  0.8440136E-01
       -2   -1    0    0    0  501  0.00000000000E+00  0.00000000000E+00  0.12530286426E+04  0.12530286426E+04  0.25500000920E-02 0. -1.
        2   -1    0    0  501    0  0.00000000000E+00  0.00000000000E+00 -0.11476002002E+04  0.11476002002E+04  0.25500000920E-02 0.  1.
    10030    2    1    2    0    0  0.00000000000E+00  0.00000000000E+00  0.10542844237E+03  0.24006288429E+04  0.23983126745E+04 0.  0.
        5    1    3    3  502    0 -0.10867288572E+04 -0.12515996865E+03 -0.43899251829E+03  0.11787201313E+04  0.46999998093E+01 0. -1.
       -5    1    3    3    0  502  0.10867288572E+04  0.12515996865E+03  0.54442096066E+03  0.12219087115E+04  0.46999998093E+01 0.  1.
</event>
<event>
 5   0  0.1308662E-06  0.2400014E+04  0.7818609E-02  0.8439498E-01
       -2   -1    0    0    0  501  0.00000000000E+00  0.00000000000E+00  0.71836280574E+03  0.71836280575E+03  0.25500000920E-02 0. -1.
        2   -1    0    0  501    0  0.00000000000E+00  0.00000000000E+00 -0.20045814441E+04  0.20045814441E+04  0.25500000920E-02 0.  1.
    10030    2    1    2    0    0  0.00000000000E+00  0.00000000000E+00 -0.12862186384E+04  0.27229442499E+04  0.24000139588E+04 0.  0.
        3    1    3    3  502    0 -0.55452794943E+03 -0.76277102473E+03 -0.14850488224E+04  0.17591733564E+04  0.10100000352E+00 0.  1.
       -3    1    3    3    0  502  0.55452794943E+03  0.76277102473E+03  0.19883018397E+03  0.96377089348E+03  0.10100000352E+00 0. -1.
</event>
<event>
 5   0  0.1307477E-06  0.2411959E+04  0.7818609E-02  0.8435040E-01
        2   -1    0    0  501    0  0.00000000000E+00  0.00000000000E+00  0.66401425236E+03  0.66401425236E+03  0.25500000920E-02 0. -1.
       -2   -1    0    0    0  501  0.00000000000E+00  0.00000000000E+00 -0.21902946872E+04  0.21902946872E+04  0.25500000920E-02 0.  1.
    10030    2    1    2    0    0  0.00000000000E+00  0.00000000000E+00 -0.15262804348E+04  0.28543089395E+04  0.24119592775E+04 0.  0.
        5    1    3    3  502    0 -0.35379825309E+03 -0.80648976700E+02  0.59786441884E+03  0.69938645586E+03  0.46999998093E+01 0. -1.
       -5    1    3    3    0  502  0.35379825309E+03  0.80648976700E+02 -0.21241448536E+04  0.21549224837E+04  0.46999998093E+01 0.  1.
</event>
<event>
 5   0  0.5690124E-07  0.2402959E+04  0.7818609E-02  0.8438397E-01
        1   -1    0    0  501    0  0.00000000000E+00  0.00000000000E+00  0.11359544434E+04  0.11359544434E+04  0.50400001928E-02 0.  1.
       -1   -1    0    0    0  501  0.00000000000E+00  0.00000000000E+00 -0.12707838208E+04  0.12707838208E+04  0.50400001928E-02 0. -1.
    10030    2    1    2    0    0  0.00000000000E+00  0.00000000000E+00 -0.13482937738E+03  0.24067382642E+04  0.24029586162E+04 0.  0.
        2    1    3    3  502    0 -0.16766635761E+02  0.74766521778E+03  0.87441973072E+03  0.11506060418E+04  0.25500000920E-02 0.  1.
       -2    1    3    3    0  502  0.16766635761E+02 -0.74766521778E+03 -0.10092491081E+04  0.12561322224E+04  0.25500000920E-02 0. -1.
</event>
<event>
 5   0  0.1308662E-06  0.2398756E+04  0.7818609E-02  0.8439969E-01
        2   -1    0    0  501    0  0.00000000000E+00  0.00000000000E+00  0.11173166344E+04  0.11173166344E+04  0.25500000920E-02 0. -1.
       -2   -1    0    0    0  501  0.00000000000E+00  0.00000000000E+00 -0.12874662020E+04  0.12874662020E+04  0.25500000920E-02 0.  1.
    10030    2    1    2    0    0  0.00000000000E+00  0.00000000000E+00 -0.17014956768E+03  0.24047828364E+04  0.23987558473E+04 0.  0.
        3    1    3    3  502    0 -0.36608443454E+03 -0.11188695962E+04  0.14489295673E+03  0.11861201312E+04  0.10100000352E+00 0. -1.
       -3    1    3    3    0  502  0.36608443454E+03  0.11188695962E+04 -0.31504252441E+03  0.12186627052E+04  0.10100000352E+00 0.  1.
</event>
<event>
 5   0  0.1291468E-06  0.2399446E+04  0.7818609E-02  0.8439711E-01
        2   -1    0    0  501    0  0.00000000000E+00  0.00000000000E+00  0.16335838455E+04  0.16335838455E+04  0.25500000920E-02 0.  1.
       -2   -1    0    0    0  501  0.00000000000E+00  0.00000000000E+00 -0.88109088076E+03  0.88109088076E+03  0.25500000920E-02 0. -1.
    10030    2    1    2    0    0  0.00000000000E+00  0.00000000000E+00  0.75249296470E+03  0.25146747262E+04  0.23994464605E+04 0.  0.
        4    1    3    3  502    0  0.88557521936E+03  0.67379603414E+03 -0.93718623898E+02  0.11167046871E+04  0.12699999809E+01 0. -1.
       -4    1    3    3    0  502 -0.88557521936E+03 -0.67379603414E+03  0.84621158860E+03  0.13979700391E+04  0.12699999809E+01 0.  1.
</event>
<event>
 5   0  0.1308662E-06  0.2400158E+04  0.7818609E-02  0.8439444E-01
       -2   -1    0    0    0  501  0.00000000000E+00  0.00000000000E+00  0.75662667442E+03  0.75662667443E+03  0.25500000920E-02 0.  1.
        2   -1    0    0  501    0  0.00000000000E+00  0.00000000000E+00 -0.19034355005E+04  0.19034355005E+04  0.25500000920E-02 0. -1.
    10030    2    1    2    0    0  0.00000000000E+00  0.00000000000E+00 -0.11468088260E+04  0.26600621749E+04  0.24001583887E+04 0.  0.
        3    1    3    3  502    0  0.53789991436E+03 -0.38893375703E+03 -0.16814601171E+04  0.18077372378E+04  0.10100000352E+00 0. -1.
       -3    1    3    3    0  502 -0.53789991436E+03  0.38893375703E+03  0.53465129105E+03  0.85232493713E+03  0.10100000352E+00 0.  1.
</event>
<event>
 5   0  0.5690124E-07  0.2401081E+04  0.7818609E-02  0.8439099E-01
       -1   -1    0    0    0  501  0.00000000000E+00  0.00000000000E+00  0.14639236620E+04  0.14639236620E+04  0.50400001928E-02 0.  1.
        1   -1    0    0  501    0  0.00000000000E+00  0.00000000000E+00 -0.98454430382E+03  0.98454430384E+03  0.50400001928E-02 0. -1.
    10030    2    1    2    0    0  0.00000000000E+00  0.00000000000E+00  0.47937935821E+03  0.24484679659E+04  0.24010811754E+04 0.  0.
        2    1    3    3  502    0  0.75019859310E+03 -0.16660575302E+03 -0.70087051792E+03  0.10400840778E+04  0.25500000920E-02 0. -1.
       -2    1    3    3    0  502 -0.75019859310E+03  0.16660575302E+03  0.11802498761E+04  0.14083838881E+04  0.25500000920E-02 0.  1.
</event>
<event>
 5   0  0.1336057E-06  0.2400022E+04  0.7818609E-02  0.8439495E-01
        2   -1    0    0  501    0  0.00000000000E+00  0.00000000000E+00  0.12549086387E+04  0.12549086387E+04  0.25500000920E-02 0.  1.
       -2   -1    0    0    0  501  0.00000000000E+00  0.00000000000E+00 -0.11475151411E+04  0.11475151411E+04  0.25500000920E-02 0. -1.
    10030    2    1    2    0    0  0.00000000000E+00  0.00000000000E+00  0.10739349758E+03  0.24024237798E+04  0.24000222195E+04 0.  0.
        2    1    3    3  502    0  0.10794930250E+04  0.29839055190E+03  0.48503923933E+03  0.12204938247E+04  0.25500000920E-02 0.  1.
       -2    1    3    3    0  502 -0.10794930250E+04 -0.29839055190E+03 -0.37764574175E+03  0.11819299551E+04  0.25500000920E-02 0. -1.
</event>
<event>
 5   0  0.5363690E-07  0.2401138E+04  0.7818609E-02  0.8439077E-01
       -1   -1    0    0    0  501  0.00000000000E+00  0.00000000000E+00  0.79590119657E+03  0.79590119659E+03  0.50400001928E-02 0. -1.
        1   -1    0    0  501    0  0.00000000000E+00  0.00000000000E+00 -0.18109865735E+04  0.18109865735E+04  0.50400001928E-02 0.  1.
    10030    2    1    2    0    0  0.00000000000E+00  0.00000000000E+00 -0.10150853769E+04  0.26068877701E+04  0.24011383807E+04 0.  0.
        4    1    3    3  502    0  0.54699344194E+02  0.11856746776E+04 -0.70341333504E+03  0.13797131558E+04  0.12699999809E+01 0.  1.
       -4    1    3    3    0  502 -0.54699344194E+02 -0.11856746776E+04 -0.31167204188E+03  0.12271746143E+04  0.12699999809E+01 0. -1.
</event>
<event>
 5   0  0.5363690E-07  0.2400019E+04  0.7818609E-02  0.8439496E-01
       -1   -1    0    0    0  501  0.00000000000E+00  0.00000000000E+00  0.91772307340E+03  0.91772307341E+03  0.50400001928E-02 0. -1.
        1   -1    0    0  501    0  0.00000000000E+00  0.00000000000E+00 -0.15691259285E+04  0.15691259285E+04  0.50400001928E-02 0.  1.
    10030    2    1    2    0    0  0.00000000000E+00  0.00000000000E+00 -0.65140285505E+03  0.24868490019E+04  0.24000192246E+04 0.  0.
        4    1    3    3  502    0  0.52758931246E+03 -0.78669115950E+03 -0.10890973081E+04  0.14433876896E+04  0.12699999809E+01 0.  1.
       -4    1    3    3    0  502 -0.52758931246E+03  0.78669115950E+03  0.43769445306E+03  0.10434613123E+04  0.12699999809E+01 0. -1.
</event>
<event>
 5   0  0.1291468E-06  0.2400347E+04  0.7818609E-02  0.8439374E-01
       -2   -1    0    0    0  501  0.00000000000E+00  0.00000000000E+00  0.14596715799E+04  0.14596715799E+04  0.25500000920E-02 0. -1.
        2   -1    0    0  501    0  0.00000000000E+00  0.00000000000E+00 -0.98680821220E+03  0.98680821220E+03  0.25500000920E-02 0.  1.
    10030    2    1    2    0    0  0.00000000000E+00  0.00000000000E+00  0.47286336767E+03  0.24464797921E+04  0.24003465601E+04 0.  0.
        4    1    3    3  502    0 -0.89896854496E+03  0.12955710638E+03  0.10360382463E+04  0.13777903866E+04  0.12699999809E+01 0. -1.
       -4    1    3    3    0  502  0.89896854496E+03 -0.12955710638E+03 -0.56317487862E+03  0.10686894055E+04  0.12699999809E+01 0.  1.
</event>
<event>
 5   0  0.5510176E-07  0.2400440E+04  0.7818609E-02  0.8439339E-01
        1   -1    0    0  501    0  0.00000000000E+00  0.00000000000E+00  0.23622591388E+04  0.23622591388E+04  0.50400001928E-02 0. -1.
       -1   -1    0    0    0  501  0.00000000000E+00  0.00000000000E+00 -0.60980943650E+03  0.60980943652E+03  0.50400001928E-02 0.  1.
    10030    2    1    2    0    0  0.00000000000E+00  0.00000000000E+00  0.17524497023E+04  0.29720685754E+04  0.24004398883E+04 0.  0.
        3    1    3    3  502    0  0.32441627839E+03  0.11340125300E+04  0.60132106473E+03  0.13239400942E+04  0.10100000352E+00 0.  1.
       -3    1    3    3    0  502 -0.32441627839E+03 -0.11340125300E+04  0.11511286376E+04  0.16481284812E+04  0.10100000352E+00 0. -1.
</event>
<event>
 5   0  0.5690124E-07  0.2400211E+04  0.7818609E-02  0.8439424E-01
       -1   -1    0    0    0  501  0.00000000000E+00  0.00000000000E+00  0.16336987834E+04  0.16336987834E+04  0.50400001928E-02 0. -1.
        1   -1    0    0  501    0  0.00000000000E+00  0.00000000000E+00 -0.88159062657E+03  0.88159062659E+03  0.50400001928E-02 0.  1.
    10030    2    1    2    0    0  0.00000000000E+00  0.00000000000E+00  0.75210815687E+03  0.25152894100E+04  0.24002112692E+04 0.  0.
        2    1    3    3  502    0  0.24347302241E+03  0.11023252333E+04  0.80283088983E+03  0.13852571856E+04  0.25500000920E-02 0. -1.
       -2    1    3    3    0  502 -0.24347302241E+03 -0.11023252333E+04 -0.50722732964E+02  0.11300322244E+04  0.25500000920E-02 0.  1.
</event>
<event>
 5   0  0.1308662E-06  0.2400283E+04  0.7818609E-02  0.8439398E-01
        2   -1    0    0  501    0  0.00000000000E+00  0.00000000000E+00  0.19500315511E+04  0.19500315511E+04  0.25500000920E-02 0.  1.
       -2   -1    0    0    0  501  0.00000000000E+00  0.00000000000E+00 -0.73862356385E+03  0.73862356386E+03  0.25500000920E-02 0. -1.
    10030    2    1    2    0    0  0.00000000000E+00  0.00000000000E+00  0.12114079873E+04  0.26886551150E+04  0.24002826950E+04 0.  0.
        3    1    3    3  502    0  0.86997459674E+03  0.61952102430E+03  0.12189002777E+04  0.16206109946E+04  0.10100000352E+00 0.  1.
       -3    1    3    3    0  502 -0.86997459674E+03 -0.61952102430E+03 -0.74922904506E+01  0.10680441204E+04  0.10100000352E+00 0. -1.
</event>
<event>
 5   0  0.1308662E-06  0.2400993E+04  0.7818609E-02  0.8439132E-01
        2   -1    0    0  501    0  0.00000000000E+00  0.00000000000E+00  0.83974141030E+03  0.83974141031E+03  0.25500000920E-02 0.  1.
       -2   -1    0    0    0  501  0.00000000000E+00  0.00000000000E+00 -0.17162327986E+04  0.17162327986E+04  0.25500000920E-02 0. -1.
    10030    2    1    2    0    0  0.00000000000E+00  0.00000000000E+00 -0.87649138832E+03  0.25559742089E+04  0.24009929202E+04 0.  0.
        3    1    3    3  502    0  0.42005941093E+03 -0.12117447188E+03 -0.16284753591E+04  0.16861391303E+04  0.10100000352E+00 0. -1.
       -3    1    3    3    0  502 -0.42005941093E+03  0.12117447188E+03  0.75198397083E+03  0.86983507858E+03  0.10100000352E+00 0.  1.
</event>
<event>
 5   0  0.1291468E-06  0.2399648E+04  0.7818609E-02  0.8439636E-01
        2   -1    0    0  501    0  0.00000000000E+00  0.00000000000E+00  0.69947227618E+03  0.69947227618E+03  0.25500000920E-02 0. -1.
       -2   -1    0    0    0  501  0.00000000000E+00  0.00000000000E+00 -0.20580902151E+04  0.20580902151E+04  0.25500000920E-02 0.  1.
    10030    2    1    2    0    0  0.00000000000E+00  0.00000000000E+00 -0.13586179390E+04  0.27575624913E+04  0.23996475136E+04 0.  0.
        4    1    3    3  502    0  0.59780691680E+03  0.67436979203E+03  0.23093908135E+03  0.93031295722E+03  0.12699999809E+01 0. -1.
       -4    1    3    3    0  502 -0.59780691680E+03 -0.67436979203E+03 -0.15895570203E+04  0.18272495341E+04  0.12699999809E+01 0.  1.
</event>
<event>
 5   0  0.5527286E-07  0.2389557E+04  0.7818609E-02  0.8443424E-01
        1   -1    0    0  501    0  0.00000000000E+00  0.00000000000E+00  0.15523877681E+04  0.15523877681E+04  0.50400001928E-02 0.  1.
       -1   -1    0    0    0  501  0.00000000000E+00  0.00000000000E+00 -0.91954841844E+03  0.91954841845E+03  0.50400001928E-02 0. -1.
    10030    2    1    2    0    0  0.00000000000E+00  0.00000000000E+00  0.63283934967E+03  0.24719361866E+04  0.23895570443E+04 0.  0.
        1    1    3    3  502    0  0.12533507604E+03 -0.96485631439E+02  0.15415090743E+04  0.15496027183E+04  0.50400001928E-02 0.  1.
       -1    1    3    3    0  502 -0.12533507604E+03  0.96485631439E+02 -0.90866972459E+03  0.92233346831E+03  0.50400001928E-02 0. -1.
</event>
<event>
 5   0  0.1291468E-06  0.2400553E+04  0.7818609E-02  0.8439296E-01
        2   -1    0    0  501    0  0.00000000000E+00  0.00000000000E+00  0.17243353975E+04  0.17243353975E+04  0.25500000920E-02 0.  1.
       -2   -1    0    0    0  501  0.00000000000E+00  0.00000000000E+00 -0.83548947052E+03  0.83548947053E+03  0.25500000920E-02 0. -1.
    10030    2    1    2    0    0  0.00000000000E+00  0.00000000000E+00  0.88884592698E+03  0.25598248680E+04  0.24005533264E+04 0.  0.
        4    1    3    3  502    0 -0.80988372339E+03 -0.15823314060E+03  0.13738679703E+04  0.16026428751E+04  0.12699999809E+01 0.  1.
       -4    1    3    3    0  502  0.80988372339E+03  0.15823314060E+03 -0.48502204336E+03  0.95718199296E+03  0.12699999809E+01 0. -1.
</event>
<event>
 5   0  0.5510176E-07  0.2399675E+04  0.7818609E-02  0.8439625E-01
       -1   -1    0    0    0  501  0.00000000000E+00  0.00000000000E+00  0.77194356908E+03  0.77194356910E+03  0.50400001928E-02 0. -1.
        1   -1    0    0  501    0  0.00000000000E+00  0.00000000000E+00 -0.18649165822E+04  0.18649165822E+04  0.50400001928E-02 0.  1.
    10030    2    1    2    0    0  0.00000000000E+00  0.00000000000E+00 -0.10929730131E+04  0.26368601513E+04  0.23996752801E+04 0.  0.
        3    1    3    3  502    0 -0.11102975254E+04 -0.32542366387E+03 -0.89561560951E+03  0.14631433580E+04  0.10100000352E+00 0.  1.
       -3    1    3    3    0  502  0.11102975254E+04  0.32542366387E+03 -0.19735740357E+03  0.11737167933E+04  0.10100000352E+00 0. -1.
</event>
<event>
 5   0  0.1308662E-06  0.2390868E+04  0.7818609E-02  0.8442931E-01
        2   -1    0    0  501    0  0.00000000000E+00  0.00000000000E+00  0.14398240213E+04  0.14398240213E+04  0.25500000920E-02 0. -1.
       -2   -1    0    0    0  501  0.00000000000E+00  0.00000000000E+00 -0.99252544847E+03  0.99252544847E+03  0.25500000920E-02 0.  1.
    10030    2    1    2    0    0  0.00000000000E+00  0.00000000000E+00  0.44729857285E+03  0.24323494698E+04  0.23908676103E+04 0.  0.
        3    1    3    3  502    0  0.12695668380E+03  0.10217897044E+03  0.14284699580E+04  0.14377360581E+04  0.10100000352E+00 0. -1.
       -3    1    3    3    0  502 -0.12695668380E+03 -0.10217897044E+03 -0.98117138515E+03  0.99461341173E+03  0.10100000352E+00 0.  1.
</event>
<event>
 5   0  0.1308662E-06  0.2404885E+04  0.7818609E-02  0.8437677E-01
        2   -1    0    0  501    0  0.00000000000E+00  0.00000000000E+00  0.12553571112E+04  0.12553571112E+04  0.25500000920E-02 0. -1.
       -2   -1    0    0    0  501  0.00000000000E+00  0.00000000000E+00 -0.11517583104E+04  0.11517583104E+04  0.25500000920E-02 0.  1.
    10030    2    1    2    0    0  0.00000000000E+00  0.00000000000E+00  0.10359880083E+03  0.24071154217E+04  0.24048850163E+04 0.  0.
        3    1    3    3  502    0 -0.11885754095E+04  0.21360761227E+02  0.23279904857E+03  0.12113476765E+04  0.10100000352E+00 0. -1.
       -3    1    3    3    0  502  0.11885754095E+04 -0.21360761227E+02 -0.12920024775E+03  0.11957677452E+04  0.10100000352E+00 0.  1.
</event>
<event>
 5   0  0.5527286E-07  0.2399189E+04  0.7818609E-02  0.8439807E-01
        1   -1    0    0  501    0  0.00000000000E+00  0.00000000000E+00  0.62140042532E+03  0.62140042534E+03  0.50400001928E-02 0.  1.
       -1   -1    0    0    0  501  0.00000000000E+00  0.00000000000E+00 -0.23157808186E+04  0.23157808186E+04  0.50400001928E-02 0. -1.
    10030    2    1    2    0    0  0.00000000000E+00  0.00000000000E+00 -0.16943803933E+04  0.29371812439E+04  0.23991891844E+04 0.  0.
        1    1    3    3  502    0 -0.20850450281E+03  0.65585735044E+03 -0.20500661468E+04  0.21624972134E+04  0.50400001928E-02 0. -1.
       -1    1    3    3    0  502  0.20850450281E+03 -0.65585735044E+03  0.35568575353E+03  0.77468403050E+03  0.50400001928E-02 0.  1.
</event>
<event>
 5   0  0.5527286E-07  0.2398315E+04  0.7818609E-02  0.8440134E-01
        1   -1    0    0  501    0  0.00000000000E+00  0.00000000000E+00  0.77440675873E+03  0.77440675875E+03  0.50400001928E-02 0.  1.
       -1   -1    0    0    0  501  0.00000000000E+00  0.00000000000E+00 -0.18568784954E+04  0.18568784954E+04  0.50400001928E-02 0. -1.
    10030    2    1    2    0    0  0.00000000000E+00  0.00000000000E+00 -0.10824717367E+04  0.26312852542E+04  0.23983154563E+04 0.  0.
        1    1    3    3  502    0  0.10613816844E+04 -0.31016609577E+03 -0.10502482342E+04  0.15250427667E+04  0.50400001928E-02 0.  1.
       -1    1    3    3    0  502 -0.10613816844E+04  0.31016609577E+03 -0.32223502501E+02  0.11062424874E+04  0.50400001928E-02 0. -1.
</event>
<event>
 5   0  0.1275948E-06  0.2400091E+04  0.7818609E-02  0.8439469E-01
       -2   -1    0    0    0  501  0.00000000000E+00  0.00000000000E+00  0.11638101764E+04  0.11638101764E+04  0.25500000920E-02 0.  1.
        2   -1    0    0  501    0  0.00000000000E+00  0.00000000000E+00 -0.12374092671E+04  0.12374092671E+04  0.25500000920E-02 0. -1.
    10030    2    1    2    0    0  0.00000000000E+00  0.00000000000E+00 -0.73599090776E+02  0.24012194435E+04  0.24000912461E+04 0.  0.
        1    1    3    3  502    0 -0.10873194894E+04  0.11720294072E+03  0.45750688194E+03  0.11854588768E+04  0.50400001928E-02 0.  1.
       -1    1    3    3    0  502  0.10873194894E+04 -0.11720294072E+03 -0.53110597271E+03  0.12157605668E+04  0.50400001928E-02 0. -1.
</event>
<event>
 5   0  0.5363690E-07  0.2401051E+04  0.7818609E-02  0.8439110E-01
       -1   -1    0    0    0  501  0.00000000000E+00  0.00000000000E+00  0.64315310478E+03  0.64315310480E+03  0.50400001928E-02 0.  1.
        1   -1    0    0  501    0  0.00000000000E+00  0.00000000000E+00 -0.22409310999E+04  0.22409310999E+04  0.50400001928E-02 0. -1.
    10030    2    1    2    0    0  0.00000000000E+00  0.00000000000E+00 -0.15977779951E+04  0.28840842047E+04  0.24010512652E+04 0.  0.
        4    1    3    3  502    0  0.17425580277E+03  0.27658873723E+03 -0.21864385624E+04  0.22107423221E+04  0.12699999809E+01 0. -1.
       -4    1    3    3    0  502 -0.17425580277E+03 -0.27658873723E+03  0.58866056737E+03  0.67334188258E+03  0.12699999809E+01 0.  1.
</event>
<event>
 5   0  0.1307477E-06  0.2399636E+04  0.7818609E-02  0.8439640E-01
       -2   -1    0    0    0  501  0.00000000000E+00  0.00000000000E+00  0.14258426040E+04  0.14258426040E+04  0.25500000920E-02 0. -1.
        2   -1    0    0  501    0  0.00000000000E+00  0.00000000000E+00 -0.10096231647E+04  0.10096231647E+04  0.25500000920E-02 0.  1.
    10030    2    1    2    0    0  0.00000000000E+00  0.00000000000E+00  0.41621943930E+03  0.24354657688E+04  0.23996364077E+04 0.  0.
        5    1    3    3  502    0 -0.95580641392E+02  0.42137329389E+03  0.13441303444E+04  0.14118780346E+04  0.46999998093E+01 0. -1.
       -5    1    3    3    0  502  0.95580641392E+02 -0.42137329389E+03 -0.92791090510E+03  0.10235877342E+04  0.46999998093E+01 0.  1.
</event>
<event>
 5   0  0.5690124E-07  0.2399089E+04  0.7818609E-02  0.8439845E-01
       -1   -1    0    0    0  501  0.00000000000E+00  0.00000000000E+00  0.22438365468E+04  0.22438365468E+04  0.50400001928E-02 0.  1.
        1   -1    0    0  501    0  0.00000000000E+00  0.00000000000E+00 -0.64127070648E+03  0.64127070650E+03  0.50400001928E-02 0. -1.
    10030    2    1    2    0    0  0.00000000000E+00  0.00000000000E+00  0.16025658404E+04  0.28851072533E+04  0.23990887000E+04 0.  0.
        2    1    3    3  502    0  0.94480460023E+02 -0.11737733146E+04  0.10761367835E+04  0.15952243504E+04  0.25500000920E-02 0. -1.
       -2    1    3    3    0  502 -0.94480460023E+02  0.11737733146E+04  0.52642905690E+03  0.12898829029E+04  0.25500000920E-02 0.  1.
</event>
<event>
 5   0  0.5452384E-07  0.2400089E+04  0.7818609E-02  0.8439470E-01
       -1   -1    0    0    0  501  0.00000000000E+00  0.00000000000E+00  0.13770565765E+04  0.13770565765E+04  0.50400001928E-02 0.  1.
        1   -1    0    0  501    0  0.00000000000E+00  0.00000000000E+00 -0.10457860495E+04  0.10457860495E+04  0.50400001928E-02 0. -1.
    10030    2    1    2    0    0  0.00000000000E+00  0.00000000000E+00  0.33127052700E+03  0.24228426260E+04  0.24000887960E+04 0.  0.
        5    1    3    3  502    0  0.48144635786E+03 -0.41721963759E+03 -0.86097288656E+03  0.10710551913E+04  0.46999998093E+01 0. -1.
       -5    1    3    3    0  502 -0.48144635786E+03  0.41721963759E+03  0.11922434136E+04  0.13517874347E+04  0.46999998093E+01 0.  1.
</event>
<event>
 5   0  0.5527286E-07  0.2395954E+04  0.7818609E-02  0.8441020E-01
       -1   -1    0    0    0  501  0.00000000000E+00  0.00000000000E+00  0.12006147047E+04  0.12006147047E+04  0.50400001928E-02 0. -1.
        1   -1    0    0  501    0  0.00000000000E+00  0.00000000000E+00 -0.11953449646E+04  0.11953449646E+04  0.50400001928E-02 0.  1.
    10030    2    1    2    0    0  0.00000000000E+00  0.00000000000E+00  0.52697401098E+01  0.23959596693E+04  0.23959538741E+04 0.  0.
        1    1    3    3  502    0  0.54754081485E+03 -0.51671805440E+02 -0.10616410818E+04  0.11956390366E+04  0.50400001928E-02 0.  1.
       -1    1    3    3    0  502 -0.54754081485E+03  0.51671805440E+02  0.10669108219E+04  0.12003206327E+04  0.50400001928E-02 0. -1.
</event>
<event>
 5   0  0.1307477E-06  0.2399660E+04  0.7818609E-02  0.8439631E-01
        2   -1    0    0  501    0  0.00000000000E+00  0.00000000000E+00  0.14379444148E+04  0.14379444148E+04  0.25500000920E-02 0. -1.
       -2   -1    0    0    0  501  0.00000000000E+00  0.00000000000E+00 -0.10011460297E+04  0.10011460297E+04  0.25500000920E-02 0.  1.
    10030    2    1    2    0    0  0.00000000000E+00  0.00000000000E+00  0.43679838516E+03  0.24390904445E+04  0.23996602608E+04 0.  0.
        5    1    3    3  502    0  0.79769096325E+03  0.55916843632E+03 -0.49353115845E+03  0.10920509637E+04  0.46999998093E+01 0.  1.
       -5    1    3    3    0  502 -0.79769096325E+03 -0.55916843632E+03  0.93032954361E+03  0.13470394808E+04  0.46999998093E+01 0. -1.
</event>
<event>
 5   0  0.5690124E-07  0.2398016E+04  0.7818609E-02  0.8440247E-01
        1   -1    0    0  501    0  0.00000000000E+00  0.00000000000E+00  0.14999192169E+04  0.14999192170E+04  0.50400001928E-02 0.  1.
       -1   -1    0    0    0  501  0.00000000000E+00  0.00000000000E+00 -0.95846482481E+03  0.95846482482E+03  0.50400001928E-02 0. -1.
    10030    2    1    2    0    0  0.00000000000E+00  0.00000000000E+00  0.54145439214E+03  0.24583840418E+04  0.23980156876E+04 0.  0.
        2    1    3    3  502    0  0.80568561818E+03  0.88594029783E+03  0.33224007021E+03  0.12427401140E+04  0.25500000920E-02 0.  1.
       -2    1    3    3    0  502 -0.80568561818E+03 -0.88594029783E+03  0.20921432193E+03  0.12156439278E+04  0.25500000920E-02 0. -1.
</event>
<event>
 5   0  0.5510176E-07  0.2397558E+04  0.7818609E-02  0.8440418E-01
        1   -1    0    0  501    0  0.00000000000E+00  0.00000000000E+00  0.10843862299E+04  0.10843862299E+04  0.50400001928E-02 0.  1.
       -1   -1    0    0    0  501  0.00000000000E+00  0.00000000000E+00 -0.13252393500E+04  0.13252393501E+04  0.50400001928E-02 0. -1.
    10030    2    1    2    0    0  0.00000000000E+00  0.00000000000E+00 -0.24085312013E+03  0.24096255800E+04  0.23975581766E+04 0.  0.
        3    1    3    3  502    0 -0.63926037090E+02  0.11813133690E+04  0.74154405160E+02  0.11853635307E+04  0.10100000352E+00 0. -1.
       -3    1    3    3    0  502  0.63926037090E+02 -0.11813133690E+04 -0.31500752529E+03  0.12242620492E+04  0.10100000352E+00 0.  1.
</event>
<event>
 5   0  0.1308662E-06  0.2402323E+04  0.7818609E-02  0.8438635E-01
       -2   -1    0    0    0  501  0.00000000000E+00  0.00000000000E+00  0.72869066416E+03  0.72869066416E+03  0.25500000920E-02 0. -1.
        2   -1    0    0  501    0  0.00000000000E+00  0.00000000000E+00 -0.19799739423E+04  0.19799739423E+04  0.25500000920E-02 0.  1.
    10030    2    1    2    0    0  0.00000000000E+00  0.00000000000E+00 -0.12512832781E+04  0.27086646064E+04  0.24023226486E+04 0.  0.
        3    1    3    3  502    0 -0.67124473913E+03  0.16476750557E+03 -0.17332939535E+04  0.18660186950E+04  0.10100000352E+00 0.  1.
       -3    1    3    3    0  502  0.67124473913E+03 -0.16476750557E+03  0.48201067537E+03  0.84264591144E+03  0.10100000352E+00 0. -1.
</event>
<event>
 5   0  0.1307477E-06  0.2398651E+04  0.7818609E-02  0.8440009E-01
       -2   -1    0    0    0  501  0.00000000000E+00  0.00000000000E+00  0.11235232374E+04  0.11235232374E+04  0.25500000920E-02 0.  1.
        2   -1    0    0  501    0  0.00000000000E+00  0.00000000000E+00 -0.12802424540E+04  0.12802424540E+04  0.25500000920E-02 0. -1.
    10030    2    1    2    0    0  0.00000000000E+00  0.00000000000E+00 -0.15671921665E+03  0.24037656914E+04  0.23986514099E+04 0.  0.
        5    1    3    3  502    0 -0.81395190201E+03 -0.30945407712E+03  0.74806866396E+03  0.11480018905E+04  0.46999998093E+01 0.  1.
       -5    1    3    3    0  502  0.81395190201E+03  0.30945407712E+03 -0.90478788061E+03  0.12557638009E+04  0.46999998093E+01 0. -1.
</event>
<event>
 5   0  0.1275948E-06  0.2399819E+04  0.7818609E-02  0.8439571E-01
       -2   -1    0    0    0  501  0.00000000000E+00  0.00000000000E+00  0.14700104744E+04  0.14700104744E+04  0.25500000920E-02 0. -1.
        2   -1    0    0  501    0  0.00000000000E+00  0.00000000000E+00 -0.97943737812E+03  0.97943737813E+03  0.25500000920E-02 0.  1.
    10030    2    1    2    0    0  0.00000000000E+00  0.00000000000E+00  0.49057309630E+03  0.24494478525E+04  0.23998193306E+04 0.  0.
        1    1    3    3  502    0 -0.50915136818E+02  0.63355165463E+03  0.12840777565E+04  0.14327720458E+04  0.50400001928E-02 0. -1.
       -1    1    3    3    0  502  0.50915136818E+02 -0.63355165463E+03 -0.79350466025E+03  0.10166758068E+04  0.50400001928E-02 0.  1.
</event>
<event>
 5   0  0.5363690E-07  0.2401434E+04  0.7818609E-02  0.8438967E-01
       -1   -1    0    0    0  501  0.00000000000E+00  0.00000000000E+00  0.15861480934E+04  0.15861480934E+04  0.50400001928E-02 0.  1.
        1   -1    0    0  501    0  0.00000000000E+00  0.00000000000E+00 -0.90894462433E+03  0.90894462435E+03  0.50400001928E-02 0. -1.
    10030    2    1    2    0    0  0.00000000000E+00  0.00000000000E+00  0.67720346904E+03  0.24950927177E+04  0.24014335576E+04 0.  0.
        4    1    3    3  502    0  0.43547135494E+03 -0.98944360197E+03  0.88155846047E+03  0.13949124971E+04  0.12699999809E+01 0.  1.
       -4    1    3    3    0  502 -0.43547135494E+03  0.98944360197E+03 -0.20435499143E+03  0.11001802206E+04  0.12699999809E+01 0. -1.
</event>
<event>
 5   0  0.5510176E-07  0.2401789E+04  0.7818609E-02  0.8438834E-01
        1   -1    0    0  501    0  0.00000000000E+00  0.00000000000E+00  0.20963373468E+04  0.20963373468E+04  0.50400001928E-02 0. -1.
       -1   -1    0    0    0  501  0.00000000000E+00  0.00000000000E+00 -0.68793675361E+03  0.68793675363E+03  0.50400001928E-02 0.  1.
    10030    2    1    2    0    0  0.00000000000E+00  0.00000000000E+00  0.14084005932E+04  0.27842741005E+04  0.24017889240E+04 0.  0.
        3    1    3    3  502    0  0.31801371100E+03  0.45672119938E+03  0.19378192006E+04  0.20161523352E+04  0.10100000352E+00 0. -1.
       -3    1    3    3    0  502 -0.31801371100E+03 -0.45672119938E+03 -0.52941860733E+03  0.76812176530E+03  0.10100000352E+00 0.  1.
</event>
<event>
 5   0  0.5527286E-07  0.2397182E+04  0.7818609E-02  0.8440559E-01
        1   -1    0    0  501    0  0.00000000000E+00  0.00000000000E+00  0.13006437652E+04  0.13006437652E+04  0.50400001928E-02 0. -1.
       -1   -1    0    0    0  501  0.00000000000E+00  0.00000000000E+00 -0.11045456613E+04  0.11045456614E+04  0.50400001928E-02 0.  1.
    10030    2    1    2    0    0  0.00000000000E+00  0.00000000000E+00  0.19609810382E+03  0.24051894265E+04  0.23971820355E+04 0.  0.
        1    1    3    3  502    0  0.51458124176E+03 -0.21961785485E+03 -0.96548913390E+03  0.11158831141E+04  0.50400001928E-02 0.  1.
       -1    1    3    3    0  502 -0.51458124176E+03  0.21961785485E+03  0.11615872377E+04  0.12893063125E+04  0.50400001928E-02 0. -1.
</event>
<event>
 5   0  0.1336057E-06  0.2400548E+04  0.7818609E-02  0.8439298E-01
       -2   -1    0    0    0  501  0.00000000000E+00  0.00000000000E+00  0.64536155731E+03  0.64536155731E+03  0.25500000920E-02 0.  1.
        2   -1    0    0  501    0  0.00000000000E+00  0.00000000000E+00 -0.22323266336E+04  0.22323266336E+04  0.25500000920E-02 0. -1.
    10030    2    1    2    0    0  0.00000000000E+00  0.00000000000E+00 -0.15869650763E+04  0.28776881909E+04  0.24005480980E+04 0.  0.
        2    1    3    3  502    0  0.13920907544E+03  0.23481905545E+03 -0.21946198866E+04  0.22115324104E+04  0.25500000920E-02 0. -1.
       -2    1    3    3    0  502 -0.13920907544E+03 -0.23481905545E+03  0.60765481029E+03  0.66615578055E+03  0.25500000920E-02 0.  1.
</event>
<event>
 5   0  0.5527286E-07  0.2399343E+04  0.7818609E-02  0.8439749E-01
       -1   -1    0    0    0  501  0.00000000000E+00  0.00000000000E+00  0.14263181237E+04  0.14263181237E+04  0.50400001928E-02 0.  1.
        1   -1    0    0  501    0  0.00000000000E+00  0.00000000000E+00 -0.10090399859E+04  0.10090399859E+04  0.50400001928E-02 0. -1.
    10030    2    1    2    0    0  0.00000000000E+00  0.00000000000E+00  0.41727813782E+03  0.24353581096E+04  0.23993432597E+04 0.  0.
        1    1    3    3  502    0  0.30530601850E+03 -0.11402586184E+04  0.42588574562E+03  0.12549024465E+04  0.50400001928E-02 0.  1.
       -1    1    3    3    0  502 -0.30530601850E+03  0.11402586184E+04 -0.86076078044E+01  0.11804556632E+04  0.50400001928E-02 0. -1.
</event>
<event>
 5   0  0.5690124E-07  0.2408652E+04  0.7818609E-02  0.8436271E-01
       -1   -1    0    0    0  501  0.00000000000E+00  0.00000000000E+00  0.68273517714E+03  0.68273517716E+03  0.50400001928E-02 0.  1.
        1   -1    0    0  501    0  0.00000000000E+00  0.00000000000E+00 -0.21243982559E+04  0.21243982559E+04  0.50400001928E-02 0. -1.
    10030    2    1    2    0    0  0.00000000000E+00  0.00000000000E+00 -0.14416630787E+04  0.28071334330E+04  0.24086522535E+04 0.  0.
        2    1    3    3  502    0  0.49919019224E+03 -0.10804641750E+04 -0.50654395404E+03  0.12935147694E+04  0.25500000920E-02 0.  1.
       -2    1    3    3    0  502 -0.49919019224E+03  0.10804641750E+04 -0.93511912469E+03  0.15136186636E+04  0.25500000920E-02 0. -1.
</event>
<event>
 5   0  0.5363690E-07  0.2400301E+04  0.7818609E-02  0.8439391E-01
        1   -1    0    0  501    0  0.00000000000E+00  0.00000000000E+00  0.87134638849E+03  0.87134638850E+03  0.50400001928E-02 0.  1.
       -1   -1    0    0    0  501  0.00000000000E+00  0.00000000000E+00 -0.16530289461E+04  0.16530289461E+04  0.50400001928E-02 0. -1.
    10030    2    1    2    0    0  0.00000000000E+00  0.00000000000E+00 -0.78168255760E+03  0.25243753346E+04  0.24003006497E+04 0.  0.
        4    1    3    3  502    0  0.88298052859E+03 -0.75636825383E+03 -0.70390567017E+03  0.13591292634E+04  0.12699999809E+01 0. -1.
       -4    1    3    3    0  502 -0.88298052859E+03  0.75636825383E+03 -0.77776887430E+02  0.11652460712E+04  0.12699999809E+01 0.  1.
</event>
<event>
 5   0  0.1275948E-06  0.2400313E+04  0.7818609E-02  0.8439386E-01
       -2   -1    0    0    0  501  0.00000000000E+00  0.00000000000E+00  0.55200024399E+03  0.55200024400E+03  0.25500000920E-02 0. -1.
        2   -1    0    0  501    0  0.00000000000E+00  0.00000000000E+00 -0.26093744165E+04  0.26093744165E+04  0.25500000920E-02 0.  1.
    10030    2    1    2    0    0  0.00000000000E+00  0.00000000000E+00 -0.20573741725E+04  0.31613746605E+04  0.24003127418E+04 0.  0.
        1    1    3    3  502    0  0.44950125983E+03 -0.11066999072E+04 -0.87543535193E+03  0.14809534506E+04  0.50400001928E-02 0. -1.
       -1    1    3    3    0  502 -0.44950125983E+03  0.11066999072E+04 -0.11819388206E+04  0.16804212100E+04  0.50400001928E-02 0.  1.
</event>
<event>
 5   0  0.1308662E-06  0.2400030E+04  0.7818609E-02  0.8439492E-01
        2   -1    0    0  501    0  0.00000000000E+00  0.00000000000E+00  0.75482029582E+03  0.75482029582E+03  0.25500000920E-02 0. -1.
       -2   -1    0    0    0  501  0.00000000000E+00  0.00000000000E+00 -0.19077864916E+04  0.19077864916E+04  0.25500000920E-02 0.  1.
    10030    2    1    2    0    0  0.00000000000E+00  0.00000000000E+00 -0.11529661958E+04  0.26626067874E+04  0.24000299698E+04 0.  0.
        3    1    3    3  502    0 -0.85195398010E+02  0.52515732454E+03 -0.17697969995E+04  0.18480340638E+04  0.10100000352E+00 0.  1.
       -3    1    3    3    0  502  0.85195398010E+02 -0.52515732454E+03  0.61683080374E+03  0.81457272359E+03  0.10100000352E+00 0. -1.
</event>
<event>
 5   0  0.5690124E-07  0.2397637E+04  0.7818609E-02  0.8440389E-01
       -1   -1    0    0    0  501  0.00000000000E+00  0.00000000000E+00  0.90851594202E+03  0.90851594203E+03  0.50400001928E-02 0.  1.
        1   -1    0    0  501    0  0.00000000000E+00  0.00000000000E+00 -0.15818833654E+04  0.15818833654E+04  0.50400001928E-02 0. -1.
    10030    2    1    2    0    0  0.00000000000E+00  0.00000000000E+00 -0.67336742337E+03  0.24903993074E+04  0.23976373837E+04 0.  0.
        2    1    3    3  502    0 -0.32022472289E+03  0.11547907076E+04 -0.30253620304E+03  0.12359666685E+04  0.25500000920E-02 0.  1.
       -2    1    3    3    0  502  0.32022472289E+03 -0.11547907076E+04 -0.37083122032E+03  0.12544326389E+04  0.25500000920E-02 0. -1.
</event>
<event>
 5   0  0.5452384E-07  0.2400458E+04  0.7818609E-02  0.8439332E-01
        1   -1    0    0  501    0  0.00000000000E+00  0.00000000000E+00  0.17036730571E+04  0.17036730571E+04  0.50400001928E-02 0.  1.
       -1   -1    0    0    0  501  0.00000000000E+00  0.00000000000E+00 -0.84555528247E+03  0.84555528248E+03  0.50400001928E-02 0. -1.
    10030    2    1    2    0    0  0.00000000000E+00  0.00000000000E+00  0.85811777459E+03  0.25492283395E+04  0.24004580838E+04 0.  0.
        5    1    3    3  502    0  0.77573200840E+03 -0.52439675009E+03  0.12264432867E+04  0.15430286212E+04  0.46999998093E+01 0.  1.
       -5    1    3    3    0  502 -0.77573200840E+03  0.52439675009E+03 -0.36832551209E+03  0.10061997184E+04  0.46999998093E+01 0. -1.
</event>
<event>
 5   0  0.1307477E-06  0.2399999E+04  0.7818609E-02  0.8439504E-01
        2   -1    0    0  501    0  0.00000000000E+00  0.00000000000E+00  0.17996532193E+04  0.17996532193E+04  0.25500000920E-02 0.  1.
       -2   -1    0    0    0  501  0.00000000000E+00  0.00000000000E+00 -0.80015337816E+03  0.80015337817E+03  0.25500000920E-02 0. -1.
    10030    2    1    2    0    0  0.00000000000E+00  0.00000000000E+00  0.99949984111E+03  0.25998065974E+04  0.23999988358E+04 0.  0.
        5    1    3    3  502    0 -0.47465941090E+03 -0.56690411602E+03 -0.52407897906E+03  0.90629062634E+03  0.46999998093E+01 0. -1.
       -5    1    3    3    0  502  0.47465941090E+03  0.56690411602E+03  0.15235788202E+04  0.16935159711E+04  0.46999998093E+01 0.  1.
</event>
<event>
 5   0  0.1275948E-06  0.2399023E+04  0.7818609E-02  0.8439870E-01
        2   -1    0    0  501    0  0.00000000000E+00  0.00000000000E+00  0.12032573405E+04  0.12032573405E+04  0.25500000920E-02 0. -1.
       -2   -1    0    0    0  501  0.00000000000E+00  0.00000000000E+00 -0.11957770677E+04  0.11957770677E+04  0.25500000920E-02 0.  1.
    10030    2    1    2    0    0  0.00000000000E+00  0.00000000000E+00  0.74802727742E+01  0.23990344082E+04  0.23990227463E+04 0.  0.
        1    1    3    3  502    0 -0.88491291340E+01 -0.46606284865E+03  0.11089760951E+04  0.12029633683E+04  0.50400001928E-02 0. -1.
       -1    1    3    3    0  502  0.88491291340E+01  0.46606284865E+03 -0.11014958223E+04  0.11960710399E+04  0.50400001928E-02 0.  1.
</event>
<event>
 5   0  0.4483375E-07  0.2400572E+04  0.7818609E-02  0.8439289E-01
       -3   -1    0    0    0  501  0.00000000000E+00  0.00000000000E+00  0.14416783710E+04  0.14416783746E+04  0.10100000352E+00 0.  1.
        3   -1    0    0  501    0  0.00000000000E+00  0.00000000000E+00 -0.99931216151E+03  0.99931216662E+03  0.10100000352E+00 0. -1.
    10030    2    1    2    0    0  0.00000000000E+00  0.00000000000E+00  0.44236620952E+03  0.24409905412E+04  0.24005722149E+04 0.  0.
        2    1    3    3  502    0 -0.13911823915E+03  0.55295853600E+03 -0.85280551337E+03  0.10258626958E+04  0.25500000920E-02 0. -1.
       -2    1    3    3    0  502  0.13911823915E+03 -0.55295853600E+03  0.12951717229E+04  0.14151278454E+04  0.25500000920E-02 0.  1.
</event>
<event>
 5   0  0.5363690E-07  0.2401026E+04  0.7818609E-02  0.8439119E-01
        1   -1    0    0  501    0  0.00000000000E+00  0.00000000000E+00  0.52978787397E+03  0.52978787400E+03  0.50400001928E-02 0.  1.
       -1   -1    0    0    0  501  0.00000000000E+00  0.00000000000E+00 -0.27203942769E+04  0.27203942769E+04  0.50400001928E-02 0. -1.
    10030    2    1    2    0    0  0.00000000000E+00  0.00000000000E+00 -0.21906064029E+04  0.32501821509E+04  0.24010263642E+04 0.  0.
        4    1    3    3  502    0  0.59422970685E+02  0.11246411825E+04 -0.16581431549E+04  0.20044423698E+04  0.12699999809E+01 0. -1.
       -4    1    3    3    0  502 -0.59422970685E+02 -0.11246411825E+04 -0.53246324801E+03  0.12457397811E+04  0.12699999809E+01 0.  1.
</event>
<event>
 5   0  0.1291468E-06  0.2399966E+04  0.7818609E-02  0.8439516E-01
       -2   -1    0    0    0  501  0.00000000000E+00  0.00000000000E+00  0.52369688902E+03  0.52369688902E+03  0.25500000920E-02 0. -1.
        2   -1    0    0  501    0  0.00000000000E+00  0.00000000000E+00 -0.27496040842E+04  0.27496040842E+04  0.25500000920E-02 0.  1.
    10030    2    1    2    0    0  0.00000000000E+00  0.00000000000E+00 -0.22259071951E+04  0.32733009732E+04  0.23999659205E+04 0.  0.
        4    1    3    3  502    0 -0.29834117094E+03 -0.17605395573E+03 -0.26799227051E+04  0.27022194152E+04  0.12699999809E+01 0.  1.
       -4    1    3    3    0  502  0.29834117094E+03  0.17605395573E+03  0.45401551000E+03  0.57108155795E+03  0.12699999809E+01 0. -1.
</event>
<event>
 5   0  0.1308662E-06  0.2398996E+04  0.7818609E-02  0.8439880E-01
       -2   -1    0    0    0  501  0.00000000000E+00  0.00000000000E+00  0.94001088771E+03  0.94001088772E+03  0.25500000920E-02 0.  1.
        2   -1    0    0  501    0  0.00000000000E+00  0.00000000000E+00 -0.15306151839E+04  0.15306151839E+04  0.25500000920E-02 0. -1.
    10030    2    1    2    0    0  0.00000000000E+00  0.00000000000E+00 -0.59060429618E+03  0.24706260716E+04  0.23989955713E+04 0.  0.
        3    1    3    3  502    0 -0.50216914937E+02 -0.39891856364E+03 -0.14591503662E+04  0.15135314864E+04  0.10100000352E+00 0. -1.
       -3    1    3    3    0  502  0.50216914937E+02  0.39891856364E+03  0.86854607005E+03  0.95709458517E+03  0.10100000352E+00 0.  1.
</event>
<event>
 5   0  0.1307477E-06  0.2399213E+04  0.7818609E-02  0.8439798E-01
       -2   -1    0    0    0  501  0.00000000000E+00  0.00000000000E+00  0.48506677734E+03  0.48506677735E+03  0.25500000920E-02 0.  1.
        2   -1    0    0  501    0  0.00000000000E+00  0.00000000000E+00 -0.29667179211E+04  0.29667179211E+04  0.25500000920E-02 0. -1.
    10030    2    1    2    0    0  0.00000000000E+00  0.00000000000E+00 -0.24816511437E+04  0.34517846984E+04  0.23992134555E+04 0.  0.
        5    1    3    3  502    0 -0.17746804673E+03  0.78046448573E+03  0.44724556054E+02  0.80164960987E+03  0.46999998093E+01 0.  1.
       -5    1    3    3    0  502  0.17746804673E+03 -0.78046448573E+03 -0.25263756998E+04  0.26501350885E+04  0.46999998093E+01 0. -1.
</event>
<event>
 5   0  0.1307477E-06  0.2397857E+04  0.7818609E-02  0.8440306E-01
       -2   -1    0    0    0  501  0.00000000000E+00  0.00000000000E+00  0.83573548125E+03  0.83573548126E+03  0.25500000920E-02 0. -1.
        2   -1    0    0  501    0  0.00000000000E+00  0.00000000000E+00 -0.17199579233E+04  0.17199579233E+04  0.25500000920E-02 0.  1.
    10030    2    1    2    0    0  0.00000000000E+00  0.00000000000E+00 -0.88422244208E+03  0.25556934046E+04  0.23978572625E+04 0.  0.
        5    1    3    3  502    0  0.96691038586E+03 -0.63105483725E+03 -0.78626154432E+03  0.13969163210E+04  0.46999998093E+01 0.  1.
       -5    1    3    3    0  502 -0.96691038586E+03  0.63105483725E+03 -0.97960897761E+02  0.11587770836E+04  0.46999998093E+01 0. -1.
</event>
<event>
 5   0  0.1307477E-06  0.2396628E+04  0.7818609E-02  0.8440767E-01
        2   -1    0    0  501    0  0.00000000000E+00  0.00000000000E+00  0.13835240100E+04  0.13835240100E+04  0.25500000920E-02 0. -1.
       -2   -1    0    0    0  501  0.00000000000E+00  0.00000000000E+00 -0.10378981362E+04  0.10378981362E+04  0.25500000920E-02 0.  1.
    10030    2    1    2    0    0  0.00000000000E+00  0.00000000000E+00  0.34562587374E+03  0.24214221462E+04  0.23966284579E+04 0.  0.
        5    1    3    3  502    0  0.82802436390E+03  0.54398064371E+03  0.85387527232E+03  0.13079236823E+04  0.46999998093E+01 0. -1.
       -5    1    3    3    0  502 -0.82802436390E+03 -0.54398064371E+03 -0.50824939858E+03  0.11134984639E+04  0.46999998093E+01 0.  1.
</event>
<event>
 5   0  0.5452384E-07  0.2399100E+04  0.7818609E-02  0.8439841E-01
       -1   -1    0    0    0  501  0.00000000000E+00  0.00000000000E+00  0.81457469251E+03  0.81457469253E+03  0.50400001928E-02 0.  1.
        1   -1    0    0  501    0  0.00000000000E+00  0.00000000000E+00 -0.17664681369E+04  0.17664681369E+04  0.50400001928E-02 0. -1.
    10030    2    1    2    0    0  0.00000000000E+00  0.00000000000E+00 -0.95189344441E+03  0.25810428295E+04  0.23991000308E+04 0.  0.
        5    1    3    3  502    0 -0.10856461207E+04 -0.50955699998E+03 -0.50278481183E+03  0.13004193526E+04  0.46999998093E+01 0.  1.
       -5    1    3    3    0  502  0.10856461207E+04  0.50955699998E+03 -0.44910863258E+03  0.12806234769E+04  0.46999998093E+01 0. -1.
</event>
<event>
 5   0  0.1275948E-06  0.2400107E+04  0.7818609E-02  0.8439464E-01
        2   -1    0    0  501    0  0.00000000000E+00  0.00000000000E+00  0.11676660348E+04  0.11676660348E+04  0.25500000920E-02 0.  1.
       -2   -1    0    0    0  501  0.00000000000E+00  0.00000000000E+00 -0.12333390278E+04  0.12333390278E+04  0.25500000920E-02 0. -1.
    10030    2    1    2    0    0  0.00000000000E+00  0.00000000000E+00 -0.65672992995E+02  0.24010050626E+04  0.24001067411E+04 0.  0.
        1    1    3    3  502    0  0.96091769790E+02  0.19042719475E+03  0.11485508742E+04  0.11681888783E+04  0.50400001928E-02 0.  1.
       -1    1    3    3    0  502 -0.96091769790E+02 -0.19042719475E+03 -0.12142238672E+04  0.12328161843E+04  0.50400001928E-02 0. -1.
</event>
<event>
 5   0  0.5690124E-07  0.2400040E+04  0.7818609E-02  0.8439489E-01
       -1   -1    0    0    0  501  0.00000000000E+00  0.00000000000E+00  0.15368188547E+04  0.15368188547E+04  0.50400001928E-02 0.  1.
        1   -1    0    0  501    0  0.00000000000E+00  0.00000000000E+00 -0.93703175884E+03  0.93703175886E+03  0.50400001928E-02 0. -1.
    10030    2    1    2    0    0  0.00000000000E+00  0.00000000000E+00  0.59978709586E+03  0.24738506136E+04  0.24000400617E+04 0.  0.
        2    1    3    3  502    0  0.99924031554E+03  0.66442356287E+03  0.31061514148E+03  0.12395247659E+04  0.25500000920E-02 0.  1.
       -2    1    3    3    0  502 -0.99924031554E+03 -0.66442356287E+03  0.28917195438E+03  0.12343258477E+04  0.25500000920E-02 0. -1.
</event>
<event>
 5   0  0.5363690E-07  0.2400423E+04  0.7818609E-02  0.8439345E-01
        1   -1    0    0  501    0  0.00000000000E+00  0.00000000000E+00  0.14612162451E+04  0.14612162451E+04  0.50400001928E-02 0.  1.
       -1   -1    0    0    0  501  0.00000000000E+00  0.00000000000E+00 -0.98582781971E+03  0.98582781972E+03  0.50400001928E-02 0. -1.
    10030    2    1    2    0    0  0.00000000000E+00  0.00000000000E+00  0.47538842539E+03  0.24470440648E+04  0.24004229836E+04 0.  0.
        4    1    3    3  502    0 -0.66676844017E+02 -0.11865849331E+04  0.40850873036E+03  0.12567062508E+04  0.12699999809E+01 0.  1.
       -4    1    3    3    0  502  0.66676844017E+02  0.11865849331E+04  0.66879695022E+02  0.11903378141E+04  0.12699999809E+01 0. -1.
</event>
<event>
 5   0  0.5510176E-07  0.2394758E+04  0.7818609E-02  0.8441469E-01
        1   -1    0    0  501    0  0.00000000000E+00  0.00000000000E+00  0.86786079352E+03  0.86786079354E+03  0.50400001928E-02 0. -1.
       -1   -1    0    0    0  501  0.00000000000E+00  0.00000000000E+00 -0.16520126638E+04  0.16520126638E+04  0.50400001928E-02 0.  1.
    10030    2    1    2    0    0  0.00000000000E+00  0.00000000000E+00 -0.78415187025E+03  0.25198734573E+04  0.23947584607E+04 0.  0.
        3    1    3    3  502    0 -0.37649054926E+03  0.33792696815E+03  0.74987802453E+03  0.90457549788E+03  0.10100000352E+00 0. -1.
       -3    1    3    3    0  502  0.37649054926E+03 -0.33792696815E+03 -0.15340298948E+04  0.16152979594E+04  0.10100000352E+00 0.  1.
</event>
<event>
 5   0  0.1275948E-06  0.2400035E+04  0.7818609E-02  0.8439490E-01
       -2   -1    0    0    0  501  0.00000000000E+00  0.00000000000E+00  0.83866754650E+03  0.83866754651E+03  0.25500000920E-02 0.  1.
        2   -1    0    0  501    0  0.00000000000E+00  0.00000000000E+00 -0.17170599637E+04  0.17170599637E+04  0.25500000920E-02 0. -1.
    10030    2    1    2    0    0  0.00000000000E+00  0.00000000000E+00 -0.87839241718E+03  0.25557275102E+04  0.24000353889E+04 0.  0.
        1    1    3    3  502    0 -0.53158529250E+03 -0.89787654028E+03 -0.10703307101E+04  0.14947819352E+04  0.50400001928E-02 0. -1.
       -1    1    3    3    0  502  0.53158529250E+03  0.89787654028E+03  0.19193829291E+03  0.10609455750E+04  0.50400001928E-02 0.  1.
</event>
<event>
 5   0  0.5363690E-07  0.2398556E+04  0.7818609E-02  0.8440044E-01
       -1   -1    0    0    0  501  0.00000000000E+00  0.00000000000E+00  0.14215684056E+04  0.14215684056E+04  0.50400001928E-02 0. -1.
        1   -1    0    0  501    0  0.00000000000E+00  0.00000000000E+00 -0.10117472485E+04  0.10117472485E+04  0.50400001928E-02 0.  1.
    10030    2    1    2    0    0  0.00000000000E+00  0.00000000000E+00  0.40982115711E+03  0.24333156541E+04  0.23985561681E+04 0.  0.
        4    1    3    3  502    0 -0.10777438540E+04 -0.48427430260E+03 -0.35246517694E+01  0.11815529827E+04  0.12699999809E+01 0.  1.
       -4    1    3    3    0  502  0.10777438540E+04  0.48427430260E+03  0.41334580888E+03  0.12517626714E+04  0.12699999809E+01 0. -1.
</event>
<event>
 5   0  0.5363690E-07  0.2406141E+04  0.7818609E-02  0.8437208E-01
       -1   -1    0    0    0  501  0.00000000000E+00  0.00000000000E+00  0.19010738239E+04  0.19010738239E+04  0.50400001928E-02 0. -1.
        1   -1    0    0  501    0  0.00000000000E+00  0.00000000000E+00 -0.76134783615E+03  0.76134783617E+03  0.50400001928E-02 0.  1.
    10030    2    1    2    0    0  0.00000000000E+00  0.00000000000E+00  0.11397259878E+04  0.26624216601E+04  0.24061408456E+04 0.  0.
        4    1    3    3  502    0  0.59564709063E+03  0.95573258381E+03  0.10151118770E+03  0.11307194004E+04  0.12699999809E+01 0.  1.
       -4    1    3    3    0  502 -0.59564709063E+03 -0.95573258381E+03  0.10382148001E+04  0.15317022597E+04  0.12699999809E+01 0. -1.
</event>
<event>
 5   0  0.5452384E-07  0.2399213E+04  0.7818609E-02  0.8439798E-01
       -1   -1    0    0    0  501  0.00000000000E+00  0.00000000000E+00  0.15190026020E+04  0.15190026021E+04  0.50400001928E-02 0. -1.
        1   -1    0    0  501    0  0.00000000000E+00  0.00000000000E+00 -0.94736885659E+03  0.94736885660E+03  0.50400001928E-02 0.  1.
    10030    2    1    2    0    0  0.00000000000E+00  0.00000000000E+00  0.57163374545E+03  0.24663714587E+04  0.23992130029E+04 0.  0.
        5    1    3    3  502    0 -0.10720995308E+04 -0.82881468365E+01 -0.26736079779E+03  0.11049751053E+04  0.46999998093E+01 0.  1.
       -5    1    3    3    0  502  0.10720995308E+04  0.82881468365E+01  0.83899454324E+03  0.13613963533E+04  0.46999998093E+01 0. -1.
</event>
<event>
 5   0  0.1336057E-06  0.2400102E+04  0.7818609E-02  0.8439465E-01
        2   -1    0    0  501    0  0.00000000000E+00  0.00000000000E+00  0.90035824241E+03  0.90035824242E+03  0.25500000920E-02 0. -1.
       -2   -1    0    0    0  501  0.00000000000E+00  0.00000000000E+00 -0.15994990693E+04  0.15994990693E+04  0.25500000920E-02 0.  1.
    10030    2    1    2    0    0  0.00000000000E+00  0.00000000000E+00 -0.69914082692E+03  0.24998573118E+04  0.24001018069E+04 0.  0.
        2    1    3    3  502    0 -0.80346731871E+02  0.76010160385E+03 -0.13131778568E+04  0.15194229593E+04  0.25500000920E-02 0.  1.
       -2    1    3    3    0  502  0.80346731871E+02 -0.76010160385E+03  0.61403702988E+03  0.98043435250E+03  0.25500000920E-02 0. -1.
</event>
<event>
 5   0  0.1291468E-06  0.2399816E+04  0.7818609E-02  0.8439573E-01
        2   -1    0    0  501    0  0.00000000000E+00  0.00000000000E+00  0.27474340701E+04  0.27474340701E+04  0.25500000920E-02 0.  1.
       -2   -1    0    0    0  501  0.00000000000E+00  0.00000000000E+00 -0.52404490288E+03  0.52404490289E+03  0.25500000920E-02 0. -1.
    10030    2    1    2    0    0  0.00000000000E+00  0.00000000000E+00  0.22233891673E+04  0.32714789730E+04  0.23998156767E+04 0.  0.
        4    1    3    3  502    0  0.18752154960E+03 -0.97973077329E+03  0.20208111700E+04  0.22536007006E+04  0.12699999809E+01 0.  1.
       -4    1    3    3    0  502 -0.18752154960E+03  0.97973077329E+03  0.20257799720E+03  0.10178782725E+04  0.12699999809E+01 0. -1.
</event>
<event>
 5   0  0.1307477E-06  0.2399303E+04  0.7818609E-02  0.8439765E-01
        2   -1    0    0  501    0  0.00000000000E+00  0.00000000000E+00  0.94483652057E+03  0.94483652058E+03  0.25500000920E-02 0.  1.
       -2   -1    0    0    0  501  0.00000000000E+00  0.00000000000E+00 -0.15231877269E+04  0.15231877270E+04  0.25500000920E-02 0. -1.
    10030    2    1    2    0    0  0.00000000000E+00  0.00000000000E+00 -0.57835120637E+03  0.24680242475E+04  0.23993027255E+04 0.  0.
        5    1    3    3  502    0  0.48593086525E+03 -0.10217443752E+04 -0.69941038444E+03  0.13301456123E+04  0.46999998093E+01 0. -1.
       -5    1    3    3    0  502 -0.48593086525E+03  0.10217443752E+04  0.12105917806E+03  0.11378786353E+04  0.46999998093E+01 0.  1.
</event>
<event>
 5   0  0.1308662E-06  0.2399933E+04  0.7818609E-02  0.8439529E-01
        2   -1    0    0  501    0  0.00000000000E+00  0.00000000000E+00  0.17256541238E+04  0.17256541238E+04  0.25500000920E-02 0. -1.
       -2   -1    0    0    0  501  0.00000000000E+00  0.00000000000E+00 -0.83441961570E+03  0.83441961570E+03  0.25500000920E-02 0.  1.
    10030    2    1    2    0    0  0.00000000000E+00  0.00000000000E+00  0.89123450808E+03  0.25600737395E+04  0.23999330414E+04 0.  0.
        3    1    3    3  502    0 -0.55741769923E+03  0.40928810471E+03 -0.60047632835E+03  0.91586193019E+03  0.10100000352E+00 0.  1.
       -3    1    3    3    0  502  0.55741769923E+03 -0.40928810471E+03  0.14917108364E+04  0.16442118093E+04  0.10100000352E+00 0. -1.
</event>
<event>
 5   0  0.1307477E-06  0.2399700E+04  0.7818609E-02  0.8439616E-01
        2   -1    0    0  501    0  0.00000000000E+00  0.00000000000E+00  0.13062386465E+04  0.13062386465E+04  0.25500000920E-02 0.  1.
       -2   -1    0    0    0  501  0.00000000000E+00  0.00000000000E+00 -0.11021259901E+04  0.11021259901E+04  0.25500000920E-02 0. -1.
    10030    2    1    2    0    0  0.00000000000E+00  0.00000000000E+00  0.20411265634E+03  0.24083646366E+04  0.23996996159E+04 0.  0.
        5    1    3    3  502    0 -0.80778005875E+03 -0.32813789621E+03 -0.72519812867E+03  0.11340712138E+04  0.46999998093E+01 0. -1.
       -5    1    3    3    0  502  0.80778005875E+03  0.32813789621E+03  0.92931078501E+03  0.12742934228E+04  0.46999998093E+01 0.  1.
</event>
<event>
 5   0  0.1336057E-06  0.2399544E+04  0.7818609E-02  0.8439674E-01
        2   -1    0    0  501    0  0.00000000000E+00  0.00000000000E+00  0.16877593169E+04  0.16877593169E+04  0.25500000920E-02 0.  1.
       -2   -1    0    0    0  501  0.00000000000E+00  0.00000000000E+00 -0.85287797963E+03  0.85287797964E+03  0.25500000920E-02 0. -1.
    10030    2    1    2    0    0  0.00000000000E+00  0.00000000000E+00  0.83488133728E+03  0.25406372966E+04  0.23995439203E+04 0.  0.
        2    1    3    3  502    0 -0.39915641963E+03  0.58448819335E+03  0.14431663067E+04  0.16073833657E+04  0.25500000920E-02 0.  1.
       -2    1    3    3    0  502  0.39915641963E+03 -0.58448819335E+03 -0.60828496941E+03  0.93325393088E+03  0.25500000920E-02 0. -1.
</event>
<event>
 5   0  0.5527286E-07  0.2400291E+04  0.7818609E-02  0.8439395E-01
        1   -1    0    0  501    0  0.00000000000E+00  0.00000000000E+00  0.13049523297E+04  0.13049523297E+04  0.50400001928E-02 0.  1.
       -1   -1    0    0    0  501  0.00000000000E+00  0.00000000000E+00 -0.11037559101E+04  0.11037559102E+04  0.50400001928E-02 0. -1.
    10030    2    1    2    0    0  0.00000000000E+00  0.00000000000E+00  0.20119641951E+03  0.24087082398E+04  0.24002906877E+04 0.  0.
        1    1    3    3  502    0 -0.92875498458E+03 -0.40299278571E+03 -0.54614608995E+03  0.11503323686E+04  0.50400001928E-02 0. -1.
       -1    1    3    3    0  502  0.92875498458E+03  0.40299278571E+03  0.74734250945E+03  0.12583758712E+04  0.50400001928E-02 0.  1.
</event>
<event>
 5   0  0.5363690E-07  0.2401931E+04  0.7818609E-02  0.8438781E-01
        1   -1    0    0  501    0  0.00000000000E+00  0.00000000000E+00  0.14799747416E+04  0.14799747416E+04  0.50400001928E-02 0. -1.
       -1   -1    0    0    0  501  0.00000000000E+00  0.00000000000E+00 -0.97455559448E+03  0.97455559449E+03  0.50400001928E-02 0.  1.
    10030    2    1    2    0    0  0.00000000000E+00  0.00000000000E+00  0.50541914715E+03  0.24545303361E+04  0.24019306103E+04 0.  0.
        4    1    3    3  502    0 -0.50985391234E+03 -0.82382140168E+03 -0.47253875933E+03  0.10779272729E+04  0.12699999809E+01 0.  1.
       -4    1    3    3    0  502  0.50985391234E+03  0.82382140168E+03  0.97795790649E+03  0.13766030632E+04  0.12699999809E+01 0. -1.
</event>
<event>
 5   0  0.1291468E-06  0.2402355E+04  0.7818609E-02  0.8438622E-01
       -2   -1    0    0    0  501  0.00000000000E+00  0.00000000000E+00  0.87547636747E+03  0.87547636747E+03  0.25500000920E-02 0. -1.
        2   -1    0    0  501    0  0.00000000000E+00  0.00000000000E+00 -0.16480488960E+04  0.16480488960E+04  0.25500000920E-02 0.  1.
    10030    2    1    2    0    0  0.00000000000E+00  0.00000000000E+00 -0.77257252852E+03  0.25235252635E+04  0.24023553949E+04 0.  0.
        4    1    3    3  502    0 -0.71117833731E+02  0.20614062547E+03  0.85450931282E+03  0.88189539195E+03  0.12699999809E+01 0. -1.
       -4    1    3    3    0  502  0.71117833731E+02 -0.20614062547E+03 -0.16270818413E+04  0.16416298715E+04  0.12699999809E+01 0.  1.
</event>
<event>
 5   0  0.1291468E-06  0.2400003E+04  0.7818609E-02  0.8439503E-01
        2   -1    0    0  501    0  0.00000000000E+00  0.00000000000E+00  0.11789252109E+04  0.11789252109E+04  0.25500000920E-02 0. -1.
       -2   -1    0    0    0  501  0.00000000000E+00  0.00000000000E+00 -0.12214541075E+04  0.12214541075E+04  0.25500000920E-02 0.  1.
    10030    2    1    2    0    0  0.00000000000E+00  0.00000000000E+00 -0.42528896599E+02  0.24003793184E+04  0.24000025344E+04 0.  0.
        4    1    3    3  502    0  0.46518957178E+03 -0.51820863655E+03  0.95616063785E+03  0.11828720586E+04  0.12699999809E+01 0. -1.
       -4    1    3    3    0  502 -0.46518957178E+03  0.51820863655E+03 -0.99868953445E+03  0.12175072599E+04  0.12699999809E+01 0.  1.
</event>
<event>
 5   0  0.5690124E-07  0.2399935E+04  0.7818609E-02  0.8439528E-01
       -1   -1    0    0    0  501  0.00000000000E+00  0.00000000000E+00  0.69818634182E+03  0.69818634184E+03  0.50400001928E-02 0.  1.
        1   -1    0    0  501    0  0.00000000000E+00  0.00000000000E+00 -0.20623749217E+04  0.20623749217E+04  0.50400001928E-02 0. -1.
    10030    2    1    2    0    0  0.00000000000E+00  0.00000000000E+00 -0.13641885799E+04  0.27605612636E+04  0.23999350009E+04 0.  0.
        2    1    3    3  502    0  0.99410021589E+03 -0.63709498730E+03 -0.43593558849E+03  0.12586362061E+04  0.25500000920E-02 0.  1.
       -2    1    3    3    0  502 -0.99410021589E+03  0.63709498730E+03 -0.92825299140E+03  0.15019250574E+04  0.25500000920E-02 0. -1.
</event>
<event>
 5   0  0.5690124E-07  0.2399975E+04  0.7818609E-02  0.8439513E-01
        1   -1    0    0  501    0  0.00000000000E+00  0.00000000000E+00  0.11208522884E+04  0.11208522884E+04  0.50400001928E-02 0. -1.
       -1   -1    0    0    0  501  0.00000000000E+00  0.00000000000E+00 -0.12847095770E+04  0.12847095770E+04  0.50400001928E-02 0.  1.
    10030    2    1    2    0    0  0.00000000000E+00  0.00000000000E+00 -0.16385728859E+03  0.24055618654E+04  0.23999747242E+04 0.  0.
        2    1    3    3  502    0 -0.61149007972E+03  0.10278937964E+04  0.15683359567E+02  0.11961319919E+04  0.25500000920E-02 0. -1.
       -2    1    3    3    0  502  0.61149007972E+03 -0.10278937964E+04 -0.17954064816E+03  0.12094298734E+04  0.25500000920E-02 0.  1.
</event>
<event>
 5   0  0.1336057E-06  0.2399162E+04  0.7818609E-02  0.8439817E-01
       -2   -1    0    0    0  501  0.00000000000E+00  0.00000000000E+00  0.13371277696E+04  0.13371277696E+04  0.25500000920E-02 0.  1.
        2   -1    0    0  501    0  0.00000000000E+00  0.00000000000E+00 -0.10761834125E+04  0.10761834125E+04  0.25500000920E-02 0. -1.
    10030    2    1    2    0    0  0.00000000000E+00  0.00000000000E+00  0.26094435709E+03  0.24133111821E+04  0.23991621255E+04 0.  0.
        2    1    3    3  502    0  0.43496693740E+03 -0.25448199098E+02  0.12547177288E+04  0.13282170103E+04  0.25500000920E-02 0.  1.
       -2    1    3    3    0  502 -0.43496693740E+03  0.25448199098E+02 -0.99377337170E+03  0.10850941718E+04  0.25500000920E-02 0. -1.
</event>
<event>
 5   0  0.1308662E-06  0.2400182E+04  0.7818609E-02  0.8439435E-01
       -2   -1    0    0    0  501  0.00000000000E+00  0.00000000000E+00  0.11373742736E+04  0.11373742736E+04  0.25500000920E-02 0. -1.
        2   -1    0    0  501    0  0.00000000000E+00  0.00000000000E+00 -0.12662662265E+04  0.12662662265E+04  0.25500000920E-02 0.  1.
    10030    2    1    2    0    0  0.00000000000E+00  0.00000000000E+00 -0.12889195293E+03  0.24036405001E+04  0.24001821844E+04 0.  0.
        3    1    3    3  502    0  0.13372441690E+03 -0.44473157155E+03  0.10437424421E+04  0.11423951532E+04  0.10100000352E+00 0. -1.
       -3    1    3    3    0  502 -0.13372441690E+03  0.44473157155E+03 -0.11726343951E+04  0.12612453469E+04  0.10100000352E+00 0.  1.
</event>
<event>
 5   0  0.1336057E-06  0.2400622E+04  0.7818609E-02  0.8439271E-01
        2   -1    0    0  501    0  0.00000000000E+00  0.00000000000E+00  0.22171020775E+04  0.22171020775E+04  0.25500000920E-02 0. -1.
       -2   -1    0    0    0  501  0.00000000000E+00  0.00000000000E+00 -0.64983306482E+03  0.64983306483E+03  0.25500000920E-02 0.  1.
    10030    2    1    2    0    0  0.00000000000E+00  0.00000000000E+00  0.15672690127E+04  0.28669351423E+04  0.24006217845E+04 0.  0.
        2    1    3    3  502    0  0.37005863523E+03 -0.11339558451E+04  0.94362341901E+03  0.15209287981E+04  0.25500000920E-02 0. -1.
       -2    1    3    3    0  502 -0.37005863523E+03  0.11339558451E+04  0.62364559368E+03  0.13460063442E+04  0.25500000920E-02 0.  1.
</event>
<event>
 5   0  0.1275948E-06  0.2400037E+04  0.7818609E-02  0.8439490E-01
        2   -1    0    0  501    0  0.00000000000E+00  0.00000000000E+00  0.19368253583E+04  0.19368253583E+04  0.25500000920E-02 0. -1.
       -2   -1    0    0    0  501  0.00000000000E+00  0.00000000000E+00 -0.74350733775E+03  0.74350733776E+03  0.25500000920E-02 0.  1.
    10030    2    1    2    0    0  0.00000000000E+00  0.00000000000E+00  0.11933180205E+04  0.26803326960E+04  0.24000365546E+04 0.  0.
        1    1    3    3  502    0  0.71743871469E+03  0.76750391195E+03  0.12442645932E+04  0.16284885453E+04  0.50400001928E-02 0. -1.
       -1    1    3    3    0  502 -0.71743871469E+03 -0.76750391195E+03 -0.50946572659E+02  0.10518441508E+04  0.50400001928E-02 0.  1.
</event>
<event>
 5   0  0.5452384E-07  0.2400712E+04  0.7818609E-02  0.8439237E-01
        1   -1    0    0  501    0  0.00000000000E+00  0.00000000000E+00  0.22826917991E+04  0.22826917991E+04  0.50400001928E-02 0. -1.
       -1   -1    0    0    0  501  0.00000000000E+00  0.00000000000E+00 -0.63120870138E+03  0.63120870140E+03  0.50400001928E-02 0.  1.
    10030    2    1    2    0    0  0.00000000000E+00  0.00000000000E+00  0.16514830977E+04  0.29139005005E+04  0.24007123328E+04 0.  0.
        5    1    3    3  502    0 -0.99734974219E+03 -0.54125886878E+03  0.35071859492E+03  0.11877261023E+04  0.46999998093E+01 0.  1.
       -5    1    3    3    0  502  0.99734974219E+03  0.54125886878E+03  0.13007645028E+04  0.17261743982E+04  0.46999998093E+01 0. -1.
</event>
<event>
 5   0  0.1307477E-06  0.2401278E+04  0.7818609E-02  0.8439025E-01
       -2   -1    0    0    0  501  0.00000000000E+00  0.00000000000E+00  0.11471801895E+04  0.11471801895E+04  0.25500000920E-02 0.  1.
        2   -1    0    0  501    0  0.00000000000E+00  0.00000000000E+00 -0.12565894984E+04  0.12565894984E+04  0.25500000920E-02 0. -1.
    10030    2    1    2    0    0  0.00000000000E+00  0.00000000000E+00 -0.10940930890E+03  0.24037696879E+04  0.24012784753E+04 0.  0.
        5    1    3    3  502    0  0.40342678932E+03  0.11090014178E+04 -0.27601130557E+03  0.12119577756E+04  0.46999998093E+01 0. -1.
       -5    1    3    3    0  502 -0.40342678932E+03 -0.11090014178E+04  0.16660199667E+03  0.11918119123E+04  0.46999998093E+01 0.  1.
</event>
<event>
 5   0  0.1291468E-06  0.2399641E+04  0.7818609E-02  0.8439638E-01
        2   -1    0    0  501    0  0.00000000000E+00  0.00000000000E+00  0.10443297768E+04  0.10443297768E+04  0.25500000920E-02 0.  1.
       -2   -1    0    0    0  501  0.00000000000E+00  0.00000000000E+00 -0.13784627646E+04  0.13784627646E+04  0.25500000920E-02 0. -1.
    10030    2    1    2    0    0  0.00000000000E+00  0.00000000000E+00 -0.33413298779E+03  0.24227925414E+04  0.23996413993E+04 0.  0.
        4    1    3    3  502    0  0.98380765212E+03  0.68499441237E+03 -0.21727814568E+03  0.12183210771E+04  0.12699999809E+01 0. -1.
       -4    1    3    3    0  502 -0.98380765212E+03 -0.68499441237E+03 -0.11685484210E+03  0.12044714643E+04  0.12699999809E+01 0.  1.
</event>
<event>
 5   0  0.1336057E-06  0.2400495E+04  0.7818609E-02  0.8439318E-01
        2   -1    0    0  501    0  0.00000000000E+00  0.00000000000E+00  0.12255778330E+04  0.12255778330E+04  0.25500000920E-02 0. -1.
       -2   -1    0    0    0  501  0.00000000000E+00  0.00000000000E+00 -0.11754408590E+04  0.11754408590E+04  0.25500000920E-02 0.  1.
    10030    2    1    2    0    0  0.00000000000E+00  0.00000000000E+00  0.50136974053E+02  0.24010186920E+04  0.24004951663E+04 0.  0.
        2    1    3    3  502    0 -0.47922858715E+03  0.33603299713E+03 -0.10230226509E+04  0.11786235863E+04  0.25500000920E-02 0.  1.
       -2    1    3    3    0  502  0.47922858715E+03 -0.33603299713E+03  0.10731596249E+04  0.12223951057E+04  0.25500000920E-02 0. -1.
</event>
<event>
 5   0  0.5510176E-07  0.2399588E+04  0.7818609E-02  0.8439658E-01
       -1   -1    0    0    0  501  0.00000000000E+00  0.00000000000E+00  0.17983524057E+04  0.17983524057E+04  0.50400001928E-02 0. -1.
        1   -1    0    0  501    0  0.00000000000E+00  0.00000000000E+00 -0.80045773686E+03  0.80045773688E+03  0.50400001928E-02 0.  1.
    10030    2    1    2    0    0  0.00000000000E+00  0.00000000000E+00  0.99789466881E+03  0.25988101426E+04  0.23995875452E+04 0.  0.
        3    1    3    3  502    0 -0.44495563747E+03 -0.44397933869E+03 -0.60785937584E+03  0.87441191866E+03  0.10100000352E+00 0.  1.
       -3    1    3    3    0  502  0.44495563747E+03  0.44397933869E+03  0.16057540446E+04  0.17243982239E+04  0.10100000352E+00 0. -1.
</event>
<event>
 5   0  0.5452384E-07  0.2399040E+04  0.7818609E-02  0.8439863E-01
       -1   -1    0    0    0  501  0.00000000000E+00  0.00000000000E+00  0.13247130135E+04  0.13247130135E+04  0.50400001928E-02 0.  1.
        1   -1    0    0  501    0  0.00000000000E+00  0.00000000000E+00 -0.10861585638E+04  0.10861585638E+04  0.50400001928E-02 0. -1.
    10030    2    1    2    0    0  0.00000000000E+00  0.00000000000E+00  0.23855444967E+03  0.24108715773E+04  0.23990401282E+04 0.  0.
        5    1    3    3  502    0  0.54061434083E+03  0.10519694447E+04 -0.81514867164E+02  0.11855675188E+04  0.46999998093E+01 0. -1.
       -5    1    3    3    0  502 -0.54061434083E+03 -0.10519694447E+04  0.32006931684E+03  0.12253040585E+04  0.46999998093E+01 0.  1.
</event>
<event>
 5   0  0.1275948E-06  0.2405262E+04  0.7818609E-02  0.8437536E-01
        2   -1    0    0  501    0  0.00000000000E+00  0.00000000000E+00  0.16456246719E+04  0.16456246719E+04  0.25500000920E-02 0.  1.
       -2   -1    0    0    0  501  0.00000000000E+00  0.00000000000E+00 -0.87888876909E+03  0.87888876910E+03  0.25500000920E-02 0. -1.
    10030    2    1    2    0    0  0.00000000000E+00  0.00000000000E+00  0.76673590276E+03  0.25245134409E+04  0.24052617672E+04 0.  0.
        1    1    3    3  502    0 -0.22013747365E+03  0.45394621431E+02  0.16233828837E+04  0.16388694781E+04  0.50400001928E-02 0.  1.
       -1    1    3    3    0  502  0.22013747365E+03 -0.45394621431E+02 -0.85664698096E+03  0.88564396288E+03  0.50400001928E-02 0. -1.
</event>
<event>
 5   0  0.1307477E-06  0.2404648E+04  0.7818609E-02  0.8437765E-01
        2   -1    0    0  501    0  0.00000000000E+00  0.00000000000E+00  0.67754489941E+03  0.67754489942E+03  0.25500000920E-02 0. -1.
       -2   -1    0    0    0  501  0.00000000000E+00  0.00000000000E+00 -0.21335605544E+04  0.21335605544E+04  0.25500000920E-02 0.  1.
    10030    2    1    2    0    0  0.00000000000E+00  0.00000000000E+00 -0.14560156550E+04  0.28111054538E+04  0.24046480584E+04 0.  0.
        5    1    3    3  502    0 -0.20213076016E+03  0.10630279684E+03 -0.21079602674E+04  0.21203008531E+04  0.46999998093E+01 0.  1.
       -5    1    3    3    0  502  0.20213076016E+03 -0.10630279684E+03  0.65194461237E+03  0.69080460074E+03  0.46999998093E+01 0. -1.
</event>
<event>
 5   0  0.1307477E-06  0.2399775E+04  0.7818609E-02  0.8439588E-01
        2   -1    0    0  501    0  0.00000000000E+00  0.00000000000E+00  0.21105949474E+04  0.21105949474E+04  0.25500000920E-02 0.  1.
       -2   -1    0    0    0  501  0.00000000000E+00  0.00000000000E+00 -0.68214409518E+03  0.68214409519E+03  0.25500000920E-02 0. -1.
    10030    2    1    2    0    0  0.00000000000E+00  0.00000000000E+00  0.14284508522E+04  0.27927390426E+04  0.23997748900E+04 0.  0.
        5    1    3    3  502    0  0.11623787665E+04  0.93600488942E+02  0.10430180646E+04  0.15645428155E+04  0.46999998093E+01 0.  1.
       -5    1    3    3    0  502 -0.11623787665E+04 -0.93600488942E+02  0.38543278759E+03  0.12281962271E+04  0.46999998093E+01 0. -1.
</event>
<event>
 5   0  0.5363690E-07  0.2400054E+04  0.7818609E-02  0.8439483E-01
        1   -1    0    0  501    0  0.00000000000E+00  0.00000000000E+00  0.21247004680E+04  0.21247004680E+04  0.50400001928E-02 0.  1.
       -1   -1    0    0    0  501  0.00000000000E+00  0.00000000000E+00 -0.67777293142E+03  0.67777293144E+03  0.50400001928E-02 0. -1.
    10030    2    1    2    0    0  0.00000000000E+00  0.00000000000E+00  0.14469275366E+04  0.28024733995E+04  0.24000537199E+04 0.  0.
        4    1    3    3  502    0 -0.38277387823E+03  0.53696710196E+03 -0.44724712245E+03  0.79679427200E+03  0.12699999809E+01 0. -1.
       -4    1    3    3    0  502  0.38277387823E+03 -0.53696710196E+03  0.18941746590E+04  0.20056791275E+04  0.12699999809E+01 0.  1.
</event>
<event>
 5   0  0.5363690E-07  0.2407672E+04  0.7818609E-02  0.8436637E-01
        1   -1    0    0  501    0  0.00000000000E+00  0.00000000000E+00  0.12686769483E+04  0.12686769484E+04  0.50400001928E-02 0. -1.
       -1   -1    0    0    0  501  0.00000000000E+00  0.00000000000E+00 -0.11423091072E+04  0.11423091072E+04  0.50400001928E-02 0.  1.
    10030    2    1    2    0    0  0.00000000000E+00  0.00000000000E+00  0.12636784115E+03  0.24109860556E+04  0.24076720974E+04 0.  0.
        4    1    3    3  502    0 -0.83879777707E+03  0.82519021186E+03  0.31789405158E+03  0.12188432375E+04  0.12699999809E+01 0. -1.
       -4    1    3    3    0  502  0.83879777707E+03 -0.82519021186E+03 -0.19152621044E+03  0.11921428181E+04  0.12699999809E+01 0.  1.
</event>
<event>
 5   0  0.5690124E-07  0.2399782E+04  0.7818609E-02  0.8439585E-01
        1   -1    0    0  501    0  0.00000000000E+00  0.00000000000E+00  0.13079679619E+04  0.13079679619E+04  0.50400001928E-02 0.  1.
       -1   -1    0    0    0  501  0.00000000000E+00  0.00000000000E+00 -0.11007446153E+04  0.11007446153E+04  0.50400001928E-02 0. -1.
    10030    2    1    2    0    0  0.00000000000E+00  0.00000000000E+00  0.20722334655E+03  0.24087125772E+04  0.23997822327E+04 0.  0.
        2    1    3    3  502    0  0.51350926430E+03 -0.91332433889E+02 -0.98101373727E+03  0.11110451524E+04  0.25500000920E-02 0. -1.
       -2    1    3    3    0  502 -0.51350926430E+03  0.91332433889E+02  0.11882370838E+04  0.12976674248E+04  0.25500000920E-02 0.  1.
</event>
<event>
 5   0  0.1275948E-06  0.2397892E+04  0.7818609E-02  0.8440293E-01
        2   -1    0    0  501    0  0.00000000000E+00  0.00000000000E+00  0.84439956000E+03  0.84439956000E+03  0.25500000920E-02 0. -1.
       -2   -1    0    0    0  501  0.00000000000E+00  0.00000000000E+00 -0.17023591348E+04  0.17023591348E+04  0.25500000920E-02 0.  1.
    10030    2    1    2    0    0  0.00000000000E+00  0.00000000000E+00 -0.85795957482E+03  0.25467586948E+04  0.23978918278E+04 0.  0.
        1    1    3    3  502    0 -0.22169800282E+03 -0.30411362376E+03 -0.16379991735E+04  0.16806773614E+04  0.50400001928E-02 0.  1.
       -1    1    3    3    0  502  0.22169800282E+03  0.30411362376E+03  0.78003959868E+03  0.86608133345E+03  0.50400001928E-02 0. -1.
</event>
<event>
 5   0  0.1307477E-06  0.2400944E+04  0.7818609E-02  0.8439150E-01
        2   -1    0    0  501    0  0.00000000000E+00  0.00000000000E+00  0.66290147869E+03  0.66290147869E+03  0.25500000920E-02 0. -1.
       -2   -1    0    0    0  501  0.00000000000E+00  0.00000000000E+00 -0.21739777545E+04  0.21739777545E+04  0.25500000920E-02 0.  1.
    10030    2    1    2    0    0  0.00000000000E+00  0.00000000000E+00 -0.15110762758E+04  0.28368792332E+04  0.24009440378E+04 0.  0.
        5    1    3    3  502    0 -0.42258956815E+03  0.48041222016E+03  0.44463112406E+03  0.77916414886E+03  0.46999998093E+01 0. -1.
       -5    1    3    3    0  502  0.42258956815E+03 -0.48041222016E+03 -0.19557073999E+04  0.20577150843E+04  0.46999998093E+01 0.  1.
</event>
<event>
 5   0  0.1308662E-06  0.2399646E+04  0.7818609E-02  0.8439636E-01
       -2   -1    0    0    0  501  0.00000000000E+00  0.00000000000E+00  0.65356887863E+03  0.65356887863E+03  0.25500000920E-02 0. -1.
        2   -1    0    0  501    0  0.00000000000E+00  0.00000000000E+00 -0.22026377103E+04  0.22026377103E+04  0.25500000920E-02 0.  1.
    10030    2    1    2    0    0  0.00000000000E+00  0.00000000000E+00 -0.15490688317E+04  0.28562065890E+04  0.23996461892E+04 0.  0.
        3    1    3    3  502    0  0.24920190060E+03 -0.36590585632E+02  0.62174688721E+03  0.67082759348E+03  0.10100000352E+00 0. -1.
       -3    1    3    3    0  502 -0.24920190060E+03  0.36590585632E+02 -0.21708157189E+04  0.21853789955E+04  0.10100000352E+00 0.  1.
</event>
<event>
 5   0  0.5363690E-07  0.2398705E+04  0.7818609E-02  0.8439988E-01
       -1   -1    0    0    0  501  0.00000000000E+00  0.00000000000E+00  0.52880746784E+03  0.52880746786E+03  0.50400001928E-02 0. -1.
        1   -1    0    0  501    0  0.00000000000E+00  0.00000000000E+00 -0.27201714592E+04  0.27201714592E+04  0.50400001928E-02 0.  1.
    10030    2    1    2    0    0  0.00000000000E+00  0.00000000000E+00 -0.21913639913E+04  0.32489789270E+04  0.23987054687E+04 0.  0.
        4    1    3    3  502    0  0.35033084847E+03 -0.99165735123E+03 -0.18765081047E+04  0.21511392995E+04  0.12699999809E+01 0.  1.
       -4    1    3    3    0  502 -0.35033084847E+03  0.99165735123E+03 -0.31485588659E+03  0.10978396276E+04  0.12699999809E+01 0. -1.
</event>
<event>
 5   0  0.1275948E-06  0.2401534E+04  0.7818609E-02  0.8438930E-01
       -2   -1    0    0    0  501  0.00000000000E+00  0.00000000000E+00  0.10011391912E+04  0.10011391912E+04  0.25500000920E-02 0. -1.
        2   -1    0    0  501    0  0.00000000000E+00  0.00000000000E+00 -0.14402005239E+04  0.14402005239E+04  0.25500000920E-02 0.  1.
    10030    2    1    2    0    0  0.00000000000E+00  0.00000000000E+00 -0.43906133273E+03  0.24413397151E+04  0.24015338329E+04 0.  0.
        1    1    3    3  502    0  0.76362020835E+03 -0.90599439032E+03 -0.41743550716E+03  0.12562619395E+04  0.50400001928E-02 0.  1.
       -1    1    3    3    0  502 -0.76362020835E+03  0.90599439032E+03 -0.21625825570E+02  0.11850777756E+04  0.50400001928E-02 0. -1.
</event>
<event>
 5   0  0.5363690E-07  0.2399720E+04  0.7818609E-02  0.8439608E-01
        1   -1    0    0  501    0  0.00000000000E+00  0.00000000000E+00  0.92933580201E+03  0.92933580203E+03  0.50400001928E-02 0. -1.
       -1   -1    0    0    0  501  0.00000000000E+00  0.00000000000E+00 -0.15491322660E+04  0.15491322660E+04  0.50400001928E-02 0.  1.
    10030    2    1    2    0    0  0.00000000000E+00  0.00000000000E+00 -0.61979646402E+03  0.24784680681E+04  0.23997200478E+04 0.  0.
        4    1    3    3  502    0 -0.22432634127E+03  0.99850101738E+03  0.33702352737E+03  0.10774567555E+04  0.12699999809E+01 0. -1.
       -4    1    3    3    0  502  0.22432634127E+03 -0.99850101738E+03 -0.95681999139E+03  0.14010113126E+04  0.12699999809E+01 0.  1.
</event>
<event>
 5   0  0.1308662E-06  0.2399917E+04  0.7818609E-02  0.8439535E-01
        2   -1    0    0  501    0  0.00000000000E+00  0.00000000000E+00  0.12284041231E+04  0.12284041231E+04  0.25500000920E-02 0.  1.
       -2   -1    0    0    0  501  0.00000000000E+00  0.00000000000E+00 -0.11721713835E+04  0.11721713835E+04  0.25500000920E-02 0. -1.
    10030    2    1    2    0    0  0.00000000000E+00  0.00000000000E+00  0.56232739588E+02  0.24005755066E+04  0.23999167990E+04 0.  0.
        3    1    3    3  502    0 -0.41830728168E+03 -0.89519451111E+03  0.70914533428E+03  0.12162406464E+04  0.10100000352E+00 0.  1.
       -3    1    3    3    0  502  0.41830728168E+03  0.89519451111E+03 -0.65291259469E+03  0.11843348602E+04  0.10100000352E+00 0. -1.
</event>
<event>
 5   0  0.1291468E-06  0.2397994E+04  0.7818609E-02  0.8440255E-01
        2   -1    0    0  501    0  0.00000000000E+00  0.00000000000E+00  0.13020112228E+04  0.13020112228E+04  0.25500000920E-02 0. -1.
       -2   -1    0    0    0  501  0.00000000000E+00  0.00000000000E+00 -0.11041329837E+04  0.11041329837E+04  0.25500000920E-02 0.  1.
    10030    2    1    2    0    0  0.00000000000E+00  0.00000000000E+00  0.19787823915E+03  0.24061442065E+04  0.23979937750E+04 0.  0.
        4    1    3    3  502    0 -0.10651535168E+04  0.55036858978E+03  0.87309883351E+02  0.12021157297E+04  0.12699999809E+01 0.  1.
       -4    1    3    3    0  502  0.10651535168E+04 -0.55036858978E+03  0.11056835580E+03  0.12040284769E+04  0.12699999809E+01 0. -1.
</event>
<event>
 5   0  0.5527286E-07  0.2401547E+04  0.7818609E-02  0.8438925E-01
        1   -1    0    0  501    0  0.00000000000E+00  0.00000000000E+00  0.14257947341E+04  0.14257947341E+04  0.50400001928E-02 0.  1.
       -1   -1    0    0    0  501  0.00000000000E+00  0.00000000000E+00 -0.10112656783E+04  0.10112656783E+04  0.50400001928E-02 0. -1.
    10030    2    1    2    0    0  0.00000000000E+00  0.00000000000E+00  0.41452905582E+03  0.24370604124E+04  0.24015472337E+04 0.  0.
        1    1    3    3  502    0  0.86174571246E+03 -0.38392945978E+03 -0.54658661488E+03  0.10903047421E+04  0.50400001928E-02 0. -1.
       -1    1    3    3    0  502 -0.86174571246E+03  0.38392945978E+03  0.96111567071E+03  0.13467556703E+04  0.50400001928E-02 0.  1.
</event>
<event>
 5   0  0.1275948E-06  0.2400005E+04  0.7818609E-02  0.8439502E-01
       -2   -1    0    0    0  501  0.00000000000E+00  0.00000000000E+00  0.90381924759E+03  0.90381924759E+03  0.25500000920E-02 0. -1.
        2   -1    0    0  501    0  0.00000000000E+00  0.00000000000E+00 -0.15932453322E+04  0.15932453322E+04  0.25500000920E-02 0.  1.
    10030    2    1    2    0    0  0.00000000000E+00  0.00000000000E+00 -0.68942608459E+03  0.24970645798E+04  0.24000048311E+04 0.  0.
        1    1    3    3  502    0  0.40802242008E+03  0.19315205381E+03  0.81210432741E+03  0.92914124320E+03  0.50400001928E-02 0. -1.
       -1    1    3    3    0  502 -0.40802242008E+03 -0.19315205381E+03 -0.15015304120E+04  0.15679233366E+04  0.50400001928E-02 0.  1.
</event>
<event>
 5   0  0.5452384E-07  0.2397947E+04  0.7818609E-02  0.8440273E-01
        1   -1    0    0  501    0  0.00000000000E+00  0.00000000000E+00  0.95478759526E+03  0.95478759527E+03  0.50400001928E-02 0. -1.
       -1   -1    0    0    0  501  0.00000000000E+00  0.00000000000E+00 -0.15056097855E+04  0.15056097855E+04  0.50400001928E-02 0.  1.
    10030    2    1    2    0    0  0.00000000000E+00  0.00000000000E+00 -0.55082219025E+03  0.24603973808E+04  0.23979470774E+04 0.  0.
        5    1    3    3  502    0 -0.20284343740E+03 -0.88533628904E+03 -0.10784494907E+04  0.14099791484E+04  0.46999998093E+01 0.  1.
       -5    1    3    3    0  502  0.20284343740E+03  0.88533628904E+03  0.52762730048E+03  0.10504182324E+04  0.46999998093E+01 0. -1.
</event>
<event>
 5   0  0.5452384E-07  0.2398761E+04  0.7818609E-02  0.8439968E-01
       -1   -1    0    0    0  501  0.00000000000E+00  0.00000000000E+00  0.12200885357E+04  0.12200885357E+04  0.50400001928E-02 0.  1.
        1   -1    0    0  501    0  0.00000000000E+00  0.00000000000E+00 -0.11790237251E+04  0.11790237252E+04  0.50400001928E-02 0. -1.
    10030    2    1    2    0    0  0.00000000000E+00  0.00000000000E+00  0.41064810573E+02  0.23991122609E+04  0.23987607887E+04 0.  0.
        5    1    3    3  502    0  0.83657922377E+03 -0.21404919283E+03  0.85300608345E+03  0.12138053069E+04  0.46999998093E+01 0.  1.
       -5    1    3    3    0  502 -0.83657922377E+03  0.21404919283E+03 -0.81194127288E+03  0.11853069540E+04  0.46999998093E+01 0. -1.
</event>
<event>
 5   0  0.5363690E-07  0.2399868E+04  0.7818609E-02  0.8439553E-01
        1   -1    0    0  501    0  0.00000000000E+00  0.00000000000E+00  0.65866808288E+03  0.65866808290E+03  0.50400001928E-02 0. -1.
       -1   -1    0    0    0  501  0.00000000000E+00  0.00000000000E+00 -0.21859894572E+04  0.21859894572E+04  0.50400001928E-02 0.  1.
    10030    2    1    2    0    0  0.00000000000E+00  0.00000000000E+00 -0.15273213743E+04  0.28446575401E+04  0.23998679005E+04 0.  0.
        4    1    3    3  502    0  0.17721145699E+03  0.70800064964E+03 -0.18926432784E+04  0.20284893424E+04  0.12699999809E+01 0.  1.
       -4    1    3    3    0  502 -0.17721145699E+03 -0.70800064964E+03  0.36532190405E+03  0.81616819765E+03  0.12699999809E+01 0. -1.
</event>
<event>
 5   0  0.5510176E-07  0.2400337E+04  0.7818609E-02  0.8439377E-01
       -1   -1    0    0    0  501  0.00000000000E+00  0.00000000000E+00  0.76436208015E+03  0.76436208017E+03  0.50400001928E-02 0.  1.
        1   -1    0    0  501    0  0.00000000000E+00  0.00000000000E+00 -0.18844530226E+04  0.18844530226E+04  0.50400001928E-02 0. -1.
    10030    2    1    2    0    0  0.00000000000E+00  0.00000000000E+00 -0.11200909425E+04  0.26488151028E+04  0.24003370033E+04 0.  0.
        3    1    3    3  502    0  0.53646088880E+03  0.11747204988E+03  0.61757652533E+03  0.82643253963E+03  0.10100000352E+00 0.  1.
       -3    1    3    3    0  502 -0.53646088880E+03 -0.11747204988E+03 -0.17376674678E+04  0.18223825632E+04  0.10100000352E+00 0. -1.
</event>
<event>
 5   0  0.5510176E-07  0.2399955E+04  0.7818609E-02  0.8439520E-01
        1   -1    0    0  501    0  0.00000000000E+00  0.00000000000E+00  0.17957143231E+04  0.17957143231E+04  0.50400001928E-02 0. -1.
       -1   -1    0    0    0  501  0.00000000000E+00  0.00000000000E+00 -0.80187937365E+03  0.80187937367E+03  0.50400001928E-02 0.  1.
    10030    2    1    2    0    0  0.00000000000E+00  0.00000000000E+00  0.99383494940E+03  0.25975936967E+04  0.23999552301E+04 0.  0.
        3    1    3    3  502    0  0.61530668275E+03 -0.15607011622E+03  0.15991025934E+04  0.17204910083E+04  0.10100000352E+00 0. -1.
       -3    1    3    3    0  502 -0.61530668275E+03  0.15607011622E+03 -0.60526764402E+03  0.87710268847E+03  0.10100000352E+00 0.  1.
</event>
<event>
 5   0  0.5363690E-07  0.2403902E+04  0.7818609E-02  0.8438044E-01
       -1   -1    0    0    0  501  0.00000000000E+00  0.00000000000E+00  0.15007246963E+04  0.15007246964E+04  0.50400001928E-02 0.  1.
        1   -1    0    0  501    0  0.00000000000E+00  0.00000000000E+00 -0.96265916059E+03  0.96265916061E+03  0.50400001928E-02 0. -1.
    10030    2    1    2    0    0  0.00000000000E+00  0.00000000000E+00  0.53806553575E+03  0.24633838570E+04  0.24039021415E+04 0.  0.
        4    1    3    3  502    0 -0.35174166651E+03 -0.89233799793E+03 -0.47324928537E+03  0.10695586947E+04  0.12699999809E+01 0. -1.
       -4    1    3    3    0  502  0.35174166651E+03  0.89233799793E+03  0.10113148211E+04  0.13938251622E+04  0.12699999809E+01 0.  1.
</event>
<event>
 5   0  0.5510176E-07  0.2404078E+04  0.7818609E-02  0.8437978E-01
        1   -1    0    0  501    0  0.00000000000E+00  0.00000000000E+00  0.89520236456E+03  0.89520236457E+03  0.50400001928E-02 0.  1.
       -1   -1    0    0    0  501  0.00000000000E+00  0.00000000000E+00 -0.16140459227E+04  0.16140459227E+04  0.50400001928E-02 0. -1.
    10030    2    1    2    0    0  0.00000000000E+00  0.00000000000E+00 -0.71884355818E+03  0.25092482873E+04  0.24040779743E+04 0.  0.
        3    1    3    3  502    0  0.88734779824E+03 -0.59508866349E+03 -0.93431784429E+03  0.14193190187E+04  0.10100000352E+00 0. -1.
       -3    1    3    3    0  502 -0.88734779824E+03  0.59508866349E+03  0.21547428611E+03  0.10899292686E+04  0.10100000352E+00 0.  1.
</event>
<event>
 5   0  0.5527286E-07  0.2399125E+04  0.7818609E-02  0.8439831E-01
        1   -1    0    0  501    0  0.00000000000E+00  0.00000000000E+00  0.16511306969E+04  0.16511306969E+04  0.50400001928E-02 0.  1.
       -1   -1    0    0    0  501  0.00000000000E+00  0.00000000000E+00 -0.87149384428E+03  0.87149384430E+03  0.50400001928E-02 0. -1.
    10030    2    1    2    0    0  0.00000000000E+00  0.00000000000E+00  0.77963685261E+03  0.25226245412E+04  0.23991250392E+04 0.  0.
        1    1    3    3  502    0  0.17278822721E+03 -0.67350655966E+03 -0.63798793631E+03  0.94366067221E+03  0.50400001928E-02 0. -1.
       -1    1    3    3    0  502 -0.17278822721E+03  0.67350655966E+03  0.14176247889E+04  0.15789638690E+04  0.50400001928E-02 0.  1.
</event>
<event>
 5   0  0.5452384E-07  0.2395532E+04  0.7818609E-02  0.8441178E-01
        1   -1    0    0  501    0  0.00000000000E+00  0.00000000000E+00  0.10857505311E+04  0.10857505311E+04  0.50400001928E-02 0.  1.
       -1   -1    0    0    0  501  0.00000000000E+00  0.00000000000E+00 -0.13213375635E+04  0.13213375635E+04  0.50400001928E-02 0. -1.
    10030    2    1    2    0    0  0.00000000000E+00  0.00000000000E+00 -0.23558703238E+03  0.24070880946E+04  0.23955316415E+04 0.  0.
        5    1    3    3  502    0 -0.56891750279E+02  0.96308604687E+03  0.59545433962E+03  0.11337369031E+04  0.46999998093E+01 0.  1.
       -5    1    3    3    0  502  0.56891750279E+02 -0.96308604687E+03 -0.83104137200E+03  0.12733511915E+04  0.46999998093E+01 0. -1.
</event>
<event>
 5   0  0.1308662E-06  0.2398197E+04  0.7818609E-02  0.8440179E-01
       -2   -1    0    0    0  501  0.00000000000E+00  0.00000000000E+00  0.81916573584E+03  0.81916573585E+03  0.25500000920E-02 0. -1.
        2   -1    0    0  501    0  0.00000000000E+00  0.00000000000E+00 -0.17552453369E+04  0.17552453369E+04  0.25500000920E-02 0.  1.
    10030    2    1    2    0    0  0.00000000000E+00  0.00000000000E+00 -0.93607960109E+03  0.25744110728E+04  0.23981966875E+04 0.  0.
        3    1    3    3  502    0  0.62153243505E+03  0.94282312278E+03 -0.35148859593E+02  0.11298023992E+04  0.10100000352E+00 0. -1.
       -3    1    3    3    0  502 -0.62153243505E+03 -0.94282312278E+03 -0.90093074150E+03  0.14446086736E+04  0.10100000352E+00 0.  1.
</event>
<event>
 5   0  0.1336057E-06  0.2398787E+04  0.7818609E-02  0.8439958E-01
        2   -1    0    0  501    0  0.00000000000E+00  0.00000000000E+00  0.98627759474E+03  0.98627759474E+03  0.25500000920E-02 0.  1.
       -2   -1    0    0    0  501  0.00000000000E+00  0.00000000000E+00 -0.14585598213E+04  0.14585598213E+04  0.25500000920E-02 0. -1.
    10030    2    1    2    0    0  0.00000000000E+00  0.00000000000E+00 -0.47228222652E+03  0.24448374160E+04  0.23987870871E+04 0.  0.
        2    1    3    3  502    0 -0.60963991977E+03 -0.98184868750E+03  0.90729306049E+02  0.11592754133E+04  0.25500000920E-02 0. -1.
       -2    1    3    3    0  502  0.60963991977E+03  0.98184868750E+03 -0.56301153257E+03  0.12855620027E+04  0.25500000920E-02 0.  1.
</event>
<event>
 5   0  0.5452384E-07  0.2400130E+04  0.7818609E-02  0.8439455E-01
        1   -1    0    0  501    0  0.00000000000E+00  0.00000000000E+00  0.89900826812E+03  0.89900826814E+03  0.50400001928E-02 0. -1.
       -1   -1    0    0    0  501  0.00000000000E+00  0.00000000000E+00 -0.16019380242E+04  0.16019380242E+04  0.50400001928E-02 0.  1.
    10030    2    1    2    0    0  0.00000000000E+00  0.00000000000E+00 -0.70292975611E+03  0.25009462924E+04  0.24001296039E+04 0.  0.
        5    1    3    3  502    0 -0.10222619625E+04  0.30887154764E+03  0.21899084916E+03  0.10901377138E+04  0.46999998093E+01 0. -1.
       -5    1    3    3    0  502  0.10222619625E+04 -0.30887154764E+03 -0.92192060527E+03  0.14108085786E+04  0.46999998093E+01 0.  1.
</event>
<event>
 5   0  0.1308662E-06  0.2400718E+04  0.7818609E-02  0.8439235E-01
        2   -1    0    0  501    0  0.00000000000E+00  0.00000000000E+00  0.23196116689E+04  0.23196116689E+04  0.25500000920E-02 0. -1.
       -2   -1    0    0    0  501  0.00000000000E+00  0.00000000000E+00 -0.62116493683E+03  0.62116493683E+03  0.25500000920E-02 0.  1.
    10030    2    1    2    0    0  0.00000000000E+00  0.00000000000E+00  0.16984467320E+04  0.29407766057E+04  0.24007177558E+04 0.  0.
        3    1    3    3  502    0  0.11448523017E+04  0.16229122831E+03  0.12439489742E+04  0.16983622394E+04  0.10100000352E+00 0.  1.
       -3    1    3    3    0  502 -0.11448523017E+04 -0.16229122831E+03  0.45449775789E+03  0.12424143664E+04  0.10100000352E+00 0. -1.
</event>
<event>
 5   0  0.1275948E-06  0.2399076E+04  0.7818609E-02  0.8439850E-01
       -2   -1    0    0    0  501  0.00000000000E+00  0.00000000000E+00  0.96323772972E+03  0.96323772973E+03  0.25500000920E-02 0. -1.
        2   -1    0    0  501    0  0.00000000000E+00  0.00000000000E+00 -0.14938071425E+04  0.14938071426E+04  0.25500000920E-02 0.  1.
    10030    2    1    2    0    0  0.00000000000E+00  0.00000000000E+00 -0.53056941283E+03  0.24570448723E+04  0.23990759893E+04 0.  0.
        1    1    3    3  502    0 -0.43916612912E+03 -0.11162240208E+04 -0.27375789188E+03  0.12303521191E+04  0.50400001928E-02 0. -1.
       -1    1    3    3    0  502  0.43916612912E+03  0.11162240208E+04 -0.25681152094E+03  0.12266927532E+04  0.50400001928E-02 0.  1.
</event>
<event>
 5   0  0.1291468E-06  0.2400689E+04  0.7818609E-02  0.8439246E-01
       -2   -1    0    0    0  501  0.00000000000E+00  0.00000000000E+00  0.51669212540E+03  0.51669212541E+03  0.25500000920E-02 0. -1.
        2   -1    0    0  501    0  0.00000000000E+00  0.00000000000E+00 -0.27885601237E+04  0.27885601237E+04  0.25500000920E-02 0.  1.
    10030    2    1    2    0    0  0.00000000000E+00  0.00000000000E+00 -0.22718679983E+04  0.33052522491E+04  0.24006891154E+04 0.  0.
        4    1    3    3  502    0  0.41782569878E+03  0.36696960672E+03 -0.26005082738E+04  0.26593025217E+04  0.12699999809E+01 0.  1.
       -4    1    3    3    0  502 -0.41782569878E+03 -0.36696960672E+03  0.32864027549E+03  0.64594972745E+03  0.12699999809E+01 0. -1.
</event>
<event>
 5   0  0.1336057E-06  0.2399601E+04  0.7818609E-02  0.8439653E-01
        2   -1    0    0  501    0  0.00000000000E+00  0.00000000000E+00  0.11975641810E+04  0.11975641810E+04  0.25500000920E-02 0.  1.
       -2   -1    0    0    0  501  0.00000000000E+00  0.00000000000E+00 -0.12020406311E+04  0.12020406311E+04  0.25500000920E-02 0. -1.
    10030    2    1    2    0    0  0.00000000000E+00  0.00000000000E+00 -0.44764500211E+01  0.23996048121E+04  0.23996006367E+04 0.  0.
        2    1    3    3  502    0  0.85443552222E+03 -0.74431092812E+02  0.83676308870E+03  0.11982372536E+04  0.25500000920E-02 0.  1.
       -2    1    3    3    0  502 -0.85443552222E+03  0.74431092812E+02 -0.84123953872E+03  0.12013675585E+04  0.25500000920E-02 0. -1.
</event>
<event>
 5   0  0.5452384E-07  0.2400282E+04  0.7818609E-02  0.8439398E-01
       -1   -1    0    0    0  501  0.00000000000E+00  0.00000000000E+00  0.13416577004E+04  0.13416577004E+04  0.50400001928E-02 0.  1.
        1   -1    0    0  501    0  0.00000000000E+00  0.00000000000E+00 -0.10735513046E+04  0.10735513046E+04  0.50400001928E-02 0. -1.
    10030    2    1    2    0    0  0.00000000000E+00  0.00000000000E+00  0.26810639572E+03  0.24152090050E+04  0.24002819623E+04 0.  0.
        5    1    3    3  502    0 -0.36354028410E+02  0.23683773412E+03 -0.10492287735E+04  0.10762512888E+04  0.46999998093E+01 0. -1.
       -5    1    3    3    0  502  0.36354028410E+02 -0.23683773412E+03  0.13173351692E+04  0.13389577162E+04  0.46999998093E+01 0.  1.
</event>
<event>
 5   0  0.1336057E-06  0.2402298E+04  0.7818609E-02  0.8438644E-01
       -2   -1    0    0    0  501  0.00000000000E+00  0.00000000000E+00  0.47392236523E+03  0.47392236524E+03  0.25500000920E-02 0. -1.
        2   -1    0    0  501    0  0.00000000000E+00  0.00000000000E+00 -0.30442932787E+04  0.30442932787E+04  0.25500000920E-02 0.  1.
    10030    2    1    2    0    0  0.00000000000E+00  0.00000000000E+00 -0.25703709135E+04  0.35182156439E+04  0.24022977926E+04 0.  0.
        2    1    3    3  502    0  0.84994359127E+03 -0.11951010301E+03 -0.54576486289E+02  0.86003800261E+03  0.25500000920E-02 0. -1.
       -2    1    3    3    0  502 -0.84994359127E+03  0.11951010301E+03 -0.25157944272E+04  0.26581776413E+04  0.25500000920E-02 0.  1.
</event>
<event>
 5   0  0.5452384E-07  0.2400205E+04  0.7818609E-02  0.8439427E-01
        1   -1    0    0  501    0  0.00000000000E+00  0.00000000000E+00  0.27134561200E+04  0.27134561200E+04  0.50400001928E-02 0.  1.
       -1   -1    0    0    0  501  0.00000000000E+00  0.00000000000E+00 -0.53077925923E+03  0.53077925925E+03  0.50400001928E-02 0. -1.
    10030    2    1    2    0    0  0.00000000000E+00  0.00000000000E+00  0.21826768607E+04  0.32442353792E+04  0.24002051824E+04 0.  0.
        5    1    3    3  502    0  0.47179031174E+03  0.94317545632E+03  0.31716302638E+03  0.11012631452E+04  0.46999998093E+01 0. -1.
       -5    1    3    3    0  502 -0.47179031174E+03 -0.94317545632E+03  0.18655138344E+04  0.21429722340E+04  0.46999998093E+01 0.  1.
</event>
<event>
 5   0  0.5363690E-07  0.2397610E+04  0.7818609E-02  0.8440399E-01
       -1   -1    0    0    0  501  0.00000000000E+00  0.00000000000E+00  0.12480531366E+04  0.12480531366E+04  0.50400001928E-02 0.  1.
        1   -1    0    0  501    0  0.00000000000E+00  0.00000000000E+00 -0.11514997634E+04  0.11514997634E+04  0.50400001928E-02 0. -1.
    10030    2    1    2    0    0  0.00000000000E+00  0.00000000000E+00  0.96553373125E+02  0.23995529000E+04  0.23976095525E+04 0.  0.
        4    1    3    3  502    0  0.19328396257E+03  0.90849708097E+03 -0.71023314985E+03  0.11692554795E+04  0.12699999809E+01 0. -1.
       -4    1    3    3    0  502 -0.19328396257E+03 -0.90849708097E+03  0.80678652298E+03  0.12302974205E+04  0.12699999809E+01 0.  1.
</event>
<event>
 5   0  0.5690124E-07  0.2399813E+04  0.7818609E-02  0.8439573E-01
       -1   -1    0    0    0  501  0.00000000000E+00  0.00000000000E+00  0.83367169990E+03  0.83367169992E+03  0.50400001928E-02 0. -1.
        1   -1    0    0  501    0  0.00000000000E+00  0.00000000000E+00 -0.17270299510E+04  0.17270299510E+04  0.50400001928E-02 0.  1.
    10030    2    1    2    0    0  0.00000000000E+00  0.00000000000E+00 -0.89335825112E+03  0.25607016509E+04  0.23998133220E+04 0.  0.
        2    1    3    3  502    0  0.76632555087E+03  0.83170289196E+03 -0.18807989506E+02  0.11310783752E+04  0.25500000920E-02 0. -1.
       -2    1    3    3    0  502 -0.76632555087E+03 -0.83170289196E+03 -0.87455026161E+03  0.14296232757E+04  0.25500000920E-02 0.  1.
</event>
<event>
 5   0  0.5363690E-07  0.2399861E+04  0.7818609E-02  0.8439556E-01
       -1   -1    0    0    0  501  0.00000000000E+00  0.00000000000E+00  0.91279913976E+03  0.91279913977E+03  0.50400001928E-02 0. -1.
        1   -1    0    0  501    0  0.00000000000E+00  0.00000000000E+00 -0.15773817791E+04  0.15773817791E+04  0.50400001928E-02 0.  1.
    10030    2    1    2    0    0  0.00000000000E+00  0.00000000000E+00 -0.66458263938E+03  0.24901809189E+04  0.23998606052E+04 0.  0.
        4    1    3    3  502    0  0.62190861384E+03 -0.53190453108E+03  0.57831207163E+03  0.10020674724E+04  0.12699999809E+01 0. -1.
       -4    1    3    3    0  502 -0.62190861384E+03  0.53190453108E+03 -0.12428947110E+04  0.14881134465E+04  0.12699999809E+01 0.  1.
</event>
<event>
 5   0  0.1275948E-06  0.2399945E+04  0.7818609E-02  0.8439524E-01
       -2   -1    0    0    0  501  0.00000000000E+00  0.00000000000E+00  0.11332342663E+04  0.11332342663E+04  0.25500000920E-02 0. -1.
        2   -1    0    0  501    0  0.00000000000E+00  0.00000000000E+00 -0.12706409743E+04  0.12706409743E+04  0.25500000920E-02 0.  1.
    10030    2    1    2    0    0  0.00000000000E+00  0.00000000000E+00 -0.13740670798E+03  0.24038752406E+04  0.23999449095E+04 0.  0.
        1    1    3    3  502    0 -0.29221838627E+02  0.64256767468E+03  0.94596439155E+03  0.11439387057E+04  0.50400001928E-02 0. -1.
       -1    1    3    3    0  502  0.29221838627E+02 -0.64256767468E+03 -0.10833710995E+04  0.12599365348E+04  0.50400001928E-02 0.  1.
</event>
<event>
 5   0  0.1291468E-06  0.2400737E+04  0.7818609E-02  0.8439228E-01
       -2   -1    0    0    0  501  0.00000000000E+00  0.00000000000E+00  0.15304959236E+04  0.15304959236E+04  0.25500000920E-02 0. -1.
        2   -1    0    0  501    0  0.00000000000E+00  0.00000000000E+00 -0.94144935600E+03  0.94144935600E+03  0.25500000920E-02 0.  1.
    10030    2    1    2    0    0  0.00000000000E+00  0.00000000000E+00  0.58904656764E+03  0.24719452796E+04  0.24007368883E+04 0.  0.
        4    1    3    3  502    0  0.66026036579E+03  0.43238365289E+03  0.12257738208E+04  0.14578828645E+04  0.12699999809E+01 0. -1.
       -4    1    3    3    0  502 -0.66026036579E+03 -0.43238365289E+03 -0.63672725319E+03  0.10140624151E+04  0.12699999809E+01 0.  1.
</event>
<event>
 5   0  0.5510176E-07  0.2401230E+04  0.7818609E-02  0.8439043E-01
       -1   -1    0    0    0  501  0.00000000000E+00  0.00000000000E+00  0.13160563472E+04  0.13160563472E+04  0.50400001928E-02 0.  1.
        1   -1    0    0  501    0  0.00000000000E+00  0.00000000000E+00 -0.10952996507E+04  0.10952996507E+04  0.50400001928E-02 0. -1.
    10030    2    1    2    0    0  0.00000000000E+00  0.00000000000E+00  0.22075669653E+03  0.24113559980E+04  0.24012297328E+04 0.  0.
        3    1    3    3  502    0 -0.84981951685E+03 -0.67232533274E+03 -0.40877517575E+03  0.11581501279E+04  0.10100000352E+00 0. -1.
       -3    1    3    3    0  502  0.84981951685E+03  0.67232533274E+03  0.62953187228E+03  0.12532058700E+04  0.10100000352E+00 0.  1.
</event>
<event>
 5   0  0.1308662E-06  0.2399770E+04  0.7818609E-02  0.8439590E-01
        2   -1    0    0  501    0  0.00000000000E+00  0.00000000000E+00  0.23786560153E+04  0.23786560153E+04  0.25500000920E-02 0. -1.
       -2   -1    0    0    0  501  0.00000000000E+00  0.00000000000E+00 -0.60526779473E+03  0.60526779473E+03  0.25500000920E-02 0.  1.
    10030    2    1    2    0    0  0.00000000000E+00  0.00000000000E+00  0.17733882206E+04  0.29839238100E+04  0.23997698896E+04 0.  0.
        3    1    3    3  502    0  0.63310714046E+03 -0.32440274352E+03  0.20881642735E+04  0.22060126551E+04  0.10100000352E+00 0. -1.
       -3    1    3    3    0  502 -0.63310714046E+03  0.32440274352E+03 -0.31477605289E+03  0.77791115494E+03  0.10100000352E+00 0.  1.
</event>
<event>
 5   0  0.5510176E-07  0.2400743E+04  0.7818609E-02  0.8439225E-01
        1   -1    0    0  501    0  0.00000000000E+00  0.00000000000E+00  0.16273920509E+04  0.16273920509E+04  0.50400001928E-02 0. -1.
       -1   -1    0    0    0  501  0.00000000000E+00  0.00000000000E+00 -0.88539937437E+03  0.88539937438E+03  0.50400001928E-02 0.  1.
    10030    2    1    2    0    0  0.00000000000E+00  0.00000000000E+00  0.74199267653E+03  0.25127914253E+04  0.24007431381E+04 0.  0.
        3    1    3    3  502    0 -0.80943462655E+03 -0.87486965675E+03  0.52016298320E+03  0.13004425671E+04  0.10100000352E+00 0. -1.
       -3    1    3    3    0  502  0.80943462655E+03  0.87486965675E+03  0.22182969333E+03  0.12123488582E+04  0.10100000352E+00 0.  1.
</event>
<event>
 5   0  0.5690124E-07  0.2400714E+04  0.7818609E-02  0.8439236E-01
       -1   -1    0    0    0  501  0.00000000000E+00  0.00000000000E+00  0.12243597126E+04  0.12243597126E+04  0.50400001928E-02 0. -1.
        1   -1    0    0  501    0  0.00000000000E+00  0.00000000000E+00 -0.11768244524E+04  0.11768244524E+04  0.50400001928E-02 0.  1.
    10030    2    1    2    0    0  0.00000000000E+00  0.00000000000E+00  0.47535260221E+02  0.24011841650E+04  0.24007136009E+04 0.  0.
        2    1    3    3  502    0  0.84507934594E+02  0.11694612542E+04  0.28086904527E+03  0.12056818140E+04  0.25500000920E-02 0. -1.
       -2    1    3    3    0  502 -0.84507934594E+02 -0.11694612542E+04 -0.23333378505E+03  0.11955023510E+04  0.25500000920E-02 0.  1.
</event>
<event>
 5   0  0.1336057E-06  0.2399928E+04  0.7818609E-02  0.8439530E-01
       -2   -1    0    0    0  501  0.00000000000E+00  0.00000000000E+00  0.71332105261E+03  0.71332105261E+03  0.25500000920E-02 0.  1.
        2   -1    0    0  501    0  0.00000000000E+00  0.00000000000E+00 -0.20186058637E+04  0.20186058637E+04  0.25500000920E-02 0. -1.
    10030    2    1    2    0    0  0.00000000000E+00  0.00000000000E+00 -0.13052848110E+04  0.27319269163E+04  0.23999283818E+04 0.  0.
        2    1    3    3  502    0  0.42958667880E+03 -0.10947871332E+04 -0.38132040160E+03  0.12363287712E+04  0.25500000920E-02 0. -1.
       -2    1    3    3    0  502 -0.42958667880E+03  0.10947871332E+04 -0.92396440945E+03  0.14955981451E+04  0.25500000920E-02 0.  1.
</event>
<event>
 5   0  0.5452384E-07  0.2399211E+04  0.7818609E-02  0.8439799E-01
        1   -1    0    0  501    0  0.00000000000E+00  0.00000000000E+00  0.23621449195E+04  0.23621449195E+04  0.50400001928E-02 0. -1.
       -1   -1    0    0    0  501  0.00000000000E+00  0.00000000000E+00 -0.60921470197E+03  0.60921470199E+03  0.50400001928E-02 0.  1.
    10030    2    1    2    0    0  0.00000000000E+00  0.00000000000E+00  0.17529302175E+04  0.29713596215E+04  0.23992110480E+04 0.  0.
        5    1    3    3  502    0  0.48492618336E+03 -0.88178352117E+03  0.67811300309E+02  0.10086208623E+04  0.46999998093E+01 0.  1.
       -5    1    3    3    0  502 -0.48492618336E+03  0.88178352117E+03  0.16851189172E+04  0.19627387592E+04  0.46999998093E+01 0. -1.
</event>
<event>
 5   0  0.5527286E-07  0.2398259E+04  0.7818609E-02  0.8440156E-01
       -1   -1    0    0    0  501  0.00000000000E+00  0.00000000000E+00  0.78162238831E+03  0.78162238832E+03  0.50400001928E-02 0.  1.
        1   -1    0    0  501    0  0.00000000000E+00  0.00000000000E+00 -0.18396503195E+04  0.18396503195E+04  0.50400001928E-02 0. -1.
    10030    2    1    2    0    0  0.00000000000E+00  0.00000000000E+00 -0.10580279312E+04  0.26212727078E+04  0.23982592657E+04 0.  0.
        1    1    3    3  502    0  0.18954486916E+03  0.33980809554E+03  0.71070576955E+03  0.81024656131E+03  0.50400001928E-02 0.  1.
       -1    1    3    3    0  502 -0.18954486916E+03 -0.33980809554E+03 -0.17687337007E+04  0.18110261465E+04  0.50400001928E-02 0. -1.
</event>
<event>
 5   0  0.1291468E-06  0.2397876E+04  0.7818609E-02  0.8440299E-01
        2   -1    0    0  501    0  0.00000000000E+00  0.00000000000E+00  0.13618154198E+04  0.13618154198E+04  0.25500000920E-02 0.  1.
       -2   -1    0    0    0  501  0.00000000000E+00  0.00000000000E+00 -0.10555408950E+04  0.10555408950E+04  0.25500000920E-02 0. -1.
    10030    2    1    2    0    0  0.00000000000E+00  0.00000000000E+00  0.30627452486E+03  0.24173563148E+04  0.23978756157E+04 0.  0.
        4    1    3    3  502    0 -0.34940896323E+03  0.27490062899E+03 -0.96936869938E+03  0.10664587510E+04  0.12699999809E+01 0. -1.
       -4    1    3    3    0  502  0.34940896323E+03 -0.27490062899E+03  0.12756432242E+04  0.13508975638E+04  0.12699999809E+01 0.  1.
</event>
<event>
 5   0  0.5527286E-07  0.2400595E+04  0.7818609E-02  0.8439281E-01
        1   -1    0    0  501    0  0.00000000000E+00  0.00000000000E+00  0.16228324391E+04  0.16228324391E+04  0.50400001928E-02 0. -1.
       -1   -1    0    0    0  501  0.00000000000E+00  0.00000000000E+00 -0.88777722492E+03  0.88777722493E+03  0.50400001928E-02 0.  1.
    10030    2    1    2    0    0  0.00000000000E+00  0.00000000000E+00  0.73505521422E+03  0.25106096641E+04  0.24005946591E+04 0.  0.
        1    1    3    3  502    0 -0.32878622492E+02 -0.74497781490E+03 -0.61612970885E+03  0.96731006749E+03  0.50400001928E-02 0.  1.
       -1    1    3    3    0  502  0.32878622492E+02  0.74497781490E+03  0.13511849231E+04  0.15432995966E+04  0.50400001928E-02 0. -1.
</event>
<event>
 5   0  0.1291468E-06  0.2396131E+04  0.7818609E-02  0.8440953E-01
       -2   -1    0    0    0  501  0.00000000000E+00  0.00000000000E+00  0.71661790372E+03  0.71661790372E+03  0.25500000920E-02 0.  1.
        2   -1    0    0  501    0  0.00000000000E+00  0.00000000000E+00 -0.20029663011E+04  0.20029663011E+04  0.25500000920E-02 0. -1.
    10030    2    1    2    0    0  0.00000000000E+00  0.00000000000E+00 -0.12863483974E+04  0.27195842048E+04  0.23961314755E+04 0.  0.
        4    1    3    3  502    0 -0.90733294049E+03 -0.77253771907E+03 -0.78352935319E+03  0.14261793199E+04  0.12699999809E+01 0.  1.
       -4    1    3    3    0  502  0.90733294049E+03  0.77253771907E+03 -0.50281904422E+03  0.12934048849E+04  0.12699999809E+01 0. -1.
</event>
<event>
 5   0  0.1307477E-06  0.2399722E+04  0.7818609E-02  0.8439608E-01
       -2   -1    0    0    0  501  0.00000000000E+00  0.00000000000E+00  0.86661062763E+03  0.86661062763E+03  0.25500000920E-02 0. -1.
        2   -1    0    0  501    0  0.00000000000E+00  0.00000000000E+00 -0.16612610575E+04  0.16612610575E+04  0.25500000920E-02 0.  1.
    10030    2    1    2    0    0  0.00000000000E+00  0.00000000000E+00 -0.79465042985E+03  0.25278716851E+04  0.23997220570E+04 0.  0.
        5    1    3    3  502    0  0.53840096999E+03  0.36526798827E+03  0.66465229534E+03  0.93009734514E+03  0.46999998093E+01 0. -1.
       -5    1    3    3    0  502 -0.53840096999E+03 -0.36526798827E+03 -0.14593027252E+04  0.15977743400E+04  0.46999998093E+01 0.  1.
</event>
<event>
 5   0  0.5363690E-07  0.2401162E+04  0.7818609E-02  0.8439069E-01
       -1   -1    0    0    0  501  0.00000000000E+00  0.00000000000E+00  0.11922884535E+04  0.11922884535E+04  0.50400001928E-02 0. -1.
        1   -1    0    0  501    0  0.00000000000E+00  0.00000000000E+00 -0.12089309650E+04  0.12089309651E+04  0.50400001928E-02 0.  1.
    10030    2    1    2    0    0  0.00000000000E+00  0.00000000000E+00 -0.16642511578E+02  0.24012194185E+04  0.24011617444E+04 0.  0.
        4    1    3    3  502    0 -0.11705943956E+04 -0.65097807085E+02 -0.26690792687E+03  0.12024019368E+04  0.12699999809E+01 0.  1.
       -4    1    3    3    0  502  0.11705943956E+04  0.65097807085E+02  0.25026541529E+03  0.11988174817E+04  0.12699999809E+01 0. -1.
</event>
<event>
 5   0  0.1307477E-06  0.2400034E+04  0.7818609E-02  0.8439491E-01
        2   -1    0    0  501    0  0.00000000000E+00  0.00000000000E+00  0.11746067259E+04  0.11746067259E+04  0.25500000920E-02 0. -1.
       -2   -1    0    0    0  501  0.00000000000E+00  0.00000000000E+00 -0.12259764967E+04  0.12259764967E+04  0.25500000920E-02 0.  1.
    10030    2    1    2    0    0  0.00000000000E+00  0.00000000000E+00 -0.51369770779E+02  0.24005832227E+04  0.24000335322E+04 0.  0.
        5    1    3    3  502    0  0.10722126999E+04  0.52617761243E+03 -0.14196638389E+03  0.12027799041E+04  0.46999998093E+01 0. -1.
       -5    1    3    3    0  502 -0.10722126999E+04 -0.52617761243E+03  0.90596613114E+02  0.11978033185E+04  0.46999998093E+01 0.  1.
</event>
<event>
 5   0  0.5690124E-07  0.2399602E+04  0.7818609E-02  0.8439653E-01
       -1   -1    0    0    0  501  0.00000000000E+00  0.00000000000E+00  0.84631552762E+03  0.84631552764E+03  0.50400001928E-02 0. -1.
        1   -1    0    0  501    0  0.00000000000E+00  0.00000000000E+00 -0.17009290060E+04  0.17009290060E+04  0.50400001928E-02 0.  1.
    10030    2    1    2    0    0  0.00000000000E+00  0.00000000000E+00 -0.85461347835E+03  0.25472445336E+04  0.23996021580E+04 0.  0.
        2    1    3    3  502    0 -0.41734654974E+03  0.68868527321E+03 -0.13714443667E+04  0.15903852361E+04  0.25500000920E-02 0.  1.
       -2    1    3    3    0  502  0.41734654974E+03 -0.68868527321E+03  0.51683088837E+03  0.95685929754E+03  0.25500000920E-02 0. -1.
</event>
<event>
 5   0  0.1336057E-06  0.2400291E+04  0.7818609E-02  0.8439395E-01
       -2   -1    0    0    0  501  0.00000000000E+00  0.00000000000E+00  0.55551475889E+03  0.55551475890E+03  0.25500000920E-02 0. -1.
        2   -1    0    0  501    0  0.00000000000E+00  0.00000000000E+00 -0.25928181053E+04  0.25928181053E+04  0.25500000920E-02 0.  1.
    10030    2    1    2    0    0  0.00000000000E+00  0.00000000000E+00 -0.20373033464E+04  0.31483328642E+04  0.24002905863E+04 0.  0.
        2    1    3    3  502    0  0.72368189829E+03 -0.89645011492E+03 -0.14595882004E+04  0.18594988608E+04  0.25500000920E-02 0.  1.
       -2    1    3    3    0  502 -0.72368189829E+03  0.89645011492E+03 -0.57771514601E+03  0.12888340034E+04  0.25500000920E-02 0. -1.
</event>
<event>
 5   0  0.5452384E-07  0.2409163E+04  0.7818609E-02  0.8436081E-01
        1   -1    0    0  501    0  0.00000000000E+00  0.00000000000E+00  0.12262238571E+04  0.12262238572E+04  0.50400001928E-02 0. -1.
       -1   -1    0    0    0  501  0.00000000000E+00  0.00000000000E+00 -0.11833206935E+04  0.11833206935E+04  0.50400001928E-02 0.  1.
    10030    2    1    2    0    0  0.00000000000E+00  0.00000000000E+00  0.42903163689E+02  0.24095445506E+04  0.24091625640E+04 0.  0.
        5    1    3    3  502    0 -0.88516962951E+03  0.69346751140E+03  0.45345931474E+03  0.12124643923E+04  0.46999998093E+01 0. -1.
       -5    1    3    3    0  502  0.88516962951E+03 -0.69346751140E+03 -0.41055615105E+03  0.11970801584E+04  0.46999998093E+01 0.  1.
</event>
</LesHouchesEvents>
