<LesHouchesEvents version="3.0">
<header>
<!--
#*********************************************************************
#                                                                    *
#                        MadGraph5_aMC@NLO                           *
#                                                                    *
#                           Going Beyond                             *
#                                                                    *
#                   http://madgraph.hep.uiuc.edu                     *
#                   http://madgraph.phys.ucl.ac.be                   *
#                   http://amcatnlo.cern.ch                          *
#                                                                    *
#                     The MadGraph5_aMC@NLO team                     *
#                                                                    *
#....................................................................*
#                                                                    *
# This file contains all the information necessary to reproduce      *
# the events generated:                                              *
#                                                                    *
# 1. software version                                                *
# 2. proc_card          : code generation info including model       *
# 3. param_card         : model primary parameters in the LH format  *
# 4. run_card           : running parameters (collider and cuts)     *
# 5. pythia_card        : present only if pythia has been run        *
# 6. pgs_card           : present only if pgs has been run           *
# 7. delphes_cards      : present only if delphes has been run       *
#                                                                    *
#                                                                    *
#*********************************************************************
-->
<MGVersion>
#5.2.2.3
</MGVersion>
<MG5ProcCard>
#************************************************************
#*                     MadGraph5_aMC@NLO                    *
#*                                                          *
#*                *                       *                 *
#*                  *        * *        *                   *
#*                    * * * * 5 * * * *                     *
#*                  *        * *        *                   *
#*                *                       *                 *
#*                                                          *
#*                                                          *
#*         VERSION 2.2.3                 2015-02-10         *
#*                                                          *
#*    The MadGraph5_aMC@NLO Development Team - Find us at   *
#*    https://server06.fynu.ucl.ac.be/projects/madgraph     *
#*                                                          *
#************************************************************
#*                                                          *
#*               Command File for MadGraph5_aMC@NLO         *
#*                                                          *
#*     run as ./bin/mg5_aMC  filename                       *
#*                                                          *
#************************************************************
set group_subprocesses Auto
set ignore_six_quark_processes False
set loop_optimized_output True
set gauge unitary
set complex_mass_scheme False
import model sm
define p = g u c d s u~ c~ d~ s~
define j = g u c d s u~ c~ d~ s~
define l+ = e+ mu+
define l- = e- mu-
define vl = ve vm vt
define vl~ = ve~ vm~ vt~
import model Zprime_UFO
generate p p > zph, zph > j j
add process p p > zph, zph > b b~
output Dijet_signal
</MG5ProcCard>
<MGProcCard>
#*********************************************************************
#                        MadGraph/MadEvent                           *
#                   http://madgraph.hep.uiuc.edu                     *
#                                                                    *
#                          proc_card.dat                             *
#*********************************************************************
#                                                                    *
#            This Files is generated by MADGRAPH 5                   *
#                                                                    *
# WARNING: This Files is generated for MADEVENT (compatibility issue)*
#          This files is NOT a valid MG4 proc_card.dat               *
#          Running this in MG4 will NEVER reproduce the result of MG5*
#                                                                    *
#*********************************************************************
#*********************************************************************
# Process(es) requested : mg2 input                                  *
#*********************************************************************
# Begin PROCESS # This is TAG. Do not modify this line
p p > zph , zph > j j           #Process
# Be carefull the coupling are here in MG5 convention
          
end_coup           # End the couplings input

done               # this tells MG there are no more procs
# End PROCESS  # This is TAG. Do not modify this line
#*********************************************************************
# Model information                                                  *
#*********************************************************************
# Begin MODEL  # This is TAG. Do not modify this line
Zprime_UFO
# End   MODEL  # This is TAG. Do not modify this line
#*********************************************************************
# Start multiparticle definitions                                    *
#*********************************************************************
# Begin MULTIPARTICLES # This is TAG. Do not modify this line

# End  MULTIPARTICLES # This is TAG. Do not modify this line
</MGProcCard>
<MGRunCard>
#*********************************************************************
#                       MadGraph5_aMC@NLO                            *
#                                                                    *
#                     run_card.dat MadEvent                          *
#                                                                    *
#  This file is used to set the parameters of the run.               *
#                                                                    *
#  Some notation/conventions:                                        *
#                                                                    *
#   Lines starting with a '# ' are info or comments                  *
#                                                                    *
#   mind the format:   value    = variable     ! comment             *
#*********************************************************************
#
#*******************                                                 
# Running parameters
#*******************                                                 
#                                                                    
#*********************************************************************
# Tag name for the run (one word)                                    *
#*********************************************************************
  tag_1     = run_tag ! name of the run 
#*********************************************************************
# Run to generate the grid pack                                      *
#*********************************************************************
  .false.     = gridpack  !True = setting up the grid pack
#*********************************************************************
# Number of events and rnd seed                                      *
# Warning: Do not generate more than 1M events in a single run       *
# If you want to run Pythia, avoid more than 50k events in a run.    *
#*********************************************************************
  2000 = nevents ! Number of unweighted events requested 
 2334 = iseed   ! rnd seed (0=assigned automatically=default))
#*********************************************************************
# Collider type and energy                                           *
# lpp: 0=No PDF, 1=proton, -1=antiproton, 2=photon from proton,      *
#                                         3=photon from electron     *
#*********************************************************************
        1     = lpp1    ! beam 1 type 
        1     = lpp2    ! beam 2 type
     4000     = ebeam1  ! beam 1 total energy in GeV
     4000     = ebeam2  ! beam 2 total energy in GeV
#*********************************************************************
# Beam polarization from -100 (left-handed) to 100 (right-handed)    *
#*********************************************************************
        0     = polbeam1 ! beam polarization for beam 1
        0     = polbeam2 ! beam polarization for beam 2
#*********************************************************************
# PDF CHOICE: this automatically fixes also alpha_s and its evol.    *
#*********************************************************************
 'nn23lo1'    = pdlabel     ! PDF set                                     
 230000    = lhaid     ! if pdlabel=lhapdf, this is the lhapdf number
#*********************************************************************
# Renormalization and factorization scales                           *
#*********************************************************************
 F        = fixed_ren_scale  ! if .true. use fixed ren scale
 F        = fixed_fac_scale  ! if .true. use fixed fac scale
 91.1880  = scale            ! fixed ren scale
 91.1880  = dsqrt_q2fact1    ! fixed fact scale for pdf1
 91.1880  = dsqrt_q2fact2    ! fixed fact scale for pdf2
 1        = scalefact        ! scale factor for event-by-event scales
#*********************************************************************
# Matching - Warning! ickkw > 1 is still beta
#*********************************************************************
 0        = ickkw            ! 0 no matching, 1 MLM, 2 CKKW matching
 1        = highestmult      ! for ickkw=2, highest mult group
 1        = ktscheme         ! for ickkw=1, 1 Durham kT, 2 Pythia pTE
 1        = alpsfact         ! scale factor for QCD emission vx
 F        = chcluster        ! cluster only according to channel diag
 T        = pdfwgt           ! for ickkw=1, perform pdf reweighting
 5        = asrwgtflavor     ! highest quark flavor for a_s reweight
 T        = clusinfo         ! include clustering tag in output
 3.0      = lhe_version       ! Change the way clustering information pass to shower.        
#*********************************************************************
#**********************************************************
#
#**********************************************************
# Automatic ptj and mjj cuts if xqcut > 0
# (turn off for VBF and single top processes)
#**********************************************************
   T  = auto_ptj_mjj  ! Automatic setting of ptj and mjj
#**********************************************************
#                                                                    
#**********************************
# BW cutoff (M+/-bwcutoff*Gamma)
#**********************************
  15  = bwcutoff      ! (M+/-bwcutoff*Gamma)
#**********************************************************
# Apply pt/E/eta/dr/mij cuts on decay products or not
# (note that etmiss/ptll/ptheavy/ht/sorted cuts always apply)
#**********************************************************
   T  = cut_decays    ! Cut decay products 
#*************************************************************
# Number of helicities to sum per event (0 = all helicities)
# 0 gives more stable result, but longer run time (needed for
# long decay chains e.g.).
# Use >=2 if most helicities contribute, e.g. pure QCD.
#*************************************************************
   0  = nhel          ! Number of helicities used per event
#*******************                                                 
# Standard Cuts
#*******************                                                 
#                                                                    
#*********************************************************************
# Minimum and maximum pt's (for max, -1 means no cut)                *
#*********************************************************************
 20  = ptj       ! minimum pt for the jets 
  0  = ptb       ! minimum pt for the b 
 10  = pta       ! minimum pt for the photons 
 10  = ptl       ! minimum pt for the charged leptons 
  0  = misset    ! minimum missing Et (sum of neutrino's momenta)
  0  = ptheavy   ! minimum pt for one heavy final state
 1.0 = ptonium   ! minimum pt for the quarkonium states
 -1  = ptjmax    ! maximum pt for the jets
 -1  = ptbmax    ! maximum pt for the b
 -1  = ptamax    ! maximum pt for the photons
 -1  = ptlmax    ! maximum pt for the charged leptons
 -1  = missetmax ! maximum missing Et (sum of neutrino's momenta)
#*********************************************************************
# Minimum and maximum E's (in the center of mass frame)              *
#*********************************************************************
  0  = ej     ! minimum E for the jets 
  0  = eb     ! minimum E for the b 
  0  = ea     ! minimum E for the photons 
  0  = el     ! minimum E for the charged leptons 
 -1   = ejmax ! maximum E for the jets
 -1   = ebmax ! maximum E for the b
 -1   = eamax ! maximum E for the photons
 -1   = elmax ! maximum E for the charged leptons
#*********************************************************************
# Maximum and minimum absolute rapidity (for max, -1 means no cut)   *
#*********************************************************************
   5  = etaj    ! max rap for the jets 
  -1  = etab    ! max rap for the b
 2.5  = etaa    ! max rap for the photons 
 2.5  = etal    ! max rap for the charged leptons 
 0.6  = etaonium ! max rap for the quarkonium states
   0  = etajmin ! min rap for the jets
   0  = etabmin ! min rap for the b
   0  = etaamin ! min rap for the photons
   0  = etalmin ! main rap for the charged leptons
#*********************************************************************
# Minimum and maximum DeltaR distance                                *
#*********************************************************************
 0.4 = drjj    ! min distance between jets 
 0   = drbb    ! min distance between b's 
 0.4 = drll    ! min distance between leptons 
 0.4 = draa    ! min distance between gammas 
 0   = drbj    ! min distance between b and jet 
 0.4 = draj    ! min distance between gamma and jet 
 0.4 = drjl    ! min distance between jet and lepton 
 0   = drab    ! min distance between gamma and b 
 0   = drbl    ! min distance between b and lepton 
 0.4 = dral    ! min distance between gamma and lepton 
 -1  = drjjmax ! max distance between jets
 -1  = drbbmax ! max distance between b's
 -1  = drllmax ! max distance between leptons
 -1  = draamax ! max distance between gammas
 -1  = drbjmax ! max distance between b and jet
 -1  = drajmax ! max distance between gamma and jet
 -1  = drjlmax ! max distance between jet and lepton
 -1  = drabmax ! max distance between gamma and b
 -1  = drblmax ! max distance between b and lepton
 -1  = dralmax ! maxdistance between gamma and lepton
#*********************************************************************
# Minimum and maximum invariant mass for pairs                       *
# WARNING: for four lepton final state mmll cut require to have      *
#          different lepton masses for each flavor!                  *           
#*********************************************************************
 0   = mmjj    ! min invariant mass of a jet pair 
 0   = mmbb    ! min invariant mass of a b pair 
 0   = mmaa    ! min invariant mass of gamma gamma pair
 0   = mmll    ! min invariant mass of l+l- (same flavour) lepton pair
 -1  = mmjjmax ! max invariant mass of a jet pair
 -1  = mmbbmax ! max invariant mass of a b pair
 -1  = mmaamax ! max invariant mass of gamma gamma pair
 -1  = mmllmax ! max invariant mass of l+l- (same flavour) lepton pair
#*********************************************************************
# Minimum and maximum invariant mass for all letpons                 *
#*********************************************************************
 0   = mmnl    ! min invariant mass for all letpons (l+- and vl) 
 -1  = mmnlmax ! max invariant mass for all letpons (l+- and vl) 
#*********************************************************************
# Minimum and maximum pt for 4-momenta sum of leptons                *
#*********************************************************************
 0   = ptllmin  ! Minimum pt for 4-momenta sum of leptons(l and vl)
 -1  = ptllmax  ! Maximum pt for 4-momenta sum of leptons(l and vl)
#*********************************************************************
# Inclusive cuts                                                     *
#*********************************************************************
 0  = xptj ! minimum pt for at least one jet  
 0  = xptb ! minimum pt for at least one b 
 0  = xpta ! minimum pt for at least one photon 
 0  = xptl ! minimum pt for at least one charged lepton 
#*********************************************************************
# Control the pt's of the jets sorted by pt                          *
#*********************************************************************
 0   = ptj1min ! minimum pt for the leading jet in pt
 0   = ptj2min ! minimum pt for the second jet in pt
 0   = ptj3min ! minimum pt for the third jet in pt
 0   = ptj4min ! minimum pt for the fourth jet in pt
 -1  = ptj1max ! maximum pt for the leading jet in pt 
 -1  = ptj2max ! maximum pt for the second jet in pt
 -1  = ptj3max ! maximum pt for the third jet in pt
 -1  = ptj4max ! maximum pt for the fourth jet in pt
 0   = cutuse  ! reject event if fails any (0) / all (1) jet pt cuts
#*********************************************************************
# Control the pt's of leptons sorted by pt                           *
#*********************************************************************
 0   = ptl1min ! minimum pt for the leading lepton in pt
 0   = ptl2min ! minimum pt for the second lepton in pt
 0   = ptl3min ! minimum pt for the third lepton in pt
 0   = ptl4min ! minimum pt for the fourth lepton in pt
 -1  = ptl1max ! maximum pt for the leading lepton in pt 
 -1  = ptl2max ! maximum pt for the second lepton in pt
 -1  = ptl3max ! maximum pt for the third lepton in pt
 -1  = ptl4max ! maximum pt for the fourth lepton in pt
#*********************************************************************
# Control the Ht(k)=Sum of k leading jets                            *
#*********************************************************************
 0   = htjmin ! minimum jet HT=Sum(jet pt)
 -1  = htjmax ! maximum jet HT=Sum(jet pt)
 0   = ihtmin  !inclusive Ht for all partons (including b)
 -1  = ihtmax  !inclusive Ht for all partons (including b)
 0   = ht2min ! minimum Ht for the two leading jets
 0   = ht3min ! minimum Ht for the three leading jets
 0   = ht4min ! minimum Ht for the four leading jets
 -1  = ht2max ! maximum Ht for the two leading jets
 -1  = ht3max ! maximum Ht for the three leading jets
 -1  = ht4max ! maximum Ht for the four leading jets
#***********************************************************************
# Photon-isolation cuts, according to hep-ph/9801442                   *
# When ptgmin=0, all the other parameters are ignored                  *
# When ptgmin>0, pta and draj are not going to be used                 *
#***********************************************************************
   0 = ptgmin ! Min photon transverse momentum
 0.4 = R0gamma ! Radius of isolation code
 1.0 = xn ! n parameter of eq.(3.4) in hep-ph/9801442
 1.0 = epsgamma ! epsilon_gamma parameter of eq.(3.4) in hep-ph/9801442
 .true. = isoEM ! isolate photons from EM energy (photons and leptons)
#*********************************************************************
# WBF cuts                                                           *
#*********************************************************************
 0   = xetamin ! minimum rapidity for two jets in the WBF case  
 0   = deltaeta ! minimum rapidity for two jets in the WBF case 
#*********************************************************************
# KT DURHAM CUT                                                      *
#*********************************************************************
 -1    =  ktdurham        
 0.4  =  dparameter 
#*********************************************************************
# maximal pdg code for quark to be considered as a light jet         *
# (otherwise b cuts are applied)                                     *
#*********************************************************************
 4 = maxjetflavor    ! Maximum jet pdg code
#*********************************************************************
# Jet measure cuts                                                   *
#*********************************************************************
 0   = xqcut   ! minimum kt jet measure between partons
#*********************************************************************
#
#*********************************************************************
# Store info for systematics studies                                 *
# WARNING: If use_syst is T, matched Pythia output is                *
#          meaningful ONLY if plotted taking matchscale              *
#          reweighting into account!                                 *
#*********************************************************************
   F  = use_syst      ! Enable systematics studies
#
#**************************************
# Parameter of the systematics study
#  will be used by SysCalc (if installed)
#**************************************                                  
#
0.5 1 2 = sys_scalefact  # factorization/renormalization scale factor
0.5 1 2 = sys_alpsfact  # \alpha_s emission scale factors
30 50 = sys_matchscale # variation of merging scale
# PDF sets and number of members (0 or none for all members).
CT10nlo.LHgrid = sys_pdf # matching scales
# MSTW2008nlo68cl.LHgrid 1  = sys_pdf
</MGRunCard>
<slha>
######################################################################
## PARAM_CARD AUTOMATICALY GENERATED BY MG5 FOLLOWING UFO MODEL   ####
######################################################################
##                                                                  ##
##  Width set on Auto will be computed following the information    ##
##        present in the decay.py files of the model.               ##
##        See  arXiv:1402.1178 for more details.                    ##
##                                                                  ##
######################################################################

###################################
## INFORMATION FOR CKMBLOCK
###################################
Block ckmblock 
    1 2.277360e-01 # cabi 

###################################
## INFORMATION FOR FRBLOCK
###################################
Block frblock 
    1 1.200000e+00 # gz 

###################################
## INFORMATION FOR MASS
###################################
Block mass 
    1 5.040000e-03 # MD 
    2 2.550000e-03 # MU 
    3 1.010000e-01 # MS 
    4 1.270000e+00 # MC 
    5 4.700000e+00 # MB 
    6 1.720000e+02 # MT 
   11 5.110000e-04 # Me 
   13 1.056600e-01 # MM 
   15 1.777000e+00 # MTA 
   23 9.118760e+01 # MZ 
   25 1.200000e+02 # MH 
  10030 2.900000e+03 # MZph 
  10031 3.000000e+02 # MZpl 
## Dependent parameters, given by model restrictions.
## Those values should be edited following the 
## analytical expression. MG5 ignores those values 
## but they are important for interfacing the output of MG5
## to external program such as Pythia.
  12 0.000000 # ve : 0.0 
  14 0.000000 # vm : 0.0 
  16 0.000000 # vt : 0.0 
  21 0.000000 # g : 0.0 
  22 0.000000 # a : 0.0 
  24 79.824360 # w+ : cmath.sqrt(MZ__exp__2/2. + cmath.sqrt(MZ__exp__4/4. - (aEW*cmath.pi*MZ__exp__2)/(Gf*sqrt__2))) 

###################################
## INFORMATION FOR SMINPUTS
###################################
Block sminputs 
    1 1.279000e+02 # aEWM1 
    2 1.166370e-05 # Gf 
    3 1.184000e-01 # aS 

###################################
## INFORMATION FOR YUKAWA
###################################
Block yukawa 
    1 5.040000e-03 # ymdo 
    2 2.550000e-03 # ymup 
    3 1.010000e-01 # yms 
    4 1.270000e+00 # ymc 
    5 4.700000e+00 # ymb 
    6 1.720000e+02 # ymt 
   11 5.110000e-04 # yme 
   13 1.056600e-01 # ymm 
   15 1.777000e+00 # ymtau 

###################################
## INFORMATION FOR DECAY
###################################
DECAY   6 1.508336e+00 # WT 
DECAY  23 2.495200e+00 # WZ 
DECAY  24 2.085000e+00 # WW 
DECAY  25 5.753088e-03 # WH 
## Dependent parameters, given by model restrictions.
## Those values should be edited following the 
## analytical expression. MG5 ignores those values 
## but they are important for interfacing the output of MG5
## to external program such as Pythia.
DECAY  1 0.000000 # d : 0.0 
DECAY  2 0.000000 # u : 0.0 
DECAY  3 0.000000 # s : 0.0 
DECAY  4 0.000000 # c : 0.0 
DECAY  5 0.000000 # b : 0.0 
DECAY  11 0.000000 # e- : 0.0 
DECAY  12 0.000000 # ve : 0.0 
DECAY  13 0.000000 # mu- : 0.0 
DECAY  14 0.000000 # vm : 0.0 
DECAY  15 0.000000 # ta- : 0.0 
DECAY  16 0.000000 # vt : 0.0 
DECAY  21 0.000000 # g : 0.0 
DECAY  22 0.000000 # a : 0.0 
DECAY  10030 0.308725 # zph : (gz__exp__2*MZph*(5 + cmath.sqrt(1 - (4*MT__exp__2)/MZph__exp__2)))/(144.*cmath.pi) 
DECAY  10031 0.132629 # zpl : (5*gz__exp__2*MZpl)/(144.*cmath.pi) 
#===========================================================
# QUANTUM NUMBERS OF NEW STATE(S) (NON SM PDG CODE)
#===========================================================

Block QNUMBERS 10030  # zph 
        1 0  # 3 times electric charge
        2 3  # number of spin states (2S+1)
        3 1  # colour rep (1: singlet, 3: triplet, 8: octet)
        4 0  # Particle/Antiparticle distinction (0=own anti)
Block QNUMBERS 10031  # zpl 
        1 0  # 3 times electric charge
        2 3  # number of spin states (2S+1)
        3 1  # colour rep (1: singlet, 3: triplet, 8: octet)
        4 0  # Particle/Antiparticle distinction (0=own anti)
</slha>
## END BANNER##
<MGGenerationInfo>
#  Number of Events        :         3941
#  Integrated weight (pb)  :  0.25507E-02
#  Max wgt                 :  0.10016E-05
#  Average wgt             :  0.64722E-06
</MGGenerationInfo>
</header>
<init>
     2212     2212  0.40000000000E+04  0.40000000000E+04 0 0  247000  247000 2   1
  0.25531262823E-02  0.86163883104E-05  0.10015730000E-05   0
</init>
<event>
 5   0  0.1001573E-05  0.2819616E+04  0.7818609E-02  0.8297204E-01
        2   -1    0    0  501    0  0.00000000000E+00  0.00000000000E+00  0.90154630145E+03  0.90154630145E+03  0.25500000920E-02 0.  1.
       -2   -1    0    0    0  501  0.00000000000E+00  0.00000000000E+00 -0.22046099186E+04  0.22046099186E+04  0.25500000920E-02 0. -1.
    10030    2    1    2    0    0  0.00000000000E+00  0.00000000000E+00 -0.13030636172E+04  0.31061562201E+04  0.28196155187E+04 0.  0.
        1    1    3    3  502    0  0.82205621270E+03 -0.39670806854E+03 -0.18351519666E+04  0.20496186106E+04  0.50400001928E-02 0. -1.
       -1    1    3    3    0  502 -0.82205621270E+03  0.39670806854E+03  0.53208834945E+03  0.10565376094E+04  0.50400001928E-02 0.  1.
</event>
<event>
 5   0  0.1001573E-05  0.2846494E+04  0.7818609E-02  0.8288977E-01
       -2   -1    0    0    0  501  0.00000000000E+00  0.00000000000E+00  0.16285102420E+04  0.16285102420E+04  0.25500000920E-02 0. -1.
        2   -1    0    0  501    0  0.00000000000E+00  0.00000000000E+00 -0.12438561400E+04  0.12438561400E+04  0.25500000920E-02 0.  1.
    10030    2    1    2    0    0  0.00000000000E+00  0.00000000000E+00  0.38465410200E+03  0.28723663820E+04  0.28464943096E+04 0.  0.
        1    1    3    3  502    0  0.77742033963E+02  0.47015887674E+03 -0.11609586020E+04  0.12549573972E+04  0.50400001928E-02 0.  1.
       -1    1    3    3    0  502 -0.77742033963E+02 -0.47015887674E+03  0.15456127040E+04  0.16174089848E+04  0.50400001928E-02 0. -1.
</event>
<event>
 5   0  0.9646321E-06  0.2892822E+04  0.7818609E-02  0.8275016E-01
        2   -1    0    0  501    0  0.00000000000E+00  0.00000000000E+00  0.22173825707E+04  0.22173825707E+04  0.25500000920E-02 0.  1.
       -2   -1    0    0    0  501  0.00000000000E+00  0.00000000000E+00 -0.94350193622E+03  0.94350193622E+03  0.25500000920E-02 0. -1.
    10030    2    1    2    0    0  0.00000000000E+00  0.00000000000E+00  0.12738806345E+04  0.31608845070E+04  0.28928219778E+04 0.  0.
        3    1    3    3  502    0 -0.40167692722E+03  0.31208866423E+03  0.21164265212E+04  0.21766958718E+04  0.10100000352E+00 0.  1.
       -3    1    3    3    0  502  0.40167692722E+03 -0.31208866423E+03 -0.84254588671E+03  0.98418863518E+03  0.10100000352E+00 0. -1.
</event>
<event>
 5   0  0.1001573E-05  0.2852036E+04  0.7818609E-02  0.8287293E-01
       -2   -1    0    0    0  501  0.00000000000E+00  0.00000000000E+00  0.12520179769E+04  0.12520179769E+04  0.25500000920E-02 0. -1.
        2   -1    0    0  501    0  0.00000000000E+00  0.00000000000E+00 -0.16241993446E+04  0.16241993446E+04  0.25500000920E-02 0.  1.
    10030    2    1    2    0    0  0.00000000000E+00  0.00000000000E+00 -0.37218136774E+03  0.28762173215E+04  0.28520356081E+04 0.  0.
        1    1    3    3  502    0 -0.62555765712E+03 -0.56500592076E+03 -0.13460485008E+04  0.15882067370E+04  0.50400001928E-02 0.  1.
       -1    1    3    3    0  502  0.62555765712E+03  0.56500592076E+03  0.97386713307E+03  0.12880105845E+04  0.50400001928E-02 0. -1.
</event>
<event>
 5   0  0.9646321E-06  0.2900646E+04  0.7818609E-02  0.8272685E-01
       -2   -1    0    0    0  501  0.00000000000E+00  0.00000000000E+00  0.13944680910E+04  0.13944680910E+04  0.25500000920E-02 0.  1.
        2   -1    0    0  501    0  0.00000000000E+00  0.00000000000E+00 -0.15084155065E+04  0.15084155065E+04  0.25500000920E-02 0. -1.
    10030    2    1    2    0    0  0.00000000000E+00  0.00000000000E+00 -0.11394741545E+03  0.29028835975E+04  0.29006463361E+04 0.  0.
        3    1    3    3  502    0  0.11839126074E+04  0.70372417406E+03 -0.51181353504E+03  0.14692957088E+04  0.10100000352E+00 0. -1.
       -3    1    3    3    0  502 -0.11839126074E+04 -0.70372417406E+03  0.39786611959E+03  0.14335878886E+04  0.10100000352E+00 0.  1.
</event>
<event>
 5   0  0.3564340E-06  0.2561941E+04  0.7818609E-02  0.8381245E-01
       -1   -1    0    0    0  501  0.00000000000E+00  0.00000000000E+00  0.12655651437E+04  0.12655651437E+04  0.50400001928E-02 0. -1.
        1   -1    0    0  501    0  0.00000000000E+00  0.00000000000E+00 -0.12965637083E+04  0.12965637083E+04  0.50400001928E-02 0.  1.
    10030    2    1    2    0    0  0.00000000000E+00  0.00000000000E+00 -0.30998564599E+02  0.25621288520E+04  0.25619413232E+04 0.  0.
        1    1    3    3  502    0  0.93260509728E+03  0.83145279155E+03  0.26704542126E+03  0.12776459874E+04  0.50400001928E-02 0.  1.
       -1    1    3    3    0  502 -0.93260509728E+03 -0.83145279155E+03 -0.29804398586E+03  0.12844828646E+04  0.50400001928E-02 0. -1.
</event>
<event>
 5   0  0.3474078E-06  0.2863221E+04  0.7818609E-02  0.8283905E-01
       -1   -1    0    0    0  501  0.00000000000E+00  0.00000000000E+00  0.10314139399E+04  0.10314139399E+04  0.50400001928E-02 0. -1.
        1   -1    0    0  501    0  0.00000000000E+00  0.00000000000E+00 -0.19870870181E+04  0.19870870181E+04  0.50400001928E-02 0.  1.
    10030    2    1    2    0    0  0.00000000000E+00  0.00000000000E+00 -0.95567307820E+03  0.30185009580E+04  0.28632214377E+04 0.  0.
        3    1    3    3  502    0  0.27060359621E+03 -0.74417755057E+03 -0.17351972296E+04  0.19073374030E+04  0.10100000352E+00 0.  1.
       -3    1    3    3    0  502 -0.27060359621E+03  0.74417755057E+03  0.77952415144E+03  0.11111635550E+04  0.10100000352E+00 0. -1.
</event>
<event>
 5   0  0.1001573E-05  0.2699097E+04  0.7818609E-02  0.8335298E-01
       -2   -1    0    0    0  501  0.00000000000E+00  0.00000000000E+00  0.65113836564E+03  0.65113836564E+03  0.25500000920E-02 0. -1.
        2   -1    0    0  501    0  0.00000000000E+00  0.00000000000E+00 -0.27970719968E+04  0.27970719968E+04  0.25500000920E-02 0.  1.
    10030    2    1    2    0    0  0.00000000000E+00  0.00000000000E+00 -0.21459336311E+04  0.34482103624E+04  0.26990968034E+04 0.  0.
        1    1    3    3  502    0  0.17006825404E+03  0.11637787549E+04 -0.22749177954E+03  0.11979385256E+04  0.50400001928E-02 0. -1.
       -1    1    3    3    0  502 -0.17006825404E+03 -0.11637787549E+04 -0.19184418516E+04  0.22502718368E+04  0.50400001928E-02 0.  1.
</event>
<event>
 5   0  0.3649705E-06  0.2859403E+04  0.7818609E-02  0.8285060E-01
        1   -1    0    0  501    0  0.00000000000E+00  0.00000000000E+00  0.18159938492E+04  0.18159938492E+04  0.50400001928E-02 0.  1.
       -1   -1    0    0    0  501  0.00000000000E+00  0.00000000000E+00 -0.11255798688E+04  0.11255798688E+04  0.50400001928E-02 0. -1.
    10030    2    1    2    0    0  0.00000000000E+00  0.00000000000E+00  0.69041398039E+03  0.29415737180E+04  0.28594028177E+04 0.  0.
        2    1    3    3  502    0  0.89863129248E+03 -0.81490613255E+03  0.11235442700E+04  0.16534696645E+04  0.25500000920E-02 0.  1.
       -2    1    3    3    0  502 -0.89863129248E+03  0.81490613255E+03 -0.43313028966E+03  0.12881040534E+04  0.25500000920E-02 0. -1.
</event>
<event>
 5   0  0.1001573E-05  0.2787173E+04  0.7818609E-02  0.8307262E-01
        2   -1    0    0  501    0  0.00000000000E+00  0.00000000000E+00  0.72523406787E+03  0.72523406788E+03  0.25500000920E-02 0.  1.
       -2   -1    0    0    0  501  0.00000000000E+00  0.00000000000E+00 -0.26778709883E+04  0.26778709883E+04  0.25500000920E-02 0. -1.
    10030    2    1    2    0    0  0.00000000000E+00  0.00000000000E+00 -0.19526369204E+04  0.34031050561E+04  0.27871729549E+04 0.  0.
        1    1    3    3  502    0 -0.10441301760E+04  0.62176641868E+03 -0.14346317301E+03  0.12236760135E+04  0.50400001928E-02 0.  1.
       -1    1    3    3    0  502  0.10441301760E+04 -0.62176641868E+03 -0.18091737474E+04  0.21794290427E+04  0.50400001928E-02 0. -1.
</event>
<event>
 5   0  0.3188375E-06  0.2899229E+04  0.7818609E-02  0.8273107E-01
        4   -1    0    0  501    0  0.00000000000E+00  0.00000000000E+00  0.19327406735E+04  0.19327410907E+04  0.12699999809E+01 0. -1.
       -4   -1    0    0    0  501  0.00000000000E+00  0.00000000000E+00 -0.10872545747E+04  0.10872553165E+04  0.12699999809E+01 0.  1.
    10030    2    1    2    0    0  0.00000000000E+00  0.00000000000E+00  0.84548609872E+03  0.30199964072E+04  0.28992294763E+04 0.  0.
        4    1    3    3  502    0 -0.11651825007E+03 -0.38369651098E+03 -0.10283317754E+04  0.11037514976E+04  0.12699999809E+01 0.  1.
       -4    1    3    3    0  502  0.11651825007E+03  0.38369651098E+03  0.18738178742E+04  0.19162449096E+04  0.12699999809E+01 0. -1.
</event>
<event>
 5   0  0.9360689E-06  0.2951813E+04  0.7818609E-02  0.8257626E-01
       -2   -1    0    0    0  501  0.00000000000E+00  0.00000000000E+00  0.18362955787E+04  0.18362955787E+04  0.25500000920E-02 0. -1.
        2   -1    0    0  501    0  0.00000000000E+00  0.00000000000E+00 -0.11862466622E+04  0.11862466622E+04  0.25500000920E-02 0.  1.
    10030    2    1    2    0    0  0.00000000000E+00  0.00000000000E+00  0.65004891653E+03  0.30225422410E+04  0.29518126642E+04 0.  0.
        5    1    3    3  502    0  0.12987877335E+04 -0.67710837899E+03  0.51090117261E+03  0.15512470570E+04  0.46999998093E+01 0. -1.
       -5    1    3    3    0  502 -0.12987877335E+04  0.67710837899E+03  0.13914774392E+03  0.14712951840E+04  0.46999998093E+01 0.  1.
</event>
<event>
 5   0  0.3486236E-06  0.2722347E+04  0.7818609E-02  0.8327790E-01
       -1   -1    0    0    0  501  0.00000000000E+00  0.00000000000E+00  0.86621359530E+03  0.86621359532E+03  0.50400001928E-02 0.  1.
        1   -1    0    0  501    0  0.00000000000E+00  0.00000000000E+00 -0.21389563358E+04  0.21389563358E+04  0.50400001928E-02 0. -1.
    10030    2    1    2    0    0  0.00000000000E+00  0.00000000000E+00 -0.12727427405E+04  0.30051699311E+04  0.27223468242E+04 0.  0.
        5    1    3    3  502    0 -0.13145788136E+04  0.85496645933E+02 -0.10145140686E+04  0.16627351019E+04  0.46999998093E+01 0. -1.
       -5    1    3    3    0  502  0.13145788136E+04 -0.85496645933E+02 -0.25822867192E+03  0.13424348292E+04  0.46999998093E+01 0.  1.
</event>
<event>
 5   0  0.3564340E-06  0.2799436E+04  0.7818609E-02  0.8303443E-01
        1   -1    0    0  501    0  0.00000000000E+00  0.00000000000E+00  0.12575386117E+04  0.12575386117E+04  0.50400001928E-02 0.  1.
       -1   -1    0    0    0  501  0.00000000000E+00  0.00000000000E+00 -0.15579727805E+04  0.15579727805E+04  0.50400001928E-02 0. -1.
    10030    2    1    2    0    0  0.00000000000E+00  0.00000000000E+00 -0.30043416875E+03  0.28155113922E+04  0.27994363200E+04 0.  0.
        1    1    3    3  502    0  0.57995853240E+03  0.20548641770E+03 -0.14146692522E+04  0.15426813217E+04  0.50400001928E-02 0. -1.
       -1    1    3    3    0  502 -0.57995853240E+03 -0.20548641770E+03  0.11142350835E+04  0.12728300705E+04  0.50400001928E-02 0.  1.
</event>
<event>
 5   0  0.3474078E-06  0.2444769E+04  0.7818609E-02  0.8422930E-01
       -1   -1    0    0    0  501  0.00000000000E+00  0.00000000000E+00  0.15500895872E+04  0.15500895872E+04  0.50400001928E-02 0. -1.
        1   -1    0    0  501    0  0.00000000000E+00  0.00000000000E+00 -0.96395992038E+03  0.96395992040E+03  0.50400001928E-02 0.  1.
    10030    2    1    2    0    0  0.00000000000E+00  0.00000000000E+00  0.58612966679E+03  0.25140495076E+04  0.24447693020E+04 0.  0.
        3    1    3    3  502    0 -0.42899299586E+02  0.34527847406E+03  0.14980940193E+04  0.15379672544E+04  0.10100000352E+00 0. -1.
       -3    1    3    3    0  502  0.42899299586E+02 -0.34527847406E+03 -0.91196435253E+03  0.97608225322E+03  0.10100000352E+00 0.  1.
</event>
<event>
 5   0  0.3474078E-06  0.2904744E+04  0.7818609E-02  0.8271467E-01
        1   -1    0    0  501    0  0.00000000000E+00  0.00000000000E+00  0.20769094526E+04  0.20769094526E+04  0.50400001928E-02 0.  1.
       -1   -1    0    0    0  501  0.00000000000E+00  0.00000000000E+00 -0.10156362887E+04  0.10156362887E+04  0.50400001928E-02 0. -1.
    10030    2    1    2    0    0  0.00000000000E+00  0.00000000000E+00  0.10612731639E+04  0.30925457413E+04  0.29047441253E+04 0.  0.
        3    1    3    3  502    0  0.12424139586E+04  0.62106399991E+03  0.78852488430E+02  0.13912335036E+04  0.10100000352E+00 0. -1.
       -3    1    3    3    0  502 -0.12424139586E+04 -0.62106399991E+03  0.98242067544E+03  0.17013122377E+04  0.10100000352E+00 0.  1.
</event>
<event>
 5   0  0.1001573E-05  0.2879083E+04  0.7818609E-02  0.8279128E-01
        2   -1    0    0  501    0  0.00000000000E+00  0.00000000000E+00  0.21953635902E+04  0.21953635902E+04  0.25500000920E-02 0.  1.
       -2   -1    0    0    0  501  0.00000000000E+00  0.00000000000E+00 -0.94393459551E+03  0.94393459551E+03  0.25500000920E-02 0. -1.
    10030    2    1    2    0    0  0.00000000000E+00  0.00000000000E+00  0.12514289947E+04  0.31392981858E+04  0.28790829391E+04 0.  0.
        1    1    3    3  502    0 -0.17508468110E+02  0.13259850507E+04  0.14967860996E+02  0.13261851070E+04  0.50400001928E-02 0. -1.
       -1    1    3    3    0  502  0.17508468110E+02 -0.13259850507E+04  0.12364611337E+04  0.18131130788E+04  0.50400001928E-02 0.  1.
</event>
<event>
 5   0  0.3746518E-06  0.3041681E+04  0.7818609E-02  0.8231928E-01
        1   -1    0    0  501    0  0.00000000000E+00  0.00000000000E+00  0.21885948202E+04  0.21885948202E+04  0.50400001928E-02 0.  1.
       -1   -1    0    0    0  501  0.00000000000E+00  0.00000000000E+00 -0.10568224462E+04  0.10568224462E+04  0.50400001928E-02 0. -1.
    10030    2    1    2    0    0  0.00000000000E+00  0.00000000000E+00  0.11317723739E+04  0.32454172664E+04  0.30416812007E+04 0.  0.
        4    1    3    3  502    0  0.50037781725E+03 -0.14347547938E+04  0.63383238315E+03  0.16464034686E+04  0.12699999809E+01 0. -1.
       -4    1    3    3    0  502 -0.50037781725E+03  0.14347547938E+04  0.49793999079E+03  0.15990137979E+04  0.12699999809E+01 0.  1.
</event>
<event>
 5   0  0.3564340E-06  0.2912539E+04  0.7818609E-02  0.8269157E-01
       -1   -1    0    0    0  501  0.00000000000E+00  0.00000000000E+00  0.75447936165E+03  0.75447936166E+03  0.50400001928E-02 0. -1.
        1   -1    0    0  501    0  0.00000000000E+00  0.00000000000E+00 -0.28108395037E+04  0.28108395037E+04  0.50400001928E-02 0.  1.
    10030    2    1    2    0    0  0.00000000000E+00  0.00000000000E+00 -0.20563601420E+04  0.35653188653E+04  0.29125386826E+04 0.  0.
        1    1    3    3  502    0 -0.97449282741E+03 -0.25986927402E+03 -0.23141271394E+04  0.25243519421E+04  0.50400001928E-02 0.  1.
       -1    1    3    3    0  502  0.97449282741E+03  0.25986927402E+03  0.25776699741E+03  0.10409669232E+04  0.50400001928E-02 0. -1.
</event>
<event>
 5   0  0.9251510E-06  0.2812220E+04  0.7818609E-02  0.8299484E-01
        2   -1    0    0  501    0  0.00000000000E+00  0.00000000000E+00  0.15260570345E+04  0.15260570346E+04  0.25500000920E-02 0.  1.
       -2   -1    0    0    0  501  0.00000000000E+00  0.00000000000E+00 -0.12955910415E+04  0.12955910415E+04  0.25500000920E-02 0. -1.
    10030    2    1    2    0    0  0.00000000000E+00  0.00000000000E+00  0.23046599303E+03  0.28216480761E+04  0.28122203490E+04 0.  0.
        2    1    3    3  502    0 -0.35217031470E+03 -0.78960153516E+03  0.12278469135E+04  0.15016998894E+04  0.25500000920E-02 0.  1.
       -2    1    3    3    0  502  0.35217031470E+03  0.78960153516E+03 -0.99738092048E+03  0.13199481866E+04  0.25500000920E-02 0. -1.
</event>
<event>
 5   0  0.3474078E-06  0.2344279E+04  0.7818609E-02  0.8460664E-01
        1   -1    0    0  501    0  0.00000000000E+00  0.00000000000E+00  0.14018403427E+04  0.14018403427E+04  0.50400001928E-02 0. -1.
       -1   -1    0    0    0  501  0.00000000000E+00  0.00000000000E+00 -0.98007633141E+03  0.98007633143E+03  0.50400001928E-02 0.  1.
    10030    2    1    2    0    0  0.00000000000E+00  0.00000000000E+00  0.42176401128E+03  0.23819166741E+04  0.23442786015E+04 0.  0.
        3    1    3    3  502    0 -0.76580151890E+03 -0.20639574505E+03 -0.66602690088E+03  0.10356848038E+04  0.10100000352E+00 0.  1.
       -3    1    3    3    0  502  0.76580151890E+03  0.20639574505E+03  0.10877909122E+04  0.13462318703E+04  0.10100000352E+00 0. -1.
</event>
<event>
 5   0  0.9646321E-06  0.2807395E+04  0.7818609E-02  0.8300976E-01
        2   -1    0    0  501    0  0.00000000000E+00  0.00000000000E+00  0.15410482542E+04  0.15410482542E+04  0.25500000920E-02 0. -1.
       -2   -1    0    0    0  501  0.00000000000E+00  0.00000000000E+00 -0.12785886900E+04  0.12785886900E+04  0.25500000920E-02 0.  1.
    10030    2    1    2    0    0  0.00000000000E+00  0.00000000000E+00  0.26245956422E+03  0.28196369442E+04  0.28073951404E+04 0.  0.
        3    1    3    3  502    0  0.17711687249E+03 -0.14138810303E+03  0.15225522574E+04  0.15393265960E+04  0.10100000352E+00 0. -1.
       -3    1    3    3    0  502 -0.17711687249E+03  0.14138810303E+03 -0.12600926932E+04  0.12803103483E+04  0.10100000352E+00 0.  1.
</event>
<event>
 5   0  0.3564340E-06  0.2819603E+04  0.7818609E-02  0.8297208E-01
       -1   -1    0    0    0  501  0.00000000000E+00  0.00000000000E+00  0.67855306911E+03  0.67855306912E+03  0.50400001928E-02 0.  1.
        1   -1    0    0  501    0  0.00000000000E+00  0.00000000000E+00 -0.29290869051E+04  0.29290869051E+04  0.50400001928E-02 0. -1.
    10030    2    1    2    0    0  0.00000000000E+00  0.00000000000E+00 -0.22505338360E+04  0.36076399743E+04  0.28196034538E+04 0.  0.
        1    1    3    3  502    0 -0.11781954713E+04 -0.53320763636E+03 -0.18434739954E+04  0.22518550850E+04  0.50400001928E-02 0.  1.
       -1    1    3    3    0  502  0.11781954713E+04  0.53320763636E+03 -0.40705984060E+03  0.13557848892E+04  0.50400001928E-02 0. -1.
</event>
<event>
 5   0  0.9251510E-06  0.2885503E+04  0.7818609E-02  0.8277204E-01
       -2   -1    0    0    0  501  0.00000000000E+00  0.00000000000E+00  0.12472574690E+04  0.12472574690E+04  0.25500000920E-02 0.  1.
        2   -1    0    0  501    0  0.00000000000E+00  0.00000000000E+00 -0.16688868179E+04  0.16688868179E+04  0.25500000920E-02 0. -1.
    10030    2    1    2    0    0  0.00000000000E+00  0.00000000000E+00 -0.42162934887E+03  0.29161442870E+04  0.28855027629E+04 0.  0.
        2    1    3    3  502    0 -0.87703962029E+03 -0.34098406726E+01 -0.13685455716E+04  0.16254621202E+04  0.25500000920E-02 0. -1.
       -2    1    3    3    0  502  0.87703962029E+03  0.34098406726E+01  0.94691622277E+03  0.12906821667E+04  0.25500000920E-02 0.  1.
</event>
<event>
 5   0  0.3649705E-06  0.2845730E+04  0.7818609E-02  0.8289210E-01
       -1   -1    0    0    0  501  0.00000000000E+00  0.00000000000E+00  0.17897925217E+04  0.17897925217E+04  0.50400001928E-02 0.  1.
        1   -1    0    0  501    0  0.00000000000E+00  0.00000000000E+00 -0.11311613753E+04  0.11311613753E+04  0.50400001928E-02 0. -1.
    10030    2    1    2    0    0  0.00000000000E+00  0.00000000000E+00  0.65863114647E+03  0.29209538970E+04  0.28457295517E+04 0.  0.
        2    1    3    3  502    0 -0.32018430550E+03 -0.69540698225E+03 -0.90173599613E+03  0.11828933456E+04  0.25500000920E-02 0. -1.
       -2    1    3    3    0  502  0.32018430550E+03  0.69540698225E+03  0.15603671426E+04  0.17380605514E+04  0.25500000920E-02 0.  1.
</event>
<event>
 5   0  0.9646321E-06  0.2879102E+04  0.7818609E-02  0.8279123E-01
       -2   -1    0    0    0  501  0.00000000000E+00  0.00000000000E+00  0.83281369850E+03  0.83281369851E+03  0.25500000920E-02 0. -1.
        2   -1    0    0  501    0  0.00000000000E+00  0.00000000000E+00 -0.24883199786E+04  0.24883199786E+04  0.25500000920E-02 0.  1.
    10030    2    1    2    0    0  0.00000000000E+00  0.00000000000E+00 -0.16555062801E+04  0.33211336771E+04  0.28791019186E+04 0.  0.
        3    1    3    3  502    0 -0.28125045274E+03  0.13800131438E+04 -0.11714373971E+04  0.18318852802E+04  0.10100000352E+00 0.  1.
       -3    1    3    3    0  502  0.28125045274E+03 -0.13800131438E+04 -0.48406888303E+03  0.14892483970E+04  0.10100000352E+00 0. -1.
</event>
<event>
 5   0  0.9360689E-06  0.2766719E+04  0.7818609E-02  0.8313676E-01
        2   -1    0    0  501    0  0.00000000000E+00  0.00000000000E+00  0.16946506920E+04  0.16946506920E+04  0.25500000920E-02 0.  1.
       -2   -1    0    0    0  501  0.00000000000E+00  0.00000000000E+00 -0.11292497015E+04  0.11292497015E+04  0.25500000920E-02 0. -1.
    10030    2    1    2    0    0  0.00000000000E+00  0.00000000000E+00  0.56540099053E+03  0.28239003935E+04  0.27667192038E+04 0.  0.
        5    1    3    3  502    0 -0.14129082252E+03  0.12891450004E+04 -0.20871012299E+03  0.13135600230E+04  0.46999998093E+01 0. -1.
       -5    1    3    3    0  502  0.14129082252E+03 -0.12891450004E+04  0.77411111352E+03  0.15103403705E+04  0.46999998093E+01 0.  1.
</event>
<event>
 5   0  0.3649705E-06  0.2878454E+04  0.7818609E-02  0.8279317E-01
       -1   -1    0    0    0  501  0.00000000000E+00  0.00000000000E+00  0.11993484508E+04  0.11993484508E+04  0.50400001928E-02 0. -1.
        1   -1    0    0  501    0  0.00000000000E+00  0.00000000000E+00 -0.17270824730E+04  0.17270824731E+04  0.50400001928E-02 0.  1.
    10030    2    1    2    0    0  0.00000000000E+00  0.00000000000E+00 -0.52773402224E+03  0.29264309239E+04  0.28784535351E+04 0.  0.
        2    1    3    3  502    0 -0.77203154533E+03  0.34550995362E+03 -0.14477345438E+04  0.16767066364E+04  0.25500000920E-02 0.  1.
       -2    1    3    3    0  502  0.77203154533E+03 -0.34550995362E+03  0.92000052159E+03  0.12497242875E+04  0.25500000920E-02 0. -1.
</event>
<event>
 5   0  0.9646321E-06  0.2955508E+04  0.7818609E-02  0.8256551E-01
       -2   -1    0    0    0  501  0.00000000000E+00  0.00000000000E+00  0.96283298195E+03  0.96283298196E+03  0.25500000920E-02 0.  1.
        2   -1    0    0  501    0  0.00000000000E+00  0.00000000000E+00 -0.22680541794E+04  0.22680541794E+04  0.25500000920E-02 0. -1.
    10030    2    1    2    0    0  0.00000000000E+00  0.00000000000E+00 -0.13052211974E+04  0.32308871614E+04  0.29555083277E+04 0.  0.
        3    1    3    3  502    0  0.13452123938E+04  0.60838308834E+03 -0.72201636820E+03  0.16434822824E+04  0.10100000352E+00 0. -1.
       -3    1    3    3    0  502 -0.13452123938E+04 -0.60838308834E+03 -0.58320482925E+03  0.15874048789E+04  0.10100000352E+00 0.  1.
</event>
<event>
 5   0  0.1001573E-05  0.2924160E+04  0.7818609E-02  0.8265725E-01
        2   -1    0    0  501    0  0.00000000000E+00  0.00000000000E+00  0.13710106601E+04  0.13710106601E+04  0.25500000920E-02 0.  1.
       -2   -1    0    0    0  501  0.00000000000E+00  0.00000000000E+00 -0.15591987124E+04  0.15591987124E+04  0.25500000920E-02 0. -1.
    10030    2    1    2    0    0  0.00000000000E+00  0.00000000000E+00 -0.18818805233E+03  0.29302093725E+04  0.29241600885E+04 0.  0.
        1    1    3    3  502    0 -0.11926914779E+04  0.84111718984E+03 -0.62372981959E+01  0.14594622271E+04  0.50400001928E-02 0.  1.
       -1    1    3    3    0  502  0.11926914779E+04 -0.84111718984E+03 -0.18195075414E+03  0.14707471453E+04  0.50400001928E-02 0. -1.
</event>
<event>
 5   0  0.3486236E-06  0.2899447E+04  0.7818609E-02  0.8273042E-01
        1   -1    0    0  501    0  0.00000000000E+00  0.00000000000E+00  0.18952409405E+04  0.18952409405E+04  0.50400001928E-02 0. -1.
       -1   -1    0    0    0  501  0.00000000000E+00  0.00000000000E+00 -0.11089348784E+04  0.11089348784E+04  0.50400001928E-02 0.  1.
    10030    2    1    2    0    0  0.00000000000E+00  0.00000000000E+00  0.78630606209E+03  0.30041758189E+04  0.28994473831E+04 0.  0.
        5    1    3    3  502    0 -0.61708505067E+03  0.34991389143E+03  0.17031150120E+04  0.18449543423E+04  0.46999998093E+01 0. -1.
       -5    1    3    3    0  502  0.61708505067E+03 -0.34991389143E+03 -0.91680894990E+03  0.11592214766E+04  0.46999998093E+01 0.  1.
</event>
<event>
 5   0  0.9646321E-06  0.2905201E+04  0.7818609E-02  0.8271332E-01
       -2   -1    0    0    0  501  0.00000000000E+00  0.00000000000E+00  0.76064093320E+03  0.76064093321E+03  0.25500000920E-02 0.  1.
        2   -1    0    0  501    0  0.00000000000E+00  0.00000000000E+00 -0.27740400798E+04  0.27740400798E+04  0.25500000920E-02 0. -1.
    10030    2    1    2    0    0  0.00000000000E+00  0.00000000000E+00 -0.20133991466E+04  0.35346810130E+04  0.29052011531E+04 0.  0.
        3    1    3    3  502    0 -0.52863402091E+03  0.12852144662E+04 -0.15211931614E+04  0.20604025812E+04  0.10100000352E+00 0. -1.
       -3    1    3    3    0  502  0.52863402091E+03 -0.12852144662E+04 -0.49220598516E+03  0.14742784317E+04  0.10100000352E+00 0.  1.
</event>
<event>
 5   0  0.3746518E-06  0.2888375E+04  0.7818609E-02  0.8276345E-01
       -1   -1    0    0    0  501  0.00000000000E+00  0.00000000000E+00  0.12103181505E+04  0.12103181505E+04  0.50400001928E-02 0. -1.
        1   -1    0    0  501    0  0.00000000000E+00  0.00000000000E+00 -0.17232472653E+04  0.17232472653E+04  0.50400001928E-02 0.  1.
    10030    2    1    2    0    0  0.00000000000E+00  0.00000000000E+00 -0.51292911474E+03  0.29335654158E+04  0.28883749362E+04 0.  0.
        4    1    3    3  502    0 -0.49266651831E+03 -0.17498882594E+03 -0.16237568991E+04  0.17058515375E+04  0.12699999809E+01 0.  1.
       -4    1    3    3    0  502  0.49266651831E+03  0.17498882594E+03  0.11108277844E+04  0.12277138783E+04  0.12699999809E+01 0. -1.
</event>
<event>
 5   0  0.3564340E-06  0.2814494E+04  0.7818609E-02  0.8298783E-01
       -1   -1    0    0    0  501  0.00000000000E+00  0.00000000000E+00  0.12243308283E+04  0.12243308283E+04  0.50400001928E-02 0.  1.
        1   -1    0    0  501    0  0.00000000000E+00  0.00000000000E+00 -0.16174909319E+04  0.16174909319E+04  0.50400001928E-02 0. -1.
    10030    2    1    2    0    0  0.00000000000E+00  0.00000000000E+00 -0.39316010353E+03  0.28418217602E+04  0.28144939243E+04 0.  0.
        1    1    3    3  502    0  0.56612219573E+03 -0.56357956192E+03 -0.13663746902E+04  0.15827495245E+04  0.50400001928E-02 0. -1.
       -1    1    3    3    0  502 -0.56612219573E+03  0.56357956192E+03  0.97321458667E+03  0.12590722358E+04  0.50400001928E-02 0.  1.
</event>
<event>
 5   0  0.3474078E-06  0.2869343E+04  0.7818609E-02  0.8282058E-01
        1   -1    0    0  501    0  0.00000000000E+00  0.00000000000E+00  0.78550391582E+03  0.78550391584E+03  0.50400001928E-02 0.  1.
       -1   -1    0    0    0  501  0.00000000000E+00  0.00000000000E+00 -0.26203331821E+04  0.26203331822E+04  0.50400001928E-02 0. -1.
    10030    2    1    2    0    0  0.00000000000E+00  0.00000000000E+00 -0.18348292663E+04  0.34058370980E+04  0.28693427647E+04 0.  0.
        3    1    3    3  502    0 -0.33810297850E+03 -0.92863444735E+03  0.31704264812E+03  0.10378784186E+04  0.10100000352E+00 0.  1.
       -3    1    3    3    0  502  0.33810297850E+03  0.92863444735E+03 -0.21518719145E+04  0.23679586794E+04  0.10100000352E+00 0. -1.
</event>
<event>
 5   0  0.9505359E-06  0.3006877E+04  0.7818609E-02  0.8241770E-01
       -2   -1    0    0    0  501  0.00000000000E+00  0.00000000000E+00  0.12708814250E+04  0.12708814250E+04  0.25500000920E-02 0. -1.
        2   -1    0    0  501    0  0.00000000000E+00  0.00000000000E+00 -0.17785503888E+04  0.17785503888E+04  0.25500000920E-02 0.  1.
    10030    2    1    2    0    0  0.00000000000E+00  0.00000000000E+00 -0.50766896382E+03  0.30494318138E+04  0.30068765538E+04 0.  0.
        4    1    3    3  502    0  0.78850665298E+03  0.32914199037E+03 -0.15083736265E+04  0.17335714008E+04  0.12699999809E+01 0.  1.
       -4    1    3    3    0  502 -0.78850665298E+03 -0.32914199037E+03  0.10007046627E+04  0.13158604130E+04  0.12699999809E+01 0. -1.
</event>
<event>
 5   0  0.9505359E-06  0.2817925E+04  0.7818609E-02  0.8297725E-01
        2   -1    0    0  501    0  0.00000000000E+00  0.00000000000E+00  0.11344963998E+04  0.11344963998E+04  0.25500000920E-02 0. -1.
       -2   -1    0    0    0  501  0.00000000000E+00  0.00000000000E+00 -0.17498290277E+04  0.17498290277E+04  0.25500000920E-02 0.  1.
    10030    2    1    2    0    0  0.00000000000E+00  0.00000000000E+00 -0.61533262789E+03  0.28843254275E+04  0.28179245782E+04 0.  0.
        4    1    3    3  502    0 -0.21179594558E+03  0.17949969327E+03 -0.17215540983E+04  0.17437969460E+04  0.12699999809E+01 0.  1.
       -4    1    3    3    0  502  0.21179594558E+03 -0.17949969327E+03  0.11062214704E+04  0.11405284815E+04  0.12699999809E+01 0. -1.
</event>
<event>
 5   0  0.3649705E-06  0.2895352E+04  0.7818609E-02  0.8274262E-01
       -1   -1    0    0    0  501  0.00000000000E+00  0.00000000000E+00  0.18649438060E+04  0.18649438060E+04  0.50400001928E-02 0. -1.
        1   -1    0    0  501    0  0.00000000000E+00  0.00000000000E+00 -0.11237691411E+04  0.11237691411E+04  0.50400001928E-02 0.  1.
    10030    2    1    2    0    0  0.00000000000E+00  0.00000000000E+00  0.74117466491E+03  0.29887129472E+04  0.28953523441E+04 0.  0.
        2    1    3    3  502    0 -0.94688823862E+03  0.82093496803E+03 -0.37751240993E+03  0.13088342820E+04  0.25500000920E-02 0.  1.
       -2    1    3    3    0  502  0.94688823862E+03 -0.82093496803E+03  0.11186870748E+04  0.16798786651E+04  0.25500000920E-02 0. -1.
</event>
<event>
 5   0  0.3474078E-06  0.2890770E+04  0.7818609E-02  0.8275629E-01
        1   -1    0    0  501    0  0.00000000000E+00  0.00000000000E+00  0.19563778599E+04  0.19563778599E+04  0.50400001928E-02 0. -1.
       -1   -1    0    0    0  501  0.00000000000E+00  0.00000000000E+00 -0.10678598201E+04  0.10678598201E+04  0.50400001928E-02 0.  1.
    10030    2    1    2    0    0  0.00000000000E+00  0.00000000000E+00  0.88851803974E+03  0.30242376800E+04  0.28907696619E+04 0.  0.
        3    1    3    3  502    0 -0.86994322194E+02  0.14402663573E+04  0.35547552648E+03  0.14860343375E+04  0.10100000352E+00 0. -1.
       -3    1    3    3    0  502  0.86994322194E+02 -0.14402663573E+04  0.53304251327E+03  0.15382033426E+04  0.10100000352E+00 0.  1.
</event>
<event>
 5   0  0.3486236E-06  0.2922276E+04  0.7818609E-02  0.8266280E-01
       -1   -1    0    0    0  501  0.00000000000E+00  0.00000000000E+00  0.10218353110E+04  0.10218353110E+04  0.50400001928E-02 0. -1.
        1   -1    0    0  501    0  0.00000000000E+00  0.00000000000E+00 -0.20893042619E+04  0.20893042619E+04  0.50400001928E-02 0.  1.
    10030    2    1    2    0    0  0.00000000000E+00  0.00000000000E+00 -0.10674689509E+04  0.31111395729E+04  0.29222764210E+04 0.  0.
        5    1    3    3  502    0 -0.82513242859E+03 -0.10900190981E+04 -0.10827337361E+04  0.17439379554E+04  0.46999998093E+01 0.  1.
       -5    1    3    3    0  502  0.82513242859E+03  0.10900190981E+04  0.15264785225E+02  0.13672016174E+04  0.46999998093E+01 0. -1.
</event>
<event>
 5   0  0.9251510E-06  0.2871664E+04  0.7818609E-02  0.8281359E-01
       -2   -1    0    0    0  501  0.00000000000E+00  0.00000000000E+00  0.15347521008E+04  0.15347521008E+04  0.25500000920E-02 0. -1.
        2   -1    0    0  501    0  0.00000000000E+00  0.00000000000E+00 -0.13432874801E+04  0.13432874801E+04  0.25500000920E-02 0.  1.
    10030    2    1    2    0    0  0.00000000000E+00  0.00000000000E+00  0.19146462065E+03  0.28780395809E+04  0.28716638258E+04 0.  0.
        2    1    3    3  502    0 -0.67400085470E+03  0.11706255151E+04 -0.39214622630E+03  0.14065631559E+04  0.25500000920E-02 0.  1.
       -2    1    3    3    0  502  0.67400085470E+03 -0.11706255151E+04  0.58361084695E+03  0.14714764250E+04  0.25500000920E-02 0. -1.
</event>
<event>
 5   0  0.9646321E-06  0.2906645E+04  0.7818609E-02  0.8270903E-01
        2   -1    0    0  501    0  0.00000000000E+00  0.00000000000E+00  0.78146428515E+03  0.78146428515E+03  0.25500000920E-02 0. -1.
       -2   -1    0    0    0  501  0.00000000000E+00  0.00000000000E+00 -0.27028055085E+04  0.27028055085E+04  0.25500000920E-02 0.  1.
    10030    2    1    2    0    0  0.00000000000E+00  0.00000000000E+00 -0.19213412234E+04  0.34842697937E+04  0.29066447837E+04 0.  0.
        3    1    3    3  502    0  0.32322014634E+03 -0.10252137515E+04 -0.21331024570E+04  0.23886524656E+04  0.10100000352E+00 0.  1.
       -3    1    3    3    0  502 -0.32322014634E+03  0.10252137515E+04  0.21176123359E+03  0.10956173281E+04  0.10100000352E+00 0. -1.
</event>
<event>
 5   0  0.1001573E-05  0.2814608E+04  0.7818609E-02  0.8298747E-01
        2   -1    0    0  501    0  0.00000000000E+00  0.00000000000E+00  0.14027702522E+04  0.14027702522E+04  0.25500000920E-02 0. -1.
       -2   -1    0    0    0  501  0.00000000000E+00  0.00000000000E+00 -0.14118523332E+04  0.14118523332E+04  0.25500000920E-02 0.  1.
    10030    2    1    2    0    0  0.00000000000E+00  0.00000000000E+00 -0.90820809625E+01  0.28146225854E+04  0.28146079325E+04 0.  0.
        1    1    3    3  502    0 -0.31387823342E+03  0.12144896154E+04  0.63342770474E+03  0.14052527276E+04  0.50400001928E-02 0. -1.
       -1    1    3    3    0  502  0.31387823342E+03 -0.12144896154E+04 -0.64250978570E+03  0.14093698578E+04  0.50400001928E-02 0.  1.
</event>
<event>
 5   0  0.9251510E-06  0.2894211E+04  0.7818609E-02  0.8274602E-01
       -2   -1    0    0    0  501  0.00000000000E+00  0.00000000000E+00  0.94035486210E+03  0.94035486210E+03  0.25500000920E-02 0. -1.
        2   -1    0    0  501    0  0.00000000000E+00  0.00000000000E+00 -0.22269404404E+04  0.22269404405E+04  0.25500000920E-02 0.  1.
    10030    2    1    2    0    0  0.00000000000E+00  0.00000000000E+00 -0.12865855784E+04  0.31672953026E+04  0.28942109604E+04 0.  0.
        2    1    3    3  502    0  0.39697703690E+03 -0.28664543635E+03  0.84694355842E+03  0.97829942511E+03  0.25500000920E-02 0. -1.
       -2    1    3    3    0  502 -0.39697703690E+03  0.28664543635E+03 -0.21335291368E+04  0.21889958774E+04  0.25500000920E-02 0.  1.
</event>
<event>
 5   0  0.9646321E-06  0.2608500E+04  0.7818609E-02  0.8365320E-01
        2   -1    0    0  501    0  0.00000000000E+00  0.00000000000E+00  0.20062119887E+04  0.20062119887E+04  0.25500000920E-02 0. -1.
       -2   -1    0    0    0  501  0.00000000000E+00  0.00000000000E+00 -0.84790042007E+03  0.84790042007E+03  0.25500000920E-02 0.  1.
    10030    2    1    2    0    0  0.00000000000E+00  0.00000000000E+00  0.11583115687E+04  0.28541124088E+04  0.26084999429E+04 0.  0.
        3    1    3    3  502    0 -0.15210854183E+03  0.52889557459E+03 -0.71463769952E+03  0.90198369669E+03  0.10100000352E+00 0.  1.
       -3    1    3    3    0  502  0.15210854183E+03 -0.52889557459E+03  0.18729492682E+04  0.19521287121E+04  0.10100000352E+00 0. -1.
</event>
<event>
 5   0  0.3474078E-06  0.2825479E+04  0.7818609E-02  0.8295402E-01
        1   -1    0    0  501    0  0.00000000000E+00  0.00000000000E+00  0.14451746744E+04  0.14451746744E+04  0.50400001928E-02 0. -1.
       -1   -1    0    0    0  501  0.00000000000E+00  0.00000000000E+00 -0.13810322095E+04  0.13810322096E+04  0.50400001928E-02 0.  1.
    10030    2    1    2    0    0  0.00000000000E+00  0.00000000000E+00  0.64142464854E+02  0.28262068840E+04  0.28254789143E+04 0.  0.
        3    1    3    3  502    0 -0.62131489216E+03  0.55190905116E+03 -0.11106752873E+04  0.13871681225E+04  0.10100000352E+00 0.  1.
       -3    1    3    3    0  502  0.62131489216E+03 -0.55190905116E+03  0.11748177522E+04  0.14390387615E+04  0.10100000352E+00 0. -1.
</event>
<event>
 5   0  0.9360689E-06  0.2901875E+04  0.7818609E-02  0.8272320E-01
       -2   -1    0    0    0  501  0.00000000000E+00  0.00000000000E+00  0.12906253603E+04  0.12906253603E+04  0.25500000920E-02 0.  1.
        2   -1    0    0  501    0  0.00000000000E+00  0.00000000000E+00 -0.16311627720E+04  0.16311627720E+04  0.25500000920E-02 0. -1.
    10030    2    1    2    0    0  0.00000000000E+00  0.00000000000E+00 -0.34053741168E+03  0.29217881324E+04  0.29018752836E+04 0.  0.
        5    1    3    3  502    0 -0.30559683011E+03  0.13072692067E+04  0.38383096030E+03  0.13963131802E+04  0.46999998093E+01 0.  1.
       -5    1    3    3    0  502  0.30559683011E+03 -0.13072692067E+04 -0.72436837199E+03  0.15254749521E+04  0.46999998093E+01 0. -1.
</event>
<event>
 5   0  0.3486236E-06  0.2839666E+04  0.7818609E-02  0.8291058E-01
        1   -1    0    0  501    0  0.00000000000E+00  0.00000000000E+00  0.17317898664E+04  0.17317898664E+04  0.50400001928E-02 0.  1.
       -1   -1    0    0    0  501  0.00000000000E+00  0.00000000000E+00 -0.11640703812E+04  0.11640703812E+04  0.50400001928E-02 0. -1.
    10030    2    1    2    0    0  0.00000000000E+00  0.00000000000E+00  0.56771948523E+03  0.28958602476E+04  0.28396656775E+04 0.  0.
        5    1    3    3  502    0 -0.58322830148E+02  0.19991323383E+03 -0.11484036576E+04  0.11671417671E+04  0.46999998093E+01 0. -1.
       -5    1    3    3    0  502  0.58322830148E+02 -0.19991323383E+03  0.17161231429E+04  0.17287184806E+04  0.46999998093E+01 0.  1.
</event>
<event>
 5   0  0.3474078E-06  0.2871296E+04  0.7818609E-02  0.8281469E-01
        1   -1    0    0  501    0  0.00000000000E+00  0.00000000000E+00  0.16658983739E+04  0.16658983740E+04  0.50400001928E-02 0. -1.
       -1   -1    0    0    0  501  0.00000000000E+00  0.00000000000E+00 -0.12372212427E+04  0.12372212427E+04  0.50400001928E-02 0.  1.
    10030    2    1    2    0    0  0.00000000000E+00  0.00000000000E+00  0.42867713128E+03  0.29031196166E+04  0.28712957747E+04 0.  0.
        3    1    3    3  502    0 -0.13402129121E+04  0.16829912520E+03 -0.27745724435E+03  0.13789408174E+04  0.10100000352E+00 0.  1.
       -3    1    3    3    0  502  0.13402129121E+04 -0.16829912520E+03  0.70613437562E+03  0.15241787992E+04  0.10100000352E+00 0. -1.
</event>
<event>
 5   0  0.9646321E-06  0.2907017E+04  0.7818609E-02  0.8270793E-01
        2   -1    0    0  501    0  0.00000000000E+00  0.00000000000E+00  0.10399551753E+04  0.10399551753E+04  0.25500000920E-02 0.  1.
       -2   -1    0    0    0  501  0.00000000000E+00  0.00000000000E+00 -0.20315175235E+04  0.20315175235E+04  0.25500000920E-02 0. -1.
    10030    2    1    2    0    0  0.00000000000E+00  0.00000000000E+00 -0.99156234813E+03  0.30714726988E+04  0.29070171395E+04 0.  0.
        3    1    3    3  502    0  0.10986983735E+03 -0.62660316562E+03  0.88505131568E+03  0.10899627287E+04  0.10100000352E+00 0.  1.
       -3    1    3    3    0  502 -0.10986983735E+03  0.62660316562E+03 -0.18766136638E+04  0.19815099701E+04  0.10100000352E+00 0. -1.
</event>
<event>
 5   0  0.3564340E-06  0.2280355E+04  0.7818609E-02  0.8485707E-01
       -1   -1    0    0    0  501  0.00000000000E+00  0.00000000000E+00  0.90516874682E+03  0.90516874684E+03  0.50400001928E-02 0.  1.
        1   -1    0    0  501    0  0.00000000000E+00  0.00000000000E+00 -0.14362018982E+04  0.14362018982E+04  0.50400001928E-02 0. -1.
    10030    2    1    2    0    0  0.00000000000E+00  0.00000000000E+00 -0.53103315135E+03  0.23413706450E+04  0.22803552990E+04 0.  0.
        1    1    3    3  502    0 -0.54793116478E+03 -0.98673367255E+03 -0.43149961047E+03  0.12083310042E+04  0.50400001928E-02 0. -1.
       -1    1    3    3    0  502  0.54793116478E+03  0.98673367255E+03 -0.99533540885E+02  0.11330396408E+04  0.50400001928E-02 0.  1.
</event>
<event>
 5   0  0.3474078E-06  0.3222129E+04  0.7818609E-02  0.8182997E-01
        1   -1    0    0  501    0  0.00000000000E+00  0.00000000000E+00  0.12694246583E+04  0.12694246583E+04  0.50400001928E-02 0. -1.
       -1   -1    0    0    0  501  0.00000000000E+00  0.00000000000E+00 -0.20446497504E+04  0.20446497504E+04  0.50400001928E-02 0.  1.
    10030    2    1    2    0    0  0.00000000000E+00  0.00000000000E+00 -0.77522509211E+03  0.33140744087E+04  0.32221289923E+04 0.  0.
        3    1    3    3  502    0  0.15379089828E+04  0.29579321659E+03 -0.77638150227E+03  0.17479776640E+04  0.10100000352E+00 0. -1.
       -3    1    3    3    0  502 -0.15379089828E+04 -0.29579321659E+03  0.11564101592E+01  0.15660967448E+04  0.10100000352E+00 0.  1.
</event>
<event>
 5   0  0.3649705E-06  0.2872536E+04  0.7818609E-02  0.8281096E-01
        1   -1    0    0  501    0  0.00000000000E+00  0.00000000000E+00  0.16394466064E+04  0.16394466064E+04  0.50400001928E-02 0. -1.
       -1   -1    0    0    0  501  0.00000000000E+00  0.00000000000E+00 -0.12582699856E+04  0.12582699856E+04  0.50400001928E-02 0.  1.
    10030    2    1    2    0    0  0.00000000000E+00  0.00000000000E+00  0.38117662079E+03  0.28977165920E+04  0.28725364804E+04 0.  0.
        2    1    3    3  502    0 -0.24412045562E+03 -0.32404582251E+03 -0.11992647425E+04  0.12660317589E+04  0.25500000920E-02 0.  1.
       -2    1    3    3    0  502  0.24412045562E+03  0.32404582251E+03  0.15804413632E+04  0.16316848331E+04  0.25500000920E-02 0. -1.
</event>
<event>
 5   0  0.3486236E-06  0.2895279E+04  0.7818609E-02  0.8274284E-01
       -1   -1    0    0    0  501  0.00000000000E+00  0.00000000000E+00  0.10693539877E+04  0.10693539877E+04  0.50400001928E-02 0.  1.
        1   -1    0    0  501    0  0.00000000000E+00  0.00000000000E+00 -0.19597434510E+04  0.19597434510E+04  0.50400001928E-02 0. -1.
    10030    2    1    2    0    0  0.00000000000E+00  0.00000000000E+00 -0.89038946339E+03  0.30290974387E+04  0.28952785525E+04 0.  0.
        5    1    3    3  502    0  0.12696986634E+04 -0.33874082257E+03  0.19012629543E+03  0.13277989829E+04  0.46999998093E+01 0. -1.
       -5    1    3    3    0  502 -0.12696986634E+04  0.33874082257E+03 -0.10805157588E+04  0.17012984558E+04  0.46999998093E+01 0.  1.
</event>
<event>
 5   0  0.9505359E-06  0.2901465E+04  0.7818609E-02  0.8272442E-01
       -2   -1    0    0    0  501  0.00000000000E+00  0.00000000000E+00  0.11383030768E+04  0.11383030768E+04  0.25500000920E-02 0. -1.
        2   -1    0    0  501    0  0.00000000000E+00  0.00000000000E+00 -0.18489142807E+04  0.18489142807E+04  0.25500000920E-02 0.  1.
    10030    2    1    2    0    0  0.00000000000E+00  0.00000000000E+00 -0.71061120387E+03  0.29872173575E+04  0.29014650193E+04 0.  0.
        4    1    3    3  502    0  0.12399487319E+04 -0.74735141246E+03 -0.25973867322E+03  0.14708748358E+04  0.12699999809E+01 0. -1.
       -4    1    3    3    0  502 -0.12399487319E+04  0.74735141246E+03 -0.45087253065E+03  0.15163425217E+04  0.12699999809E+01 0.  1.
</event>
<event>
 5   0  0.1001573E-05  0.2857549E+04  0.7818609E-02  0.8285621E-01
        2   -1    0    0  501    0  0.00000000000E+00  0.00000000000E+00  0.22423873729E+04  0.22423873729E+04  0.25500000920E-02 0.  1.
       -2   -1    0    0    0  501  0.00000000000E+00  0.00000000000E+00 -0.91036752327E+03  0.91036752327E+03  0.25500000920E-02 0. -1.
    10030    2    1    2    0    0  0.00000000000E+00  0.00000000000E+00  0.13320198497E+04  0.31527548962E+04  0.28575490469E+04 0.  0.
        1    1    3    3  502    0  0.10787117494E+04  0.85657534535E+03  0.10847674367E+04  0.17532999608E+04  0.50400001928E-02 0.  1.
       -1    1    3    3    0  502 -0.10787117494E+04 -0.85657534535E+03  0.24725241291E+03  0.13994549354E+04  0.50400001928E-02 0. -1.
</event>
<event>
 5   0  0.3746518E-06  0.2955339E+04  0.7818609E-02  0.8256600E-01
       -1   -1    0    0    0  501  0.00000000000E+00  0.00000000000E+00  0.14087903164E+04  0.14087903164E+04  0.50400001928E-02 0. -1.
        1   -1    0    0  501    0  0.00000000000E+00  0.00000000000E+00 -0.15499166785E+04  0.15499166785E+04  0.50400001928E-02 0.  1.
    10030    2    1    2    0    0  0.00000000000E+00  0.00000000000E+00 -0.14112636214E+03  0.29587069949E+04  0.29553393090E+04 0.  0.
        4    1    3    3  502    0  0.97161749531E+03  0.37066567309E+03  0.98042944871E+03  0.14292225562E+04  0.12699999809E+01 0. -1.
       -4    1    3    3    0  502 -0.97161749531E+03 -0.37066567309E+03 -0.11215558109E+04  0.15294844387E+04  0.12699999809E+01 0.  1.
</event>
<event>
 5   0  0.9251510E-06  0.2977840E+04  0.7818609E-02  0.8250087E-01
       -2   -1    0    0    0  501  0.00000000000E+00  0.00000000000E+00  0.11662084034E+04  0.11662084034E+04  0.25500000920E-02 0. -1.
        2   -1    0    0  501    0  0.00000000000E+00  0.00000000000E+00 -0.19009324804E+04  0.19009324804E+04  0.25500000920E-02 0.  1.
    10030    2    1    2    0    0  0.00000000000E+00  0.00000000000E+00 -0.73472407703E+03  0.30671408838E+04  0.29778404476E+04 0.  0.
        2    1    3    3  502    0  0.11894358895E+04 -0.57705918145E+03 -0.10728314084E+04  0.17025634394E+04  0.25500000920E-02 0.  1.
       -2    1    3    3    0  502 -0.11894358895E+04  0.57705918145E+03  0.33810733141E+03  0.13645774444E+04  0.25500000920E-02 0. -1.
</event>
<event>
 5   0  0.3486236E-06  0.2922882E+04  0.7818609E-02  0.8266102E-01
        1   -1    0    0  501    0  0.00000000000E+00  0.00000000000E+00  0.23369538761E+04  0.23369538761E+04  0.50400001928E-02 0. -1.
       -1   -1    0    0    0  501  0.00000000000E+00  0.00000000000E+00 -0.91392898051E+03  0.91392898052E+03  0.50400001928E-02 0.  1.
    10030    2    1    2    0    0  0.00000000000E+00  0.00000000000E+00  0.14230248956E+04  0.32508828566E+04  0.29228820527E+04 0.  0.
        5    1    3    3  502    0 -0.65687125476E+02  0.10243419750E+04  0.18685383800E+04  0.21319120638E+04  0.46999998093E+01 0. -1.
       -5    1    3    3    0  502  0.65687125476E+02 -0.10243419750E+04 -0.44551348447E+03  0.11189707928E+04  0.46999998093E+01 0.  1.
</event>
<event>
 5   0  0.9251510E-06  0.2913114E+04  0.7818609E-02  0.8268986E-01
        2   -1    0    0  501    0  0.00000000000E+00  0.00000000000E+00  0.20269234054E+04  0.20269234054E+04  0.25500000920E-02 0.  1.
       -2   -1    0    0    0  501  0.00000000000E+00  0.00000000000E+00 -0.10466887056E+04  0.10466887056E+04  0.25500000920E-02 0. -1.
    10030    2    1    2    0    0  0.00000000000E+00  0.00000000000E+00  0.98023469980E+03  0.30736121109E+04  0.29131136850E+04 0.  0.
        2    1    3    3  502    0  0.75305690231E+03 -0.71435385474E+03 -0.58802351263E+03  0.11929659590E+04  0.25500000920E-02 0. -1.
       -2    1    3    3    0  502 -0.75305690231E+03  0.71435385474E+03  0.15682582124E+04  0.18806461519E+04  0.25500000920E-02 0.  1.
</event>
<event>
 5   0  0.3746518E-06  0.2887537E+04  0.7818609E-02  0.8276595E-01
       -1   -1    0    0    0  501  0.00000000000E+00  0.00000000000E+00  0.14372335866E+04  0.14372335866E+04  0.50400001928E-02 0. -1.
        1   -1    0    0  501    0  0.00000000000E+00  0.00000000000E+00 -0.14503334258E+04  0.14503334258E+04  0.50400001928E-02 0.  1.
    10030    2    1    2    0    0  0.00000000000E+00  0.00000000000E+00 -0.13099839226E+02  0.28875670125E+04  0.28875372977E+04 0.  0.
        4    1    3    3  502    0  0.12983328254E+04 -0.57720426470E+03  0.24964289976E+03  0.14426212528E+04  0.12699999809E+01 0. -1.
       -4    1    3    3    0  502 -0.12983328254E+04  0.57720426470E+03 -0.26274273899E+03  0.14449457597E+04  0.12699999809E+01 0.  1.
</event>
<event>
 5   0  0.3746518E-06  0.3089993E+04  0.7818609E-02  0.8218490E-01
        1   -1    0    0  501    0  0.00000000000E+00  0.00000000000E+00  0.15788301787E+04  0.15788301787E+04  0.50400001928E-02 0.  1.
       -1   -1    0    0    0  501  0.00000000000E+00  0.00000000000E+00 -0.15118877898E+04  0.15118877898E+04  0.50400001928E-02 0. -1.
    10030    2    1    2    0    0  0.00000000000E+00  0.00000000000E+00  0.66942388864E+02  0.30907179685E+04  0.30899929252E+04 0.  0.
        4    1    3    3  502    0 -0.87639603768E+02  0.20219370699E+02 -0.15092664556E+04  0.15119445658E+04  0.12699999809E+01 0. -1.
       -4    1    3    3    0  502  0.87639603768E+02 -0.20219370699E+02  0.15762088444E+04  0.15787734028E+04  0.12699999809E+01 0.  1.
</event>
<event>
 5   0  0.3649705E-06  0.2889845E+04  0.7818609E-02  0.8275905E-01
       -1   -1    0    0    0  501  0.00000000000E+00  0.00000000000E+00  0.11662342696E+04  0.11662342696E+04  0.50400001928E-02 0. -1.
        1   -1    0    0  501    0  0.00000000000E+00  0.00000000000E+00 -0.17902076058E+04  0.17902076058E+04  0.50400001928E-02 0.  1.
    10030    2    1    2    0    0  0.00000000000E+00  0.00000000000E+00 -0.62397333621E+03  0.29564418754E+04  0.28898452966E+04 0.  0.
        2    1    3    3  502    0  0.52691488893E+03  0.13328914476E+04 -0.12456395698E+03  0.14386643426E+04  0.25500000920E-02 0.  1.
       -2    1    3    3    0  502 -0.52691488893E+03 -0.13328914476E+04 -0.49940937922E+03  0.15177775329E+04  0.25500000920E-02 0. -1.
</event>
<event>
 5   0  0.9251510E-06  0.2882247E+04  0.7818609E-02  0.8278179E-01
       -2   -1    0    0    0  501  0.00000000000E+00  0.00000000000E+00  0.10572966215E+04  0.10572966215E+04  0.25500000920E-02 0. -1.
        2   -1    0    0  501    0  0.00000000000E+00  0.00000000000E+00 -0.19642893426E+04  0.19642893426E+04  0.25500000920E-02 0.  1.
    10030    2    1    2    0    0  0.00000000000E+00  0.00000000000E+00 -0.90699272113E+03  0.30215859641E+04  0.28822466831E+04 0.  0.
        2    1    3    3  502    0  0.56225837354E+02 -0.70421189370E+03  0.86331747284E+03  0.11155235519E+04  0.25500000920E-02 0. -1.
       -2    1    3    3    0  502 -0.56225837354E+02  0.70421189370E+03 -0.17703101940E+04  0.19060624121E+04  0.25500000920E-02 0.  1.
</event>
<event>
 5   0  0.3486236E-06  0.2871438E+04  0.7818609E-02  0.8281427E-01
        1   -1    0    0  501    0  0.00000000000E+00  0.00000000000E+00  0.17594587248E+04  0.17594587248E+04  0.50400001928E-02 0. -1.
       -1   -1    0    0    0  501  0.00000000000E+00  0.00000000000E+00 -0.11715473739E+04  0.11715473740E+04  0.50400001928E-02 0.  1.
    10030    2    1    2    0    0  0.00000000000E+00  0.00000000000E+00  0.58791135083E+03  0.29310060987E+04  0.28714381404E+04 0.  0.
        5    1    3    3  502    0  0.10589671829E+03 -0.14228398566E+04  0.45721038274E+03  0.14982492438E+04  0.46999998093E+01 0.  1.
       -5    1    3    3    0  502 -0.10589671829E+03  0.14228398566E+04  0.13070096809E+03  0.14327568550E+04  0.46999998093E+01 0. -1.
</event>
<event>
 5   0  0.9360689E-06  0.2913902E+04  0.7818609E-02  0.8268753E-01
       -2   -1    0    0    0  501  0.00000000000E+00  0.00000000000E+00  0.98606332585E+03  0.98606332585E+03  0.25500000920E-02 0.  1.
        2   -1    0    0  501    0  0.00000000000E+00  0.00000000000E+00 -0.21527071592E+04  0.21527071592E+04  0.25500000920E-02 0. -1.
    10030    2    1    2    0    0  0.00000000000E+00  0.00000000000E+00 -0.11666438334E+04  0.31387704851E+04  0.29139015639E+04 0.  0.
        5    1    3    3  502    0  0.77398023913E+03  0.36886982132E+03  0.68553492301E+03  0.10977661756E+04  0.46999998093E+01 0.  1.
       -5    1    3    3    0  502 -0.77398023913E+03 -0.36886982132E+03 -0.18521787564E+04  0.20410043095E+04  0.46999998093E+01 0. -1.
</event>
<event>
 5   0  0.9360689E-06  0.2892612E+04  0.7818609E-02  0.8275079E-01
        2   -1    0    0  501    0  0.00000000000E+00  0.00000000000E+00  0.12835029320E+04  0.12835029320E+04  0.25500000920E-02 0.  1.
       -2   -1    0    0    0  501  0.00000000000E+00  0.00000000000E+00 -0.16297596786E+04  0.16297596786E+04  0.25500000920E-02 0. -1.
    10030    2    1    2    0    0  0.00000000000E+00  0.00000000000E+00 -0.34625674658E+03  0.29132626107E+04  0.28926121939E+04 0.  0.
        5    1    3    3  502    0 -0.12671137414E+04 -0.28144233816E+03  0.46938544486E+03  0.13802651228E+04  0.46999998093E+01 0.  1.
       -5    1    3    3    0  502  0.12671137414E+04  0.28144233816E+03 -0.81564219144E+03  0.15329974879E+04  0.46999998093E+01 0. -1.
</event>
<event>
 5   0  0.9505359E-06  0.2790162E+04  0.7818609E-02  0.8306329E-01
        2   -1    0    0  501    0  0.00000000000E+00  0.00000000000E+00  0.10594863598E+04  0.10594863598E+04  0.25500000920E-02 0. -1.
       -2   -1    0    0    0  501  0.00000000000E+00  0.00000000000E+00 -0.18369762418E+04  0.18369762418E+04  0.25500000920E-02 0.  1.
    10030    2    1    2    0    0  0.00000000000E+00  0.00000000000E+00 -0.77748988200E+03  0.28964626015E+04  0.27901621970E+04 0.  0.
        4    1    3    3  502    0 -0.72283565846E+03 -0.89874388764E+03 -0.12035150132E+04  0.16669379006E+04  0.12699999809E+01 0.  1.
       -4    1    3    3    0  502  0.72283565846E+03  0.89874388764E+03  0.42602513120E+03  0.12295247009E+04  0.12699999809E+01 0. -1.
</event>
<event>
 5   0  0.3746518E-06  0.2829977E+04  0.7818609E-02  0.8294022E-01
       -1   -1    0    0    0  501  0.00000000000E+00  0.00000000000E+00  0.75367057741E+03  0.75367057743E+03  0.50400001928E-02 0.  1.
        1   -1    0    0  501    0  0.00000000000E+00  0.00000000000E+00 -0.26565888643E+04  0.26565888643E+04  0.50400001928E-02 0. -1.
    10030    2    1    2    0    0  0.00000000000E+00  0.00000000000E+00 -0.19029182869E+04  0.34102594418E+04  0.28299772885E+04 0.  0.
        4    1    3    3  502    0  0.46791952376E+03  0.13184314247E+04 -0.12070349486E+04  0.18477405344E+04  0.12699999809E+01 0. -1.
       -4    1    3    3    0  502 -0.46791952376E+03 -0.13184314247E+04 -0.69588333833E+03  0.15625189074E+04  0.12699999809E+01 0.  1.
</event>
<event>
 5   0  0.3649705E-06  0.2956004E+04  0.7818609E-02  0.8256407E-01
       -1   -1    0    0    0  501  0.00000000000E+00  0.00000000000E+00  0.93073235244E+03  0.93073235245E+03  0.50400001928E-02 0.  1.
        1   -1    0    0  501    0  0.00000000000E+00  0.00000000000E+00 -0.23470658540E+04  0.23470658540E+04  0.50400001928E-02 0. -1.
    10030    2    1    2    0    0  0.00000000000E+00  0.00000000000E+00 -0.14163335016E+04  0.32777982065E+04  0.29560041432E+04 0.  0.
        2    1    3    3  502    0  0.12461240519E+04 -0.41493764446E+03  0.43483870445E+02  0.13141115815E+04  0.25500000920E-02 0.  1.
       -2    1    3    3    0  502 -0.12461240519E+04  0.41493764446E+03 -0.14598173720E+04  0.19636866250E+04  0.25500000920E-02 0. -1.
</event>
<event>
 5   0  0.9251510E-06  0.2918749E+04  0.7818609E-02  0.8267321E-01
       -2   -1    0    0    0  501  0.00000000000E+00  0.00000000000E+00  0.11582672245E+04  0.11582672245E+04  0.25500000920E-02 0. -1.
        2   -1    0    0  501    0  0.00000000000E+00  0.00000000000E+00 -0.18387585517E+04  0.18387585517E+04  0.25500000920E-02 0.  1.
    10030    2    1    2    0    0  0.00000000000E+00  0.00000000000E+00 -0.68049132721E+03  0.29970257762E+04  0.29187488856E+04 0.  0.
        2    1    3    3  502    0  0.68904632341E+03  0.11680111967E+04 -0.89390830792E+03  0.16242250627E+04  0.25500000920E-02 0. -1.
       -2    1    3    3    0  502 -0.68904632341E+03 -0.11680111967E+04  0.21341698070E+03  0.13728007135E+04  0.25500000920E-02 0.  1.
</event>
<event>
 5   0  0.3649705E-06  0.2704984E+04  0.7818609E-02  0.8333390E-01
        1   -1    0    0  501    0  0.00000000000E+00  0.00000000000E+00  0.12782700520E+04  0.12782700520E+04  0.50400001928E-02 0. -1.
       -1   -1    0    0    0  501  0.00000000000E+00  0.00000000000E+00 -0.14310237923E+04  0.14310237923E+04  0.50400001928E-02 0.  1.
    10030    2    1    2    0    0  0.00000000000E+00  0.00000000000E+00 -0.15275374028E+03  0.27092938443E+04  0.27049841829E+04 0.  0.
        2    1    3    3  502    0 -0.33174326918E+02  0.13373731945E+04 -0.27560899625E+03  0.13658799054E+04  0.25500000920E-02 0.  1.
       -2    1    3    3    0  502  0.33174326918E+02 -0.13373731945E+04  0.12285525598E+03  0.13434139389E+04  0.25500000920E-02 0. -1.
</event>
<event>
 5   0  0.9646321E-06  0.2857753E+04  0.7818609E-02  0.8285559E-01
        2   -1    0    0  501    0  0.00000000000E+00  0.00000000000E+00  0.23083155791E+04  0.23083155791E+04  0.25500000920E-02 0. -1.
       -2   -1    0    0    0  501  0.00000000000E+00  0.00000000000E+00 -0.88449279975E+03  0.88449279975E+03  0.25500000920E-02 0.  1.
    10030    2    1    2    0    0  0.00000000000E+00  0.00000000000E+00  0.14238227794E+04  0.31928083789E+04  0.28577533198E+04 0.  0.
        3    1    3    3  502    0  0.10443910897E+04  0.90286326960E+03  0.30023506596E+03  0.14128184374E+04  0.10100000352E+00 0.  1.
       -3    1    3    3    0  502 -0.10443910897E+04 -0.90286326960E+03  0.11235877134E+04  0.17799899415E+04  0.10100000352E+00 0. -1.
</event>
<event>
 5   0  0.9360689E-06  0.3146430E+04  0.7818609E-02  0.8203110E-01
        2   -1    0    0  501    0  0.00000000000E+00  0.00000000000E+00  0.14960792271E+04  0.14960792271E+04  0.25500000920E-02 0. -1.
       -2   -1    0    0    0  501  0.00000000000E+00  0.00000000000E+00 -0.16543281848E+04  0.16543281848E+04  0.25500000920E-02 0.  1.
    10030    2    1    2    0    0  0.00000000000E+00  0.00000000000E+00 -0.15824895766E+03  0.31504074119E+04  0.31464303788E+04 0.  0.
        5    1    3    3  502    0 -0.43795340957E+03  0.48262727036E+03 -0.15128043285E+04  0.16472192621E+04  0.46999998093E+01 0.  1.
       -5    1    3    3    0  502  0.43795340957E+03 -0.48262727036E+03  0.13545553708E+04  0.15031881498E+04  0.46999998093E+01 0. -1.
</event>
<event>
 5   0  0.3486236E-06  0.2863771E+04  0.7818609E-02  0.8283739E-01
       -1   -1    0    0    0  501  0.00000000000E+00  0.00000000000E+00  0.87046423681E+03  0.87046423682E+03  0.50400001928E-02 0.  1.
        1   -1    0    0  501    0  0.00000000000E+00  0.00000000000E+00 -0.23554047328E+04  0.23554047328E+04  0.50400001928E-02 0. -1.
    10030    2    1    2    0    0  0.00000000000E+00  0.00000000000E+00 -0.14849404960E+04  0.32258689696E+04  0.28637706494E+04 0.  0.
        5    1    3    3  502    0  0.13369637751E+04 -0.37996707285E+03 -0.11301139370E+04  0.17913756482E+04  0.46999998093E+01 0. -1.
       -5    1    3    3    0  502 -0.13369637751E+04  0.37996707285E+03 -0.35482655903E+03  0.14344933215E+04  0.46999998093E+01 0.  1.
</event>
<event>
 5   0  0.3474078E-06  0.2883295E+04  0.7818609E-02  0.8277865E-01
       -1   -1    0    0    0  501  0.00000000000E+00  0.00000000000E+00  0.12338031349E+04  0.12338031349E+04  0.50400001928E-02 0. -1.
        1   -1    0    0  501    0  0.00000000000E+00  0.00000000000E+00 -0.16845046874E+04  0.16845046874E+04  0.50400001928E-02 0.  1.
    10030    2    1    2    0    0  0.00000000000E+00  0.00000000000E+00 -0.45070155253E+03  0.29183078223E+04  0.28832947571E+04 0.  0.
        3    1    3    3  502    0  0.72166869991E+03 -0.13295598144E+03 -0.14813323293E+04  0.16531268812E+04  0.10100000352E+00 0.  1.
       -3    1    3    3    0  502 -0.72166869991E+03  0.13295598144E+03  0.10306307768E+04  0.12651809411E+04  0.10100000352E+00 0. -1.
</event>
<event>
 5   0  0.9646321E-06  0.2337192E+04  0.7818609E-02  0.8463400E-01
        2   -1    0    0  501    0  0.00000000000E+00  0.00000000000E+00  0.10804029922E+04  0.10804029922E+04  0.25500000920E-02 0.  1.
       -2   -1    0    0    0  501  0.00000000000E+00  0.00000000000E+00 -0.12639880331E+04  0.12639880331E+04  0.25500000920E-02 0. -1.
    10030    2    1    2    0    0  0.00000000000E+00  0.00000000000E+00 -0.18358504090E+03  0.23443910254E+04  0.23371918647E+04 0.  0.
        3    1    3    3  502    0  0.24346584059E+02 -0.74726996790E+03 -0.99267435583E+03  0.12427419475E+04  0.10100000352E+00 0. -1.
       -3    1    3    3    0  502 -0.24346584059E+02  0.74726996790E+03  0.80908931493E+03  0.11016490779E+04  0.10100000352E+00 0.  1.
</event>
<event>
 5   0  0.1001573E-05  0.3010512E+04  0.7818609E-02  0.8240735E-01
        2   -1    0    0  501    0  0.00000000000E+00  0.00000000000E+00  0.12328849234E+04  0.12328849234E+04  0.25500000920E-02 0.  1.
       -2   -1    0    0    0  501  0.00000000000E+00  0.00000000000E+00 -0.18378003280E+04  0.18378003280E+04  0.25500000920E-02 0. -1.
    10030    2    1    2    0    0  0.00000000000E+00  0.00000000000E+00 -0.60491540464E+03  0.30706852514E+04  0.30105124591E+04 0.  0.
        1    1    3    3  502    0 -0.11634153784E+03 -0.21740862188E+03  0.12121446428E+04  0.12369706939E+04  0.50400001928E-02 0.  1.
       -1    1    3    3    0  502  0.11634153784E+03  0.21740862188E+03 -0.18170600475E+04  0.18337145575E+04  0.50400001928E-02 0. -1.
</event>
<event>
 5   0  0.1001573E-05  0.2888410E+04  0.7818609E-02  0.8276334E-01
       -2   -1    0    0    0  501  0.00000000000E+00  0.00000000000E+00  0.10587957089E+04  0.10587957089E+04  0.25500000920E-02 0. -1.
        2   -1    0    0  501    0  0.00000000000E+00  0.00000000000E+00 -0.19699065462E+04  0.19699065462E+04  0.25500000920E-02 0.  1.
    10030    2    1    2    0    0  0.00000000000E+00  0.00000000000E+00 -0.91111083736E+03  0.30287022551E+04  0.28884103573E+04 0.  0.
        1    1    3    3  502    0  0.12661381711E+03 -0.13522799261E+04 -0.97035612046E+03  0.16692163005E+04  0.50400001928E-02 0.  1.
       -1    1    3    3    0  502 -0.12661381711E+03  0.13522799261E+04  0.59245283093E+02  0.13594859546E+04  0.50400001928E-02 0. -1.
</event>
<event>
 5   0  0.9251510E-06  0.2830590E+04  0.7818609E-02  0.8293834E-01
        2   -1    0    0  501    0  0.00000000000E+00  0.00000000000E+00  0.13192811435E+04  0.13192811435E+04  0.25500000920E-02 0.  1.
       -2   -1    0    0    0  501  0.00000000000E+00  0.00000000000E+00 -0.15182966218E+04  0.15182966218E+04  0.25500000920E-02 0. -1.
    10030    2    1    2    0    0  0.00000000000E+00  0.00000000000E+00 -0.19901547826E+03  0.28375777653E+04  0.28305901176E+04 0.  0.
        2    1    3    3  502    0  0.50598025475E+03 -0.73860386239E+03  0.99933159131E+03  0.13417210266E+04  0.25500000920E-02 0.  1.
       -2    1    3    3    0  502 -0.50598025475E+03  0.73860386239E+03 -0.11983470696E+04  0.14958567388E+04  0.25500000920E-02 0. -1.
</event>
<event>
 5   0  0.3564340E-06  0.2867926E+04  0.7818609E-02  0.8282485E-01
        1   -1    0    0  501    0  0.00000000000E+00  0.00000000000E+00  0.18351188906E+04  0.18351188906E+04  0.50400001928E-02 0.  1.
       -1   -1    0    0    0  501  0.00000000000E+00  0.00000000000E+00 -0.11204998388E+04  0.11204998388E+04  0.50400001928E-02 0. -1.
    10030    2    1    2    0    0  0.00000000000E+00  0.00000000000E+00  0.71461905182E+03  0.29556187294E+04  0.28679263736E+04 0.  0.
        1    1    3    3  502    0  0.35158705625E+03  0.13164295822E+04  0.81779421843E+03  0.15891468424E+04  0.50400001928E-02 0.  1.
       -1    1    3    3    0  502 -0.35158705625E+03 -0.13164295822E+04 -0.10317516660E+03  0.13664718870E+04  0.50400001928E-02 0. -1.
</event>
<event>
 5   0  0.1001573E-05  0.2899583E+04  0.7818609E-02  0.8273002E-01
        2   -1    0    0  501    0  0.00000000000E+00  0.00000000000E+00  0.19731313685E+04  0.19731313685E+04  0.25500000920E-02 0.  1.
       -2   -1    0    0    0  501  0.00000000000E+00  0.00000000000E+00 -0.10652583738E+04  0.10652583738E+04  0.25500000920E-02 0. -1.
    10030    2    1    2    0    0  0.00000000000E+00  0.00000000000E+00  0.90787299464E+03  0.30383897423E+04  0.28995825306E+04 0.  0.
        1    1    3    3  502    0 -0.10786865330E+04  0.54746373823E+03  0.12913251374E+04  0.17694071865E+04  0.50400001928E-02 0.  1.
       -1    1    3    3    0  502  0.10786865330E+04 -0.54746373823E+03 -0.38345214271E+03  0.12689825558E+04  0.50400001928E-02 0. -1.
</event>
<event>
 5   0  0.9505359E-06  0.2917618E+04  0.7818609E-02  0.8267655E-01
       -2   -1    0    0    0  501  0.00000000000E+00  0.00000000000E+00  0.15012299320E+04  0.15012299320E+04  0.25500000920E-02 0.  1.
        2   -1    0    0  501    0  0.00000000000E+00  0.00000000000E+00 -0.14175863640E+04  0.14175863640E+04  0.25500000920E-02 0. -1.
    10030    2    1    2    0    0  0.00000000000E+00  0.00000000000E+00  0.83643568012E+02  0.29188162959E+04  0.29176175765E+04 0.  0.
        4    1    3    3  502    0  0.43306147421E+03  0.17700819457E+02  0.14353283588E+04  0.14993414121E+04  0.12699999809E+01 0.  1.
       -4    1    3    3    0  502 -0.43306147421E+03 -0.17700819457E+02 -0.13516847908E+04  0.14194748839E+04  0.12699999809E+01 0. -1.
</event>
<event>
 5   0  0.9646321E-06  0.2937357E+04  0.7818609E-02  0.8261849E-01
       -2   -1    0    0    0  501  0.00000000000E+00  0.00000000000E+00  0.93867905236E+03  0.93867905237E+03  0.25500000920E-02 0. -1.
        2   -1    0    0  501    0  0.00000000000E+00  0.00000000000E+00 -0.22979282900E+04  0.22979282900E+04  0.25500000920E-02 0.  1.
    10030    2    1    2    0    0  0.00000000000E+00  0.00000000000E+00 -0.13592492376E+04  0.32366073424E+04  0.29373574176E+04 0.  0.
        3    1    3    3  502    0 -0.34262591990E+03 -0.97989050527E+03  0.46518248672E+03  0.11375291994E+04  0.10100000352E+00 0. -1.
       -3    1    3    3    0  502  0.34262591990E+03  0.97989050527E+03 -0.18244317244E+04  0.20990781430E+04  0.10100000352E+00 0.  1.
</event>
<event>
 5   0  0.3486236E-06  0.2834292E+04  0.7818609E-02  0.8292701E-01
        1   -1    0    0  501    0  0.00000000000E+00  0.00000000000E+00  0.21399669747E+04  0.21399669747E+04  0.50400001928E-02 0. -1.
       -1   -1    0    0    0  501  0.00000000000E+00  0.00000000000E+00 -0.93847361437E+03  0.93847361438E+03  0.50400001928E-02 0.  1.
    10030    2    1    2    0    0  0.00000000000E+00  0.00000000000E+00  0.12014933603E+04  0.30784405891E+04  0.28342918279E+04 0.  0.
        5    1    3    3  502    0  0.23844954126E+02  0.12970475124E+04  0.12203038480E+04  0.17810290292E+04  0.46999998093E+01 0. -1.
       -5    1    3    3    0  502 -0.23844954126E+02 -0.12970475124E+04 -0.18810487682E+02  0.12974115599E+04  0.46999998093E+01 0.  1.
</event>
<event>
 5   0  0.3649705E-06  0.2872849E+04  0.7818609E-02  0.8281002E-01
       -1   -1    0    0    0  501  0.00000000000E+00  0.00000000000E+00  0.12289071389E+04  0.12289071389E+04  0.50400001928E-02 0.  1.
        1   -1    0    0  501    0  0.00000000000E+00  0.00000000000E+00 -0.16789839085E+04  0.16789839085E+04  0.50400001928E-02 0. -1.
    10030    2    1    2    0    0  0.00000000000E+00  0.00000000000E+00 -0.45007676963E+03  0.29078910474E+04  0.28728489771E+04 0.  0.
        2    1    3    3  502    0  0.89588294579E+03  0.99736679455E+03  0.29697358972E+03  0.13731496963E+04  0.25500000920E-02 0.  1.
       -2    1    3    3    0  502 -0.89588294579E+03 -0.99736679455E+03 -0.74705035935E+03  0.15347413511E+04  0.25500000920E-02 0. -1.
</event>
<event>
 5   0  0.1001573E-05  0.2941551E+04  0.7818609E-02  0.8260621E-01
        2   -1    0    0  501    0  0.00000000000E+00  0.00000000000E+00  0.11309147771E+04  0.11309147771E+04  0.25500000920E-02 0. -1.
       -2   -1    0    0    0  501  0.00000000000E+00  0.00000000000E+00 -0.19127708585E+04  0.19127708585E+04  0.25500000920E-02 0.  1.
    10030    2    1    2    0    0  0.00000000000E+00  0.00000000000E+00 -0.78185608148E+03  0.30436856356E+04  0.29415511752E+04 0.  0.
        1    1    3    3  502    0 -0.34255936947E+03  0.65675994677E+03 -0.17056758282E+04  0.18595726875E+04  0.50400001928E-02 0.  1.
       -1    1    3    3    0  502  0.34255936947E+03 -0.65675994677E+03  0.92381974673E+03  0.11841129481E+04  0.50400001928E-02 0. -1.
</event>
<event>
 5   0  0.9505359E-06  0.2830748E+04  0.7818609E-02  0.8293786E-01
        2   -1    0    0  501    0  0.00000000000E+00  0.00000000000E+00  0.23594823520E+04  0.23594823520E+04  0.25500000920E-02 0. -1.
       -2   -1    0    0    0  501  0.00000000000E+00  0.00000000000E+00 -0.84903496929E+03  0.84903496929E+03  0.25500000920E-02 0.  1.
    10030    2    1    2    0    0  0.00000000000E+00  0.00000000000E+00  0.15104473827E+04  0.32085173213E+04  0.28307476230E+04 0.  0.
        4    1    3    3  502    0  0.17293924887E+03 -0.57038091598E+03  0.22103040706E+04  0.22892549161E+04  0.12699999809E+01 0. -1.
       -4    1    3    3    0  502 -0.17293924887E+03  0.57038091598E+03 -0.69985668793E+03  0.91926240522E+03  0.12699999809E+01 0.  1.
</event>
<event>
 5   0  0.9646321E-06  0.2962930E+04  0.7818609E-02  0.8254396E-01
        2   -1    0    0  501    0  0.00000000000E+00  0.00000000000E+00  0.18273342002E+04  0.18273342002E+04  0.25500000920E-02 0.  1.
       -2   -1    0    0    0  501  0.00000000000E+00  0.00000000000E+00 -0.12010606536E+04  0.12010606536E+04  0.25500000920E-02 0. -1.
    10030    2    1    2    0    0  0.00000000000E+00  0.00000000000E+00  0.62627354659E+03  0.30283948537E+04  0.29629304472E+04 0.  0.
        3    1    3    3  502    0 -0.13082364461E+04 -0.68589080486E+03  0.42882054620E+03  0.15381208880E+04  0.10100000352E+00 0.  1.
       -3    1    3    3    0  502  0.13082364461E+04  0.68589080486E+03  0.19745300039E+03  0.14902739657E+04  0.10100000352E+00 0. -1.
</event>
<event>
 5   0  0.3564340E-06  0.2895594E+04  0.7818609E-02  0.8274190E-01
        1   -1    0    0  501    0  0.00000000000E+00  0.00000000000E+00  0.23747689139E+04  0.23747689139E+04  0.50400001928E-02 0. -1.
       -1   -1    0    0    0  501  0.00000000000E+00  0.00000000000E+00 -0.88266091906E+03  0.88266091908E+03  0.50400001928E-02 0.  1.
    10030    2    1    2    0    0  0.00000000000E+00  0.00000000000E+00  0.14921079949E+04  0.32574298330E+04  0.28955936954E+04 0.  0.
        1    1    3    3  502    0 -0.12001749938E+04 -0.56228068040E+03  0.14015656950E+04  0.19289805538E+04  0.50400001928E-02 0. -1.
       -1    1    3    3    0  502  0.12001749938E+04  0.56228068040E+03  0.90542299827E+02  0.13284492792E+04  0.50400001928E-02 0.  1.
</event>
<event>
 5   0  0.9251510E-06  0.2923263E+04  0.7818609E-02  0.8265990E-01
        2   -1    0    0  501    0  0.00000000000E+00  0.00000000000E+00  0.22189791406E+04  0.22189791406E+04  0.25500000920E-02 0. -1.
       -2   -1    0    0    0  501  0.00000000000E+00  0.00000000000E+00 -0.96277007513E+03  0.96277007513E+03  0.25500000920E-02 0.  1.
    10030    2    1    2    0    0  0.00000000000E+00  0.00000000000E+00  0.12562090654E+04  0.31817492157E+04  0.29232630493E+04 0.  0.
        2    1    3    3  502    0 -0.53682657331E+03 -0.13590276621E+04  0.58996684235E+03  0.15758171947E+04  0.25500000920E-02 0. -1.
       -2    1    3    3    0  502  0.53682657331E+03  0.13590276621E+04  0.66624222308E+03  0.16059320210E+04  0.25500000920E-02 0.  1.
</event>
<event>
 5   0  0.3564340E-06  0.2715569E+04  0.7818609E-02  0.8329971E-01
        1   -1    0    0  501    0  0.00000000000E+00  0.00000000000E+00  0.16723847754E+04  0.16723847754E+04  0.50400001928E-02 0.  1.
       -1   -1    0    0    0  501  0.00000000000E+00  0.00000000000E+00 -0.11023654899E+04  0.11023654899E+04  0.50400001928E-02 0. -1.
    10030    2    1    2    0    0  0.00000000000E+00  0.00000000000E+00  0.57001928553E+03  0.27747502653E+04  0.27155693784E+04 0.  0.
        1    1    3    3  502    0  0.14842476148E+03  0.20132024186E+03  0.16486421245E+04  0.16675073026E+04  0.50400001928E-02 0.  1.
       -1    1    3    3    0  502 -0.14842476148E+03 -0.20132024186E+03 -0.10786228390E+04  0.11072429627E+04  0.50400001928E-02 0. -1.
</event>
<event>
 5   0  0.3649705E-06  0.2866001E+04  0.7818609E-02  0.8283066E-01
       -1   -1    0    0    0  501  0.00000000000E+00  0.00000000000E+00  0.97930493605E+03  0.97930493607E+03  0.50400001928E-02 0. -1.
        1   -1    0    0  501    0  0.00000000000E+00  0.00000000000E+00 -0.20968857945E+04  0.20968857945E+04  0.50400001928E-02 0.  1.
    10030    2    1    2    0    0  0.00000000000E+00  0.00000000000E+00 -0.11175808584E+04  0.30761907305E+04  0.28660011227E+04 0.  0.
        2    1    3    3  502    0  0.13021247382E+04  0.59795032163E+03 -0.58071357123E+03  0.15460600482E+04  0.25500000920E-02 0. -1.
       -2    1    3    3    0  502 -0.13021247382E+04 -0.59795032163E+03 -0.53686728718E+03  0.15301306823E+04  0.25500000920E-02 0.  1.
</event>
<event>
 5   0  0.9360689E-06  0.2843890E+04  0.7818609E-02  0.8289770E-01
        2   -1    0    0  501    0  0.00000000000E+00  0.00000000000E+00  0.14014396249E+04  0.14014396249E+04  0.25500000920E-02 0.  1.
       -2   -1    0    0    0  501  0.00000000000E+00  0.00000000000E+00 -0.14427499686E+04  0.14427499686E+04  0.25500000920E-02 0. -1.
    10030    2    1    2    0    0  0.00000000000E+00  0.00000000000E+00 -0.41310343655E+02  0.28441895936E+04  0.28438895723E+04 0.  0.
        5    1    3    3  502    0 -0.44936977522E+03  0.10986709071E+04 -0.80361318564E+03  0.14334668462E+04  0.46999998093E+01 0. -1.
       -5    1    3    3    0  502  0.44936977522E+03 -0.10986709071E+04  0.76230284199E+03  0.14107227474E+04  0.46999998093E+01 0.  1.
</event>
<event>
 5   0  0.3564340E-06  0.2863138E+04  0.7818609E-02  0.8283930E-01
        1   -1    0    0  501    0  0.00000000000E+00  0.00000000000E+00  0.14933942883E+04  0.14933942883E+04  0.50400001928E-02 0.  1.
       -1   -1    0    0    0  501  0.00000000000E+00  0.00000000000E+00 -0.13723030134E+04  0.13723030134E+04  0.50400001928E-02 0. -1.
    10030    2    1    2    0    0  0.00000000000E+00  0.00000000000E+00  0.12109127490E+03  0.28656973016E+04  0.28631377766E+04 0.  0.
        1    1    3    3  502    0  0.22305529826E+03  0.10054247244E+04 -0.93470586042E+03  0.13907938697E+04  0.50400001928E-02 0. -1.
       -1    1    3    3    0  502 -0.22305529826E+03 -0.10054247244E+04  0.10557971353E+04  0.14749034319E+04  0.50400001928E-02 0.  1.
</event>
<event>
 5   0  0.9505359E-06  0.2702130E+04  0.7818609E-02  0.8334314E-01
       -2   -1    0    0    0  501  0.00000000000E+00  0.00000000000E+00  0.10961495817E+04  0.10961495817E+04  0.25500000920E-02 0.  1.
        2   -1    0    0  501    0  0.00000000000E+00  0.00000000000E+00 -0.16652621975E+04  0.16652621975E+04  0.25500000920E-02 0. -1.
    10030    2    1    2    0    0  0.00000000000E+00  0.00000000000E+00 -0.56911261580E+03  0.27614117792E+04  0.27021298719E+04 0.  0.
        4    1    3    3  502    0  0.78532855268E+03 -0.10795100915E+04 -0.49718807667E+03  0.14245281920E+04  0.12699999809E+01 0.  1.
       -4    1    3    3    0  502 -0.78532855268E+03  0.10795100915E+04 -0.71924539122E+02  0.13368835871E+04  0.12699999809E+01 0. -1.
</event>
<event>
 5   0  0.3188375E-06  0.2864637E+04  0.7818609E-02  0.8283477E-01
        3   -1    0    0  501    0  0.00000000000E+00  0.00000000000E+00  0.19275706979E+04  0.19275707005E+04  0.10100000352E+00 0. -1.
       -3   -1    0    0    0  501  0.00000000000E+00  0.00000000000E+00 -0.10643119499E+04  0.10643119547E+04  0.10100000352E+00 0.  1.
    10030    2    1    2    0    0  0.00000000000E+00  0.00000000000E+00  0.86325874802E+03  0.29918826552E+04  0.28646371771E+04 0.  0.
        2    1    3    3  502    0  0.32557008619E+03 -0.11826836674E+04 -0.34067622885E+03  0.12731051924E+04  0.25500000920E-02 0. -1.
       -2    1    3    3    0  502 -0.32557008619E+03  0.11826836674E+04  0.12039349769E+04  0.17187774628E+04  0.25500000920E-02 0.  1.
</event>
<event>
 5   0  0.9646321E-06  0.2739846E+04  0.7818609E-02  0.8322191E-01
        2   -1    0    0  501    0  0.00000000000E+00  0.00000000000E+00  0.29118181167E+04  0.29118181167E+04  0.25500000920E-02 0.  1.
       -2   -1    0    0    0  501  0.00000000000E+00  0.00000000000E+00 -0.64450751126E+03  0.64450751126E+03  0.25500000920E-02 0. -1.
    10030    2    1    2    0    0  0.00000000000E+00  0.00000000000E+00  0.22673106055E+04  0.35563256280E+04  0.27398457239E+04 0.  0.
        3    1    3    3  502    0  0.55681427646E+03  0.87222683051E+03  0.22988729603E+04  0.25210392064E+04  0.10100000352E+00 0.  1.
       -3    1    3    3    0  502 -0.55681427646E+03 -0.87222683051E+03 -0.31562354822E+02  0.10352864216E+04  0.10100000352E+00 0. -1.
</event>
<event>
 5   0  0.9646321E-06  0.3109328E+04  0.7818609E-02  0.8213183E-01
       -2   -1    0    0    0  501  0.00000000000E+00  0.00000000000E+00  0.13948894568E+04  0.13948894568E+04  0.25500000920E-02 0. -1.
        2   -1    0    0  501    0  0.00000000000E+00  0.00000000000E+00 -0.17327397716E+04  0.17327397716E+04  0.25500000920E-02 0.  1.
    10030    2    1    2    0    0  0.00000000000E+00  0.00000000000E+00 -0.33785031482E+03  0.31276292285E+04  0.31093281840E+04 0.  0.
        3    1    3    3  502    0 -0.13404185151E+04 -0.75666234879E+03  0.50811344819E+02  0.15400784099E+04  0.10100000352E+00 0. -1.
       -3    1    3    3    0  502  0.13404185151E+04  0.75666234879E+03 -0.38866165964E+03  0.15875508186E+04  0.10100000352E+00 0.  1.
</event>
<event>
 5   0  0.3474078E-06  0.2690336E+04  0.7818609E-02  0.8338147E-01
       -1   -1    0    0    0  501  0.00000000000E+00  0.00000000000E+00  0.13267323824E+04  0.13267323824E+04  0.50400001928E-02 0. -1.
        1   -1    0    0  501    0  0.00000000000E+00  0.00000000000E+00 -0.13638598550E+04  0.13638598550E+04  0.50400001928E-02 0.  1.
    10030    2    1    2    0    0  0.00000000000E+00  0.00000000000E+00 -0.37127472588E+02  0.26905922373E+04  0.26903360642E+04 0.  0.
        3    1    3    3  502    0 -0.10403890020E+04  0.49757573575E+03 -0.71107904556E+03  0.13548521349E+04  0.10100000352E+00 0. -1.
       -3    1    3    3    0  502  0.10403890020E+04 -0.49757573575E+03  0.67395157297E+03  0.13357401024E+04  0.10100000352E+00 0.  1.
</event>
<event>
 5   0  0.9251510E-06  0.2869558E+04  0.7818609E-02  0.8281993E-01
        2   -1    0    0  501    0  0.00000000000E+00  0.00000000000E+00  0.13961779059E+04  0.13961779060E+04  0.25500000920E-02 0.  1.
       -2   -1    0    0    0  501  0.00000000000E+00  0.00000000000E+00 -0.14744474255E+04  0.14744474255E+04  0.25500000920E-02 0. -1.
    10030    2    1    2    0    0  0.00000000000E+00  0.00000000000E+00 -0.78269519516E+02  0.28706253314E+04  0.28695580976E+04 0.  0.
        2    1    3    3  502    0 -0.65932120000E+03  0.10873758598E+04  0.62556718584E+03  0.14171891226E+04  0.25500000920E-02 0.  1.
       -2    1    3    3    0  502  0.65932120000E+03 -0.10873758598E+04 -0.70383670535E+03  0.14534362088E+04  0.25500000920E-02 0. -1.
</event>
<event>
 5   0  0.9505359E-06  0.2910925E+04  0.7818609E-02  0.8269634E-01
       -2   -1    0    0    0  501  0.00000000000E+00  0.00000000000E+00  0.12883829499E+04  0.12883829499E+04  0.25500000920E-02 0.  1.
        2   -1    0    0  501    0  0.00000000000E+00  0.00000000000E+00 -0.16442094182E+04  0.16442094182E+04  0.25500000920E-02 0. -1.
    10030    2    1    2    0    0  0.00000000000E+00  0.00000000000E+00 -0.35582646835E+03  0.29325923681E+04  0.29109252004E+04 0.  0.
        4    1    3    3  502    0 -0.13560895833E+04  0.47182791079E+03  0.62123199039E+02  0.14371713329E+04  0.12699999809E+01 0.  1.
       -4    1    3    3    0  502  0.13560895833E+04 -0.47182791079E+03 -0.41794966739E+03  0.14954210353E+04  0.12699999809E+01 0. -1.
</event>
<event>
 5   0  0.9505359E-06  0.3007262E+04  0.7818609E-02  0.8241660E-01
        2   -1    0    0  501    0  0.00000000000E+00  0.00000000000E+00  0.22104431030E+04  0.22104431030E+04  0.25500000920E-02 0.  1.
       -2   -1    0    0    0  501  0.00000000000E+00  0.00000000000E+00 -0.10228291196E+04  0.10228291196E+04  0.25500000920E-02 0. -1.
    10030    2    1    2    0    0  0.00000000000E+00  0.00000000000E+00  0.11876139834E+04  0.32332722226E+04  0.30072615935E+04 0.  0.
        4    1    3    3  502    0  0.75785634863E+03 -0.17939960769E+03 -0.78908367404E+03  0.11086862144E+04  0.12699999809E+01 0. -1.
       -4    1    3    3    0  502 -0.75785634863E+03  0.17939960769E+03  0.19766976575E+04  0.21245860082E+04  0.12699999809E+01 0.  1.
</event>
<event>
 5   0  0.3746518E-06  0.2871704E+04  0.7818609E-02  0.8281346E-01
       -1   -1    0    0    0  501  0.00000000000E+00  0.00000000000E+00  0.10679984191E+04  0.10679984191E+04  0.50400001928E-02 0.  1.
        1   -1    0    0  501    0  0.00000000000E+00  0.00000000000E+00 -0.19304067609E+04  0.19304067609E+04  0.50400001928E-02 0. -1.
    10030    2    1    2    0    0  0.00000000000E+00  0.00000000000E+00 -0.86240834180E+03  0.29984051800E+04  0.28717042806E+04 0.  0.
        4    1    3    3  502    0  0.75629705216E+03  0.88077394159E+03 -0.13134221867E+04  0.17529482082E+04  0.12699999809E+01 0. -1.
       -4    1    3    3    0  502 -0.75629705216E+03 -0.88077394159E+03  0.45101384492E+03  0.12454569718E+04  0.12699999809E+01 0.  1.
</event>
<event>
 5   0  0.3474078E-06  0.2896396E+04  0.7818609E-02  0.8273951E-01
       -1   -1    0    0    0  501  0.00000000000E+00  0.00000000000E+00  0.10412745201E+04  0.10412745201E+04  0.50400001928E-02 0.  1.
        1   -1    0    0  501    0  0.00000000000E+00  0.00000000000E+00 -0.20141449001E+04  0.20141449001E+04  0.50400001928E-02 0. -1.
    10030    2    1    2    0    0  0.00000000000E+00  0.00000000000E+00 -0.97287038000E+03  0.30554194202E+04  0.28963962190E+04 0.  0.
        3    1    3    3  502    0  0.97721996697E+03  0.38173116718E+03 -0.15395442502E+04  0.18630281953E+04  0.10100000352E+00 0. -1.
       -3    1    3    3    0  502 -0.97721996697E+03 -0.38173116718E+03  0.56667387025E+03  0.11923912249E+04  0.10100000352E+00 0.  1.
</event>
<event>
 5   0  0.3564340E-06  0.2804775E+04  0.7818609E-02  0.8301787E-01
       -1   -1    0    0    0  501  0.00000000000E+00  0.00000000000E+00  0.23568017452E+04  0.23568017452E+04  0.50400001928E-02 0. -1.
        1   -1    0    0  501    0  0.00000000000E+00  0.00000000000E+00 -0.83447457885E+03  0.83447457886E+03  0.50400001928E-02 0.  1.
    10030    2    1    2    0    0  0.00000000000E+00  0.00000000000E+00  0.15223271663E+04  0.31912763240E+04  0.28047753163E+04 0.  0.
        1    1    3    3  502    0 -0.20267797695E+03 -0.23985277078E+03  0.23162855914E+04  0.23374744180E+04  0.50400001928E-02 0. -1.
       -1    1    3    3    0  502  0.20267797695E+03  0.23985277078E+03 -0.79395842506E+03  0.85380190603E+03  0.50400001928E-02 0.  1.
</event>
<event>
 5   0  0.3746518E-06  0.2774457E+04  0.7818609E-02  0.8311243E-01
       -1   -1    0    0    0  501  0.00000000000E+00  0.00000000000E+00  0.15862874225E+04  0.15862874225E+04  0.50400001928E-02 0.  1.
        1   -1    0    0  501    0  0.00000000000E+00  0.00000000000E+00 -0.12131485956E+04  0.12131485956E+04  0.50400001928E-02 0. -1.
    10030    2    1    2    0    0  0.00000000000E+00  0.00000000000E+00  0.37313882690E+03  0.27994360182E+04  0.27744566019E+04 0.  0.
        4    1    3    3  502    0 -0.12951206421E+03 -0.14369529491E+03  0.15726106376E+04  0.15844644341E+04  0.12699999809E+01 0.  1.
       -4    1    3    3    0  502  0.12951206421E+03  0.14369529491E+03 -0.11994718107E+04  0.12149715841E+04  0.12699999809E+01 0. -1.
</event>
<event>
 5   0  0.3564340E-06  0.2959487E+04  0.7818609E-02  0.8255395E-01
       -1   -1    0    0    0  501  0.00000000000E+00  0.00000000000E+00  0.97346487615E+03  0.97346487617E+03  0.50400001928E-02 0. -1.
        1   -1    0    0  501    0  0.00000000000E+00  0.00000000000E+00 -0.22493267530E+04  0.22493267530E+04  0.50400001928E-02 0.  1.
    10030    2    1    2    0    0  0.00000000000E+00  0.00000000000E+00 -0.12758618769E+04  0.32227916292E+04  0.29594868400E+04 0.  0.
        1    1    3    3  502    0  0.10928263954E+04 -0.98057976437E+03 -0.43762447972E+03  0.15320970563E+04  0.50400001928E-02 0. -1.
       -1    1    3    3    0  502 -0.10928263954E+04  0.98057976437E+03 -0.83823739715E+03  0.16906945729E+04  0.50400001928E-02 0.  1.
</event>
<event>
 5   0  0.9251510E-06  0.2950848E+04  0.7818609E-02  0.8257907E-01
        2   -1    0    0  501    0  0.00000000000E+00  0.00000000000E+00  0.12920393273E+04  0.12920393273E+04  0.25500000920E-02 0. -1.
       -2   -1    0    0    0  501  0.00000000000E+00  0.00000000000E+00 -0.16848374344E+04  0.16848374344E+04  0.25500000920E-02 0.  1.
    10030    2    1    2    0    0  0.00000000000E+00  0.00000000000E+00 -0.39279810707E+03  0.29768767617E+04  0.29508481665E+04 0.  0.
        2    1    3    3  502    0 -0.71710392865E+03 -0.50903222807E+02 -0.14961920415E+04  0.16599457243E+04  0.25500000920E-02 0.  1.
       -2    1    3    3    0  502  0.71710392865E+03  0.50903222807E+02  0.11033939345E+04  0.13169310374E+04  0.25500000920E-02 0. -1.
</event>
<event>
 5   0  0.3746518E-06  0.2982525E+04  0.7818609E-02  0.8248739E-01
        1   -1    0    0  501    0  0.00000000000E+00  0.00000000000E+00  0.16263126987E+04  0.16263126987E+04  0.50400001928E-02 0.  1.
       -1   -1    0    0    0  501  0.00000000000E+00  0.00000000000E+00 -0.13674272237E+04  0.13674272237E+04  0.50400001928E-02 0. -1.
    10030    2    1    2    0    0  0.00000000000E+00  0.00000000000E+00  0.25888547494E+03  0.29937399224E+04  0.29825252780E+04 0.  0.
        4    1    3    3  502    0 -0.87461017946E+02  0.16736626765E+03 -0.13553766037E+04  0.13684693084E+04  0.12699999809E+01 0. -1.
       -4    1    3    3    0  502  0.87461017946E+02 -0.16736626765E+03  0.16142620787E+04  0.16252706140E+04  0.12699999809E+01 0.  1.
</event>
<event>
 5   0  0.9251510E-06  0.2685500E+04  0.7818609E-02  0.8339725E-01
       -2   -1    0    0    0  501  0.00000000000E+00  0.00000000000E+00  0.68598543321E+03  0.68598543321E+03  0.25500000920E-02 0.  1.
        2   -1    0    0  501    0  0.00000000000E+00  0.00000000000E+00 -0.26283028866E+04  0.26283028866E+04  0.25500000920E-02 0. -1.
    10030    2    1    2    0    0  0.00000000000E+00  0.00000000000E+00 -0.19423174534E+04  0.33142883199E+04  0.26854999492E+04 0.  0.
        2    1    3    3  502    0  0.63220003993E+03  0.20284028525E+03 -0.24115438560E+04  0.25012726443E+04  0.25500000920E-02 0. -1.
       -2    1    3    3    0  502 -0.63220003993E+03 -0.20284028525E+03  0.46922640256E+03  0.81301567554E+03  0.25500000920E-02 0.  1.
</event>
<event>
 5   0  0.3564340E-06  0.2912619E+04  0.7818609E-02  0.8269133E-01
       -1   -1    0    0    0  501  0.00000000000E+00  0.00000000000E+00  0.11458798398E+04  0.11458798398E+04  0.50400001928E-02 0. -1.
        1   -1    0    0  501    0  0.00000000000E+00  0.00000000000E+00 -0.18508378656E+04  0.18508378656E+04  0.50400001928E-02 0.  1.
    10030    2    1    2    0    0  0.00000000000E+00  0.00000000000E+00 -0.70495802576E+03  0.29967177054E+04  0.29126193002E+04 0.  0.
        1    1    3    3  502    0 -0.10660379742E+01  0.12042935610E+04  0.49001327103E+03  0.13001681135E+04  0.50400001928E-02 0. -1.
       -1    1    3    3    0  502  0.10660379742E+01 -0.12042935610E+04 -0.11949712968E+04  0.16965495919E+04  0.50400001928E-02 0.  1.
</event>
<event>
 5   0  0.3474078E-06  0.2908769E+04  0.7818609E-02  0.8270273E-01
       -1   -1    0    0    0  501  0.00000000000E+00  0.00000000000E+00  0.10344894619E+04  0.10344894619E+04  0.50400001928E-02 0.  1.
        1   -1    0    0  501    0  0.00000000000E+00  0.00000000000E+00 -0.20447125392E+04  0.20447125392E+04  0.50400001928E-02 0. -1.
    10030    2    1    2    0    0  0.00000000000E+00  0.00000000000E+00 -0.10102230773E+04  0.30792020011E+04  0.29087685191E+04 0.  0.
        3    1    3    3  502    0  0.14761551686E+03 -0.10511162432E+04  0.54742905281E+03  0.11942840012E+04  0.10100000352E+00 0.  1.
       -3    1    3    3    0  502 -0.14761551686E+03  0.10511162432E+04 -0.15576521301E+04  0.18849179998E+04  0.10100000352E+00 0. -1.
</event>
<event>
 5   0  0.9251510E-06  0.2770781E+04  0.7818609E-02  0.8312398E-01
        2   -1    0    0  501    0  0.00000000000E+00  0.00000000000E+00  0.28924124323E+04  0.28924124323E+04  0.25500000920E-02 0.  1.
       -2   -1    0    0    0  501  0.00000000000E+00  0.00000000000E+00 -0.66356598329E+03  0.66356598329E+03  0.25500000920E-02 0. -1.
    10030    2    1    2    0    0  0.00000000000E+00  0.00000000000E+00  0.22288464490E+04  0.35559784156E+04  0.27707807562E+04 0.  0.
        2    1    3    3  502    0  0.33511587344E+03  0.11348582357E+04  0.18976181256E+03  0.11984220497E+04  0.25500000920E-02 0. -1.
       -2    1    3    3    0  502 -0.33511587344E+03 -0.11348582357E+04  0.20390846365E+04  0.23575563659E+04  0.25500000920E-02 0.  1.
</event>
<event>
 5   0  0.1001573E-05  0.2927867E+04  0.7818609E-02  0.8264634E-01
       -2   -1    0    0    0  501  0.00000000000E+00  0.00000000000E+00  0.14562013155E+04  0.14562013155E+04  0.25500000920E-02 0. -1.
        2   -1    0    0  501    0  0.00000000000E+00  0.00000000000E+00 -0.14717064401E+04  0.14717064401E+04  0.25500000920E-02 0.  1.
    10030    2    1    2    0    0  0.00000000000E+00  0.00000000000E+00 -0.15505124661E+02  0.29279077556E+04  0.29278667006E+04 0.  0.
        1    1    3    3  502    0 -0.63354548653E+03 -0.88153493349E+03 -0.98991557520E+03  0.14691550526E+04  0.50400001928E-02 0.  1.
       -1    1    3    3    0  502  0.63354548653E+03  0.88153493349E+03  0.97441045053E+03  0.14587527030E+04  0.50400001928E-02 0. -1.
</event>
<event>
 5   0  0.9360689E-06  0.2914641E+04  0.7818609E-02  0.8268535E-01
       -2   -1    0    0    0  501  0.00000000000E+00  0.00000000000E+00  0.10681749767E+04  0.10681749767E+04  0.25500000920E-02 0.  1.
        2   -1    0    0  501    0  0.00000000000E+00  0.00000000000E+00 -0.19882352297E+04  0.19882352297E+04  0.25500000920E-02 0. -1.
    10030    2    1    2    0    0  0.00000000000E+00  0.00000000000E+00 -0.92006025301E+03  0.30564102064E+04  0.29146410552E+04 0.  0.
        5    1    3    3  502    0  0.53607366604E+03 -0.13060538187E+04 -0.81052205526E+02  0.14141227326E+04  0.46999998093E+01 0. -1.
       -5    1    3    3    0  502 -0.53607366604E+03  0.13060538187E+04 -0.83900804748E+03  0.16422874738E+04  0.46999998093E+01 0.  1.
</event>
<event>
 5   0  0.3746518E-06  0.2926250E+04  0.7818609E-02  0.8265110E-01
        1   -1    0    0  501    0  0.00000000000E+00  0.00000000000E+00  0.11646944445E+04  0.11646944446E+04  0.50400001928E-02 0. -1.
       -1   -1    0    0    0  501  0.00000000000E+00  0.00000000000E+00 -0.18380231842E+04  0.18380231842E+04  0.50400001928E-02 0.  1.
    10030    2    1    2    0    0  0.00000000000E+00  0.00000000000E+00 -0.67332873964E+03  0.30027176288E+04  0.29262504278E+04 0.  0.
        4    1    3    3  502    0 -0.12316194106E+04 -0.77840829249E+03 -0.19927024784E+03  0.14705495867E+04  0.12699999809E+01 0. -1.
       -4    1    3    3    0  502  0.12316194106E+04  0.77840829249E+03 -0.47405849180E+03  0.15321680420E+04  0.12699999809E+01 0.  1.
</event>
<event>
 5   0  0.3564340E-06  0.2925948E+04  0.7818609E-02  0.8265199E-01
       -1   -1    0    0    0  501  0.00000000000E+00  0.00000000000E+00  0.14807553888E+04  0.14807553888E+04  0.50400001928E-02 0. -1.
        1   -1    0    0  501    0  0.00000000000E+00  0.00000000000E+00 -0.14454065393E+04  0.14454065393E+04  0.50400001928E-02 0.  1.
    10030    2    1    2    0    0  0.00000000000E+00  0.00000000000E+00  0.35348849500E+02  0.29261619280E+04  0.29259484083E+04 0.  0.
        1    1    3    3  502    0 -0.12852495511E+04  0.51412045339E+03 -0.45575981808E+03  0.14573617468E+04  0.50400001928E-02 0. -1.
       -1    1    3    3    0  502  0.12852495511E+04 -0.51412045339E+03  0.49110866758E+03  0.14688001813E+04  0.50400001928E-02 0.  1.
</event>
<event>
 5   0  0.3474078E-06  0.2872442E+04  0.7818609E-02  0.8281124E-01
        1   -1    0    0  501    0  0.00000000000E+00  0.00000000000E+00  0.15902852939E+04  0.15902852939E+04  0.50400001928E-02 0.  1.
       -1   -1    0    0    0  501  0.00000000000E+00  0.00000000000E+00 -0.12970819348E+04  0.12970819348E+04  0.50400001928E-02 0. -1.
    10030    2    1    2    0    0  0.00000000000E+00  0.00000000000E+00  0.29320335911E+03  0.28873672286E+04  0.28724416971E+04 0.  0.
        3    1    3    3  502    0  0.63867021605E+03  0.61059243476E+00 -0.11464846857E+04  0.13123746273E+04  0.10100000352E+00 0. -1.
       -3    1    3    3    0  502 -0.63867021605E+03 -0.61059243476E+00  0.14396880448E+04  0.15749926013E+04  0.10100000352E+00 0.  1.
</event>
<event>
 5   0  0.9646321E-06  0.2933026E+04  0.7818609E-02  0.8263118E-01
       -2   -1    0    0    0  501  0.00000000000E+00  0.00000000000E+00  0.18011058427E+04  0.18011058427E+04  0.25500000920E-02 0. -1.
        2   -1    0    0  501    0  0.00000000000E+00  0.00000000000E+00 -0.11940780298E+04  0.11940780298E+04  0.25500000920E-02 0.  1.
    10030    2    1    2    0    0  0.00000000000E+00  0.00000000000E+00  0.60702781294E+03  0.29951838725E+04  0.29330263661E+04 0.  0.
        3    1    3    3  502    0  0.52810671441E+03 -0.13618457623E+04  0.43720948136E+03  0.15246877460E+04  0.10100000352E+00 0. -1.
       -3    1    3    3    0  502 -0.52810671441E+03  0.13618457623E+04  0.16981833158E+03  0.14704961265E+04  0.10100000352E+00 0.  1.
</event>
<event>
 5   0  0.9251510E-06  0.2869077E+04  0.7818609E-02  0.8282138E-01
        2   -1    0    0  501    0  0.00000000000E+00  0.00000000000E+00  0.19419661797E+04  0.19419661797E+04  0.25500000920E-02 0. -1.
       -2   -1    0    0    0  501  0.00000000000E+00  0.00000000000E+00 -0.10596997814E+04  0.10596997814E+04  0.25500000920E-02 0.  1.
    10030    2    1    2    0    0  0.00000000000E+00  0.00000000000E+00  0.88226639834E+03  0.30016659611E+04  0.28690772984E+04 0.  0.
        2    1    3    3  502    0 -0.64985503140E+03 -0.12435117896E+04  0.12854827967E+03  0.14089562778E+04  0.25500000920E-02 0.  1.
       -2    1    3    3    0  502  0.64985503140E+03  0.12435117896E+04  0.75371811866E+03  0.15927096832E+04  0.25500000920E-02 0. -1.
</event>
<event>
 5   0  0.3649705E-06  0.2833635E+04  0.7818609E-02  0.8292901E-01
       -1   -1    0    0    0  501  0.00000000000E+00  0.00000000000E+00  0.12670226282E+04  0.12670226282E+04  0.50400001928E-02 0.  1.
        1   -1    0    0  501    0  0.00000000000E+00  0.00000000000E+00 -0.15843222702E+04  0.15843222702E+04  0.50400001928E-02 0. -1.
    10030    2    1    2    0    0  0.00000000000E+00  0.00000000000E+00 -0.31729964204E+03  0.28513448985E+04  0.28336352389E+04 0.  0.
        2    1    3    3  502    0 -0.46525610739E+03 -0.82336003884E+03 -0.12202253201E+04  0.15438053086E+04  0.25500000920E-02 0. -1.
       -2    1    3    3    0  502  0.46525610739E+03  0.82336003884E+03  0.90292567804E+03  0.13075395899E+04  0.25500000920E-02 0.  1.
</event>
<event>
 5   0  0.3649705E-06  0.2907256E+04  0.7818609E-02  0.8270722E-01
       -1   -1    0    0    0  501  0.00000000000E+00  0.00000000000E+00  0.11358321733E+04  0.11358321733E+04  0.50400001928E-02 0. -1.
        1   -1    0    0  501    0  0.00000000000E+00  0.00000000000E+00 -0.18603402788E+04  0.18603402788E+04  0.50400001928E-02 0.  1.
    10030    2    1    2    0    0  0.00000000000E+00  0.00000000000E+00 -0.72450810548E+03  0.29961724521E+04  0.29072559859E+04 0.  0.
        2    1    3    3  502    0  0.13154477671E+04 -0.15060521544E+03  0.25605324253E+03  0.13485725868E+04  0.25500000920E-02 0. -1.
       -2    1    3    3    0  502 -0.13154477671E+04  0.15060521544E+03 -0.98056134801E+03  0.16475998653E+04  0.25500000920E-02 0.  1.
</event>
<event>
 5   0  0.9505359E-06  0.2863855E+04  0.7818609E-02  0.8283714E-01
       -2   -1    0    0    0  501  0.00000000000E+00  0.00000000000E+00  0.16413556888E+04  0.16413556888E+04  0.25500000920E-02 0.  1.
        2   -1    0    0  501    0  0.00000000000E+00  0.00000000000E+00 -0.12492212989E+04  0.12492212989E+04  0.25500000920E-02 0. -1.
    10030    2    1    2    0    0  0.00000000000E+00  0.00000000000E+00  0.39213438989E+03  0.28905769878E+04  0.28638550841E+04 0.  0.
        4    1    3    3  502    0 -0.50303713162E+02 -0.39963497014E+03  0.15829979343E+04  0.16334389018E+04  0.12699999809E+01 0.  1.
       -4    1    3    3    0  502  0.50303713162E+02  0.39963497014E+03 -0.11908635444E+04  0.12571380860E+04  0.12699999809E+01 0. -1.
</event>
<event>
 5   0  0.3474078E-06  0.2658644E+04  0.7818609E-02  0.8348550E-01
       -1   -1    0    0    0  501  0.00000000000E+00  0.00000000000E+00  0.65939571982E+03  0.65939571984E+03  0.50400001928E-02 0. -1.
        1   -1    0    0  501    0  0.00000000000E+00  0.00000000000E+00 -0.26798736498E+04  0.26798736498E+04  0.50400001928E-02 0.  1.
    10030    2    1    2    0    0  0.00000000000E+00  0.00000000000E+00 -0.20204779300E+04  0.33392693696E+04  0.26586441765E+04 0.  0.
        3    1    3    3  502    0  0.74479849713E+03 -0.45422900100E+03  0.24955834923E+03  0.90737432548E+03  0.10100000352E+00 0. -1.
       -3    1    3    3    0  502 -0.74479849713E+03  0.45422900100E+03 -0.22700362792E+04  0.24318950442E+04  0.10100000352E+00 0.  1.
</event>
<event>
 5   0  0.1001573E-05  0.2856939E+04  0.7818609E-02  0.8285806E-01
        2   -1    0    0  501    0  0.00000000000E+00  0.00000000000E+00  0.14020174936E+04  0.14020174936E+04  0.25500000920E-02 0. -1.
       -2   -1    0    0    0  501  0.00000000000E+00  0.00000000000E+00 -0.14554203532E+04  0.14554203532E+04  0.25500000920E-02 0.  1.
    10030    2    1    2    0    0  0.00000000000E+00  0.00000000000E+00 -0.53402859631E+02  0.28574378468E+04  0.28569387783E+04 0.  0.
        1    1    3    3  502    0 -0.76530971359E+03  0.82397731411E+03  0.85429705000E+03  0.14122538800E+04  0.50400001928E-02 0. -1.
       -1    1    3    3    0  502  0.76530971359E+03 -0.82397731411E+03 -0.90769990963E+03  0.14451839668E+04  0.50400001928E-02 0.  1.
</event>
<event>
 5   0  0.3649705E-06  0.2873317E+04  0.7818609E-02  0.8280861E-01
       -1   -1    0    0    0  501  0.00000000000E+00  0.00000000000E+00  0.10402885319E+04  0.10402885320E+04  0.50400001928E-02 0. -1.
        1   -1    0    0  501    0  0.00000000000E+00  0.00000000000E+00 -0.19840524466E+04  0.19840524466E+04  0.50400001928E-02 0.  1.
    10030    2    1    2    0    0  0.00000000000E+00  0.00000000000E+00 -0.94376391466E+03  0.30243409786E+04  0.28733165555E+04 0.  0.
        2    1    3    3  502    0 -0.13691352269E+04 -0.39023532982E+03 -0.26894741658E+03  0.14488435371E+04  0.25500000920E-02 0.  1.
       -2    1    3    3    0  502  0.13691352269E+04  0.39023532982E+03 -0.67481649808E+03  0.15754974415E+04  0.25500000920E-02 0. -1.
</event>
<event>
 5   0  0.3746518E-06  0.2805600E+04  0.7818609E-02  0.8301532E-01
        1   -1    0    0  501    0  0.00000000000E+00  0.00000000000E+00  0.17538332053E+04  0.17538332053E+04  0.50400001928E-02 0. -1.
       -1   -1    0    0    0  501  0.00000000000E+00  0.00000000000E+00 -0.11220269294E+04  0.11220269294E+04  0.50400001928E-02 0.  1.
    10030    2    1    2    0    0  0.00000000000E+00  0.00000000000E+00  0.63180627589E+03  0.28758601347E+04  0.28056001754E+04 0.  0.
        4    1    3    3  502    0 -0.12589251507E+04 -0.51652085495E+03  0.66526102486E+03  0.15146815417E+04  0.12699999809E+01 0.  1.
       -4    1    3    3    0  502  0.12589251507E+04  0.51652085495E+03 -0.33454748976E+02  0.13611785930E+04  0.12699999809E+01 0. -1.
</event>
<event>
 5   0  0.9505359E-06  0.2917220E+04  0.7818609E-02  0.8267772E-01
        2   -1    0    0  501    0  0.00000000000E+00  0.00000000000E+00  0.15691059379E+04  0.15691059379E+04  0.25500000920E-02 0. -1.
       -2   -1    0    0    0  501  0.00000000000E+00  0.00000000000E+00 -0.13558949437E+04  0.13558949437E+04  0.25500000920E-02 0.  1.
    10030    2    1    2    0    0  0.00000000000E+00  0.00000000000E+00  0.21321099411E+03  0.29250008816E+04  0.29172197774E+04 0.  0.
        4    1    3    3  502    0 -0.75069399410E+03 -0.98436086122E+03 -0.66683610823E+03  0.14061222515E+04  0.12699999809E+01 0.  1.
       -4    1    3    3    0  502  0.75069399410E+03  0.98436086122E+03  0.88004710234E+03  0.15188786302E+04  0.12699999809E+01 0. -1.
</event>
<event>
 5   0  0.9251510E-06  0.2866446E+04  0.7818609E-02  0.8282931E-01
       -2   -1    0    0    0  501  0.00000000000E+00  0.00000000000E+00  0.10606486037E+04  0.10606486037E+04  0.25500000920E-02 0. -1.
        2   -1    0    0  501    0  0.00000000000E+00  0.00000000000E+00 -0.19366713951E+04  0.19366713951E+04  0.25500000920E-02 0.  1.
    10030    2    1    2    0    0  0.00000000000E+00  0.00000000000E+00 -0.87602279138E+03  0.29973199988E+04  0.28664457511E+04 0.  0.
        2    1    3    3  502    0  0.59916983831E+03 -0.10119474661E+04 -0.12946119635E+04  0.17490175257E+04  0.25500000920E-02 0.  1.
       -2    1    3    3    0  502 -0.59916983831E+03  0.10119474661E+04  0.41858917210E+03  0.12483024731E+04  0.25500000920E-02 0. -1.
</event>
<event>
 5   0  0.3486236E-06  0.2978324E+04  0.7818609E-02  0.8249948E-01
        1   -1    0    0  501    0  0.00000000000E+00  0.00000000000E+00  0.19043618585E+04  0.19043618585E+04  0.50400001928E-02 0.  1.
       -1   -1    0    0    0  501  0.00000000000E+00  0.00000000000E+00 -0.11644861915E+04  0.11644861915E+04  0.50400001928E-02 0. -1.
    10030    2    1    2    0    0  0.00000000000E+00  0.00000000000E+00  0.73987566696E+03  0.30688480501E+04  0.29783237486E+04 0.  0.
        5    1    3    3  502    0 -0.84497976895E+03 -0.11051414109E+04  0.91736014586E+03  0.16664033351E+04  0.46999998093E+01 0.  1.
       -5    1    3    3    0  502  0.84497976895E+03  0.11051414109E+04 -0.17748447890E+03  0.14024447149E+04  0.46999998093E+01 0. -1.
</event>
<event>
 5   0  0.9360689E-06  0.2708033E+04  0.7818609E-02  0.8332403E-01
        2   -1    0    0  501    0  0.00000000000E+00  0.00000000000E+00  0.14589833425E+04  0.14589833425E+04  0.25500000920E-02 0. -1.
       -2   -1    0    0    0  501  0.00000000000E+00  0.00000000000E+00 -0.12566015339E+04  0.12566015339E+04  0.25500000920E-02 0.  1.
    10030    2    1    2    0    0  0.00000000000E+00  0.00000000000E+00  0.20238180868E+03  0.27155848764E+04  0.27080330176E+04 0.  0.
        5    1    3    3  502    0  0.92840088069E+03  0.81067846645E+03  0.66329922164E+03  0.13996841496E+04  0.46999998093E+01 0. -1.
       -5    1    3    3    0  502 -0.92840088069E+03 -0.81067846645E+03 -0.46091741296E+03  0.13159007268E+04  0.46999998093E+01 0.  1.
</event>
<event>
 5   0  0.9251510E-06  0.2822704E+04  0.7818609E-02  0.8296254E-01
       -2   -1    0    0    0  501  0.00000000000E+00  0.00000000000E+00  0.13605788094E+04  0.13605788094E+04  0.25500000920E-02 0. -1.
        2   -1    0    0  501    0  0.00000000000E+00  0.00000000000E+00 -0.14640194225E+04  0.14640194225E+04  0.25500000920E-02 0.  1.
    10030    2    1    2    0    0  0.00000000000E+00  0.00000000000E+00 -0.10344061310E+03  0.28245982319E+04  0.28227035287E+04 0.  0.
        2    1    3    3  502    0 -0.67655586266E+02 -0.86594377746E+03 -0.11648868432E+04  0.14530647823E+04  0.25500000920E-02 0.  1.
       -2    1    3    3    0  502  0.67655586266E+02  0.86594377746E+03  0.10614462301E+04  0.13715334496E+04  0.25500000920E-02 0. -1.
</event>
<event>
 5   0  0.9360689E-06  0.2952100E+04  0.7818609E-02  0.8257543E-01
        2   -1    0    0  501    0  0.00000000000E+00  0.00000000000E+00  0.15063661678E+04  0.15063661678E+04  0.25500000920E-02 0.  1.
       -2   -1    0    0    0  501  0.00000000000E+00  0.00000000000E+00 -0.14463434914E+04  0.14463434914E+04  0.25500000920E-02 0. -1.
    10030    2    1    2    0    0  0.00000000000E+00  0.00000000000E+00  0.60022676395E+02  0.29527096593E+04  0.29520995258E+04 0.  0.
        5    1    3    3  502    0  0.72925589368E+03 -0.12401971928E+04  0.35992428690E+03  0.14830612994E+04  0.46999998093E+01 0. -1.
       -5    1    3    3    0  502 -0.72925589368E+03  0.12401971928E+04 -0.29990161051E+03  0.14696483598E+04  0.46999998093E+01 0.  1.
</event>
<event>
 5   0  0.3474078E-06  0.2873973E+04  0.7818609E-02  0.8280664E-01
        1   -1    0    0  501    0  0.00000000000E+00  0.00000000000E+00  0.12819034973E+04  0.12819034973E+04  0.50400001928E-02 0. -1.
       -1   -1    0    0    0  501  0.00000000000E+00  0.00000000000E+00 -0.16108316846E+04  0.16108316846E+04  0.50400001928E-02 0.  1.
    10030    2    1    2    0    0  0.00000000000E+00  0.00000000000E+00 -0.32892818729E+03  0.28927351819E+04  0.28739733958E+04 0.  0.
        3    1    3    3  502    0 -0.42807920929E+03 -0.22547406190E+03  0.11974545883E+04  0.12915060446E+04  0.10100000352E+00 0. -1.
       -3    1    3    3    0  502  0.42807920929E+03  0.22547406190E+03 -0.15263827756E+04  0.16012291372E+04  0.10100000352E+00 0.  1.
</event>
<event>
 5   0  0.1001573E-05  0.2777247E+04  0.7818609E-02  0.8310367E-01
       -2   -1    0    0    0  501  0.00000000000E+00  0.00000000000E+00  0.94971855243E+03  0.94971855244E+03  0.25500000920E-02 0.  1.
        2   -1    0    0  501    0  0.00000000000E+00  0.00000000000E+00 -0.20303641826E+04  0.20303641826E+04  0.25500000920E-02 0. -1.
    10030    2    1    2    0    0  0.00000000000E+00  0.00000000000E+00 -0.10806456302E+04  0.29800827350E+04  0.27772465014E+04 0.  0.
        1    1    3    3  502    0 -0.10545158899E+04 -0.34498427517E+03 -0.14363273676E+04  0.18149529523E+04  0.50400001928E-02 0. -1.
       -1    1    3    3    0  502  0.10545158899E+04  0.34498427517E+03  0.35568173745E+03  0.11651297827E+04  0.50400001928E-02 0.  1.
</event>
<event>
 5   0  0.3474078E-06  0.2762246E+04  0.7818609E-02  0.8315086E-01
        1   -1    0    0  501    0  0.00000000000E+00  0.00000000000E+00  0.26155119168E+04  0.26155119168E+04  0.50400001928E-02 0.  1.
       -1   -1    0    0    0  501  0.00000000000E+00  0.00000000000E+00 -0.72930301796E+03  0.72930301797E+03  0.50400001928E-02 0. -1.
    10030    2    1    2    0    0  0.00000000000E+00  0.00000000000E+00  0.18862088988E+04  0.33448149348E+04  0.27622459952E+04 0.  0.
        3    1    3    3  502    0 -0.14128078278E+03  0.13505460702E+04  0.63780823408E+03  0.15002447471E+04  0.10100000352E+00 0. -1.
       -3    1    3    3    0  502  0.14128078278E+03 -0.13505460702E+04  0.12484006648E+04  0.18445701877E+04  0.10100000352E+00 0.  1.
</event>
<event>
 5   0  0.9251510E-06  0.2907690E+04  0.7818609E-02  0.8270593E-01
        2   -1    0    0  501    0  0.00000000000E+00  0.00000000000E+00  0.16625440044E+04  0.16625440044E+04  0.25500000920E-02 0.  1.
       -2   -1    0    0    0  501  0.00000000000E+00  0.00000000000E+00 -0.12713436727E+04  0.12713436727E+04  0.25500000920E-02 0. -1.
    10030    2    1    2    0    0  0.00000000000E+00  0.00000000000E+00  0.39120033172E+03  0.29338876771E+04  0.29076896674E+04 0.  0.
        2    1    3    3  502    0 -0.25353667468E+03  0.11761002143E+04  0.10191477467E+04  0.15767544797E+04  0.25500000920E-02 0.  1.
       -2    1    3    3    0  502  0.25353667468E+03 -0.11761002143E+04 -0.62794741499E+03  0.13571331974E+04  0.25500000920E-02 0. -1.
</event>
<event>
 5   0  0.9646321E-06  0.2828130E+04  0.7818609E-02  0.8294588E-01
        2   -1    0    0  501    0  0.00000000000E+00  0.00000000000E+00  0.11196581052E+04  0.11196581052E+04  0.25500000920E-02 0.  1.
       -2   -1    0    0    0  501  0.00000000000E+00  0.00000000000E+00 -0.17858837807E+04  0.17858837807E+04  0.25500000920E-02 0. -1.
    10030    2    1    2    0    0  0.00000000000E+00  0.00000000000E+00 -0.66622567553E+03  0.29055418860E+04  0.28281295940E+04 0.  0.
        3    1    3    3  502    0 -0.96659447521E+03  0.29292284211E+03  0.68365904892E+03  0.12196304261E+04  0.10100000352E+00 0.  1.
       -3    1    3    3    0  502  0.96659447521E+03 -0.29292284211E+03 -0.13498847244E+04  0.16859114598E+04  0.10100000352E+00 0. -1.
</event>
<event>
 5   0  0.1001573E-05  0.2890920E+04  0.7818609E-02  0.8275584E-01
       -2   -1    0    0    0  501  0.00000000000E+00  0.00000000000E+00  0.10023449990E+04  0.10023449990E+04  0.25500000920E-02 0. -1.
        2   -1    0    0  501    0  0.00000000000E+00  0.00000000000E+00 -0.20844668570E+04  0.20844668570E+04  0.25500000920E-02 0.  1.
    10030    2    1    2    0    0  0.00000000000E+00  0.00000000000E+00 -0.10821218581E+04  0.30868118560E+04  0.28909202201E+04 0.  0.
        1    1    3    3  502    0 -0.58434193581E+03  0.12449899456E+04 -0.10160639430E+04  0.17099243840E+04  0.50400001928E-02 0.  1.
       -1    1    3    3    0  502  0.58434193581E+03 -0.12449899456E+04 -0.66057915051E+02  0.13768874721E+04  0.50400001928E-02 0. -1.
</event>
<event>
 5   0  0.9360689E-06  0.2741855E+04  0.7818609E-02  0.8321551E-01
        2   -1    0    0  501    0  0.00000000000E+00  0.00000000000E+00  0.16298122218E+04  0.16298122218E+04  0.25500000920E-02 0. -1.
       -2   -1    0    0    0  501  0.00000000000E+00  0.00000000000E+00 -0.11531648735E+04  0.11531648735E+04  0.25500000920E-02 0.  1.
    10030    2    1    2    0    0  0.00000000000E+00  0.00000000000E+00  0.47664734826E+03  0.27829770954E+04  0.27418549959E+04 0.  0.
        5    1    3    3  502    0  0.65166838548E+03 -0.11568705972E+04 -0.10796596376E+03  0.13321786677E+04  0.46999998093E+01 0.  1.
       -5    1    3    3    0  502 -0.65166838548E+03  0.11568705972E+04  0.58461331202E+03  0.14507984277E+04  0.46999998093E+01 0. -1.
</event>
<event>
 5   0  0.3746518E-06  0.2875711E+04  0.7818609E-02  0.8280141E-01
        1   -1    0    0  501    0  0.00000000000E+00  0.00000000000E+00  0.23950345316E+04  0.23950345316E+04  0.50400001928E-02 0.  1.
       -1   -1    0    0    0  501  0.00000000000E+00  0.00000000000E+00 -0.86321437765E+03  0.86321437767E+03  0.50400001928E-02 0. -1.
    10030    2    1    2    0    0  0.00000000000E+00  0.00000000000E+00  0.15318201540E+04  0.32582489093E+04  0.28757108635E+04 0.  0.
        4    1    3    3  502    0  0.83414193506E+03  0.71190429561E+03 -0.28775708059E+03  0.11337575774E+04  0.12699999809E+01 0. -1.
       -4    1    3    3    0  502 -0.83414193506E+03 -0.71190429561E+03  0.18195772345E+04  0.21244913319E+04  0.12699999809E+01 0.  1.
</event>
<event>
 5   0  0.3486236E-06  0.3014126E+04  0.7818609E-02  0.8239709E-01
        1   -1    0    0  501    0  0.00000000000E+00  0.00000000000E+00  0.16356153947E+04  0.16356153947E+04  0.50400001928E-02 0. -1.
       -1   -1    0    0    0  501  0.00000000000E+00  0.00000000000E+00 -0.13886139078E+04  0.13886139078E+04  0.50400001928E-02 0.  1.
    10030    2    1    2    0    0  0.00000000000E+00  0.00000000000E+00  0.24700148685E+03  0.30242293025E+04  0.30141256012E+04 0.  0.
        5    1    3    3  502    0  0.68902221931E+03 -0.29895119784E+03  0.14344380755E+04  0.16191843995E+04  0.46999998093E+01 0. -1.
       -5    1    3    3    0  502 -0.68902221931E+03  0.29895119784E+03 -0.11874365886E+04  0.14050449030E+04  0.46999998093E+01 0.  1.
</event>
<event>
 5   0  0.9505359E-06  0.2939851E+04  0.7818609E-02  0.8261118E-01
        2   -1    0    0  501    0  0.00000000000E+00  0.00000000000E+00  0.22030333671E+04  0.22030333671E+04  0.25500000920E-02 0.  1.
       -2   -1    0    0    0  501  0.00000000000E+00  0.00000000000E+00 -0.98077566875E+03  0.98077566875E+03  0.25500000920E-02 0. -1.
    10030    2    1    2    0    0  0.00000000000E+00  0.00000000000E+00  0.12222576983E+04  0.31838090358E+04  0.29398513730E+04 0.  0.
        4    1    3    3  502    0  0.99179838316E+03 -0.49758045978E+03 -0.43294177712E+03  0.11910879657E+04  0.12699999809E+01 0. -1.
       -4    1    3    3    0  502 -0.99179838316E+03  0.49758045978E+03  0.16551994754E+04  0.19927210701E+04  0.12699999809E+01 0.  1.
</event>
<event>
 5   0  0.3746518E-06  0.3071922E+04  0.7818609E-02  0.8223486E-01
        1   -1    0    0  501    0  0.00000000000E+00  0.00000000000E+00  0.16763786900E+04  0.16763786900E+04  0.50400001928E-02 0.  1.
       -1   -1    0    0    0  501  0.00000000000E+00  0.00000000000E+00 -0.14073051443E+04  0.14073051443E+04  0.50400001928E-02 0. -1.
    10030    2    1    2    0    0  0.00000000000E+00  0.00000000000E+00  0.26907354562E+03  0.30836838343E+04  0.30719221047E+04 0.  0.
        4    1    3    3  502    0 -0.15040296934E+04 -0.31155781355E+03  0.13561393061E+03  0.15419359069E+04  0.12699999809E+01 0. -1.
       -4    1    3    3    0  502  0.15040296934E+04  0.31155781355E+03  0.13345961501E+03  0.15417479274E+04  0.12699999809E+01 0.  1.
</event>
<event>
 5   0  0.3564340E-06  0.2926644E+04  0.7818609E-02  0.8264994E-01
        1   -1    0    0  501    0  0.00000000000E+00  0.00000000000E+00  0.26071501307E+04  0.26071501307E+04  0.50400001928E-02 0.  1.
       -1   -1    0    0    0  501  0.00000000000E+00  0.00000000000E+00 -0.82132247398E+03  0.82132247400E+03  0.50400001928E-02 0. -1.
    10030    2    1    2    0    0  0.00000000000E+00  0.00000000000E+00  0.17858276567E+04  0.34284726047E+04  0.29266438085E+04 0.  0.
        1    1    3    3  502    0  0.35599402161E+03 -0.14187797729E+04  0.84542657074E+03  0.16895010725E+04  0.50400001928E-02 0. -1.
       -1    1    3    3    0  502 -0.35599402161E+03  0.14187797729E+04  0.94040108600E+03  0.17389715322E+04  0.50400001928E-02 0.  1.
</event>
<event>
 5   0  0.1001573E-05  0.2903212E+04  0.7818609E-02  0.8271922E-01
        2   -1    0    0  501    0  0.00000000000E+00  0.00000000000E+00  0.96120458509E+03  0.96120458509E+03  0.25500000920E-02 0. -1.
       -2   -1    0    0    0  501  0.00000000000E+00  0.00000000000E+00 -0.21922081982E+04  0.21922081982E+04  0.25500000920E-02 0.  1.
    10030    2    1    2    0    0  0.00000000000E+00  0.00000000000E+00 -0.12310036131E+04  0.31534127833E+04  0.29032124081E+04 0.  0.
        1    1    3    3  502    0 -0.68759265790E+03  0.91423047653E+03 -0.15861361749E+04  0.19556147353E+04  0.50400001928E-02 0.  1.
       -1    1    3    3    0  502  0.68759265790E+03 -0.91423047653E+03  0.35513256179E+03  0.11977980480E+04  0.50400001928E-02 0. -1.
</event>
<event>
 5   0  0.3486236E-06  0.2939597E+04  0.7818609E-02  0.8261193E-01
        1   -1    0    0  501    0  0.00000000000E+00  0.00000000000E+00  0.14049354348E+04  0.14049354348E+04  0.50400001928E-02 0.  1.
       -1   -1    0    0    0  501  0.00000000000E+00  0.00000000000E+00 -0.15376560019E+04  0.15376560019E+04  0.50400001928E-02 0. -1.
    10030    2    1    2    0    0  0.00000000000E+00  0.00000000000E+00 -0.13272056716E+03  0.29425914367E+04  0.29395968456E+04 0.  0.
        5    1    3    3  502    0 -0.81276076252E+03  0.67382597071E+03  0.95725847129E+03  0.14251271406E+04  0.46999998093E+01 0.  1.
       -5    1    3    3    0  502  0.81276076252E+03 -0.67382597071E+03 -0.10899790385E+04  0.15174642962E+04  0.46999998093E+01 0. -1.
</event>
<event>
 5   0  0.9505359E-06  0.2902493E+04  0.7818609E-02  0.8272136E-01
       -2   -1    0    0    0  501  0.00000000000E+00  0.00000000000E+00  0.16061467982E+04  0.16061467982E+04  0.25500000920E-02 0.  1.
        2   -1    0    0  501    0  0.00000000000E+00  0.00000000000E+00 -0.13112848594E+04  0.13112848594E+04  0.25500000920E-02 0. -1.
    10030    2    1    2    0    0  0.00000000000E+00  0.00000000000E+00  0.29486193878E+03  0.29174316577E+04  0.29024927070E+04 0.  0.
        4    1    3    3  502    0  0.30467404603E+03  0.11821358145E+04  0.93622671826E+03  0.15384386368E+04  0.12699999809E+01 0. -1.
       -4    1    3    3    0  502 -0.30467404603E+03 -0.11821358145E+04 -0.64136477948E+03  0.13789930209E+04  0.12699999809E+01 0.  1.
</event>
<event>
 5   0  0.1001573E-05  0.2938003E+04  0.7818609E-02  0.8261659E-01
       -2   -1    0    0    0  501  0.00000000000E+00  0.00000000000E+00  0.27194284439E+04  0.27194284439E+04  0.25500000920E-02 0. -1.
        2   -1    0    0  501    0  0.00000000000E+00  0.00000000000E+00 -0.79353636337E+03  0.79353636337E+03  0.25500000920E-02 0.  1.
    10030    2    1    2    0    0  0.00000000000E+00  0.00000000000E+00  0.19258920806E+04  0.35129648073E+04  0.29380029665E+04 0.  0.
        1    1    3    3  502    0 -0.29001743589E+03 -0.64232348910E+03  0.25040872583E+04  0.26013732094E+04  0.50400001928E-02 0. -1.
       -1    1    3    3    0  502  0.29001743589E+03  0.64232348910E+03 -0.57819517769E+03  0.91159159787E+03  0.50400001928E-02 0.  1.
</event>
<event>
 5   0  0.9646321E-06  0.2909435E+04  0.7818609E-02  0.8270076E-01
       -2   -1    0    0    0  501  0.00000000000E+00  0.00000000000E+00  0.84077291448E+03  0.84077291448E+03  0.25500000920E-02 0.  1.
        2   -1    0    0  501    0  0.00000000000E+00  0.00000000000E+00 -0.25169726723E+04  0.25169726723E+04  0.25500000920E-02 0. -1.
    10030    2    1    2    0    0  0.00000000000E+00  0.00000000000E+00 -0.16761997578E+04  0.33577455868E+04  0.29094346182E+04 0.  0.
        3    1    3    3  502    0  0.24530262504E+03 -0.76698706600E+03 -0.22362914974E+04  0.23768555296E+04  0.10100000352E+00 0. -1.
       -3    1    3    3    0  502 -0.24530262504E+03  0.76698706600E+03  0.56009173957E+03  0.98089005714E+03  0.10100000352E+00 0.  1.
</event>
<event>
 5   0  0.9251510E-06  0.2894823E+04  0.7818609E-02  0.8274420E-01
        2   -1    0    0  501    0  0.00000000000E+00  0.00000000000E+00  0.27863780840E+04  0.27863780840E+04  0.25500000920E-02 0. -1.
       -2   -1    0    0    0  501  0.00000000000E+00  0.00000000000E+00 -0.75187190771E+03  0.75187190771E+03  0.25500000920E-02 0.  1.
    10030    2    1    2    0    0  0.00000000000E+00  0.00000000000E+00  0.20345061763E+04  0.35382499917E+04  0.28948225546E+04 0.  0.
        2    1    3    3  502    0 -0.85808136668E+03  0.48911208175E+03  0.23104714274E+04  0.25127300844E+04  0.25500000920E-02 0. -1.
       -2    1    3    3    0  502  0.85808136668E+03 -0.48911208175E+03 -0.27596525113E+03  0.10255199073E+04  0.25500000920E-02 0.  1.
</event>
<event>
 5   0  0.1001573E-05  0.2906519E+04  0.7818609E-02  0.8270941E-01
        2   -1    0    0  501    0  0.00000000000E+00  0.00000000000E+00  0.12417967749E+04  0.12417967749E+04  0.25500000920E-02 0.  1.
       -2   -1    0    0    0  501  0.00000000000E+00  0.00000000000E+00 -0.17007315727E+04  0.17007315727E+04  0.25500000920E-02 0. -1.
    10030    2    1    2    0    0  0.00000000000E+00  0.00000000000E+00 -0.45893479775E+03  0.29425283476E+04  0.29065188677E+04 0.  0.
        1    1    3    3  502    0 -0.95171464847E+03 -0.65174358030E+03 -0.11244060149E+04  0.16108442982E+04  0.50400001928E-02 0. -1.
       -1    1    3    3    0  502  0.95171464847E+03  0.65174358030E+03  0.66547121720E+03  0.13316840494E+04  0.50400001928E-02 0.  1.
</event>
<event>
 5   0  0.9360689E-06  0.2846641E+04  0.7818609E-02  0.8288933E-01
        2   -1    0    0  501    0  0.00000000000E+00  0.00000000000E+00  0.13291810822E+04  0.13291810822E+04  0.25500000920E-02 0.  1.
       -2   -1    0    0    0  501  0.00000000000E+00  0.00000000000E+00 -0.15241272883E+04  0.15241272883E+04  0.25500000920E-02 0. -1.
    10030    2    1    2    0    0  0.00000000000E+00  0.00000000000E+00 -0.19494620609E+03  0.28533083705E+04  0.28466409388E+04 0.  0.
        5    1    3    3  502    0  0.22388495711E+03  0.10491646873E+03 -0.15024290911E+04  0.15226448053E+04  0.46999998093E+01 0. -1.
       -5    1    3    3    0  502 -0.22388495711E+03 -0.10491646873E+03  0.13074828850E+04  0.13306635653E+04  0.46999998093E+01 0.  1.
</event>
<event>
 5   0  0.9251510E-06  0.2890413E+04  0.7818609E-02  0.8275736E-01
       -2   -1    0    0    0  501  0.00000000000E+00  0.00000000000E+00  0.94826882147E+03  0.94826882148E+03  0.25500000920E-02 0. -1.
        2   -1    0    0  501    0  0.00000000000E+00  0.00000000000E+00 -0.22025624797E+04  0.22025624797E+04  0.25500000920E-02 0.  1.
    10030    2    1    2    0    0  0.00000000000E+00  0.00000000000E+00 -0.12542936582E+04  0.31508313011E+04  0.28904126535E+04 0.  0.
        2    1    3    3  502    0 -0.31799559537E+03 -0.13924588883E+03 -0.21564375866E+04  0.21842009251E+04  0.25500000920E-02 0.  1.
       -2    1    3    3    0  502  0.31799559537E+03  0.13924588883E+03  0.90214392844E+03  0.96663037603E+03  0.25500000920E-02 0. -1.
</event>
<event>
 5   0  0.3474078E-06  0.2768592E+04  0.7818609E-02  0.8313086E-01
       -1   -1    0    0    0  501  0.00000000000E+00  0.00000000000E+00  0.88808439961E+03  0.88808439963E+03  0.50400001928E-02 0. -1.
        1   -1    0    0  501    0  0.00000000000E+00  0.00000000000E+00 -0.21577620460E+04  0.21577620460E+04  0.50400001928E-02 0.  1.
    10030    2    1    2    0    0  0.00000000000E+00  0.00000000000E+00 -0.12696776464E+04  0.30458464456E+04  0.27685915633E+04 0.  0.
        3    1    3    3  502    0  0.73746832746E+03 -0.10371134288E+04 -0.35476951702E+02  0.12730759689E+04  0.10100000352E+00 0. -1.
       -3    1    3    3    0  502 -0.73746832746E+03  0.10371134288E+04 -0.12342006947E+04  0.17727704767E+04  0.10100000352E+00 0.  1.
</event>
<event>
 5   0  0.3564340E-06  0.2906043E+04  0.7818609E-02  0.8271082E-01
       -1   -1    0    0    0  501  0.00000000000E+00  0.00000000000E+00  0.11101932039E+04  0.11101932039E+04  0.50400001928E-02 0. -1.
        1   -1    0    0  501    0  0.00000000000E+00  0.00000000000E+00 -0.19017151221E+04  0.19017151221E+04  0.50400001928E-02 0.  1.
    10030    2    1    2    0    0  0.00000000000E+00  0.00000000000E+00 -0.79152191821E+03  0.30119083261E+04  0.29060428107E+04 0.  0.
        1    1    3    3  502    0  0.82569825877E+03 -0.11721736704E+04 -0.63993299319E+03  0.15701219583E+04  0.50400001928E-02 0. -1.
       -1    1    3    3    0  502 -0.82569825877E+03  0.11721736704E+04 -0.15158892502E+03  0.14417863678E+04  0.50400001928E-02 0.  1.
</event>
<event>
 5   0  0.9251510E-06  0.2905252E+04  0.7818609E-02  0.8271316E-01
       -2   -1    0    0    0  501  0.00000000000E+00  0.00000000000E+00  0.11401417578E+04  0.11401417578E+04  0.25500000920E-02 0.  1.
        2   -1    0    0  501    0  0.00000000000E+00  0.00000000000E+00 -0.18507548968E+04  0.18507548968E+04  0.25500000920E-02 0. -1.
    10030    2    1    2    0    0  0.00000000000E+00  0.00000000000E+00 -0.71061313897E+03  0.29908966546E+04  0.29052524443E+04 0.  0.
        2    1    3    3  502    0  0.32223072313E+03 -0.12742797602E+04 -0.99200538716E+03  0.16467228772E+04  0.25500000920E-02 0. -1.
       -2    1    3    3    0  502 -0.32223072313E+03  0.12742797602E+04  0.28139224819E+03  0.13441737773E+04  0.25500000920E-02 0.  1.
</event>
<event>
 5   0  0.9360689E-06  0.2926529E+04  0.7818609E-02  0.8265028E-01
        2   -1    0    0  501    0  0.00000000000E+00  0.00000000000E+00  0.17404728563E+04  0.17404728563E+04  0.25500000920E-02 0. -1.
       -2   -1    0    0    0  501  0.00000000000E+00  0.00000000000E+00 -0.12302073564E+04  0.12302073564E+04  0.25500000920E-02 0.  1.
    10030    2    1    2    0    0  0.00000000000E+00  0.00000000000E+00  0.51026549998E+03  0.29706802127E+04  0.29265286682E+04 0.  0.
        5    1    3    3  502    0 -0.11049545046E+04 -0.93798802136E+03  0.51167419030E+02  0.14503055472E+04  0.46999998093E+01 0. -1.
       -5    1    3    3    0  502  0.11049545046E+04  0.93798802136E+03  0.45909808095E+03  0.15203746655E+04  0.46999998093E+01 0.  1.
</event>
<event>
 5   0  0.9360689E-06  0.2790502E+04  0.7818609E-02  0.8306223E-01
        2   -1    0    0  501    0  0.00000000000E+00  0.00000000000E+00  0.19556373609E+04  0.19556373609E+04  0.25500000920E-02 0.  1.
       -2   -1    0    0    0  501  0.00000000000E+00  0.00000000000E+00 -0.99544263009E+03  0.99544263010E+03  0.25500000920E-02 0. -1.
    10030    2    1    2    0    0  0.00000000000E+00  0.00000000000E+00  0.96019473084E+03  0.29510799910E+04  0.27905016023E+04 0.  0.
        5    1    3    3  502    0  0.91844860866E+03  0.35141783311E+03  0.15268317117E+04  0.18161166003E+04  0.46999998093E+01 0.  1.
       -5    1    3    3    0  502 -0.91844860866E+03 -0.35141783311E+03 -0.56663698084E+03  0.11349633907E+04  0.46999998093E+01 0. -1.
</event>
<event>
 5   0  0.3746518E-06  0.2891805E+04  0.7818609E-02  0.8275320E-01
        1   -1    0    0  501    0  0.00000000000E+00  0.00000000000E+00  0.13300267721E+04  0.13300267721E+04  0.50400001928E-02 0.  1.
       -1   -1    0    0    0  501  0.00000000000E+00  0.00000000000E+00 -0.15718736101E+04  0.15718736101E+04  0.50400001928E-02 0. -1.
    10030    2    1    2    0    0  0.00000000000E+00  0.00000000000E+00 -0.24184683802E+03  0.29019003822E+04  0.28918049615E+04 0.  0.
        4    1    3    3  502    0  0.10134439289E+04 -0.10098140310E+04  0.89186127433E+02  0.14334394834E+04  0.12699999809E+01 0. -1.
       -4    1    3    3    0  502 -0.10134439289E+04  0.10098140310E+04 -0.33103296545E+03  0.14684608988E+04  0.12699999809E+01 0.  1.
</event>
<event>
 5   0  0.3486236E-06  0.2853668E+04  0.7818609E-02  0.8286798E-01
       -1   -1    0    0    0  501  0.00000000000E+00  0.00000000000E+00  0.18450524573E+04  0.18450524573E+04  0.50400001928E-02 0.  1.
        1   -1    0    0  501    0  0.00000000000E+00  0.00000000000E+00 -0.11034128556E+04  0.11034128556E+04  0.50400001928E-02 0. -1.
    10030    2    1    2    0    0  0.00000000000E+00  0.00000000000E+00  0.74163960162E+03  0.29484653129E+04  0.28536675354E+04 0.  0.
        5    1    3    3  502    0  0.99161075042E+03  0.67865169911E+03 -0.42413679124E+03  0.12742739567E+04  0.46999998093E+01 0. -1.
       -5    1    3    3    0  502 -0.99161075042E+03 -0.67865169911E+03  0.11657763929E+04  0.16741913562E+04  0.46999998093E+01 0.  1.
</event>
<event>
 5   0  0.1001573E-05  0.2286596E+04  0.7818609E-02  0.8483225E-01
       -2   -1    0    0    0  501  0.00000000000E+00  0.00000000000E+00  0.68453847139E+03  0.68453847140E+03  0.25500000920E-02 0.  1.
        2   -1    0    0  501    0  0.00000000000E+00  0.00000000000E+00 -0.19095054991E+04  0.19095054991E+04  0.25500000920E-02 0. -1.
    10030    2    1    2    0    0  0.00000000000E+00  0.00000000000E+00 -0.12249670277E+04  0.25940439705E+04  0.22865957015E+04 0.  0.
        1    1    3    3  502    0 -0.74140732889E+02 -0.77944364830E+02 -0.19037513928E+04  0.19067882782E+04  0.50400001928E-02 0. -1.
       -1    1    3    3    0  502  0.74140732889E+02  0.77944364830E+02  0.67878436509E+03  0.68725569230E+03  0.50400001928E-02 0.  1.
</event>
<event>
 5   0  0.9505359E-06  0.2398474E+04  0.7818609E-02  0.8440075E-01
        2   -1    0    0  501    0  0.00000000000E+00  0.00000000000E+00  0.19488260312E+04  0.19488260312E+04  0.25500000920E-02 0.  1.
       -2   -1    0    0    0  501  0.00000000000E+00  0.00000000000E+00 -0.73796708548E+03  0.73796708549E+03  0.25500000920E-02 0. -1.
    10030    2    1    2    0    0  0.00000000000E+00  0.00000000000E+00  0.12108589457E+04  0.26867931167E+04  0.23984740702E+04 0.  0.
        4    1    3    3  502    0  0.95718047209E+03 -0.70985271443E+03  0.45479350237E+03  0.12755093395E+04  0.12699999809E+01 0. -1.
       -4    1    3    3    0  502 -0.95718047209E+03  0.70985271443E+03  0.75606544333E+03  0.14112837772E+04  0.12699999809E+01 0.  1.
</event>
<event>
 5   0  0.9251510E-06  0.2809957E+04  0.7818609E-02  0.8300184E-01
        2   -1    0    0  501    0  0.00000000000E+00  0.00000000000E+00  0.12177839571E+04  0.12177839571E+04  0.25500000920E-02 0.  1.
       -2   -1    0    0    0  501  0.00000000000E+00  0.00000000000E+00 -0.16209476671E+04  0.16209476671E+04  0.25500000920E-02 0. -1.
    10030    2    1    2    0    0  0.00000000000E+00  0.00000000000E+00 -0.40316370992E+03  0.28387316242E+04  0.28099566291E+04 0.  0.
        2    1    3    3  502    0 -0.23924921352E+03  0.94571330644E+03 -0.12230493864E+04  0.15644371658E+04  0.25500000920E-02 0. -1.
       -2    1    3    3    0  502  0.23924921352E+03 -0.94571330644E+03  0.81988567651E+03  0.12742944584E+04  0.25500000920E-02 0.  1.
</event>
<event>
 5   0  0.9251510E-06  0.2941252E+04  0.7818609E-02  0.8260708E-01
        2   -1    0    0  501    0  0.00000000000E+00  0.00000000000E+00  0.11629841843E+04  0.11629841843E+04  0.25500000920E-02 0.  1.
       -2   -1    0    0    0  501  0.00000000000E+00  0.00000000000E+00 -0.18596479795E+04  0.18596479795E+04  0.25500000920E-02 0. -1.
    10030    2    1    2    0    0  0.00000000000E+00  0.00000000000E+00 -0.69666379519E+03  0.30226321638E+04  0.29412522425E+04 0.  0.
        2    1    3    3  502    0  0.19511331355E+03 -0.40096406560E+03 -0.17884983534E+04  0.18432492363E+04  0.25500000920E-02 0. -1.
       -2    1    3    3    0  502 -0.19511331355E+03  0.40096406560E+03  0.10918345582E+04  0.11793829275E+04  0.25500000920E-02 0.  1.
</event>
<event>
 5   0  0.3649705E-06  0.2940678E+04  0.7818609E-02  0.8260876E-01
       -1   -1    0    0    0  501  0.00000000000E+00  0.00000000000E+00  0.10905220499E+04  0.10905220499E+04  0.50400001928E-02 0.  1.
        1   -1    0    0  501    0  0.00000000000E+00  0.00000000000E+00 -0.19824419166E+04  0.19824419166E+04  0.50400001928E-02 0. -1.
    10030    2    1    2    0    0  0.00000000000E+00  0.00000000000E+00 -0.89191986669E+03  0.30729639664E+04  0.29406778964E+04 0.  0.
        2    1    3    3  502    0 -0.17605580086E+02  0.10137595768E+04 -0.15586986798E+04  0.18594515348E+04  0.25500000920E-02 0. -1.
       -2    1    3    3    0  502  0.17605580086E+02 -0.10137595768E+04  0.66677881307E+03  0.12135124316E+04  0.25500000920E-02 0.  1.
</event>
<event>
 5   0  0.3474078E-06  0.2818198E+04  0.7818609E-02  0.8297641E-01
       -1   -1    0    0    0  501  0.00000000000E+00  0.00000000000E+00  0.11609403226E+04  0.11609403226E+04  0.50400001928E-02 0. -1.
        1   -1    0    0  501    0  0.00000000000E+00  0.00000000000E+00 -0.17103035008E+04  0.17103035008E+04  0.50400001928E-02 0.  1.
    10030    2    1    2    0    0  0.00000000000E+00  0.00000000000E+00 -0.54936317814E+03  0.28712438234E+04  0.28181982173E+04 0.  0.
        3    1    3    3  502    0  0.10927569423E+04 -0.88290639278E+03 -0.38591001612E+03  0.14569035603E+04  0.10100000352E+00 0.  1.
       -3    1    3    3    0  502 -0.10927569423E+04  0.88290639278E+03 -0.16345316202E+03  0.14143402631E+04  0.10100000352E+00 0. -1.
</event>
<event>
 5   0  0.9360689E-06  0.3160075E+04  0.7818609E-02  0.8199442E-01
       -2   -1    0    0    0  501  0.00000000000E+00  0.00000000000E+00  0.15782428567E+04  0.15782428567E+04  0.25500000920E-02 0.  1.
        2   -1    0    0  501    0  0.00000000000E+00  0.00000000000E+00 -0.15818340344E+04  0.15818340344E+04  0.25500000920E-02 0. -1.
    10030    2    1    2    0    0  0.00000000000E+00  0.00000000000E+00 -0.35911776701E+01  0.31600768911E+04  0.31600748506E+04 0.  0.
        5    1    3    3  502    0  0.46862076836E+03 -0.14023943493E+04 -0.55873476012E+03  0.15806713629E+04  0.46999998093E+01 0. -1.
       -5    1    3    3    0  502 -0.46862076836E+03  0.14023943493E+04  0.55514358245E+03  0.15794055282E+04  0.46999998093E+01 0.  1.
</event>
<event>
 5   0  0.1001573E-05  0.2916941E+04  0.7818609E-02  0.8267855E-01
       -2   -1    0    0    0  501  0.00000000000E+00  0.00000000000E+00  0.21942864647E+04  0.21942864647E+04  0.25500000920E-02 0.  1.
        2   -1    0    0  501    0  0.00000000000E+00  0.00000000000E+00 -0.96939752571E+03  0.96939752572E+03  0.25500000920E-02 0. -1.
    10030    2    1    2    0    0  0.00000000000E+00  0.00000000000E+00  0.12248889390E+04  0.31636839904E+04  0.29169407739E+04 0.  0.
        1    1    3    3  502    0  0.98403151338E+03  0.22667053650E+03  0.17538113302E+04  0.20237469539E+04  0.50400001928E-02 0.  1.
       -1    1    3    3    0  502 -0.98403151338E+03 -0.22667053650E+03 -0.52892239116E+03  0.11399370366E+04  0.50400001928E-02 0. -1.
</event>
<event>
 5   0  0.3746518E-06  0.2807592E+04  0.7818609E-02  0.8300915E-01
        1   -1    0    0  501    0  0.00000000000E+00  0.00000000000E+00  0.11240092208E+04  0.11240092208E+04  0.50400001928E-02 0. -1.
       -1   -1    0    0    0  501  0.00000000000E+00  0.00000000000E+00 -0.17532263712E+04  0.17532263712E+04  0.50400001928E-02 0.  1.
    10030    2    1    2    0    0  0.00000000000E+00  0.00000000000E+00 -0.62921715046E+03  0.28772355920E+04  0.28075915710E+04 0.  0.
        4    1    3    3  502    0  0.16702969437E+03  0.49166173830E+02 -0.17421170895E+04  0.17507969037E+04  0.12699999809E+01 0.  1.
       -4    1    3    3    0  502 -0.16702969437E+03 -0.49166173830E+02  0.11128999390E+04  0.11264386884E+04  0.12699999809E+01 0. -1.
</event>
<event>
 5   0  0.3474078E-06  0.2857866E+04  0.7818609E-02  0.8285525E-01
        1   -1    0    0  501    0  0.00000000000E+00  0.00000000000E+00  0.21735089666E+04  0.21735089666E+04  0.50400001928E-02 0.  1.
       -1   -1    0    0    0  501  0.00000000000E+00  0.00000000000E+00 -0.93942513852E+03  0.93942513853E+03  0.50400001928E-02 0. -1.
    10030    2    1    2    0    0  0.00000000000E+00  0.00000000000E+00  0.12340838281E+04  0.31129341051E+04  0.28578656106E+04 0.  0.
        3    1    3    3  502    0 -0.86049396385E+02  0.62268567152E+03 -0.78072994258E+03  0.10023378660E+04  0.10100000352E+00 0. -1.
       -3    1    3    3    0  502  0.86049396385E+02 -0.62268567152E+03  0.20148137706E+04  0.21105962391E+04  0.10100000352E+00 0.  1.
</event>
<event>
 5   0  0.9360689E-06  0.2802195E+04  0.7818609E-02  0.8302587E-01
       -2   -1    0    0    0  501  0.00000000000E+00  0.00000000000E+00  0.12903190792E+04  0.12903190792E+04  0.25500000920E-02 0. -1.
        2   -1    0    0  501    0  0.00000000000E+00  0.00000000000E+00 -0.15213862989E+04  0.15213862989E+04  0.25500000920E-02 0.  1.
    10030    2    1    2    0    0  0.00000000000E+00  0.00000000000E+00 -0.23106721977E+03  0.28117053781E+04  0.28021946887E+04 0.  0.
        5    1    3    3  502    0 -0.91127241743E+03  0.60282655199E+03  0.76450323837E+03  0.13335308628E+04  0.46999998093E+01 0. -1.
       -5    1    3    3    0  502  0.91127241743E+03 -0.60282655199E+03 -0.99557045814E+03  0.14781745153E+04  0.46999998093E+01 0.  1.
</event>
<event>
 5   0  0.9360689E-06  0.2914271E+04  0.7818609E-02  0.8268644E-01
       -2   -1    0    0    0  501  0.00000000000E+00  0.00000000000E+00  0.82295612277E+03  0.82295612277E+03  0.25500000920E-02 0.  1.
        2   -1    0    0  501    0  0.00000000000E+00  0.00000000000E+00 -0.25800206371E+04  0.25800206371E+04  0.25500000920E-02 0. -1.
    10030    2    1    2    0    0  0.00000000000E+00  0.00000000000E+00 -0.17570645144E+04  0.34029767599E+04  0.29142709416E+04 0.  0.
        5    1    3    3  502    0 -0.78529101989E+03 -0.62985668683E+03  0.35161012417E+03  0.10663269673E+04  0.46999998093E+01 0.  1.
       -5    1    3    3    0  502  0.78529101989E+03  0.62985668683E+03 -0.21086746385E+04  0.23366497926E+04  0.46999998093E+01 0. -1.
</event>
<event>
 5   0  0.9251510E-06  0.2880823E+04  0.7818609E-02  0.8278606E-01
       -2   -1    0    0    0  501  0.00000000000E+00  0.00000000000E+00  0.10302579616E+04  0.10302579616E+04  0.25500000920E-02 0. -1.
        2   -1    0    0  501    0  0.00000000000E+00  0.00000000000E+00 -0.20138507019E+04  0.20138507019E+04  0.25500000920E-02 0.  1.
    10030    2    1    2    0    0  0.00000000000E+00  0.00000000000E+00 -0.98359274033E+03  0.30441086635E+04  0.28808232983E+04 0.  0.
        2    1    3    3  502    0 -0.12183189135E+04 -0.53338173193E+03  0.92719362255E+02  0.13331893816E+04  0.25500000920E-02 0. -1.
       -2    1    3    3    0  502  0.12183189135E+04  0.53338173193E+03 -0.10763121026E+04  0.17109192819E+04  0.25500000920E-02 0.  1.
</event>
<event>
 5   0  0.9505359E-06  0.2885581E+04  0.7818609E-02  0.8277180E-01
        2   -1    0    0  501    0  0.00000000000E+00  0.00000000000E+00  0.16638952565E+04  0.16638952565E+04  0.25500000920E-02 0.  1.
       -2   -1    0    0    0  501  0.00000000000E+00  0.00000000000E+00 -0.12510671737E+04  0.12510671737E+04  0.25500000920E-02 0. -1.
    10030    2    1    2    0    0  0.00000000000E+00  0.00000000000E+00  0.41282808274E+03  0.29149624302E+04  0.28855812142E+04 0.  0.
        4    1    3    3  502    0 -0.13987339311E+04  0.25708566587E+03 -0.39152627146E+02  0.14227031281E+04  0.12699999809E+01 0. -1.
       -4    1    3    3    0  502  0.13987339311E+04 -0.25708566587E+03  0.45198070989E+03  0.14922593021E+04  0.12699999809E+01 0.  1.
</event>
<event>
 5   0  0.3564340E-06  0.2663897E+04  0.7818609E-02  0.8346815E-01
       -1   -1    0    0    0  501  0.00000000000E+00  0.00000000000E+00  0.11885849329E+04  0.11885849329E+04  0.50400001928E-02 0.  1.
        1   -1    0    0  501    0  0.00000000000E+00  0.00000000000E+00 -0.14926040714E+04  0.14926040714E+04  0.50400001928E-02 0. -1.
    10030    2    1    2    0    0  0.00000000000E+00  0.00000000000E+00 -0.30401913843E+03  0.26811890043E+04  0.26638969275E+04 0.  0.
        1    1    3    3  502    0 -0.78552690895E+03  0.60294634599E+03  0.74455322277E+03  0.12389335424E+04  0.50400001928E-02 0.  1.
       -1    1    3    3    0  502  0.78552690895E+03 -0.60294634599E+03 -0.10485723612E+04  0.14422554619E+04  0.50400001928E-02 0. -1.
</event>
<event>
 5   0  0.3564340E-06  0.3364078E+04  0.7818609E-02  0.8146780E-01
        1   -1    0    0  501    0  0.00000000000E+00  0.00000000000E+00  0.16203032900E+04  0.16203032900E+04  0.50400001928E-02 0. -1.
       -1   -1    0    0    0  501  0.00000000000E+00  0.00000000000E+00 -0.17461265025E+04  0.17461265026E+04  0.50400001928E-02 0.  1.
    10030    2    1    2    0    0  0.00000000000E+00  0.00000000000E+00 -0.12582321255E+03  0.33664297926E+04  0.33640775953E+04 0.  0.
        1    1    3    3  502    0 -0.14204826198E+04  0.54421205040E+02  0.83689560911E+03  0.16495838267E+04  0.50400001928E-02 0. -1.
       -1    1    3    3    0  502  0.14204826198E+04 -0.54421205040E+02 -0.96271882166E+03  0.17168459658E+04  0.50400001928E-02 0.  1.
</event>
<event>
 5   0  0.3474078E-06  0.2912026E+04  0.7818609E-02  0.8269308E-01
       -1   -1    0    0    0  501  0.00000000000E+00  0.00000000000E+00  0.11328096208E+04  0.11328096208E+04  0.50400001928E-02 0.  1.
        1   -1    0    0  501    0  0.00000000000E+00  0.00000000000E+00 -0.18714293928E+04  0.18714293928E+04  0.50400001928E-02 0. -1.
    10030    2    1    2    0    0  0.00000000000E+00  0.00000000000E+00 -0.73861977194E+03  0.30042390136E+04  0.29120255637E+04 0.  0.
        3    1    3    3  502    0  0.12477607198E+04  0.84511289033E+02 -0.11385237505E+04  0.16912378049E+04  0.10100000352E+00 0. -1.
       -3    1    3    3    0  502 -0.12477607198E+04 -0.84511289033E+02  0.39990397859E+03  0.13130012087E+04  0.10100000352E+00 0.  1.
</event>
<event>
 5   0  0.1001573E-05  0.2650343E+04  0.7818609E-02  0.8351299E-01
        2   -1    0    0  501    0  0.00000000000E+00  0.00000000000E+00  0.18703808532E+04  0.18703808532E+04  0.25500000920E-02 0. -1.
       -2   -1    0    0    0  501  0.00000000000E+00  0.00000000000E+00 -0.93888897035E+03  0.93888897035E+03  0.25500000920E-02 0.  1.
    10030    2    1    2    0    0  0.00000000000E+00  0.00000000000E+00  0.93149188283E+03  0.28092698235E+04  0.26503433388E+04 0.  0.
        1    1    3    3  502    0 -0.11752352330E+04  0.38742204893E+03 -0.36822846074E+02  0.12379941918E+04  0.50400001928E-02 0.  1.
       -1    1    3    3    0  502  0.11752352330E+04 -0.38742204893E+03  0.96831472891E+03  0.15712756318E+04  0.50400001928E-02 0. -1.
</event>
<event>
 5   0  0.9251510E-06  0.2901820E+04  0.7818609E-02  0.8272336E-01
        2   -1    0    0  501    0  0.00000000000E+00  0.00000000000E+00  0.23474350421E+04  0.23474350421E+04  0.25500000920E-02 0. -1.
       -2   -1    0    0    0  501  0.00000000000E+00  0.00000000000E+00 -0.89678328992E+03  0.89678328993E+03  0.25500000920E-02 0.  1.
    10030    2    1    2    0    0  0.00000000000E+00  0.00000000000E+00  0.14506517522E+04  0.32442183321E+04  0.29018204769E+04 0.  0.
        2    1    3    3  502    0  0.70256112115E+03 -0.12230602394E+04  0.34508943711E+03  0.14520864980E+04  0.25500000920E-02 0.  1.
       -2    1    3    3    0  502 -0.70256112115E+03  0.12230602394E+04  0.11055623151E+04  0.17921318341E+04  0.25500000920E-02 0. -1.
</event>
<event>
 5   0  0.3746518E-06  0.2910881E+04  0.7818609E-02  0.8269648E-01
       -1   -1    0    0    0  501  0.00000000000E+00  0.00000000000E+00  0.15229232931E+04  0.15229232931E+04  0.50400001928E-02 0.  1.
        1   -1    0    0  501    0  0.00000000000E+00  0.00000000000E+00 -0.13909476524E+04  0.13909476524E+04  0.50400001928E-02 0. -1.
    10030    2    1    2    0    0  0.00000000000E+00  0.00000000000E+00  0.13197564067E+03  0.29138709455E+04  0.29108806773E+04 0.  0.
        4    1    3    3  502    0 -0.13842250164E+04  0.47736575361E+02  0.51360182992E+03  0.14772088983E+04  0.12699999809E+01 0.  1.
       -4    1    3    3    0  502  0.13842250164E+04 -0.47736575361E+02 -0.38162618925E+03  0.14366620472E+04  0.12699999809E+01 0. -1.
</event>
<event>
 5   0  0.3486236E-06  0.2689761E+04  0.7818609E-02  0.8338335E-01
       -1   -1    0    0    0  501  0.00000000000E+00  0.00000000000E+00  0.97518846792E+03  0.97518846794E+03  0.50400001928E-02 0. -1.
        1   -1    0    0  501    0  0.00000000000E+00  0.00000000000E+00 -0.18547219286E+04  0.18547219286E+04  0.50400001928E-02 0.  1.
    10030    2    1    2    0    0  0.00000000000E+00  0.00000000000E+00 -0.87953346070E+03  0.28299103966E+04  0.26897609083E+04 0.  0.
        5    1    3    3  502    0 -0.11749302124E+03 -0.86717251833E+03 -0.15141963165E+04  0.17488868921E+04  0.46999998093E+01 0.  1.
       -5    1    3    3    0  502  0.11749302124E+03  0.86717251833E+03  0.63466285580E+03  0.10810235044E+04  0.46999998093E+01 0. -1.
</event>
<event>
 5   0  0.1001573E-05  0.2862077E+04  0.7818609E-02  0.8284251E-01
        2   -1    0    0  501    0  0.00000000000E+00  0.00000000000E+00  0.20997467982E+04  0.20997467982E+04  0.25500000920E-02 0. -1.
       -2   -1    0    0    0  501  0.00000000000E+00  0.00000000000E+00 -0.97529459919E+03  0.97529459919E+03  0.25500000920E-02 0.  1.
    10030    2    1    2    0    0  0.00000000000E+00  0.00000000000E+00  0.11244521990E+04  0.30750413974E+04  0.28620773658E+04 0.  0.
        1    1    3    3  502    0 -0.12223569436E+04 -0.50383961103E+03 -0.26115408490E+02  0.13223815129E+04  0.50400001928E-02 0.  1.
       -1    1    3    3    0  502  0.12223569436E+04  0.50383961103E+03  0.11505676075E+04  0.17526598845E+04  0.50400001928E-02 0. -1.
</event>
<event>
 5   0  0.3474078E-06  0.2996032E+04  0.7818609E-02  0.8244865E-01
       -1   -1    0    0    0  501  0.00000000000E+00  0.00000000000E+00  0.83726899766E+03  0.83726899767E+03  0.50400001928E-02 0. -1.
        1   -1    0    0  501    0  0.00000000000E+00  0.00000000000E+00 -0.26802050511E+04  0.26802050511E+04  0.50400001928E-02 0.  1.
    10030    2    1    2    0    0  0.00000000000E+00  0.00000000000E+00 -0.18429360535E+04  0.35174740488E+04  0.29960324409E+04 0.  0.
        3    1    3    3  502    0 -0.61948432564E+03 -0.52519429431E+03  0.55636511482E+03  0.98444503538E+03  0.10100000352E+00 0. -1.
       -3    1    3    3    0  502  0.61948432564E+03  0.52519429431E+03 -0.23993011683E+04  0.25330290134E+04  0.10100000352E+00 0.  1.
</event>
<event>
 5   0  0.9251510E-06  0.2889559E+04  0.7818609E-02  0.8275991E-01
       -2   -1    0    0    0  501  0.00000000000E+00  0.00000000000E+00  0.10977347554E+04  0.10977347554E+04  0.25500000920E-02 0. -1.
        2   -1    0    0  501    0  0.00000000000E+00  0.00000000000E+00 -0.19015406623E+04  0.19015406623E+04  0.25500000920E-02 0.  1.
    10030    2    1    2    0    0  0.00000000000E+00  0.00000000000E+00 -0.80380590695E+03  0.29992754177E+04  0.28895586332E+04 0.  0.
        2    1    3    3  502    0 -0.69524405496E+03 -0.51223887472E+03 -0.16041726900E+04  0.18218460363E+04  0.25500000920E-02 0.  1.
       -2    1    3    3    0  502  0.69524405496E+03  0.51223887472E+03  0.80036678302E+03  0.11774293814E+04  0.25500000920E-02 0. -1.
</event>
<event>
 5   0  0.9251510E-06  0.2905201E+04  0.7818609E-02  0.8271332E-01
        2   -1    0    0  501    0  0.00000000000E+00  0.00000000000E+00  0.20043496291E+04  0.20043496291E+04  0.25500000920E-02 0.  1.
       -2   -1    0    0    0  501  0.00000000000E+00  0.00000000000E+00 -0.10527344079E+04  0.10527344079E+04  0.25500000920E-02 0. -1.
    10030    2    1    2    0    0  0.00000000000E+00  0.00000000000E+00  0.95161522127E+03  0.30570840370E+04  0.29052007297E+04 0.  0.
        2    1    3    3  502    0  0.98433302291E+03 -0.96957130368E+03  0.39591924830E+01  0.13816641010E+04  0.25500000920E-02 0.  1.
       -2    1    3    3    0  502 -0.98433302291E+03  0.96957130368E+03  0.94765602879E+03  0.16754199360E+04  0.25500000920E-02 0. -1.
</event>
<event>
 5   0  0.9251510E-06  0.2909522E+04  0.7818609E-02  0.8270050E-01
        2   -1    0    0  501    0  0.00000000000E+00  0.00000000000E+00  0.23052298972E+04  0.23052298972E+04  0.25500000920E-02 0.  1.
       -2   -1    0    0    0  501  0.00000000000E+00  0.00000000000E+00 -0.91805561217E+03  0.91805561217E+03  0.25500000920E-02 0. -1.
    10030    2    1    2    0    0  0.00000000000E+00  0.00000000000E+00  0.13871742850E+04  0.32232855094E+04  0.29095217782E+04 0.  0.
        2    1    3    3  502    0 -0.11976128481E+04  0.68841130620E+03  0.11990132070E+04  0.18291580935E+04  0.25500000920E-02 0.  1.
       -2    1    3    3    0  502  0.11976128481E+04 -0.68841130620E+03  0.18816107802E+03  0.13941274159E+04  0.25500000920E-02 0. -1.
</event>
<event>
 5   0  0.9646321E-06  0.2904265E+04  0.7818609E-02  0.8271610E-01
       -2   -1    0    0    0  501  0.00000000000E+00  0.00000000000E+00  0.13083626651E+04  0.13083626651E+04  0.25500000920E-02 0. -1.
        2   -1    0    0  501    0  0.00000000000E+00  0.00000000000E+00 -0.16117003440E+04  0.16117003440E+04  0.25500000920E-02 0.  1.
    10030    2    1    2    0    0  0.00000000000E+00  0.00000000000E+00 -0.30333767892E+03  0.29200630091E+04  0.29042648346E+04 0.  0.
        3    1    3    3  502    0  0.28188953328E+03 -0.14244930094E+04 -0.14481233875E+03  0.14593192476E+04  0.10100000352E+00 0.  1.
       -3    1    3    3    0  502 -0.28188953328E+03  0.14244930094E+04 -0.15852534018E+03  0.14607437614E+04  0.10100000352E+00 0. -1.
</event>
<event>
 5   0  0.1001573E-05  0.2859339E+04  0.7818609E-02  0.8285079E-01
        2   -1    0    0  501    0  0.00000000000E+00  0.00000000000E+00  0.21382801519E+04  0.21382801519E+04  0.25500000920E-02 0.  1.
       -2   -1    0    0    0  501  0.00000000000E+00  0.00000000000E+00 -0.95588733093E+03  0.95588733093E+03  0.25500000920E-02 0. -1.
    10030    2    1    2    0    0  0.00000000000E+00  0.00000000000E+00  0.11823928210E+04  0.30941674829E+04  0.28593390196E+04 0.  0.
        1    1    3    3  502    0  0.12577888920E+04 -0.39057432433E+03 -0.10697386760E+02  0.13170784464E+04  0.50400001928E-02 0. -1.
       -1    1    3    3    0  502 -0.12577888920E+04  0.39057432433E+03  0.11930902078E+04  0.17770890365E+04  0.50400001928E-02 0.  1.
</event>
<event>
 5   0  0.9360689E-06  0.2909107E+04  0.7818609E-02  0.8270173E-01
       -2   -1    0    0    0  501  0.00000000000E+00  0.00000000000E+00  0.21409376878E+04  0.21409376878E+04  0.25500000920E-02 0. -1.
        2   -1    0    0  501    0  0.00000000000E+00  0.00000000000E+00 -0.98822402536E+03  0.98822402536E+03  0.25500000920E-02 0.  1.
    10030    2    1    2    0    0  0.00000000000E+00  0.00000000000E+00  0.11527136625E+04  0.31291617132E+04  0.29091071207E+04 0.  0.
        5    1    3    3  502    0 -0.11022980985E+04  0.47286970242E+03 -0.30870687816E+03  0.12385430473E+04  0.46999998093E+01 0.  1.
       -5    1    3    3    0  502  0.11022980985E+04 -0.47286970242E+03  0.14614205406E+04  0.18906186659E+04  0.46999998093E+01 0. -1.
</event>
<event>
 5   0  0.3746518E-06  0.2886532E+04  0.7818609E-02  0.8276896E-01
        1   -1    0    0  501    0  0.00000000000E+00  0.00000000000E+00  0.18210778185E+04  0.18210778185E+04  0.50400001928E-02 0. -1.
       -1   -1    0    0    0  501  0.00000000000E+00  0.00000000000E+00 -0.11438370414E+04  0.11438370414E+04  0.50400001928E-02 0.  1.
    10030    2    1    2    0    0  0.00000000000E+00  0.00000000000E+00  0.67724077709E+03  0.29649148600E+04  0.28865316656E+04 0.  0.
        4    1    3    3  502    0  0.48720798881E+02  0.12753759046E+04  0.10307560108E+04  0.16405538640E+04  0.12699999809E+01 0. -1.
       -4    1    3    3    0  502 -0.48720798881E+02 -0.12753759046E+04 -0.35351523367E+03  0.13243609959E+04  0.12699999809E+01 0.  1.
</event>
<event>
 5   0  0.3486236E-06  0.2863088E+04  0.7818609E-02  0.8283945E-01
        1   -1    0    0  501    0  0.00000000000E+00  0.00000000000E+00  0.23835782074E+04  0.23835782074E+04  0.50400001928E-02 0. -1.
       -1   -1    0    0    0  501  0.00000000000E+00  0.00000000000E+00 -0.85976560913E+03  0.85976560915E+03  0.50400001928E-02 0.  1.
    10030    2    1    2    0    0  0.00000000000E+00  0.00000000000E+00  0.15238125983E+04  0.32433438166E+04  0.28630882414E+04 0.  0.
        5    1    3    3  502    0 -0.77576807382E+02  0.23786571153E+03 -0.83479694426E+03  0.87149657825E+03  0.46999998093E+01 0.  1.
       -5    1    3    3    0  502  0.77576807382E+02 -0.23786571153E+03  0.23586095425E+04  0.23718472383E+04  0.46999998093E+01 0. -1.
</event>
<event>
 5   0  0.9505359E-06  0.2787775E+04  0.7818609E-02  0.8307074E-01
       -2   -1    0    0    0  501  0.00000000000E+00  0.00000000000E+00  0.99583362628E+03  0.99583362628E+03  0.25500000920E-02 0. -1.
        2   -1    0    0  501    0  0.00000000000E+00  0.00000000000E+00 -0.19510510008E+04  0.19510510008E+04  0.25500000920E-02 0.  1.
    10030    2    1    2    0    0  0.00000000000E+00  0.00000000000E+00 -0.95521737451E+03  0.29468846271E+04  0.27877748784E+04 0.  0.
        4    1    3    3  502    0  0.84582283661E+03  0.24247554810E+03  0.66516122598E+03  0.11030193706E+04  0.12699999809E+01 0. -1.
       -4    1    3    3    0  502 -0.84582283661E+03 -0.24247554810E+03 -0.16203786005E+04  0.18438652565E+04  0.12699999809E+01 0.  1.
</event>
<event>
 5   0  0.9251510E-06  0.2802291E+04  0.7818609E-02  0.8302558E-01
       -2   -1    0    0    0  501  0.00000000000E+00  0.00000000000E+00  0.10457866565E+04  0.10457866565E+04  0.25500000920E-02 0. -1.
        2   -1    0    0  501    0  0.00000000000E+00  0.00000000000E+00 -0.18772549332E+04  0.18772549332E+04  0.25500000920E-02 0.  1.
    10030    2    1    2    0    0  0.00000000000E+00  0.00000000000E+00 -0.83146827670E+03  0.29230415897E+04  0.28022906059E+04 0.  0.
        2    1    3    3  502    0  0.89441984078E+03  0.52444754944E+03  0.56730624534E+03  0.11818918985E+04  0.25500000920E-02 0. -1.
       -2    1    3    3    0  502 -0.89441984078E+03 -0.52444754944E+03 -0.13987745220E+04  0.17411496912E+04  0.25500000920E-02 0.  1.
</event>
<event>
 5   0  0.3486236E-06  0.2913878E+04  0.7818609E-02  0.8268760E-01
       -1   -1    0    0    0  501  0.00000000000E+00  0.00000000000E+00  0.12080509870E+04  0.12080509870E+04  0.50400001928E-02 0. -1.
        1   -1    0    0  501    0  0.00000000000E+00  0.00000000000E+00 -0.17571040723E+04  0.17571040723E+04  0.50400001928E-02 0.  1.
    10030    2    1    2    0    0  0.00000000000E+00  0.00000000000E+00 -0.54905308530E+03  0.29651550592E+04  0.29138780405E+04 0.  0.
        5    1    3    3  502    0  0.91379371471E+03 -0.63446525428E+03 -0.12318711820E+04  0.16598475264E+04  0.46999998093E+01 0.  1.
       -5    1    3    3    0  502 -0.91379371471E+03  0.63446525428E+03  0.68281809672E+03  0.13053075328E+04  0.46999998093E+01 0. -1.
</event>
<event>
 5   0  0.3649705E-06  0.2919821E+04  0.7818609E-02  0.8267004E-01
        1   -1    0    0  501    0  0.00000000000E+00  0.00000000000E+00  0.11473882285E+04  0.11473882285E+04  0.50400001928E-02 0. -1.
       -1   -1    0    0    0  501  0.00000000000E+00  0.00000000000E+00 -0.18575571389E+04  0.18575571389E+04  0.50400001928E-02 0.  1.
    10030    2    1    2    0    0  0.00000000000E+00  0.00000000000E+00 -0.71016891044E+03  0.30049453674E+04  0.29198213609E+04 0.  0.
        2    1    3    3  502    0  0.42995729659E+03  0.70591900044E+03 -0.15935607992E+04  0.17951659903E+04  0.25500000920E-02 0.  1.
       -2    1    3    3    0  502 -0.42995729659E+03 -0.70591900044E+03  0.88339188874E+03  0.12097793771E+04  0.25500000920E-02 0. -1.
</event>
<event>
 5   0  0.9360689E-06  0.2901974E+04  0.7818609E-02  0.8272290E-01
        2   -1    0    0  501    0  0.00000000000E+00  0.00000000000E+00  0.14962565440E+04  0.14962565441E+04  0.25500000920E-02 0. -1.
       -2   -1    0    0    0  501  0.00000000000E+00  0.00000000000E+00 -0.14070867902E+04  0.14070867902E+04  0.25500000920E-02 0.  1.
    10030    2    1    2    0    0  0.00000000000E+00  0.00000000000E+00  0.89169753845E+02  0.29033433343E+04  0.29019736855E+04 0.  0.
        5    1    3    3  502    0 -0.22382255640E+03  0.76063869103E+03  0.12603427462E+04  0.14890109748E+04  0.46999998093E+01 0. -1.
       -5    1    3    3    0  502  0.22382255640E+03 -0.76063869103E+03 -0.11711729924E+04  0.14143323595E+04  0.46999998093E+01 0.  1.
</event>
<event>
 5   0  0.3649705E-06  0.2804609E+04  0.7818609E-02  0.8301839E-01
        1   -1    0    0  501    0  0.00000000000E+00  0.00000000000E+00  0.21372505335E+04  0.21372505336E+04  0.50400001928E-02 0. -1.
       -1   -1    0    0    0  501  0.00000000000E+00  0.00000000000E+00 -0.92008773710E+03  0.92008773711E+03  0.50400001928E-02 0.  1.
    10030    2    1    2    0    0  0.00000000000E+00  0.00000000000E+00  0.12171627964E+04  0.30573382707E+04  0.28046090687E+04 0.  0.
        2    1    3    3  502    0  0.20824569465E+03 -0.11954210499E+04 -0.15765206740E+03  0.12236224623E+04  0.25500000920E-02 0.  1.
       -2    1    3    3    0  502 -0.20824569465E+03  0.11954210499E+04  0.13748148638E+04  0.18337158083E+04  0.25500000920E-02 0. -1.
</event>
<event>
 5   0  0.3474078E-06  0.2885386E+04  0.7818609E-02  0.8277239E-01
       -1   -1    0    0    0  501  0.00000000000E+00  0.00000000000E+00  0.17752749866E+04  0.17752749866E+04  0.50400001928E-02 0. -1.
        1   -1    0    0  501    0  0.00000000000E+00  0.00000000000E+00 -0.11724169453E+04  0.11724169453E+04  0.50400001928E-02 0.  1.
    10030    2    1    2    0    0  0.00000000000E+00  0.00000000000E+00  0.60285804126E+03  0.29476919319E+04  0.28853855734E+04 0.  0.
        3    1    3    3  502    0  0.11151774044E+04 -0.22152924707E+03 -0.60581677758E+03  0.12882972595E+04  0.10100000352E+00 0.  1.
       -3    1    3    3    0  502 -0.11151774044E+04  0.22152924707E+03  0.12086748188E+04  0.16593946723E+04  0.10100000352E+00 0. -1.
</event>
<event>
 5   0  0.3564340E-06  0.2851178E+04  0.7818609E-02  0.8287554E-01
       -1   -1    0    0    0  501  0.00000000000E+00  0.00000000000E+00  0.13452095130E+04  0.13452095131E+04  0.50400001928E-02 0. -1.
        1   -1    0    0  501    0  0.00000000000E+00  0.00000000000E+00 -0.15107710264E+04  0.15107710264E+04  0.50400001928E-02 0.  1.
    10030    2    1    2    0    0  0.00000000000E+00  0.00000000000E+00 -0.16556151337E+03  0.28559805395E+04  0.28511776913E+04 0.  0.
        1    1    3    3  502    0 -0.97462181731E+03  0.53417430854E+03 -0.97707450211E+03  0.14798325788E+04  0.50400001928E-02 0.  1.
       -1    1    3    3    0  502  0.97462181731E+03 -0.53417430854E+03  0.81151298874E+03  0.13761479606E+04  0.50400001928E-02 0. -1.
</event>
<event>
 5   0  0.1001573E-05  0.3016520E+04  0.7818609E-02  0.8239029E-01
       -2   -1    0    0    0  501  0.00000000000E+00  0.00000000000E+00  0.11761816925E+04  0.11761816925E+04  0.25500000920E-02 0.  1.
        2   -1    0    0  501    0  0.00000000000E+00  0.00000000000E+00 -0.19340961240E+04  0.19340961240E+04  0.25500000920E-02 0. -1.
    10030    2    1    2    0    0  0.00000000000E+00  0.00000000000E+00 -0.75791443151E+03  0.31102778166E+04  0.30165201492E+04 0.  0.
        1    1    3    3  502    0  0.14140832523E+04  0.41680755163E+02  0.16024977969E+03  0.14237446125E+04  0.50400001928E-02 0.  1.
       -1    1    3    3    0  502 -0.14140832523E+04 -0.41680755163E+02 -0.91816421120E+03  0.16865332041E+04  0.50400001928E-02 0. -1.
</event>
<event>
 5   0  0.9646321E-06  0.2915059E+04  0.7818609E-02  0.8268411E-01
        2   -1    0    0  501    0  0.00000000000E+00  0.00000000000E+00  0.18961947864E+04  0.18961947864E+04  0.25500000920E-02 0. -1.
       -2   -1    0    0    0  501  0.00000000000E+00  0.00000000000E+00 -0.11203450759E+04  0.11203450759E+04  0.25500000920E-02 0.  1.
    10030    2    1    2    0    0  0.00000000000E+00  0.00000000000E+00  0.77584971053E+03  0.30165398623E+04  0.29150591705E+04 0.  0.
        3    1    3    3  502    0  0.10230757150E+04  0.99635897542E+03  0.86267930729E+02  0.14306842044E+04  0.10100000352E+00 0.  1.
       -3    1    3    3    0  502 -0.10230757150E+04 -0.99635897542E+03  0.68958177980E+03  0.15858556579E+04  0.10100000352E+00 0. -1.
</event>
<event>
 5   0  0.9360689E-06  0.2795095E+04  0.7818609E-02  0.8304793E-01
       -2   -1    0    0    0  501  0.00000000000E+00  0.00000000000E+00  0.98597600489E+03  0.98597600490E+03  0.25500000920E-02 0. -1.
        2   -1    0    0  501    0  0.00000000000E+00  0.00000000000E+00 -0.19809197747E+04  0.19809197747E+04  0.25500000920E-02 0.  1.
    10030    2    1    2    0    0  0.00000000000E+00  0.00000000000E+00 -0.99494376985E+03  0.29668957796E+04  0.27950952510E+04 0.  0.
        5    1    3    3  502    0 -0.76569820240E+03  0.55856943633E+03 -0.15876453895E+04  0.18490358366E+04  0.46999998093E+01 0.  1.
       -5    1    3    3    0  502  0.76569820240E+03 -0.55856943633E+03  0.59270161961E+03  0.11178599430E+04  0.46999998093E+01 0. -1.
</event>
<event>
 5   0  0.9505359E-06  0.2908292E+04  0.7818609E-02  0.8270415E-01
        2   -1    0    0  501    0  0.00000000000E+00  0.00000000000E+00  0.13490724340E+04  0.13490724340E+04  0.25500000920E-02 0.  1.
       -2   -1    0    0    0  501  0.00000000000E+00  0.00000000000E+00 -0.15674027822E+04  0.15674027822E+04  0.25500000920E-02 0. -1.
    10030    2    1    2    0    0  0.00000000000E+00  0.00000000000E+00 -0.21833034822E+03  0.29164752162E+04  0.29082915167E+04 0.  0.
        4    1    3    3  502    0 -0.35253434073E+03 -0.85798860961E+03 -0.12321884319E+04  0.15423082896E+04  0.12699999809E+01 0. -1.
       -4    1    3    3    0  502  0.35253434073E+03  0.85798860961E+03  0.10138580837E+04  0.13741669266E+04  0.12699999809E+01 0.  1.
</event>
<event>
 5   0  0.1001573E-05  0.2862933E+04  0.7818609E-02  0.8283992E-01
        2   -1    0    0  501    0  0.00000000000E+00  0.00000000000E+00  0.11322162767E+04  0.11322162767E+04  0.25500000920E-02 0.  1.
       -2   -1    0    0    0  501  0.00000000000E+00  0.00000000000E+00 -0.18098100930E+04  0.18098100930E+04  0.25500000920E-02 0. -1.
    10030    2    1    2    0    0  0.00000000000E+00  0.00000000000E+00 -0.67759381635E+03  0.29420263697E+04  0.28629330730E+04 0.  0.
        1    1    3    3  502    0  0.38800393592E+03 -0.46807594161E+03  0.99294314358E+03  0.11642930163E+04  0.50400001928E-02 0.  1.
       -1    1    3    3    0  502 -0.38800393592E+03  0.46807594161E+03 -0.16705369599E+04  0.17777333534E+04  0.50400001928E-02 0. -1.
</event>
<event>
 5   0  0.3649705E-06  0.2944684E+04  0.7818609E-02  0.8259705E-01
       -1   -1    0    0    0  501  0.00000000000E+00  0.00000000000E+00  0.13518321519E+04  0.13518321519E+04  0.50400001928E-02 0. -1.
        1   -1    0    0  501    0  0.00000000000E+00  0.00000000000E+00 -0.16035948826E+04  0.16035948826E+04  0.50400001928E-02 0.  1.
    10030    2    1    2    0    0  0.00000000000E+00  0.00000000000E+00 -0.25176273076E+03  0.29554270345E+04  0.29446841059E+04 0.  0.
        2    1    3    3  502    0 -0.10793846328E+04  0.90419239724E+03 -0.55774881933E+03  0.15145028300E+04  0.25500000920E-02 0.  1.
       -2    1    3    3    0  502  0.10793846328E+04 -0.90419239724E+03  0.30598608857E+03  0.14409242045E+04  0.25500000920E-02 0. -1.
</event>
<event>
 5   0  0.3474078E-06  0.2900284E+04  0.7818609E-02  0.8272793E-01
        1   -1    0    0  501    0  0.00000000000E+00  0.00000000000E+00  0.14844976036E+04  0.14844976036E+04  0.50400001928E-02 0.  1.
       -1   -1    0    0    0  501  0.00000000000E+00  0.00000000000E+00 -0.14165816185E+04  0.14165816185E+04  0.50400001928E-02 0. -1.
    10030    2    1    2    0    0  0.00000000000E+00  0.00000000000E+00  0.67915985056E+02  0.29010792221E+04  0.29002841364E+04 0.  0.
        3    1    3    3  502    0  0.65366203302E+03 -0.84669139738E+03 -0.94546906937E+03  0.14276106427E+04  0.10100000352E+00 0. -1.
       -3    1    3    3    0  502 -0.65366203302E+03  0.84669139738E+03  0.10133850544E+04  0.14734685794E+04  0.10100000352E+00 0.  1.
</event>
<event>
 5   0  0.9646321E-06  0.3021762E+04  0.7818609E-02  0.8237544E-01
        2   -1    0    0  501    0  0.00000000000E+00  0.00000000000E+00  0.28669244831E+04  0.28669244831E+04  0.25500000920E-02 0. -1.
       -2   -1    0    0    0  501  0.00000000000E+00  0.00000000000E+00 -0.79624038368E+03  0.79624038369E+03  0.25500000920E-02 0.  1.
    10030    2    1    2    0    0  0.00000000000E+00  0.00000000000E+00  0.20706840994E+04  0.36631648668E+04  0.30217617712E+04 0.  0.
        3    1    3    3  502    0 -0.17314263219E+03 -0.10089610342E+04  0.23824149173E+04  0.25930448489E+04  0.10100000352E+00 0. -1.
       -3    1    3    3    0  502  0.17314263219E+03  0.10089610342E+04 -0.31173081792E+03  0.10701200179E+04  0.10100000352E+00 0.  1.
</event>
<event>
 5   0  0.9646321E-06  0.2817048E+04  0.7818609E-02  0.8297995E-01
        2   -1    0    0  501    0  0.00000000000E+00  0.00000000000E+00  0.24033793741E+04  0.24033793741E+04  0.25500000920E-02 0.  1.
       -2   -1    0    0    0  501  0.00000000000E+00  0.00000000000E+00 -0.82547917445E+03  0.82547917445E+03  0.25500000920E-02 0. -1.
    10030    2    1    2    0    0  0.00000000000E+00  0.00000000000E+00  0.15779001996E+04  0.32288585485E+04  0.28170478318E+04 0.  0.
        3    1    3    3  502    0  0.10263801562E+03 -0.27842761227E+03 -0.78924458996E+03  0.84318653364E+03  0.10100000352E+00 0. -1.
       -3    1    3    3    0  502 -0.10263801562E+03  0.27842761227E+03  0.23671447896E+04  0.23856720149E+04  0.10100000352E+00 0.  1.
</event>
<event>
 5   0  0.3649705E-06  0.2924291E+04  0.7818609E-02  0.8265687E-01
        1   -1    0    0  501    0  0.00000000000E+00  0.00000000000E+00  0.10520908043E+04  0.10520908043E+04  0.50400001928E-02 0. -1.
       -1   -1    0    0    0  501  0.00000000000E+00  0.00000000000E+00 -0.20320198770E+04  0.20320198770E+04  0.50400001928E-02 0.  1.
    10030    2    1    2    0    0  0.00000000000E+00  0.00000000000E+00 -0.97992907276E+03  0.30841106813E+04  0.29242909751E+04 0.  0.
        2    1    3    3  502    0  0.47760269586E+03 -0.51051379695E+03  0.86440829635E+03  0.11117240551E+04  0.25500000920E-02 0. -1.
       -2    1    3    3    0  502 -0.47760269586E+03  0.51051379695E+03 -0.18443373691E+04  0.19723866262E+04  0.25500000920E-02 0.  1.
</event>
<event>
 5   0  0.3564340E-06  0.2954178E+04  0.7818609E-02  0.8256938E-01
       -1   -1    0    0    0  501  0.00000000000E+00  0.00000000000E+00  0.80001677790E+03  0.80001677792E+03  0.50400001928E-02 0.  1.
        1   -1    0    0  501    0  0.00000000000E+00  0.00000000000E+00 -0.27271828608E+04  0.27271828608E+04  0.50400001928E-02 0. -1.
    10030    2    1    2    0    0  0.00000000000E+00  0.00000000000E+00 -0.19271660829E+04  0.35271996388E+04  0.29541780888E+04 0.  0.
        1    1    3    3  502    0  0.21479770805E+03  0.39430311119E+03 -0.26437235350E+04  0.26815829520E+04  0.50400001928E-02 0. -1.
       -1    1    3    3    0  502 -0.21479770805E+03 -0.39430311119E+03  0.71655745204E+03  0.84561668679E+03  0.50400001928E-02 0.  1.
</event>
<event>
 5   0  0.9360689E-06  0.2836603E+04  0.7818609E-02  0.8291994E-01
       -2   -1    0    0    0  501  0.00000000000E+00  0.00000000000E+00  0.17330559668E+04  0.17330559668E+04  0.25500000920E-02 0. -1.
        2   -1    0    0  501    0  0.00000000000E+00  0.00000000000E+00 -0.11607120522E+04  0.11607120522E+04  0.25500000920E-02 0.  1.
    10030    2    1    2    0    0  0.00000000000E+00  0.00000000000E+00  0.57234391464E+03  0.28937680190E+04  0.28366028610E+04 0.  0.
        5    1    3    3  502    0  0.67957518141E+03 -0.15155434096E+03 -0.97435278624E+03  0.11975711200E+04  0.46999998093E+01 0.  1.
       -5    1    3    3    0  502 -0.67957518141E+03  0.15155434096E+03  0.15466967009E+04  0.16961968989E+04  0.46999998093E+01 0. -1.
</event>
<event>
 5   0  0.3746518E-06  0.2892910E+04  0.7818609E-02  0.8274990E-01
        1   -1    0    0  501    0  0.00000000000E+00  0.00000000000E+00  0.27127472909E+04  0.27127472909E+04  0.50400001928E-02 0. -1.
       -1   -1    0    0    0  501  0.00000000000E+00  0.00000000000E+00 -0.77125969673E+03  0.77125969675E+03  0.50400001928E-02 0.  1.
    10030    2    1    2    0    0  0.00000000000E+00  0.00000000000E+00  0.19414875942E+04  0.34840069877E+04  0.28929104051E+04 0.  0.
        4    1    3    3  502    0  0.11964627748E+04 -0.55628649905E+03  0.16845070387E+04  0.21397531206E+04  0.12699999809E+01 0. -1.
       -4    1    3    3    0  502 -0.11964627748E+04  0.55628649905E+03  0.25698055544E+03  0.13442538671E+04  0.12699999809E+01 0.  1.
</event>
<event>
 5   0  0.3564340E-06  0.2897357E+04  0.7818609E-02  0.8273664E-01
       -1   -1    0    0    0  501  0.00000000000E+00  0.00000000000E+00  0.11825762669E+04  0.11825762669E+04  0.50400001928E-02 0. -1.
        1   -1    0    0  501    0  0.00000000000E+00  0.00000000000E+00 -0.17746588798E+04  0.17746588798E+04  0.50400001928E-02 0.  1.
    10030    2    1    2    0    0  0.00000000000E+00  0.00000000000E+00 -0.59208261292E+03  0.29572351467E+04  0.28973570529E+04 0.  0.
        1    1    3    3  502    0 -0.94202215540E+03 -0.89618708009E+03 -0.94808059103E+03  0.16091655698E+04  0.50400001928E-02 0. -1.
       -1    1    3    3    0  502  0.94202215540E+03  0.89618708009E+03  0.35599797811E+03  0.13480695769E+04  0.50400001928E-02 0.  1.
</event>
<event>
 5   0  0.9505359E-06  0.2908860E+04  0.7818609E-02  0.8270246E-01
       -2   -1    0    0    0  501  0.00000000000E+00  0.00000000000E+00  0.27513452184E+04  0.27513452184E+04  0.25500000920E-02 0. -1.
        2   -1    0    0  501    0  0.00000000000E+00  0.00000000000E+00 -0.76884792792E+03  0.76884792793E+03  0.25500000920E-02 0.  1.
    10030    2    1    2    0    0  0.00000000000E+00  0.00000000000E+00  0.19824972905E+04  0.35201931463E+04  0.29088596186E+04 0.  0.
        4    1    3    3  502    0 -0.39175838426E+03 -0.13678490506E+04  0.13560656079E+04  0.19655536632E+04  0.12699999809E+01 0.  1.
       -4    1    3    3    0  502  0.39175838426E+03  0.13678490506E+04  0.62643168252E+03  0.15546394832E+04  0.12699999809E+01 0. -1.
</event>
<event>
 5   0  0.3474078E-06  0.2841621E+04  0.7818609E-02  0.8290462E-01
        1   -1    0    0  501    0  0.00000000000E+00  0.00000000000E+00  0.20850468872E+04  0.20850468872E+04  0.50400001928E-02 0.  1.
       -1   -1    0    0    0  501  0.00000000000E+00  0.00000000000E+00 -0.96818101108E+03  0.96818101109E+03  0.50400001928E-02 0. -1.
    10030    2    1    2    0    0  0.00000000000E+00  0.00000000000E+00  0.11168658761E+04  0.30532278983E+04  0.28416212298E+04 0.  0.
        3    1    3    3  502    0  0.74982901928E+03 -0.27775427571E+03 -0.70346508123E+03  0.10650136743E+04  0.10100000352E+00 0. -1.
       -3    1    3    3    0  502 -0.74982901928E+03  0.27775427571E+03  0.18203309573E+04  0.19882142239E+04  0.10100000352E+00 0.  1.
</event>
<event>
 5   0  0.3564340E-06  0.2898151E+04  0.7818609E-02  0.8273428E-01
        1   -1    0    0  501    0  0.00000000000E+00  0.00000000000E+00  0.20490689639E+04  0.20490689639E+04  0.50400001928E-02 0. -1.
       -1   -1    0    0    0  501  0.00000000000E+00  0.00000000000E+00 -0.10247675340E+04  0.10247675340E+04  0.50400001928E-02 0.  1.
    10030    2    1    2    0    0  0.00000000000E+00  0.00000000000E+00  0.10243014299E+04  0.30738364979E+04  0.28981506856E+04 0.  0.
        1    1    3    3  502    0 -0.12930434512E+04 -0.25157596780E+03  0.11525469713E+04  0.17503189297E+04  0.50400001928E-02 0. -1.
       -1    1    3    3    0  502  0.12930434512E+04  0.25157596780E+03 -0.12824554147E+03  0.13235175682E+04  0.50400001928E-02 0.  1.
</event>
<event>
 5   0  0.3564340E-06  0.2896866E+04  0.7818609E-02  0.8273811E-01
        1   -1    0    0  501    0  0.00000000000E+00  0.00000000000E+00  0.84211836140E+03  0.84211836142E+03  0.50400001928E-02 0. -1.
       -1   -1    0    0    0  501  0.00000000000E+00  0.00000000000E+00 -0.24912857075E+04  0.24912857075E+04  0.50400001928E-02 0.  1.
    10030    2    1    2    0    0  0.00000000000E+00  0.00000000000E+00 -0.16491673461E+04  0.33334040689E+04  0.28968655045E+04 0.  0.
        1    1    3    3  502    0  0.26357894494E+03 -0.76013425208E+03  0.56135931434E+03  0.98102100957E+03  0.50400001928E-02 0. -1.
       -1    1    3    3    0  502 -0.26357894494E+03  0.76013425208E+03 -0.22105266604E+04  0.23523830594E+04  0.50400001928E-02 0.  1.
</event>
<event>
 5   0  0.3486236E-06  0.2905081E+04  0.7818609E-02  0.8271367E-01
       -1   -1    0    0    0  501  0.00000000000E+00  0.00000000000E+00  0.10124090498E+04  0.10124090498E+04  0.50400001928E-02 0. -1.
        1   -1    0    0  501    0  0.00000000000E+00  0.00000000000E+00 -0.20840127722E+04  0.20840127722E+04  0.50400001928E-02 0.  1.
    10030    2    1    2    0    0  0.00000000000E+00  0.00000000000E+00 -0.10716037224E+04  0.30964218220E+04  0.29050806463E+04 0.  0.
        5    1    3    3  502    0 -0.87083592316E+03  0.85067606614E+03  0.30875443692E+03  0.12559284880E+04  0.46999998093E+01 0. -1.
       -5    1    3    3    0  502  0.87083592316E+03 -0.85067606614E+03 -0.13803581593E+04  0.18404933340E+04  0.46999998093E+01 0.  1.
</event>
<event>
 5   0  0.3486236E-06  0.2950592E+04  0.7818609E-02  0.8257982E-01
        1   -1    0    0  501    0  0.00000000000E+00  0.00000000000E+00  0.23818205566E+04  0.23818205566E+04  0.50400001928E-02 0.  1.
       -1   -1    0    0    0  501  0.00000000000E+00  0.00000000000E+00 -0.91379618576E+03  0.91379618577E+03  0.50400001928E-02 0. -1.
    10030    2    1    2    0    0  0.00000000000E+00  0.00000000000E+00  0.14680243708E+04  0.32956167424E+04  0.29505921709E+04 0.  0.
        5    1    3    3  502    0  0.10980870757E+04  0.65451206763E+03 -0.88505767273E+02  0.12814197725E+04  0.46999998093E+01 0. -1.
       -5    1    3    3    0  502 -0.10980870757E+04 -0.65451206763E+03  0.15565301381E+04  0.20141969699E+04  0.46999998093E+01 0.  1.
</event>
<event>
 5   0  0.3649705E-06  0.2893849E+04  0.7818609E-02  0.8274710E-01
        1   -1    0    0  501    0  0.00000000000E+00  0.00000000000E+00  0.18627475996E+04  0.18627475996E+04  0.50400001928E-02 0. -1.
       -1   -1    0    0    0  501  0.00000000000E+00  0.00000000000E+00 -0.11239261334E+04  0.11239261334E+04  0.50400001928E-02 0.  1.
    10030    2    1    2    0    0  0.00000000000E+00  0.00000000000E+00  0.73882146618E+03  0.29866737330E+04  0.28938491371E+04 0.  0.
        2    1    3    3  502    0  0.66252071130E+02 -0.34070464244E+03  0.18191464348E+04  0.18519618629E+04  0.25500000920E-02 0. -1.
       -2    1    3    3    0  502 -0.66252071130E+02  0.34070464244E+03 -0.10803249686E+04  0.11347118701E+04  0.25500000920E-02 0.  1.
</event>
<event>
 5   0  0.3649705E-06  0.2903241E+04  0.7818609E-02  0.8271914E-01
        1   -1    0    0  501    0  0.00000000000E+00  0.00000000000E+00  0.21893708688E+04  0.21893708688E+04  0.50400001928E-02 0.  1.
       -1   -1    0    0    0  501  0.00000000000E+00  0.00000000000E+00 -0.96246944359E+03  0.96246944361E+03  0.50400001928E-02 0. -1.
    10030    2    1    2    0    0  0.00000000000E+00  0.00000000000E+00  0.12269014252E+04  0.31518403124E+04  0.29032413347E+04 0.  0.
        2    1    3    3  502    0 -0.11909655131E+04  0.79194349051E+03  0.34394101879E+03  0.14710094391E+04  0.25500000920E-02 0. -1.
       -2    1    3    3    0  502  0.11909655131E+04 -0.79194349051E+03  0.88296040639E+03  0.16808308733E+04  0.25500000920E-02 0.  1.
</event>
<event>
 5   0  0.3649705E-06  0.2954200E+04  0.7818609E-02  0.8256931E-01
        1   -1    0    0  501    0  0.00000000000E+00  0.00000000000E+00  0.17583612630E+04  0.17583612630E+04  0.50400001928E-02 0.  1.
       -1   -1    0    0    0  501  0.00000000000E+00  0.00000000000E+00 -0.12408287074E+04  0.12408287074E+04  0.50400001928E-02 0. -1.
    10030    2    1    2    0    0  0.00000000000E+00  0.00000000000E+00  0.51753255558E+03  0.29991899704E+04  0.29542004895E+04 0.  0.
        2    1    3    3  502    0 -0.10073093686E+04 -0.72676356840E+03  0.10702941803E+04  0.16396301658E+04  0.25500000920E-02 0.  1.
       -2    1    3    3    0  502  0.10073093686E+04  0.72676356840E+03 -0.55276162469E+03  0.13595598045E+04  0.25500000920E-02 0. -1.
</event>
<event>
 5   0  0.9360689E-06  0.2746360E+04  0.7818609E-02  0.8320118E-01
        2   -1    0    0  501    0  0.00000000000E+00  0.00000000000E+00  0.14792212696E+04  0.14792212696E+04  0.25500000920E-02 0. -1.
       -2   -1    0    0    0  501  0.00000000000E+00  0.00000000000E+00 -0.12747404633E+04  0.12747404633E+04  0.25500000920E-02 0.  1.
    10030    2    1    2    0    0  0.00000000000E+00  0.00000000000E+00  0.20448080628E+03  0.27539617329E+04  0.27463599229E+04 0.  0.
        5    1    3    3  502    0  0.89284207420E+03 -0.92684848136E+03  0.58250872318E+03  0.14126406406E+04  0.46999998093E+01 0.  1.
       -5    1    3    3    0  502 -0.89284207420E+03  0.92684848136E+03 -0.37802791690E+03  0.13413210924E+04  0.46999998093E+01 0. -1.
</event>
<event>
 5   0  0.3564340E-06  0.2756363E+04  0.7818609E-02  0.8316945E-01
       -1   -1    0    0    0  501  0.00000000000E+00  0.00000000000E+00  0.13211237198E+04  0.13211237199E+04  0.50400001928E-02 0. -1.
        1   -1    0    0  501    0  0.00000000000E+00  0.00000000000E+00 -0.14377033249E+04  0.14377033249E+04  0.50400001928E-02 0.  1.
    10030    2    1    2    0    0  0.00000000000E+00  0.00000000000E+00 -0.11657960504E+03  0.27588270447E+04  0.27563627952E+04 0.  0.
        1    1    3    3  502    0 -0.41872244690E+03 -0.12878397578E+04  0.19791606788E+03  0.13685870448E+04  0.50400001928E-02 0. -1.
       -1    1    3    3    0  502  0.41872244690E+03  0.12878397578E+04 -0.31449567292E+03  0.13902400000E+04  0.50400001928E-02 0.  1.
</event>
<event>
 5   0  0.3188375E-06  0.2926387E+04  0.7818609E-02  0.8265070E-01
       -3   -1    0    0    0  501  0.00000000000E+00  0.00000000000E+00  0.30286479945E+04  0.30286479962E+04  0.10100000352E+00 0. -1.
        3   -1    0    0  501    0  0.00000000000E+00  0.00000000000E+00 -0.70689477039E+03  0.70689477760E+03  0.10100000352E+00 0.  1.
    10030    2    1    2    0    0  0.00000000000E+00  0.00000000000E+00  0.23217532241E+04  0.37355427738E+04  0.29263871550E+04 0.  0.
        4    1    3    3  502    0 -0.66375662021E+03 -0.95479071911E+02  0.28209418664E+04  0.28995523328E+04  0.12699999809E+01 0. -1.
       -4    1    3    3    0  502  0.66375662021E+03  0.95479071911E+02 -0.49918864225E+03  0.83599044103E+03  0.12699999809E+01 0.  1.
</event>
<event>
 5   0  0.9646321E-06  0.2928726E+04  0.7818609E-02  0.8264381E-01
       -2   -1    0    0    0  501  0.00000000000E+00  0.00000000000E+00  0.10178079210E+04  0.10178079210E+04  0.25500000920E-02 0. -1.
        2   -1    0    0  501    0  0.00000000000E+00  0.00000000000E+00 -0.21068412535E+04  0.21068412535E+04  0.25500000920E-02 0.  1.
    10030    2    1    2    0    0  0.00000000000E+00  0.00000000000E+00 -0.10890333325E+04  0.31246491746E+04  0.29287264920E+04 0.  0.
        3    1    3    3  502    0  0.58684209411E+03 -0.76294932324E+03 -0.17219205935E+04  0.19726849353E+04  0.10100000352E+00 0.  1.
       -3    1    3    3    0  502 -0.58684209411E+03  0.76294932324E+03  0.63288726100E+03  0.11519642393E+04  0.10100000352E+00 0. -1.
</event>
<event>
 5   0  0.3746518E-06  0.2847906E+04  0.7818609E-02  0.8288548E-01
        1   -1    0    0  501    0  0.00000000000E+00  0.00000000000E+00  0.12732086814E+04  0.12732086814E+04  0.50400001928E-02 0.  1.
       -1   -1    0    0    0  501  0.00000000000E+00  0.00000000000E+00 -0.15925452317E+04  0.15925452317E+04  0.50400001928E-02 0. -1.
    10030    2    1    2    0    0  0.00000000000E+00  0.00000000000E+00 -0.31933655028E+03  0.28657539132E+04  0.28479061885E+04 0.  0.
        4    1    3    3  502    0  0.25199187646E+03 -0.13779652146E+04  0.97575688594E+02  0.14042117598E+04  0.12699999809E+01 0. -1.
       -4    1    3    3    0  502 -0.25199187646E+03  0.13779652146E+04 -0.41691223888E+03  0.14615421534E+04  0.12699999809E+01 0.  1.
</event>
<event>
 5   0  0.9505359E-06  0.2894462E+04  0.7818609E-02  0.8274527E-01
       -2   -1    0    0    0  501  0.00000000000E+00  0.00000000000E+00  0.17234542284E+04  0.17234542284E+04  0.25500000920E-02 0. -1.
        2   -1    0    0  501    0  0.00000000000E+00  0.00000000000E+00 -0.12152786852E+04  0.12152786852E+04  0.25500000920E-02 0.  1.
    10030    2    1    2    0    0  0.00000000000E+00  0.00000000000E+00  0.50817554320E+03  0.29387329135E+04  0.28944617383E+04 0.  0.
        4    1    3    3  502    0 -0.14217217429E+04 -0.26787238557E+03  0.29244451924E+03  0.14759992341E+04  0.12699999809E+01 0.  1.
       -4    1    3    3    0  502  0.14217217429E+04  0.26787238557E+03  0.21573102396E+03  0.14627336794E+04  0.12699999809E+01 0. -1.
</event>
<event>
 5   0  0.1001573E-05  0.2936517E+04  0.7818609E-02  0.8262095E-01
        2   -1    0    0  501    0  0.00000000000E+00  0.00000000000E+00  0.12314991275E+04  0.12314991275E+04  0.25500000920E-02 0.  1.
       -2   -1    0    0    0  501  0.00000000000E+00  0.00000000000E+00 -0.17505351984E+04  0.17505351984E+04  0.25500000920E-02 0. -1.
    10030    2    1    2    0    0  0.00000000000E+00  0.00000000000E+00 -0.51903607092E+03  0.29820343260E+04  0.29365166913E+04 0.  0.
        1    1    3    3  502    0 -0.11459582294E+04 -0.77666217165E+03  0.23730794566E+03  0.14045424357E+04  0.50400001928E-02 0.  1.
       -1    1    3    3    0  502  0.11459582294E+04  0.77666217165E+03 -0.75634401658E+03  0.15774918903E+04  0.50400001928E-02 0. -1.
</event>
<event>
 5   0  0.3474078E-06  0.2976376E+04  0.7818609E-02  0.8250509E-01
        1   -1    0    0  501    0  0.00000000000E+00  0.00000000000E+00  0.13726229967E+04  0.13726229967E+04  0.50400001928E-02 0.  1.
       -1   -1    0    0    0  501  0.00000000000E+00  0.00000000000E+00 -0.16134824873E+04  0.16134824873E+04  0.50400001928E-02 0. -1.
    10030    2    1    2    0    0  0.00000000000E+00  0.00000000000E+00 -0.24085949058E+03  0.29861054840E+04  0.29763757604E+04 0.  0.
        3    1    3    3  502    0  0.12077203549E+04  0.51125545302E+03 -0.82610133667E+03  0.15499722651E+04  0.10100000352E+00 0. -1.
       -3    1    3    3    0  502 -0.12077203549E+04 -0.51125545302E+03  0.58524184609E+03  0.14361332189E+04  0.10100000352E+00 0.  1.
</event>
<event>
 5   0  0.9646321E-06  0.2882546E+04  0.7818609E-02  0.8278090E-01
        2   -1    0    0  501    0  0.00000000000E+00  0.00000000000E+00  0.23574340956E+04  0.23574340956E+04  0.25500000920E-02 0. -1.
       -2   -1    0    0    0  501  0.00000000000E+00  0.00000000000E+00 -0.88115605018E+03  0.88115605019E+03  0.25500000920E-02 0.  1.
    10030    2    1    2    0    0  0.00000000000E+00  0.00000000000E+00  0.14762780454E+04  0.32385901458E+04  0.28825456224E+04 0.  0.
        3    1    3    3  502    0  0.19645639705E+03 -0.29722346286E+03  0.23071785913E+04  0.23345256403E+04  0.10100000352E+00 0. -1.
       -3    1    3    3    0  502 -0.19645639705E+03  0.29722346286E+03 -0.83090054586E+03  0.90406450552E+03  0.10100000352E+00 0.  1.
</event>
<event>
 5   0  0.3746518E-06  0.3398040E+04  0.7818609E-02  0.8138388E-01
        1   -1    0    0  501    0  0.00000000000E+00  0.00000000000E+00  0.17781033571E+04  0.17781033571E+04  0.50400001928E-02 0. -1.
       -1   -1    0    0    0  501  0.00000000000E+00  0.00000000000E+00 -0.16234540415E+04  0.16234540415E+04  0.50400001928E-02 0.  1.
    10030    2    1    2    0    0  0.00000000000E+00  0.00000000000E+00  0.15464931557E+03  0.34015573986E+04  0.33980400712E+04 0.  0.
        4    1    3    3  502    0  0.30095899109E+03  0.67774119303E+03  0.16075527819E+04  0.17703494001E+04  0.12699999809E+01 0. -1.
       -4    1    3    3    0  502 -0.30095899109E+03 -0.67774119303E+03 -0.14529034663E+04  0.16312079985E+04  0.12699999809E+01 0.  1.
</event>
<event>
 5   0  0.9251510E-06  0.2895183E+04  0.7818609E-02  0.8274312E-01
        2   -1    0    0  501    0  0.00000000000E+00  0.00000000000E+00  0.21921018991E+04  0.21921018991E+04  0.25500000920E-02 0. -1.
       -2   -1    0    0    0  501  0.00000000000E+00  0.00000000000E+00 -0.95594157292E+03  0.95594157293E+03  0.25500000920E-02 0.  1.
    10030    2    1    2    0    0  0.00000000000E+00  0.00000000000E+00  0.12361603262E+04  0.31480434721E+04  0.28951831289E+04 0.  0.
        2    1    3    3  502    0 -0.82102700208E+02 -0.49192888375E+03 -0.85957475041E+03  0.99378248707E+03  0.25500000920E-02 0.  1.
       -2    1    3    3    0  502  0.82102700208E+02  0.49192888375E+03  0.20957350766E+04  0.21542609850E+04  0.25500000920E-02 0. -1.
</event>
<event>
 5   0  0.3746518E-06  0.2888494E+04  0.7818609E-02  0.8276309E-01
       -1   -1    0    0    0  501  0.00000000000E+00  0.00000000000E+00  0.11651245183E+04  0.11651245183E+04  0.50400001928E-02 0.  1.
        1   -1    0    0  501    0  0.00000000000E+00  0.00000000000E+00 -0.17902374915E+04  0.17902374915E+04  0.50400001928E-02 0. -1.
    10030    2    1    2    0    0  0.00000000000E+00  0.00000000000E+00 -0.62511297312E+03  0.29553620098E+04  0.28884941371E+04 0.  0.
        4    1    3    3  502    0 -0.10758779148E+04 -0.70672542950E+03 -0.98260150888E+03  0.16194077493E+04  0.12699999809E+01 0. -1.
       -4    1    3    3    0  502  0.10758779148E+04  0.70672542950E+03  0.35748853575E+03  0.13359542606E+04  0.12699999809E+01 0.  1.
</event>
<event>
 5   0  0.3746518E-06  0.2877436E+04  0.7818609E-02  0.8279623E-01
        1   -1    0    0  501    0  0.00000000000E+00  0.00000000000E+00  0.20228802964E+04  0.20228802964E+04  0.50400001928E-02 0. -1.
       -1   -1    0    0    0  501  0.00000000000E+00  0.00000000000E+00 -0.10232485587E+04  0.10232485587E+04  0.50400001928E-02 0.  1.
    10030    2    1    2    0    0  0.00000000000E+00  0.00000000000E+00  0.99963173768E+03  0.30461288551E+04  0.28774359057E+04 0.  0.
        4    1    3    3  502    0 -0.12167194684E+04 -0.71882451668E+03  0.21419707719E+03  0.14293344435E+04  0.12699999809E+01 0.  1.
       -4    1    3    3    0  502  0.12167194684E+04  0.71882451668E+03  0.78543466048E+03  0.16167944116E+04  0.12699999809E+01 0. -1.
</event>
<event>
 5   0  0.3649705E-06  0.2914037E+04  0.7818609E-02  0.8268713E-01
       -1   -1    0    0    0  501  0.00000000000E+00  0.00000000000E+00  0.16936971627E+04  0.16936971627E+04  0.50400001928E-02 0.  1.
        1   -1    0    0  501    0  0.00000000000E+00  0.00000000000E+00 -0.12534133325E+04  0.12534133325E+04  0.50400001928E-02 0. -1.
    10030    2    1    2    0    0  0.00000000000E+00  0.00000000000E+00  0.44028383015E+03  0.29471104952E+04  0.29140367911E+04 0.  0.
        2    1    3    3  502    0  0.60667221855E+03 -0.12634098452E+04  0.62296773786E+03  0.15337354466E+04  0.25500000920E-02 0. -1.
       -2    1    3    3    0  502 -0.60667221855E+03  0.12634098452E+04 -0.18268390771E+03  0.14133750486E+04  0.25500000920E-02 0.  1.
</event>
<event>
 5   0  0.9251510E-06  0.2901066E+04  0.7818609E-02  0.8272560E-01
        2   -1    0    0  501    0  0.00000000000E+00  0.00000000000E+00  0.20224683733E+04  0.20224683733E+04  0.25500000920E-02 0.  1.
       -2   -1    0    0    0  501  0.00000000000E+00  0.00000000000E+00 -0.10403353820E+04  0.10403353820E+04  0.25500000920E-02 0. -1.
    10030    2    1    2    0    0  0.00000000000E+00  0.00000000000E+00  0.98213299130E+03  0.30628037552E+04  0.29010656026E+04 0.  0.
        2    1    3    3  502    0 -0.60092651286E+03  0.47892375091E+03  0.17899258517E+04  0.19479001996E+04  0.25500000920E-02 0.  1.
       -2    1    3    3    0  502  0.60092651286E+03 -0.47892375091E+03 -0.80779286038E+03  0.11149035556E+04  0.25500000920E-02 0. -1.
</event>
<event>
 5   0  0.1001573E-05  0.2180317E+04  0.7818609E-02  0.8526666E-01
        2   -1    0    0  501    0  0.00000000000E+00  0.00000000000E+00  0.14189422000E+04  0.14189422001E+04  0.25500000920E-02 0.  1.
       -2   -1    0    0    0  501  0.00000000000E+00  0.00000000000E+00 -0.83755741872E+03  0.83755741872E+03  0.25500000920E-02 0. -1.
    10030    2    1    2    0    0  0.00000000000E+00  0.00000000000E+00  0.58138478133E+03  0.22564996188E+04  0.21803170103E+04 0.  0.
        1    1    3    3  502    0  0.36177826177E+03  0.60724043823E+03 -0.56825950849E+03  0.90694174538E+03  0.50400001928E-02 0. -1.
       -1    1    3    3    0  502 -0.36177826177E+03 -0.60724043823E+03  0.11496442898E+04  0.13495578734E+04  0.50400001928E-02 0.  1.
</event>
<event>
 5   0  0.9360689E-06  0.2896722E+04  0.7818609E-02  0.8273853E-01
        2   -1    0    0  501    0  0.00000000000E+00  0.00000000000E+00  0.17165281346E+04  0.17165281346E+04  0.25500000920E-02 0. -1.
       -2   -1    0    0    0  501  0.00000000000E+00  0.00000000000E+00 -0.12220889690E+04  0.12220889690E+04  0.25500000920E-02 0.  1.
    10030    2    1    2    0    0  0.00000000000E+00  0.00000000000E+00  0.49443916557E+03  0.29386171037E+04  0.28967223535E+04 0.  0.
        5    1    3    3  502    0 -0.84844693409E+03 -0.40231369708E+03 -0.87145717425E+03  0.12810847776E+04  0.46999998093E+01 0.  1.
       -5    1    3    3    0  502  0.84844693409E+03  0.40231369708E+03  0.13658963398E+04  0.16575323261E+04  0.46999998093E+01 0. -1.
</event>
<event>
 5   0  0.1001573E-05  0.2900019E+04  0.7818609E-02  0.8272872E-01
       -2   -1    0    0    0  501  0.00000000000E+00  0.00000000000E+00  0.96081215346E+03  0.96081215346E+03  0.25500000920E-02 0. -1.
        2   -1    0    0  501    0  0.00000000000E+00  0.00000000000E+00 -0.21882823317E+04  0.21882823317E+04  0.25500000920E-02 0.  1.
    10030    2    1    2    0    0  0.00000000000E+00  0.00000000000E+00 -0.12274701782E+04  0.31490944852E+04  0.29000194892E+04 0.  0.
        1    1    3    3  502    0 -0.43303708523E+03 -0.93044690929E+03 -0.17260546654E+04  0.20081128644E+04  0.50400001928E-02 0.  1.
       -1    1    3    3    0  502  0.43303708523E+03  0.93044690929E+03  0.49858448711E+03  0.11409816208E+04  0.50400001928E-02 0. -1.
</event>
<event>
 5   0  0.3564340E-06  0.2937090E+04  0.7818609E-02  0.8261927E-01
       -1   -1    0    0    0  501  0.00000000000E+00  0.00000000000E+00  0.67025871566E+03  0.67025871568E+03  0.50400001928E-02 0.  1.
        1   -1    0    0  501    0  0.00000000000E+00  0.00000000000E+00 -0.32176006628E+04  0.32176006628E+04  0.50400001928E-02 0. -1.
    10030    2    1    2    0    0  0.00000000000E+00  0.00000000000E+00 -0.25473419471E+04  0.38878593784E+04  0.29370903206E+04 0.  0.
        1    1    3    3  502    0 -0.10209048676E+04  0.34424090552E+03 -0.25946500941E+04  0.28094408092E+04  0.50400001928E-02 0. -1.
       -1    1    3    3    0  502  0.10209048676E+04 -0.34424090552E+03  0.47308146985E+02  0.10784185692E+04  0.50400001928E-02 0.  1.
</event>
<event>
 5   0  0.9360689E-06  0.2853135E+04  0.7818609E-02  0.8286959E-01
        2   -1    0    0  501    0  0.00000000000E+00  0.00000000000E+00  0.16859118458E+04  0.16859118458E+04  0.25500000920E-02 0. -1.
       -2   -1    0    0    0  501  0.00000000000E+00  0.00000000000E+00 -0.12071177931E+04  0.12071177931E+04  0.25500000920E-02 0.  1.
    10030    2    1    2    0    0  0.00000000000E+00  0.00000000000E+00  0.47879405276E+03  0.28930296389E+04  0.28531345476E+04 0.  0.
        5    1    3    3  502    0 -0.44038217814E+03 -0.88465392428E+03 -0.80383471857E+03  0.12738608140E+04  0.46999998093E+01 0.  1.
       -5    1    3    3    0  502  0.44038217814E+03  0.88465392428E+03  0.12826287713E+04  0.16191688249E+04  0.46999998093E+01 0. -1.
</event>
<event>
 5   0  0.3188375E-06  0.2894861E+04  0.7818609E-02  0.8274408E-01
        3   -1    0    0  501    0  0.00000000000E+00  0.00000000000E+00  0.75050637874E+03  0.75050638554E+03  0.10100000352E+00 0. -1.
       -3   -1    0    0    0  501  0.00000000000E+00  0.00000000000E+00 -0.27915214137E+04  0.27915214156E+04  0.10100000352E+00 0.  1.
    10030    2    1    2    0    0  0.00000000000E+00  0.00000000000E+00 -0.20410150350E+04  0.35420278011E+04  0.28948607170E+04 0.  0.
        5    1    3    3  502    0 -0.13590607043E+04 -0.41312775892E+03 -0.68029697034E+03  0.15749751112E+04  0.46999998093E+01 0.  1.
       -5    1    3    3    0  502  0.13590607043E+04  0.41312775892E+03 -0.13607180647E+04  0.19670526898E+04  0.46999998093E+01 0. -1.
</event>
<event>
 5   0  0.9505359E-06  0.2409188E+04  0.7818609E-02  0.8436072E-01
        2   -1    0    0  501    0  0.00000000000E+00  0.00000000000E+00  0.24725844230E+04  0.24725844230E+04  0.25500000920E-02 0.  1.
       -2   -1    0    0    0  501  0.00000000000E+00  0.00000000000E+00 -0.58685434863E+03  0.58685434864E+03  0.25500000920E-02 0. -1.
    10030    2    1    2    0    0  0.00000000000E+00  0.00000000000E+00  0.18857300744E+04  0.30594387716E+04  0.24091881794E+04 0.  0.
        4    1    3    3  502    0  0.16681955873E+03 -0.11401210199E+04  0.49687611029E+03  0.12548275527E+04  0.12699999809E+01 0. -1.
       -4    1    3    3    0  502 -0.16681955873E+03  0.11401210199E+04  0.13888539641E+04  0.18046112189E+04  0.12699999809E+01 0.  1.
</event>
<event>
 5   0  0.9505359E-06  0.2312324E+04  0.7818609E-02  0.8473078E-01
        2   -1    0    0  501    0  0.00000000000E+00  0.00000000000E+00  0.17215328466E+04  0.17215328466E+04  0.25500000920E-02 0.  1.
       -2   -1    0    0    0  501  0.00000000000E+00  0.00000000000E+00 -0.77646541069E+03  0.77646541070E+03  0.25500000920E-02 0. -1.
    10030    2    1    2    0    0  0.00000000000E+00  0.00000000000E+00  0.94506743588E+03  0.24979982573E+04  0.23123241198E+04 0.  0.
        4    1    3    3  502    0 -0.53875830853E+03  0.70142148995E+03  0.12769431444E+04  0.15533312681E+04  0.12699999809E+01 0.  1.
       -4    1    3    3    0  502  0.53875830853E+03 -0.70142148995E+03 -0.33187570853E+03  0.94466698915E+03  0.12699999809E+01 0. -1.
</event>
<event>
 5   0  0.3649705E-06  0.2744424E+04  0.7818609E-02  0.8320733E-01
        1   -1    0    0  501    0  0.00000000000E+00  0.00000000000E+00  0.15474842080E+04  0.15474842080E+04  0.50400001928E-02 0.  1.
       -1   -1    0    0    0  501  0.00000000000E+00  0.00000000000E+00 -0.12167919607E+04  0.12167919607E+04  0.50400001928E-02 0. -1.
    10030    2    1    2    0    0  0.00000000000E+00  0.00000000000E+00  0.33069224733E+03  0.27642761688E+04  0.27444244159E+04 0.  0.
        2    1    3    3  502    0 -0.96938551384E+03  0.51909532683E+03 -0.66144356137E+03  0.12832286693E+04  0.25500000920E-02 0. -1.
       -2    1    3    3    0  502  0.96938551384E+03 -0.51909532683E+03  0.99213580869E+03  0.14810474995E+04  0.25500000920E-02 0.  1.
</event>
<event>
 5   0  0.3474078E-06  0.2672721E+04  0.7818609E-02  0.8343911E-01
       -1   -1    0    0    0  501  0.00000000000E+00  0.00000000000E+00  0.11224860564E+04  0.11224860564E+04  0.50400001928E-02 0. -1.
        1   -1    0    0  501    0  0.00000000000E+00  0.00000000000E+00 -0.15909860791E+04  0.15909860791E+04  0.50400001928E-02 0.  1.
    10030    2    1    2    0    0  0.00000000000E+00  0.00000000000E+00 -0.46850002278E+03  0.27134721355E+04  0.26727212273E+04 0.  0.
        3    1    3    3  502    0 -0.98351489360E+03  0.87021772718E+03 -0.48557078718E+03  0.14001283649E+04  0.10100000352E+00 0. -1.
       -3    1    3    3    0  502  0.98351489360E+03 -0.87021772718E+03  0.17070764403E+02  0.13133437706E+04  0.10100000352E+00 0.  1.
</event>
<event>
 5   0  0.3486236E-06  0.2939823E+04  0.7818609E-02  0.8261127E-01
       -1   -1    0    0    0  501  0.00000000000E+00  0.00000000000E+00  0.13377869200E+04  0.13377869200E+04  0.50400001928E-02 0.  1.
        1   -1    0    0  501    0  0.00000000000E+00  0.00000000000E+00 -0.16150849012E+04  0.16150849012E+04  0.50400001928E-02 0. -1.
    10030    2    1    2    0    0  0.00000000000E+00  0.00000000000E+00 -0.27729798121E+03  0.29528718211E+04  0.29398227535E+04 0.  0.
        5    1    3    3  502    0  0.26264933420E+03 -0.76323153625E+03 -0.13725602930E+04  0.15923099254E+04  0.46999998093E+01 0. -1.
       -5    1    3    3    0  502 -0.26264933420E+03  0.76323153625E+03  0.10952623117E+04  0.13605618958E+04  0.46999998093E+01 0.  1.
</event>
<event>
 5   0  0.9505359E-06  0.2882809E+04  0.7818609E-02  0.8278011E-01
        2   -1    0    0  501    0  0.00000000000E+00  0.00000000000E+00  0.13987582871E+04  0.13987582871E+04  0.25500000920E-02 0. -1.
       -2   -1    0    0    0  501  0.00000000000E+00  0.00000000000E+00 -0.14853511578E+04  0.14853511578E+04  0.25500000920E-02 0.  1.
    10030    2    1    2    0    0  0.00000000000E+00  0.00000000000E+00 -0.86592870676E+02  0.28841094448E+04  0.28828092140E+04 0.  0.
        4    1    3    3  502    0 -0.11148426707E+04  0.30306910766E+03 -0.90561358839E+03  0.14679450429E+04  0.12699999809E+01 0.  1.
       -4    1    3    3    0  502  0.11148426707E+04 -0.30306910766E+03  0.81902071771E+03  0.14161644020E+04  0.12699999809E+01 0. -1.
</event>
<event>
 5   0  0.9360689E-06  0.2445747E+04  0.7818609E-02  0.8422572E-01
        2   -1    0    0  501    0  0.00000000000E+00  0.00000000000E+00  0.16296795463E+04  0.16296795463E+04  0.25500000920E-02 0.  1.
       -2   -1    0    0    0  501  0.00000000000E+00  0.00000000000E+00 -0.91761581049E+03  0.91761581049E+03  0.25500000920E-02 0. -1.
    10030    2    1    2    0    0  0.00000000000E+00  0.00000000000E+00  0.71206373583E+03  0.25472953568E+04  0.24457470987E+04 0.  0.
        5    1    3    3  502    0 -0.78353318496E+03  0.42080761351E+03 -0.51809744117E+03  0.10292960449E+04  0.46999998093E+01 0. -1.
       -5    1    3    3    0  502  0.78353318496E+03 -0.42080761351E+03  0.12301611770E+04  0.15179993119E+04  0.46999998093E+01 0.  1.
</event>
<event>
 5   0  0.1001573E-05  0.2948359E+04  0.7818609E-02  0.8258633E-01
       -2   -1    0    0    0  501  0.00000000000E+00  0.00000000000E+00  0.84807642734E+03  0.84807642735E+03  0.25500000920E-02 0. -1.
        2   -1    0    0  501    0  0.00000000000E+00  0.00000000000E+00 -0.25625106341E+04  0.25625106341E+04  0.25500000920E-02 0.  1.
    10030    2    1    2    0    0  0.00000000000E+00  0.00000000000E+00 -0.17144342067E+04  0.34105870614E+04  0.29483587730E+04 0.  0.
        1    1    3    3  502    0  0.33716111749E+03  0.10793511935E+04 -0.19512889421E+04  0.22552616597E+04  0.50400001928E-02 0.  1.
       -1    1    3    3    0  502 -0.33716111749E+03 -0.10793511935E+04  0.23685473543E+03  0.11553254017E+04  0.50400001928E-02 0. -1.
</event>
<event>
 5   0  0.1001573E-05  0.2546810E+04  0.7818609E-02  0.8386497E-01
       -2   -1    0    0    0  501  0.00000000000E+00  0.00000000000E+00  0.15762729231E+04  0.15762729231E+04  0.25500000920E-02 0. -1.
        2   -1    0    0  501    0  0.00000000000E+00  0.00000000000E+00 -0.10287303372E+04  0.10287303372E+04  0.25500000920E-02 0.  1.
    10030    2    1    2    0    0  0.00000000000E+00  0.00000000000E+00  0.54754258588E+03  0.26050032603E+04  0.25468095930E+04 0.  0.
        1    1    3    3  502    0  0.85488650566E+03  0.76041128324E+03  0.84556484000E+03  0.14226862465E+04  0.50400001928E-02 0. -1.
       -1    1    3    3    0  502 -0.85488650566E+03 -0.76041128324E+03 -0.29802225412E+03  0.11823170138E+04  0.50400001928E-02 0.  1.
</event>
<event>
 5   0  0.3486236E-06  0.2908985E+04  0.7818609E-02  0.8270209E-01
        1   -1    0    0  501    0  0.00000000000E+00  0.00000000000E+00  0.18994368087E+04  0.18994368087E+04  0.50400001928E-02 0.  1.
       -1   -1    0    0    0  501  0.00000000000E+00  0.00000000000E+00 -0.11137769598E+04  0.11137769598E+04  0.50400001928E-02 0. -1.
    10030    2    1    2    0    0  0.00000000000E+00  0.00000000000E+00  0.78565984887E+03  0.30132137685E+04  0.29089853586E+04 0.  0.
        5    1    3    3  502    0  0.31617066729E+03 -0.13848182496E+04  0.71683343248E+03  0.15910869666E+04  0.46999998093E+01 0. -1.
       -5    1    3    3    0  502 -0.31617066729E+03  0.13848182496E+04  0.68826416392E+02  0.14221268020E+04  0.46999998093E+01 0.  1.
</event>
<event>
 5   0  0.3486236E-06  0.2889136E+04  0.7818609E-02  0.8276117E-01
       -1   -1    0    0    0  501  0.00000000000E+00  0.00000000000E+00  0.84919051510E+03  0.84919051511E+03  0.50400001928E-02 0. -1.
        1   -1    0    0  501    0  0.00000000000E+00  0.00000000000E+00 -0.24573723599E+04  0.24573723599E+04  0.50400001928E-02 0.  1.
    10030    2    1    2    0    0  0.00000000000E+00  0.00000000000E+00 -0.16081818448E+04  0.33065628750E+04  0.28891364109E+04 0.  0.
        5    1    3    3  502    0  0.48716885521E+03  0.99761871542E+03  0.25365920176E+03  0.11388334714E+04  0.46999998093E+01 0. -1.
       -5    1    3    3    0  502 -0.48716885521E+03 -0.99761871542E+03 -0.18618410466E+04  0.21677294037E+04  0.46999998093E+01 0.  1.
</event>
<event>
 5   0  0.9505359E-06  0.2892875E+04  0.7818609E-02  0.8275000E-01
       -2   -1    0    0    0  501  0.00000000000E+00  0.00000000000E+00  0.11644285114E+04  0.11644285114E+04  0.25500000920E-02 0.  1.
        2   -1    0    0  501    0  0.00000000000E+00  0.00000000000E+00 -0.17967455322E+04  0.17967455322E+04  0.25500000920E-02 0. -1.
    10030    2    1    2    0    0  0.00000000000E+00  0.00000000000E+00 -0.63231702077E+03  0.29611740437E+04  0.28928751964E+04 0.  0.
        4    1    3    3  502    0 -0.13459454124E+04 -0.14261631533E+03  0.20605447340E+03  0.13690757924E+04  0.12699999809E+01 0.  1.
       -4    1    3    3    0  502  0.13459454124E+04  0.14261631533E+03 -0.83837149417E+03  0.15920982512E+04  0.12699999809E+01 0. -1.
</event>
<event>
 5   0  0.3746518E-06  0.2895680E+04  0.7818609E-02  0.8274164E-01
        1   -1    0    0  501    0  0.00000000000E+00  0.00000000000E+00  0.18561209522E+04  0.18561209522E+04  0.50400001928E-02 0. -1.
       -1   -1    0    0    0  501  0.00000000000E+00  0.00000000000E+00 -0.11293660774E+04  0.11293660774E+04  0.50400001928E-02 0.  1.
    10030    2    1    2    0    0  0.00000000000E+00  0.00000000000E+00  0.72675487476E+03  0.29854870296E+04  0.28956795672E+04 0.  0.
        4    1    3    3  502    0 -0.60241653813E+03  0.13163102572E+04  0.33688924932E+03  0.14862955150E+04  0.12699999809E+01 0. -1.
       -4    1    3    3    0  502  0.60241653813E+03 -0.13163102572E+04  0.38986562545E+03  0.14991915146E+04  0.12699999809E+01 0.  1.
</event>
<event>
 5   0  0.9505359E-06  0.2823297E+04  0.7818609E-02  0.8296072E-01
        2   -1    0    0  501    0  0.00000000000E+00  0.00000000000E+00  0.14766970529E+04  0.14766970529E+04  0.25500000920E-02 0.  1.
       -2   -1    0    0    0  501  0.00000000000E+00  0.00000000000E+00 -0.13494657871E+04  0.13494657871E+04  0.25500000920E-02 0. -1.
    10030    2    1    2    0    0  0.00000000000E+00  0.00000000000E+00  0.12723126580E+03  0.28261628400E+04  0.28232974698E+04 0.  0.
        4    1    3    3  502    0  0.10735176116E+04  0.30453085794E+00  0.98123042869E+03  0.14543915987E+04  0.12699999809E+01 0.  1.
       -4    1    3    3    0  502 -0.10735176116E+04 -0.30453085794E+00 -0.85399916289E+03  0.13717712413E+04  0.12699999809E+01 0. -1.
</event>
<event>
 5   0  0.3474078E-06  0.2888576E+04  0.7818609E-02  0.8276285E-01
        1   -1    0    0  501    0  0.00000000000E+00  0.00000000000E+00  0.23982489732E+04  0.23982489732E+04  0.50400001928E-02 0.  1.
       -1   -1    0    0    0  501  0.00000000000E+00  0.00000000000E+00 -0.86978779489E+03  0.86978779491E+03  0.50400001928E-02 0. -1.
    10030    2    1    2    0    0  0.00000000000E+00  0.00000000000E+00  0.15284611783E+04  0.32680367681E+04  0.28885759024E+04 0.  0.
        3    1    3    3  502    0 -0.27029029720E+02 -0.12955125198E+04  0.14859006353E+04  0.19715435489E+04  0.10100000352E+00 0.  1.
       -3    1    3    3    0  502  0.27029029720E+02  0.12955125198E+04  0.42560543053E+02  0.12964932192E+04  0.10100000352E+00 0. -1.
</event>
<event>
 5   0  0.3746518E-06  0.2533968E+04  0.7818609E-02  0.8390983E-01
       -1   -1    0    0    0  501  0.00000000000E+00  0.00000000000E+00  0.19438598952E+04  0.19438598952E+04  0.50400001928E-02 0.  1.
        1   -1    0    0  501    0  0.00000000000E+00  0.00000000000E+00 -0.82580461360E+03  0.82580461361E+03  0.50400001928E-02 0. -1.
    10030    2    1    2    0    0  0.00000000000E+00  0.00000000000E+00  0.11180552816E+04  0.27696645089E+04  0.25339680106E+04 0.  0.
        4    1    3    3  502    0 -0.31418047397E+03  0.11405941197E+04  0.63441500437E+02  0.11847745579E+04  0.12699999809E+01 0. -1.
       -4    1    3    3    0  502  0.31418047397E+03 -0.11405941197E+04  0.10546137812E+04  0.15848899509E+04  0.12699999809E+01 0.  1.
</event>
<event>
 5   0  0.3649705E-06  0.2839347E+04  0.7818609E-02  0.8291156E-01
       -1   -1    0    0    0  501  0.00000000000E+00  0.00000000000E+00  0.23301636537E+04  0.23301636537E+04  0.50400001928E-02 0. -1.
        1   -1    0    0  501    0  0.00000000000E+00  0.00000000000E+00 -0.86494883840E+03  0.86494883841E+03  0.50400001928E-02 0.  1.
    10030    2    1    2    0    0  0.00000000000E+00  0.00000000000E+00  0.14652148153E+04  0.31951124921E+04  0.28393466471E+04 0.  0.
        2    1    3    3  502    0  0.24061826260E+03  0.73504592402E+03  0.20722716845E+04  0.22118995441E+04  0.25500000920E-02 0. -1.
       -2    1    3    3    0  502 -0.24061826260E+03 -0.73504592402E+03 -0.60705686920E+03  0.98321294803E+03  0.25500000920E-02 0.  1.
</event>
<event>
 5   0  0.1001573E-05  0.2971209E+04  0.7818609E-02  0.8252000E-01
       -2   -1    0    0    0  501  0.00000000000E+00  0.00000000000E+00  0.97573927284E+03  0.97573927284E+03  0.25500000920E-02 0.  1.
        2   -1    0    0  501    0  0.00000000000E+00  0.00000000000E+00 -0.22618962215E+04  0.22618962215E+04  0.25500000920E-02 0. -1.
    10030    2    1    2    0    0  0.00000000000E+00  0.00000000000E+00 -0.12861569486E+04  0.32376354943E+04  0.29712091642E+04 0.  0.
        1    1    3    3  502    0  0.21071428647E+03  0.61074690337E+03  0.81464036280E+03  0.10397361258E+04  0.50400001928E-02 0.  1.
       -1    1    3    3    0  502 -0.21071428647E+03 -0.61074690337E+03 -0.21007973114E+04  0.21978993685E+04  0.50400001928E-02 0. -1.
</event>
<event>
 5   0  0.3564340E-06  0.2833918E+04  0.7818609E-02  0.8292815E-01
       -1   -1    0    0    0  501  0.00000000000E+00  0.00000000000E+00  0.11477124179E+04  0.11477124180E+04  0.50400001928E-02 0. -1.
        1   -1    0    0  501    0  0.00000000000E+00  0.00000000000E+00 -0.17493695951E+04  0.17493695951E+04  0.50400001928E-02 0.  1.
    10030    2    1    2    0    0  0.00000000000E+00  0.00000000000E+00 -0.60165717717E+03  0.28970820131E+04  0.28339182825E+04 0.  0.
        1    1    3    3  502    0  0.43947264938E+03  0.12871594516E+03  0.10699795309E+04  0.11638557474E+04  0.50400001928E-02 0. -1.
       -1    1    3    3    0  502 -0.43947264938E+03 -0.12871594516E+03 -0.16716367081E+04  0.17332262657E+04  0.50400001928E-02 0.  1.
</event>
<event>
 5   0  0.1001573E-05  0.2585105E+04  0.7818609E-02  0.8373279E-01
       -2   -1    0    0    0  501  0.00000000000E+00  0.00000000000E+00  0.12275239827E+04  0.12275239827E+04  0.25500000920E-02 0.  1.
        2   -1    0    0  501    0  0.00000000000E+00  0.00000000000E+00 -0.13610254083E+04  0.13610254083E+04  0.25500000920E-02 0. -1.
    10030    2    1    2    0    0  0.00000000000E+00  0.00000000000E+00 -0.13350142558E+03  0.25885493910E+04  0.25851045084E+04 0.  0.
        1    1    3    3  502    0 -0.10765768045E+04  0.14819522218E+03  0.63397600230E+03  0.12581355298E+04  0.50400001928E-02 0.  1.
       -1    1    3    3    0  502  0.10765768045E+04 -0.14819522218E+03 -0.76747742788E+03  0.13304138612E+04  0.50400001928E-02 0. -1.
</event>
<event>
 5   0  0.9251510E-06  0.2917072E+04  0.7818609E-02  0.8267816E-01
        2   -1    0    0  501    0  0.00000000000E+00  0.00000000000E+00  0.15900050453E+04  0.15900050453E+04  0.25500000920E-02 0. -1.
       -2   -1    0    0    0  501  0.00000000000E+00  0.00000000000E+00 -0.13379378652E+04  0.13379378652E+04  0.25500000920E-02 0.  1.
    10030    2    1    2    0    0  0.00000000000E+00  0.00000000000E+00  0.25206718009E+03  0.29279429106E+04  0.29170724750E+04 0.  0.
        2    1    3    3  502    0 -0.36285461461E+02  0.14330344196E+04 -0.14408573764E+03  0.14407168293E+04  0.25500000920E-02 0.  1.
       -2    1    3    3    0  502  0.36285461461E+02 -0.14330344196E+04  0.39615291773E+03  0.14872260813E+04  0.25500000920E-02 0. -1.
</event>
<event>
 5   0  0.9505359E-06  0.2886916E+04  0.7818609E-02  0.8276781E-01
       -2   -1    0    0    0  501  0.00000000000E+00  0.00000000000E+00  0.12191629300E+04  0.12191629300E+04  0.25500000920E-02 0. -1.
        2   -1    0    0  501    0  0.00000000000E+00  0.00000000000E+00 -0.17090173544E+04  0.17090173544E+04  0.25500000920E-02 0.  1.
    10030    2    1    2    0    0  0.00000000000E+00  0.00000000000E+00 -0.48985442439E+03  0.29281802844E+04  0.28869157281E+04 0.  0.
        4    1    3    3  502    0  0.43876444236E+03 -0.12406213124E+04  0.35677509805E+03  0.13634315385E+04  0.12699999809E+01 0.  1.
       -4    1    3    3    0  502 -0.43876444236E+03  0.12406213124E+04 -0.84662952244E+03  0.15647487459E+04  0.12699999809E+01 0. -1.
</event>
<event>
 5   0  0.3746518E-06  0.2893612E+04  0.7818609E-02  0.8274781E-01
       -1   -1    0    0    0  501  0.00000000000E+00  0.00000000000E+00  0.11902924340E+04  0.11902924340E+04  0.50400001928E-02 0.  1.
        1   -1    0    0  501    0  0.00000000000E+00  0.00000000000E+00 -0.17585989986E+04  0.17585989986E+04  0.50400001928E-02 0. -1.
    10030    2    1    2    0    0  0.00000000000E+00  0.00000000000E+00 -0.56830656462E+03  0.29488914327E+04  0.28936116412E+04 0.  0.
        4    1    3    3  502    0 -0.90577459786E+03 -0.21195578543E+03  0.84511916083E+03  0.12568137833E+04  0.12699999809E+01 0.  1.
       -4    1    3    3    0  502  0.90577459786E+03  0.21195578543E+03 -0.14134257255E+04  0.16920776493E+04  0.12699999809E+01 0. -1.
</event>
<event>
 5   0  0.3564340E-06  0.2888185E+04  0.7818609E-02  0.8276401E-01
       -1   -1    0    0    0  501  0.00000000000E+00  0.00000000000E+00  0.14801503941E+04  0.14801503941E+04  0.50400001928E-02 0.  1.
        1   -1    0    0  501    0  0.00000000000E+00  0.00000000000E+00 -0.14089134899E+04  0.14089134899E+04  0.50400001928E-02 0. -1.
    10030    2    1    2    0    0  0.00000000000E+00  0.00000000000E+00  0.71236904146E+02  0.28890638840E+04  0.28881854908E+04 0.  0.
        1    1    3    3  502    0  0.62849383287E+03  0.86329421644E+03 -0.93685130528E+03  0.14205533324E+04  0.50400001928E-02 0. -1.
       -1    1    3    3    0  502 -0.62849383287E+03 -0.86329421644E+03  0.10080882094E+04  0.14685105516E+04  0.50400001928E-02 0.  1.
</event>
<event>
 5   0  0.9505359E-06  0.2896555E+04  0.7818609E-02  0.8273903E-01
       -2   -1    0    0    0  501  0.00000000000E+00  0.00000000000E+00  0.17556091737E+04  0.17556091737E+04  0.25500000920E-02 0. -1.
        2   -1    0    0  501    0  0.00000000000E+00  0.00000000000E+00 -0.11947461216E+04  0.11947461216E+04  0.25500000920E-02 0.  1.
    10030    2    1    2    0    0  0.00000000000E+00  0.00000000000E+00  0.56086305208E+03  0.29503552954E+04  0.28965546785E+04 0.  0.
        4    1    3    3  502    0 -0.53743771943E+03 -0.12582173498E+04  0.76417958773E+03  0.15671382379E+04  0.12699999809E+01 0. -1.
       -4    1    3    3    0  502  0.53743771943E+03  0.12582173498E+04 -0.20331653565E+03  0.13832170575E+04  0.12699999809E+01 0.  1.
</event>
<event>
 5   0  0.9360689E-06  0.2911997E+04  0.7818609E-02  0.8269317E-01
        2   -1    0    0  501    0  0.00000000000E+00  0.00000000000E+00  0.14821655811E+04  0.14821655811E+04  0.25500000920E-02 0.  1.
       -2   -1    0    0    0  501  0.00000000000E+00  0.00000000000E+00 -0.14302930753E+04  0.14302930753E+04  0.25500000920E-02 0. -1.
    10030    2    1    2    0    0  0.00000000000E+00  0.00000000000E+00  0.51872505767E+02  0.29124586564E+04  0.29119966807E+04 0.  0.
        5    1    3    3  502    0  0.30194959529E+03  0.10476984377E+04  0.99100565173E+03  0.14734177500E+04  0.46999998093E+01 0.  1.
       -5    1    3    3    0  502 -0.30194959529E+03 -0.10476984377E+04 -0.93913314596E+03  0.14390409064E+04  0.46999998093E+01 0. -1.
</event>
<event>
 5   0  0.3649705E-06  0.2851416E+04  0.7818609E-02  0.8287481E-01
        1   -1    0    0  501    0  0.00000000000E+00  0.00000000000E+00  0.26714365973E+04  0.26714365973E+04  0.50400001928E-02 0. -1.
       -1   -1    0    0    0  501  0.00000000000E+00  0.00000000000E+00 -0.76088049420E+03  0.76088049422E+03  0.50400001928E-02 0.  1.
    10030    2    1    2    0    0  0.00000000000E+00  0.00000000000E+00  0.19105561031E+04  0.34323170916E+04  0.28514164890E+04 0.  0.
        2    1    3    3  502    0  0.95996439132E+03  0.79036788044E+03  0.17948102541E+04  0.21834735783E+04  0.25500000920E-02 0.  1.
       -2    1    3    3    0  502 -0.95996439132E+03 -0.79036788044E+03  0.11574584906E+03  0.12488435133E+04  0.25500000920E-02 0. -1.
</event>
<event>
 5   0  0.3474078E-06  0.2898321E+04  0.7818609E-02  0.8273377E-01
        1   -1    0    0  501    0  0.00000000000E+00  0.00000000000E+00  0.14011247316E+04  0.14011247316E+04  0.50400001928E-02 0. -1.
       -1   -1    0    0    0  501  0.00000000000E+00  0.00000000000E+00 -0.14988429322E+04  0.14988429322E+04  0.50400001928E-02 0.  1.
    10030    2    1    2    0    0  0.00000000000E+00  0.00000000000E+00 -0.97718200550E+02  0.28999676638E+04  0.28983208249E+04 0.  0.
        3    1    3    3  502    0  0.10922001661E+04  0.94213602539E+03  0.91021615039E+02  0.14452703684E+04  0.10100000352E+00 0.  1.
       -3    1    3    3    0  502 -0.10922001661E+04 -0.94213602539E+03 -0.18873981559E+03  0.14546972954E+04  0.10100000352E+00 0. -1.
</event>
<event>
 5   0  0.9251510E-06  0.2884058E+04  0.7818609E-02  0.8277636E-01
        2   -1    0    0  501    0  0.00000000000E+00  0.00000000000E+00  0.10476578593E+04  0.10476578593E+04  0.25500000920E-02 0.  1.
       -2   -1    0    0    0  501  0.00000000000E+00  0.00000000000E+00 -0.19848542868E+04  0.19848542868E+04  0.25500000920E-02 0. -1.
    10030    2    1    2    0    0  0.00000000000E+00  0.00000000000E+00 -0.93719642747E+03  0.30325121460E+04  0.28840583857E+04 0.  0.
        2    1    3    3  502    0  0.24370595320E+02 -0.14229058112E+04 -0.22382077942E+03  0.14406077241E+04  0.25500000920E-02 0. -1.
       -2    1    3    3    0  502 -0.24370595320E+02  0.14229058112E+04 -0.71337564805E+03  0.15919044220E+04  0.25500000920E-02 0.  1.
</event>
<event>
 5   0  0.9505359E-06  0.2963077E+04  0.7818609E-02  0.8254354E-01
        2   -1    0    0  501    0  0.00000000000E+00  0.00000000000E+00  0.10055103416E+04  0.10055103416E+04  0.25500000920E-02 0. -1.
       -2   -1    0    0    0  501  0.00000000000E+00  0.00000000000E+00 -0.21829275206E+04  0.21829275206E+04  0.25500000920E-02 0.  1.
    10030    2    1    2    0    0  0.00000000000E+00  0.00000000000E+00 -0.11774171790E+04  0.31884378623E+04  0.29630769123E+04 0.  0.
        4    1    3    3  502    0  0.15508323706E+03 -0.14678410057E+04 -0.72628632638E+03  0.16450232428E+04  0.12699999809E+01 0. -1.
       -4    1    3    3    0  502 -0.15508323706E+03  0.14678410057E+04 -0.45113085263E+03  0.15434146195E+04  0.12699999809E+01 0.  1.
</event>
<event>
 5   0  0.3564340E-06  0.2787074E+04  0.7818609E-02  0.8307293E-01
        1   -1    0    0  501    0  0.00000000000E+00  0.00000000000E+00  0.19521242700E+04  0.19521242700E+04  0.50400001928E-02 0. -1.
       -1   -1    0    0    0  501  0.00000000000E+00  0.00000000000E+00 -0.99478576791E+03  0.99478576792E+03  0.50400001928E-02 0.  1.
    10030    2    1    2    0    0  0.00000000000E+00  0.00000000000E+00  0.95733850210E+03  0.29469100379E+04  0.27870740507E+04 0.  0.
        1    1    3    3  502    0 -0.22410102269E+03  0.26237955338E+03  0.19062396903E+04  0.19372181228E+04  0.50400001928E-02 0. -1.
       -1    1    3    3    0  502  0.22410102269E+03 -0.26237955338E+03 -0.94890118822E+03  0.10096919151E+04  0.50400001928E-02 0.  1.
</event>
<event>
 5   0  0.3564340E-06  0.2850943E+04  0.7818609E-02  0.8287625E-01
        1   -1    0    0  501    0  0.00000000000E+00  0.00000000000E+00  0.12372535529E+04  0.12372535529E+04  0.50400001928E-02 0.  1.
       -1   -1    0    0    0  501  0.00000000000E+00  0.00000000000E+00 -0.16423223180E+04  0.16423223180E+04  0.50400001928E-02 0. -1.
    10030    2    1    2    0    0  0.00000000000E+00  0.00000000000E+00 -0.40506876511E+03  0.28795758709E+04  0.28509430881E+04 0.  0.
        1    1    3    3  502    0 -0.24185279305E+03 -0.36189619643E+03 -0.15735569683E+04  0.16326491242E+04  0.50400001928E-02 0. -1.
       -1    1    3    3    0  502  0.24185279305E+03  0.36189619643E+03  0.11684882032E+04  0.12469267466E+04  0.50400001928E-02 0.  1.
</event>
<event>
 5   0  0.9646321E-06  0.2777410E+04  0.7818609E-02  0.8310316E-01
        2   -1    0    0  501    0  0.00000000000E+00  0.00000000000E+00  0.15475459403E+04  0.15475459403E+04  0.25500000920E-02 0. -1.
       -2   -1    0    0    0  501  0.00000000000E+00  0.00000000000E+00 -0.12461678178E+04  0.12461678178E+04  0.25500000920E-02 0.  1.
    10030    2    1    2    0    0  0.00000000000E+00  0.00000000000E+00  0.30137812258E+03  0.27937137581E+04  0.27774102667E+04 0.  0.
        3    1    3    3  502    0 -0.43890482937E+03 -0.13155554986E+04  0.78306818718E+02  0.13890484827E+04  0.10100000352E+00 0. -1.
       -3    1    3    3    0  502  0.43890482937E+03  0.13155554986E+04  0.22307130387E+03  0.14046652754E+04  0.10100000352E+00 0.  1.
</event>
<event>
 5   0  0.3746518E-06  0.2847925E+04  0.7818609E-02  0.8288542E-01
        1   -1    0    0  501    0  0.00000000000E+00  0.00000000000E+00  0.12254016335E+04  0.12254016335E+04  0.50400001928E-02 0. -1.
       -1   -1    0    0    0  501  0.00000000000E+00  0.00000000000E+00 -0.16546972390E+04  0.16546972390E+04  0.50400001928E-02 0.  1.
    10030    2    1    2    0    0  0.00000000000E+00  0.00000000000E+00 -0.42929560555E+03  0.28800988725E+04  0.28479246476E+04 0.  0.
        4    1    3    3  502    0 -0.94820899927E+03  0.25554384079E+03 -0.12574441075E+04  0.15954843331E+04  0.12699999809E+01 0.  1.
       -4    1    3    3    0  502  0.94820899927E+03 -0.25554384079E+03  0.82814850191E+03  0.12846145395E+04  0.12699999809E+01 0. -1.
</event>
<event>
 5   0  0.3564340E-06  0.2784686E+04  0.7818609E-02  0.8308039E-01
       -1   -1    0    0    0  501  0.00000000000E+00  0.00000000000E+00  0.15976636631E+04  0.15976636631E+04  0.50400001928E-02 0.  1.
        1   -1    0    0  501    0  0.00000000000E+00  0.00000000000E+00 -0.12134086418E+04  0.12134086418E+04  0.50400001928E-02 0. -1.
    10030    2    1    2    0    0  0.00000000000E+00  0.00000000000E+00  0.38425502131E+03  0.28110723049E+04  0.27846859037E+04 0.  0.
        1    1    3    3  502    0  0.53571109225E+03  0.49590323808E+02 -0.11042424239E+04  0.12283309429E+04  0.50400001928E-02 0. -1.
       -1    1    3    3    0  502 -0.53571109225E+03 -0.49590323808E+02  0.14884974452E+04  0.15827413620E+04  0.50400001928E-02 0.  1.
</event>
<event>
 5   0  0.3564340E-06  0.2905659E+04  0.7818609E-02  0.8271196E-01
        1   -1    0    0  501    0  0.00000000000E+00  0.00000000000E+00  0.17469096206E+04  0.17469096206E+04  0.50400001928E-02 0. -1.
       -1   -1    0    0    0  501  0.00000000000E+00  0.00000000000E+00 -0.12082560275E+04  0.12082560276E+04  0.50400001928E-02 0.  1.
    10030    2    1    2    0    0  0.00000000000E+00  0.00000000000E+00  0.53865359306E+03  0.29551656482E+04  0.29056593597E+04 0.  0.
        1    1    3    3  502    0 -0.22352902906E+03 -0.22275355937E+03  0.17116320016E+04  0.17404793834E+04  0.50400001928E-02 0. -1.
       -1    1    3    3    0  502  0.22352902906E+03  0.22275355937E+03 -0.11729784085E+04  0.12146862648E+04  0.50400001928E-02 0.  1.
</event>
<event>
 5   0  0.3474078E-06  0.2888146E+04  0.7818609E-02  0.8276413E-01
        1   -1    0    0  501    0  0.00000000000E+00  0.00000000000E+00  0.22478202675E+04  0.22478202675E+04  0.50400001928E-02 0.  1.
       -1   -1    0    0    0  501  0.00000000000E+00  0.00000000000E+00 -0.92771981288E+03  0.92771981289E+03  0.50400001928E-02 0. -1.
    10030    2    1    2    0    0  0.00000000000E+00  0.00000000000E+00  0.13201004546E+04  0.31755400804E+04  0.28881463938E+04 0.  0.
        3    1    3    3  502    0  0.10343489711E+02 -0.14436009521E+04  0.62107284756E+03  0.15715667943E+04  0.10100000352E+00 0.  1.
       -3    1    3    3    0  502 -0.10343489711E+02  0.14436009521E+04  0.69902760704E+03  0.16039732861E+04  0.10100000352E+00 0. -1.
</event>
<event>
 5   0  0.9360689E-06  0.2908670E+04  0.7818609E-02  0.8270303E-01
        2   -1    0    0  501    0  0.00000000000E+00  0.00000000000E+00  0.15180102095E+04  0.15180102095E+04  0.25500000920E-02 0. -1.
       -2   -1    0    0    0  501  0.00000000000E+00  0.00000000000E+00 -0.13933303236E+04  0.13933303236E+04  0.25500000920E-02 0.  1.
    10030    2    1    2    0    0  0.00000000000E+00  0.00000000000E+00  0.12467988592E+03  0.29113405332E+04  0.29086695629E+04 0.  0.
        5    1    3    3  502    0  0.30278070327E+03 -0.13748516045E+04 -0.30292595026E+03  0.14400275380E+04  0.46999998093E+01 0.  1.
       -5    1    3    3    0  502 -0.30278070327E+03  0.13748516045E+04  0.42760583618E+03  0.14713129952E+04  0.46999998093E+01 0. -1.
</event>
<event>
 5   0  0.3746518E-06  0.2833238E+04  0.7818609E-02  0.8293023E-01
        1   -1    0    0  501    0  0.00000000000E+00  0.00000000000E+00  0.24600594289E+04  0.24600594289E+04  0.50400001928E-02 0.  1.
       -1   -1    0    0    0  501  0.00000000000E+00  0.00000000000E+00 -0.81575633275E+03  0.81575633276E+03  0.50400001928E-02 0. -1.
    10030    2    1    2    0    0  0.00000000000E+00  0.00000000000E+00  0.16443030962E+04  0.32758157617E+04  0.28332377649E+04 0.  0.
        4    1    3    3  502    0  0.36994684252E+03 -0.47051799233E+03 -0.66237774729E+03  0.89274505902E+03  0.12699999809E+01 0. -1.
       -4    1    3    3    0  502 -0.36994684252E+03  0.47051799233E+03  0.23066808434E+04  0.23830707027E+04  0.12699999809E+01 0.  1.
</event>
<event>
 5   0  0.3564340E-06  0.2859645E+04  0.7818609E-02  0.8284987E-01
       -1   -1    0    0    0  501  0.00000000000E+00  0.00000000000E+00  0.13706100862E+04  0.13706100862E+04  0.50400001928E-02 0.  1.
        1   -1    0    0  501    0  0.00000000000E+00  0.00000000000E+00 -0.14915928499E+04  0.14915928500E+04  0.50400001928E-02 0. -1.
    10030    2    1    2    0    0  0.00000000000E+00  0.00000000000E+00 -0.12098276373E+03  0.28622029362E+04  0.28596448763E+04 0.  0.
        1    1    3    3  502    0 -0.75678207122E+03  0.11958737486E+04 -0.26453418226E+03  0.14397261752E+04  0.50400001928E-02 0. -1.
       -1    1    3    3    0  502  0.75678207122E+03 -0.11958737486E+04  0.14355141853E+03  0.14224767610E+04  0.50400001928E-02 0.  1.
</event>
<event>
 5   0  0.3564340E-06  0.2968156E+04  0.7818609E-02  0.8252883E-01
        1   -1    0    0  501    0  0.00000000000E+00  0.00000000000E+00  0.25819757443E+04  0.25819757443E+04  0.50400001928E-02 0.  1.
       -1   -1    0    0    0  501  0.00000000000E+00  0.00000000000E+00 -0.85302380909E+03  0.85302380911E+03  0.50400001928E-02 0. -1.
    10030    2    1    2    0    0  0.00000000000E+00  0.00000000000E+00  0.17289519352E+04  0.34349995534E+04  0.29681555110E+04 0.  0.
        1    1    3    3  502    0 -0.29674500645E+01 -0.18813898483E+03  0.25681153704E+04  0.25749993474E+04  0.50400001928E-02 0.  1.
       -1    1    3    3    0  502  0.29674500645E+01  0.18813898483E+03 -0.83916343519E+03  0.86000020602E+03  0.50400001928E-02 0. -1.
</event>
<event>
 5   0  0.9360689E-06  0.2945808E+04  0.7818609E-02  0.8259377E-01
       -2   -1    0    0    0  501  0.00000000000E+00  0.00000000000E+00  0.16894069645E+04  0.16894069645E+04  0.25500000920E-02 0. -1.
        2   -1    0    0  501    0  0.00000000000E+00  0.00000000000E+00 -0.12841466793E+04  0.12841466793E+04  0.25500000920E-02 0.  1.
    10030    2    1    2    0    0  0.00000000000E+00  0.00000000000E+00  0.40526028513E+03  0.29735536438E+04  0.29458081020E+04 0.  0.
        5    1    3    3  502    0  0.47097334557E+01 -0.40583254171E+03  0.16318407782E+04  0.16815613724E+04  0.46999998093E+01 0. -1.
       -5    1    3    3    0  502 -0.47097334557E+01  0.40583254171E+03 -0.12265804931E+04  0.12919922715E+04  0.46999998093E+01 0.  1.
</event>
<event>
 5   0  0.9505359E-06  0.2833949E+04  0.7818609E-02  0.8292805E-01
        2   -1    0    0  501    0  0.00000000000E+00  0.00000000000E+00  0.16690527564E+04  0.16690527564E+04  0.25500000920E-02 0. -1.
       -2   -1    0    0    0  501  0.00000000000E+00  0.00000000000E+00 -0.12029678154E+04  0.12029678154E+04  0.25500000920E-02 0.  1.
    10030    2    1    2    0    0  0.00000000000E+00  0.00000000000E+00  0.46608494100E+03  0.28720205719E+04  0.28339490103E+04 0.  0.
        4    1    3    3  502    0 -0.91797273847E+03 -0.72260856674E+03 -0.57958890571E+03  0.13041326627E+04  0.12699999809E+01 0.  1.
       -4    1    3    3    0  502  0.91797273847E+03  0.72260856674E+03  0.10456738467E+04  0.15678879092E+04  0.12699999809E+01 0. -1.
</event>
<event>
 5   0  0.3486236E-06  0.2685248E+04  0.7818609E-02  0.8339807E-01
        1   -1    0    0  501    0  0.00000000000E+00  0.00000000000E+00  0.18862833435E+04  0.18862833435E+04  0.50400001928E-02 0. -1.
       -1   -1    0    0    0  501  0.00000000000E+00  0.00000000000E+00 -0.95565645094E+03  0.95565645095E+03  0.50400001928E-02 0.  1.
    10030    2    1    2    0    0  0.00000000000E+00  0.00000000000E+00  0.93062689252E+03  0.28419397944E+04  0.26852477320E+04 0.  0.
        5    1    3    3  502    0 -0.23973780816E+03  0.12929765578E+04  0.75195746802E+03  0.15148348819E+04  0.46999998093E+01 0.  1.
       -5    1    3    3    0  502  0.23973780816E+03 -0.12929765578E+04  0.17866942450E+03  0.13271049125E+04  0.46999998093E+01 0. -1.
</event>
<event>
 5   0  0.9505359E-06  0.2898490E+04  0.7818609E-02  0.8273327E-01
        2   -1    0    0  501    0  0.00000000000E+00  0.00000000000E+00  0.13919608364E+04  0.13919608364E+04  0.25500000920E-02 0. -1.
       -2   -1    0    0    0  501  0.00000000000E+00  0.00000000000E+00 -0.15088866750E+04  0.15088866750E+04  0.25500000920E-02 0.  1.
    10030    2    1    2    0    0  0.00000000000E+00  0.00000000000E+00 -0.11692583865E+03  0.29008475114E+04  0.28984900608E+04 0.  0.
        4    1    3    3  502    0 -0.44346701698E+03  0.48936165371E+03  0.12326141075E+04  0.13983837006E+04  0.12699999809E+01 0. -1.
       -4    1    3    3    0  502  0.44346701698E+03 -0.48936165371E+03 -0.13495399462E+04  0.15024638107E+04  0.12699999809E+01 0.  1.
</event>
<event>
 5   0  0.3474078E-06  0.2882951E+04  0.7818609E-02  0.8277968E-01
       -1   -1    0    0    0  501  0.00000000000E+00  0.00000000000E+00  0.17681100919E+04  0.17681100919E+04  0.50400001928E-02 0. -1.
        1   -1    0    0  501    0  0.00000000000E+00  0.00000000000E+00 -0.11751825284E+04  0.11751825284E+04  0.50400001928E-02 0.  1.
    10030    2    1    2    0    0  0.00000000000E+00  0.00000000000E+00  0.59292756355E+03  0.29432926203E+04  0.28829513269E+04 0.  0.
        3    1    3    3  502    0 -0.11260118380E+04  0.16846492138E+03  0.11990314889E+04  0.16534689627E+04  0.10100000352E+00 0. -1.
       -3    1    3    3    0  502  0.11260118380E+04 -0.16846492138E+03 -0.60610392539E+03  0.12898236576E+04  0.10100000352E+00 0.  1.
</event>
<event>
 5   0  0.9251510E-06  0.2772238E+04  0.7818609E-02  0.8311940E-01
       -2   -1    0    0    0  501  0.00000000000E+00  0.00000000000E+00  0.18728946060E+04  0.18728946060E+04  0.25500000920E-02 0.  1.
        2   -1    0    0  501    0  0.00000000000E+00  0.00000000000E+00 -0.10258588110E+04  0.10258588110E+04  0.25500000920E-02 0. -1.
    10030    2    1    2    0    0  0.00000000000E+00  0.00000000000E+00  0.84703579505E+03  0.28987534170E+04  0.27722376764E+04 0.  0.
        2    1    3    3  502    0  0.10550887635E+03 -0.67066193357E+03 -0.84010532511E+03  0.10801372642E+04  0.25500000920E-02 0. -1.
       -2    1    3    3    0  502 -0.10550887635E+03  0.67066193357E+03  0.16871411202E+04  0.18186161529E+04  0.25500000920E-02 0.  1.
</event>
<event>
 5   0  0.1001573E-05  0.2858464E+04  0.7818609E-02  0.8285344E-01
       -2   -1    0    0    0  501  0.00000000000E+00  0.00000000000E+00  0.91566519911E+03  0.91566519911E+03  0.25500000920E-02 0.  1.
        2   -1    0    0  501    0  0.00000000000E+00  0.00000000000E+00 -0.22308409384E+04  0.22308409384E+04  0.25500000920E-02 0. -1.
    10030    2    1    2    0    0  0.00000000000E+00  0.00000000000E+00 -0.13151757393E+04  0.31465061375E+04  0.28584635118E+04 0.  0.
        1    1    3    3  502    0 -0.64808925454E+03 -0.35666629022E+03  0.68853654866E+03  0.10106003677E+04  0.50400001928E-02 0.  1.
       -1    1    3    3    0  502  0.64808925454E+03  0.35666629022E+03 -0.20037122880E+04  0.21359057698E+04  0.50400001928E-02 0. -1.
</event>
<event>
 5   0  0.3746518E-06  0.2905331E+04  0.7818609E-02  0.8271293E-01
        1   -1    0    0  501    0  0.00000000000E+00  0.00000000000E+00  0.87351421488E+03  0.87351421490E+03  0.50400001928E-02 0. -1.
       -1   -1    0    0    0  501  0.00000000000E+00  0.00000000000E+00 -0.24158017645E+04  0.24158017645E+04  0.50400001928E-02 0.  1.
    10030    2    1    2    0    0  0.00000000000E+00  0.00000000000E+00 -0.15422875496E+04  0.32893159794E+04  0.29053310873E+04 0.  0.
        4    1    3    3  502    0  0.12786139812E+04 -0.59938857282E+03 -0.38535064377E+03  0.14637681188E+04  0.12699999809E+01 0. -1.
       -4    1    3    3    0  502 -0.12786139812E+04  0.59938857282E+03 -0.11569369058E+04  0.18255478605E+04  0.12699999809E+01 0.  1.
</event>
<event>
 5   0  0.1001573E-05  0.2870691E+04  0.7818609E-02  0.8281651E-01
       -2   -1    0    0    0  501  0.00000000000E+00  0.00000000000E+00  0.90671367836E+03  0.90671367836E+03  0.25500000920E-02 0.  1.
        2   -1    0    0  501    0  0.00000000000E+00  0.00000000000E+00 -0.22721802384E+04  0.22721802384E+04  0.25500000920E-02 0. -1.
    10030    2    1    2    0    0  0.00000000000E+00  0.00000000000E+00 -0.13654665601E+04  0.31788939168E+04  0.28706911376E+04 0.  0.
        1    1    3    3  502    0  0.56136453244E+03  0.10742381568E+04  0.16863944469E+03  0.12237471219E+04  0.50400001928E-02 0.  1.
       -1    1    3    3    0  502 -0.56136453244E+03 -0.10742381568E+04 -0.15341060048E+04  0.19551467949E+04  0.50400001928E-02 0. -1.
</event>
<event>
 5   0  0.3649705E-06  0.2814097E+04  0.7818609E-02  0.8298905E-01
       -1   -1    0    0    0  501  0.00000000000E+00  0.00000000000E+00  0.20963542902E+04  0.20963542902E+04  0.50400001928E-02 0.  1.
        1   -1    0    0  501    0  0.00000000000E+00  0.00000000000E+00 -0.94439434009E+03  0.94439434010E+03  0.50400001928E-02 0. -1.
    10030    2    1    2    0    0  0.00000000000E+00  0.00000000000E+00  0.11519599502E+04  0.30407486303E+04  0.28140967478E+04 0.  0.
        2    1    3    3  502    0  0.12515041761E+04 -0.56790277537E+03  0.90195425615E+03  0.16438667054E+04  0.25500000920E-02 0.  1.
       -2    1    3    3    0  502 -0.12515041761E+04  0.56790277537E+03  0.25000569400E+03  0.13968819249E+04  0.25500000920E-02 0. -1.
</event>
<event>
 5   0  0.9505359E-06  0.2916476E+04  0.7818609E-02  0.8267992E-01
        2   -1    0    0  501    0  0.00000000000E+00  0.00000000000E+00  0.18998161347E+04  0.18998161347E+04  0.25500000920E-02 0.  1.
       -2   -1    0    0    0  501  0.00000000000E+00  0.00000000000E+00 -0.11192965878E+04  0.11192965878E+04  0.25500000920E-02 0. -1.
    10030    2    1    2    0    0  0.00000000000E+00  0.00000000000E+00  0.78051954693E+03  0.30191127225E+04  0.29164757616E+04 0.  0.
        4    1    3    3  502    0 -0.55568439474E+03  0.23921629887E+03  0.17637715107E+04  0.18646450437E+04  0.12699999809E+01 0.  1.
       -4    1    3    3    0  502  0.55568439474E+03 -0.23921629887E+03 -0.98325196378E+03  0.11544676788E+04  0.12699999809E+01 0. -1.
</event>
<event>
 5   0  0.9646321E-06  0.2872652E+04  0.7818609E-02  0.8281061E-01
       -2   -1    0    0    0  501  0.00000000000E+00  0.00000000000E+00  0.18268002177E+04  0.18268002177E+04  0.25500000920E-02 0. -1.
        2   -1    0    0  501    0  0.00000000000E+00  0.00000000000E+00 -0.11293148202E+04  0.11293148202E+04  0.25500000920E-02 0.  1.
    10030    2    1    2    0    0  0.00000000000E+00  0.00000000000E+00  0.69748539751E+03  0.29561150379E+04  0.28726521261E+04 0.  0.
        3    1    3    3  502    0  0.94406336486E+03  0.10396848449E+04  0.38602161750E+02  0.14048809027E+04  0.10100000352E+00 0. -1.
       -3    1    3    3    0  502 -0.94406336486E+03 -0.10396848449E+04  0.65888323576E+03  0.15512341352E+04  0.10100000352E+00 0.  1.
</event>
<event>
 5   0  0.3649705E-06  0.2913327E+04  0.7818609E-02  0.8268923E-01
       -1   -1    0    0    0  501  0.00000000000E+00  0.00000000000E+00  0.15819402592E+04  0.15819402592E+04  0.50400001928E-02 0. -1.
        1   -1    0    0  501    0  0.00000000000E+00  0.00000000000E+00 -0.13413073492E+04  0.13413073492E+04  0.50400001928E-02 0.  1.
    10030    2    1    2    0    0  0.00000000000E+00  0.00000000000E+00  0.24063291000E+03  0.29232476084E+04  0.29133266866E+04 0.  0.
        2    1    3    3  502    0  0.59560448259E+03  0.67620337294E+03  0.12687104442E+04  0.15561561273E+04  0.25500000920E-02 0. -1.
       -2    1    3    3    0  502 -0.59560448259E+03 -0.67620337294E+03 -0.10280775343E+04  0.13670914811E+04  0.25500000920E-02 0.  1.
</event>
<event>
 5   0  0.3746518E-06  0.2265446E+04  0.7818609E-02  0.8491671E-01
        1   -1    0    0  501    0  0.00000000000E+00  0.00000000000E+00  0.22390383725E+04  0.22390383725E+04  0.50400001928E-02 0. -1.
       -1   -1    0    0    0  501  0.00000000000E+00  0.00000000000E+00 -0.57304137679E+03  0.57304137681E+03  0.50400001928E-02 0.  1.
    10030    2    1    2    0    0  0.00000000000E+00  0.00000000000E+00  0.16659969957E+04  0.28120797493E+04  0.22654462092E+04 0.  0.
        4    1    3    3  502    0 -0.75725401885E+03 -0.81222931728E+03  0.11103095979E+04  0.15703308979E+04  0.12699999809E+01 0. -1.
       -4    1    3    3    0  502  0.75725401885E+03  0.81222931728E+03  0.55568739779E+03  0.12417488514E+04  0.12699999809E+01 0.  1.
</event>
<event>
 5   0  0.3474078E-06  0.2598684E+04  0.7818609E-02  0.8368648E-01
        1   -1    0    0  501    0  0.00000000000E+00  0.00000000000E+00  0.95305620462E+03  0.95305620463E+03  0.50400001928E-02 0.  1.
       -1   -1    0    0    0  501  0.00000000000E+00  0.00000000000E+00 -0.17714477111E+04  0.17714477111E+04  0.50400001928E-02 0. -1.
    10030    2    1    2    0    0  0.00000000000E+00  0.00000000000E+00 -0.81839150645E+03  0.27245039157E+04  0.25986836916E+04 0.  0.
        3    1    3    3  502    0 -0.39130780166E+03 -0.24430726241E+03  0.86430991778E+03  0.97971397780E+03  0.10100000352E+00 0.  1.
       -3    1    3    3    0  502  0.39130780166E+03  0.24430726241E+03 -0.16827014242E+04  0.17447899379E+04  0.10100000352E+00 0. -1.
</event>
<event>
 5   0  0.3474078E-06  0.2829473E+04  0.7818609E-02  0.8294176E-01
       -1   -1    0    0    0  501  0.00000000000E+00  0.00000000000E+00  0.13729383255E+04  0.13729383255E+04  0.50400001928E-02 0. -1.
        1   -1    0    0  501    0  0.00000000000E+00  0.00000000000E+00 -0.14578074036E+04  0.14578074036E+04  0.50400001928E-02 0.  1.
    10030    2    1    2    0    0  0.00000000000E+00  0.00000000000E+00 -0.84869078082E+02  0.28307457291E+04  0.28294732058E+04 0.  0.
        3    1    3    3  502    0  0.24115585219E+03 -0.20201052232E+03 -0.14223718213E+04  0.14567450033E+04  0.10100000352E+00 0.  1.
       -3    1    3    3    0  502 -0.24115585219E+03  0.20201052232E+03  0.13375027433E+04  0.13740007258E+04  0.10100000352E+00 0. -1.
</event>
<event>
 5   0  0.1001573E-05  0.2802659E+04  0.7818609E-02  0.8302443E-01
        2   -1    0    0  501    0  0.00000000000E+00  0.00000000000E+00  0.10692658872E+04  0.10692658872E+04  0.25500000920E-02 0.  1.
       -2   -1    0    0    0  501  0.00000000000E+00  0.00000000000E+00 -0.18365167888E+04  0.18365167888E+04  0.25500000920E-02 0. -1.
    10030    2    1    2    0    0  0.00000000000E+00  0.00000000000E+00 -0.76725090160E+03  0.29057826761E+04  0.28026592755E+04 0.  0.
        1    1    3    3  502    0  0.15395677514E+03 -0.39264609380E+03 -0.17691539117E+04  0.18187301083E+04  0.50400001928E-02 0. -1.
       -1    1    3    3    0  502 -0.15395677514E+03  0.39264609380E+03  0.10019030101E+04  0.10870525678E+04  0.50400001928E-02 0.  1.
</event>
<event>
 5   0  0.9360689E-06  0.2754228E+04  0.7818609E-02  0.8317621E-01
       -2   -1    0    0    0  501  0.00000000000E+00  0.00000000000E+00  0.15609819448E+04  0.15609819448E+04  0.25500000920E-02 0.  1.
        2   -1    0    0  501    0  0.00000000000E+00  0.00000000000E+00 -0.12149039433E+04  0.12149039433E+04  0.25500000920E-02 0. -1.
    10030    2    1    2    0    0  0.00000000000E+00  0.00000000000E+00  0.34607800151E+03  0.27758858882E+04  0.27542281099E+04 0.  0.
        5    1    3    3  502    0  0.12827392127E+04 -0.35171620980E+03  0.53263142346E+03  0.14327744076E+04  0.46999998093E+01 0.  1.
       -5    1    3    3    0  502 -0.12827392127E+04  0.35171620980E+03 -0.18655342195E+03  0.13431114805E+04  0.46999998093E+01 0. -1.
</event>
<event>
 5   0  0.9251510E-06  0.2895662E+04  0.7818609E-02  0.8274169E-01
       -2   -1    0    0    0  501  0.00000000000E+00  0.00000000000E+00  0.96555334376E+03  0.96555334376E+03  0.25500000920E-02 0. -1.
        2   -1    0    0  501    0  0.00000000000E+00  0.00000000000E+00 -0.21709977200E+04  0.21709977200E+04  0.25500000920E-02 0.  1.
    10030    2    1    2    0    0  0.00000000000E+00  0.00000000000E+00 -0.12054443763E+04  0.31365510638E+04  0.28956616569E+04 0.  0.
        2    1    3    3  502    0  0.23394305581E+03  0.13680141707E+04 -0.15608273203E+03  0.13966223340E+04  0.25500000920E-02 0. -1.
       -2    1    3    3    0  502 -0.23394305581E+03 -0.13680141707E+04 -0.10493616442E+04  0.17399287298E+04  0.25500000920E-02 0.  1.
</event>
<event>
 5   0  0.3564340E-06  0.2966045E+04  0.7818609E-02  0.8253494E-01
       -1   -1    0    0    0  501  0.00000000000E+00  0.00000000000E+00  0.86058935500E+03  0.86058935501E+03  0.50400001928E-02 0. -1.
        1   -1    0    0  501    0  0.00000000000E+00  0.00000000000E+00 -0.25556384007E+04  0.25556384007E+04  0.50400001928E-02 0.  1.
    10030    2    1    2    0    0  0.00000000000E+00  0.00000000000E+00 -0.16950490457E+04  0.34162277558E+04  0.29660446409E+04 0.  0.
        1    1    3    3  502    0  0.28178264978E+03  0.12720375457E+04 -0.31568825715E+02  0.13032565251E+04  0.50400001928E-02 0. -1.
       -1    1    3    3    0  502 -0.28178264978E+03 -0.12720375457E+04 -0.16634802200E+04  0.21129712307E+04  0.50400001928E-02 0.  1.
</event>
<event>
 5   0  0.9251510E-06  0.2921266E+04  0.7818609E-02  0.8266578E-01
       -2   -1    0    0    0  501  0.00000000000E+00  0.00000000000E+00  0.13722893696E+04  0.13722893696E+04  0.25500000920E-02 0. -1.
        2   -1    0    0  501    0  0.00000000000E+00  0.00000000000E+00 -0.15546641706E+04  0.15546641706E+04  0.25500000920E-02 0.  1.
    10030    2    1    2    0    0  0.00000000000E+00  0.00000000000E+00 -0.18237480098E+03  0.29269535403E+04  0.29212662424E+04 0.  0.
        2    1    3    3  502    0  0.44640363029E+03 -0.11613276658E+04 -0.85785090156E+03  0.15112466105E+04  0.25500000920E-02 0.  1.
       -2    1    3    3    0  502 -0.44640363029E+03  0.11613276658E+04  0.67547610058E+03  0.14157069298E+04  0.25500000920E-02 0. -1.
</event>
<event>
 5   0  0.3564340E-06  0.2927036E+04  0.7818609E-02  0.8264879E-01
       -1   -1    0    0    0  501  0.00000000000E+00  0.00000000000E+00  0.11796619471E+04  0.11796619471E+04  0.50400001928E-02 0. -1.
        1   -1    0    0  501    0  0.00000000000E+00  0.00000000000E+00 -0.18156768978E+04  0.18156768978E+04  0.50400001928E-02 0.  1.
    10030    2    1    2    0    0  0.00000000000E+00  0.00000000000E+00 -0.63601495069E+03  0.29953388449E+04  0.29270360056E+04 0.  0.
        1    1    3    3  502    0 -0.47965729290E+03 -0.80320158716E+03 -0.14697397265E+04  0.17422223658E+04  0.50400001928E-02 0.  1.
       -1    1    3    3    0  502  0.47965729290E+03  0.80320158716E+03  0.83372477581E+03  0.12531164791E+04  0.50400001928E-02 0. -1.
</event>
<event>
 5   0  0.3486236E-06  0.2914586E+04  0.7818609E-02  0.8268551E-01
        1   -1    0    0  501    0  0.00000000000E+00  0.00000000000E+00  0.16585852664E+04  0.16585852664E+04  0.50400001928E-02 0.  1.
       -1   -1    0    0    0  501  0.00000000000E+00  0.00000000000E+00 -0.12804299722E+04  0.12804299722E+04  0.50400001928E-02 0. -1.
    10030    2    1    2    0    0  0.00000000000E+00  0.00000000000E+00  0.37815529415E+03  0.29390152386E+04  0.29145855874E+04 0.  0.
        5    1    3    3  502    0 -0.62551865790E+03  0.39240116248E+03  0.14559632588E+04  0.16325144302E+04  0.46999998093E+01 0.  1.
       -5    1    3    3    0  502  0.62551865790E+03 -0.39240116248E+03 -0.10778079647E+04  0.13065008084E+04  0.46999998093E+01 0. -1.
</event>
<event>
 5   0  0.9505359E-06  0.2854513E+04  0.7818609E-02  0.8286541E-01
        2   -1    0    0  501    0  0.00000000000E+00  0.00000000000E+00  0.16972577723E+04  0.16972577723E+04  0.25500000920E-02 0.  1.
       -2   -1    0    0    0  501  0.00000000000E+00  0.00000000000E+00 -0.12002076429E+04  0.12002076429E+04  0.25500000920E-02 0. -1.
    10030    2    1    2    0    0  0.00000000000E+00  0.00000000000E+00  0.49705012946E+03  0.28974654152E+04  0.28545134439E+04 0.  0.
        4    1    3    3  502    0 -0.11741577507E+04  0.39292203687E+03  0.96915555322E+03  0.15723543653E+04  0.12699999809E+01 0.  1.
       -4    1    3    3    0  502  0.11741577507E+04 -0.39292203687E+03 -0.47210542376E+03  0.13251110500E+04  0.12699999809E+01 0. -1.
</event>
<event>
 5   0  0.3474078E-06  0.2908691E+04  0.7818609E-02  0.8270296E-01
        1   -1    0    0  501    0  0.00000000000E+00  0.00000000000E+00  0.15749067845E+04  0.15749067845E+04  0.50400001928E-02 0. -1.
       -1   -1    0    0    0  501  0.00000000000E+00  0.00000000000E+00 -0.13430134044E+04  0.13430134044E+04  0.50400001928E-02 0.  1.
    10030    2    1    2    0    0  0.00000000000E+00  0.00000000000E+00  0.23189338012E+03  0.29179201888E+04  0.29086910611E+04 0.  0.
        3    1    3    3  502    0  0.13849530873E+04  0.43823250316E+03  0.18672643232E+03  0.14645851125E+04  0.10100000352E+00 0. -1.
       -3    1    3    3    0  502 -0.13849530873E+04 -0.43823250316E+03  0.45166947794E+02  0.14533350764E+04  0.10100000352E+00 0.  1.
</event>
<event>
 5   0  0.3188375E-06  0.2936586E+04  0.7818609E-02  0.8262075E-01
       -3   -1    0    0    0  501  0.00000000000E+00  0.00000000000E+00  0.11413511910E+04  0.11413511955E+04  0.10100000352E+00 0. -1.
        3   -1    0    0  501    0  0.00000000000E+00  0.00000000000E+00 -0.18888874249E+04  0.18888874276E+04  0.10100000352E+00 0.  1.
    10030    2    1    2    0    0  0.00000000000E+00  0.00000000000E+00 -0.74753623386E+03  0.30302386230E+04  0.29365857201E+04 0.  0.
        4    1    3    3  502    0  0.15194591238E+03  0.85871624078E+02  0.11306086281E+04  0.11440013020E+04  0.12699999809E+01 0. -1.
       -4    1    3    3    0  502 -0.15194591238E+03 -0.85871624078E+02 -0.18781448619E+04  0.18862373211E+04  0.12699999809E+01 0.  1.
</event>
<event>
 5   0  0.3564340E-06  0.2906808E+04  0.7818609E-02  0.8270855E-01
       -1   -1    0    0    0  501  0.00000000000E+00  0.00000000000E+00  0.15298751601E+04  0.15298751601E+04  0.50400001928E-02 0.  1.
        1   -1    0    0  501    0  0.00000000000E+00  0.00000000000E+00 -0.13807556347E+04  0.13807556347E+04  0.50400001928E-02 0. -1.
    10030    2    1    2    0    0  0.00000000000E+00  0.00000000000E+00  0.14911952541E+03  0.29106307949E+04  0.29068083857E+04 0.  0.
        1    1    3    3  502    0 -0.70200836238E+03 -0.43590781754E+03 -0.11226513854E+04  0.13939790168E+04  0.50400001928E-02 0. -1.
       -1    1    3    3    0  502  0.70200836238E+03  0.43590781754E+03  0.12717709108E+04  0.15166517780E+04  0.50400001928E-02 0.  1.
</event>
<event>
 5   0  0.3649705E-06  0.2870129E+04  0.7818609E-02  0.8281821E-01
        1   -1    0    0  501    0  0.00000000000E+00  0.00000000000E+00  0.14351917864E+04  0.14351917864E+04  0.50400001928E-02 0.  1.
       -1   -1    0    0    0  501  0.00000000000E+00  0.00000000000E+00 -0.14349369559E+04  0.14349369559E+04  0.50400001928E-02 0. -1.
    10030    2    1    2    0    0  0.00000000000E+00  0.00000000000E+00  0.25483050582E+00  0.28701287424E+04  0.28701287311E+04 0.  0.
        2    1    3    3  502    0 -0.92770586349E+03  0.80836593273E+03 -0.73832778797E+03  0.14349988059E+04  0.25500000920E-02 0.  1.
       -2    1    3    3    0  502  0.92770586349E+03 -0.80836593273E+03  0.73858261847E+03  0.14351299365E+04  0.25500000920E-02 0. -1.
</event>
<event>
 5   0  0.3746518E-06  0.2814474E+04  0.7818609E-02  0.8298789E-01
        1   -1    0    0  501    0  0.00000000000E+00  0.00000000000E+00  0.92015165548E+03  0.92015165549E+03  0.50400001928E-02 0. -1.
       -1   -1    0    0    0  501  0.00000000000E+00  0.00000000000E+00 -0.21521629664E+04  0.21521629664E+04  0.50400001928E-02 0.  1.
    10030    2    1    2    0    0  0.00000000000E+00  0.00000000000E+00 -0.12320113109E+04  0.30723146219E+04  0.28144742432E+04 0.  0.
        4    1    3    3  502    0 -0.81896647620E+03 -0.88158959471E+03 -0.14125149702E+04  0.18555609547E+04  0.12699999809E+01 0.  1.
       -4    1    3    3    0  502  0.81896647620E+03  0.88158959471E+03  0.18050365933E+03  0.12167536672E+04  0.12699999809E+01 0. -1.
</event>
<event>
 5   0  0.3486236E-06  0.2905153E+04  0.7818609E-02  0.8271346E-01
       -1   -1    0    0    0  501  0.00000000000E+00  0.00000000000E+00  0.96987490455E+03  0.96987490457E+03  0.50400001928E-02 0.  1.
        1   -1    0    0  501    0  0.00000000000E+00  0.00000000000E+00 -0.21755159246E+04  0.21755159246E+04  0.50400001928E-02 0. -1.
    10030    2    1    2    0    0  0.00000000000E+00  0.00000000000E+00 -0.12056410201E+04  0.31453908292E+04  0.29051528702E+04 0.  0.
        5    1    3    3  502    0 -0.12828736670E+04  0.56516782199E+03 -0.10147804240E+04  0.17306013150E+04  0.46999998093E+01 0. -1.
       -5    1    3    3    0  502  0.12828736670E+04 -0.56516782199E+03 -0.19086059604E+03  0.14147895142E+04  0.46999998093E+01 0.  1.
</event>
<event>
 5   0  0.1001573E-05  0.2907997E+04  0.7818609E-02  0.8270502E-01
        2   -1    0    0  501    0  0.00000000000E+00  0.00000000000E+00  0.20555745744E+04  0.20555745744E+04  0.25500000920E-02 0.  1.
       -2   -1    0    0    0  501  0.00000000000E+00  0.00000000000E+00 -0.10284772655E+04  0.10284772655E+04  0.25500000920E-02 0. -1.
    10030    2    1    2    0    0  0.00000000000E+00  0.00000000000E+00  0.10270973089E+04  0.30840518399E+04  0.29079970546E+04 0.  0.
        1    1    3    3  502    0  0.43386618180E+03 -0.98075325995E+03  0.15548227747E+04  0.18888066818E+04  0.50400001928E-02 0.  1.
       -1    1    3    3    0  502 -0.43386618180E+03  0.98075325995E+03 -0.52772546583E+03  0.11952451581E+04  0.50400001928E-02 0. -1.
</event>
<event>
 5   0  0.3649705E-06  0.2901896E+04  0.7818609E-02  0.8272314E-01
       -1   -1    0    0    0  501  0.00000000000E+00  0.00000000000E+00  0.11462134951E+04  0.11462134951E+04  0.50400001928E-02 0.  1.
        1   -1    0    0  501    0  0.00000000000E+00  0.00000000000E+00 -0.18367000264E+04  0.18367000264E+04  0.50400001928E-02 0. -1.
    10030    2    1    2    0    0  0.00000000000E+00  0.00000000000E+00 -0.69048653125E+03  0.29829135215E+04  0.29018961778E+04 0.  0.
        2    1    3    3  502    0 -0.14430863303E+04 -0.11053870537E+03 -0.23974557052E+03  0.14670360938E+04  0.25500000920E-02 0.  1.
       -2    1    3    3    0  502  0.14430863303E+04  0.11053870537E+03 -0.45074096073E+03  0.15158774277E+04  0.25500000920E-02 0. -1.
</event>
<event>
 5   0  0.9646321E-06  0.2981245E+04  0.7818609E-02  0.8249107E-01
       -2   -1    0    0    0  501  0.00000000000E+00  0.00000000000E+00  0.14929853187E+04  0.14929853187E+04  0.25500000920E-02 0. -1.
        2   -1    0    0  501    0  0.00000000000E+00  0.00000000000E+00 -0.14882633206E+04  0.14882633206E+04  0.25500000920E-02 0.  1.
    10030    2    1    2    0    0  0.00000000000E+00  0.00000000000E+00  0.47219981515E+01  0.29812486393E+04  0.29812448997E+04 0.  0.
        3    1    3    3  502    0 -0.33021299933E+03 -0.23865901688E+03  0.14362235045E+04  0.14928954137E+04  0.10100000352E+00 0. -1.
       -3    1    3    3    0  502  0.33021299933E+03  0.23865901688E+03 -0.14315015063E+04  0.14883532256E+04  0.10100000352E+00 0.  1.
</event>
<event>
 5   0  0.3746518E-06  0.2900901E+04  0.7818609E-02  0.8272609E-01
        1   -1    0    0  501    0  0.00000000000E+00  0.00000000000E+00  0.15245210621E+04  0.15245210621E+04  0.50400001928E-02 0. -1.
       -1   -1    0    0    0  501  0.00000000000E+00  0.00000000000E+00 -0.13799789215E+04  0.13799789215E+04  0.50400001928E-02 0.  1.
    10030    2    1    2    0    0  0.00000000000E+00  0.00000000000E+00  0.14454214059E+03  0.29044999836E+04  0.29009011918E+04 0.  0.
        4    1    3    3  502    0 -0.10311121123E+04  0.37154626220E+03  0.10234846641E+04  0.14995870377E+04  0.12699999809E+01 0. -1.
       -4    1    3    3    0  502  0.10311121123E+04 -0.37154626220E+03 -0.87894252347E+03  0.14049129459E+04  0.12699999809E+01 0.  1.
</event>
<event>
 5   0  0.1001573E-05  0.2900544E+04  0.7818609E-02  0.8272715E-01
       -2   -1    0    0    0  501  0.00000000000E+00  0.00000000000E+00  0.13869784724E+04  0.13869784724E+04  0.25500000920E-02 0.  1.
        2   -1    0    0  501    0  0.00000000000E+00  0.00000000000E+00 -0.15164543669E+04  0.15164543669E+04  0.25500000920E-02 0. -1.
    10030    2    1    2    0    0  0.00000000000E+00  0.00000000000E+00 -0.12947589444E+03  0.29034328393E+04  0.29005444739E+04 0.  0.
        1    1    3    3  502    0  0.74931396619E+03  0.86660538816E+03 -0.95490029880E+03  0.14914123841E+04  0.50400001928E-02 0. -1.
       -1    1    3    3    0  502 -0.74931396619E+03 -0.86660538816E+03  0.82542440436E+03  0.14120204553E+04  0.50400001928E-02 0.  1.
</event>
<event>
 5   0  0.3474078E-06  0.2909762E+04  0.7818609E-02  0.8269979E-01
       -1   -1    0    0    0  501  0.00000000000E+00  0.00000000000E+00  0.18011666482E+04  0.18011666482E+04  0.50400001928E-02 0. -1.
        1   -1    0    0  501    0  0.00000000000E+00  0.00000000000E+00 -0.11751708175E+04  0.11751708176E+04  0.50400001928E-02 0.  1.
    10030    2    1    2    0    0  0.00000000000E+00  0.00000000000E+00  0.62599583067E+03  0.29763374658E+04  0.29097618339E+04 0.  0.
        3    1    3    3  502    0 -0.76366975357E+03  0.51540931123E+03  0.14647446531E+04  0.17304089574E+04  0.10100000352E+00 0. -1.
       -3    1    3    3    0  502  0.76366975357E+03 -0.51540931123E+03 -0.83874882248E+03  0.12459285084E+04  0.10100000352E+00 0.  1.
</event>
<event>
 5   0  0.9505359E-06  0.3128795E+04  0.7818609E-02  0.8207880E-01
        2   -1    0    0  501    0  0.00000000000E+00  0.00000000000E+00  0.19050752072E+04  0.19050752072E+04  0.25500000920E-02 0. -1.
       -2   -1    0    0    0  501  0.00000000000E+00  0.00000000000E+00 -0.12846420249E+04  0.12846420249E+04  0.25500000920E-02 0.  1.
    10030    2    1    2    0    0  0.00000000000E+00  0.00000000000E+00  0.62043318237E+03  0.31897172321E+04  0.31287950855E+04 0.  0.
        4    1    3    3  502    0 -0.96913585506E+03  0.38620680168E+03  0.14986588625E+04  0.18260230005E+04  0.12699999809E+01 0. -1.
       -4    1    3    3    0  502  0.96913585506E+03 -0.38620680168E+03 -0.87822568013E+03  0.13636942316E+04  0.12699999809E+01 0.  1.
</event>
<event>
 5   0  0.9251510E-06  0.2878820E+04  0.7818609E-02  0.8279207E-01
       -2   -1    0    0    0  501  0.00000000000E+00  0.00000000000E+00  0.99694622772E+03  0.99694622772E+03  0.25500000920E-02 0.  1.
        2   -1    0    0  501    0  0.00000000000E+00  0.00000000000E+00 -0.20782474154E+04  0.20782474154E+04  0.25500000920E-02 0. -1.
    10030    2    1    2    0    0  0.00000000000E+00  0.00000000000E+00 -0.10813011877E+04  0.30751936432E+04  0.28788198423E+04 0.  0.
        2    1    3    3  502    0 -0.12921255343E+04  0.14377577694E+02  0.13672283226E+03  0.12994184253E+04  0.25500000920E-02 0. -1.
       -2    1    3    3    0  502  0.12921255343E+04 -0.14377577694E+02 -0.12180240200E+04  0.17757752179E+04  0.25500000920E-02 0.  1.
</event>
<event>
 5   0  0.9360689E-06  0.2958777E+04  0.7818609E-02  0.8255601E-01
       -2   -1    0    0    0  501  0.00000000000E+00  0.00000000000E+00  0.23089111485E+04  0.23089111485E+04  0.25500000920E-02 0. -1.
        2   -1    0    0  501    0  0.00000000000E+00  0.00000000000E+00 -0.94788879203E+03  0.94788879203E+03  0.25500000920E-02 0.  1.
    10030    2    1    2    0    0  0.00000000000E+00  0.00000000000E+00  0.13610223565E+04  0.32567999406E+04  0.29587774499E+04 0.  0.
        5    1    3    3  502    0 -0.11997297047E+04  0.48674944118E+03 -0.10732839472E+03  0.12991604432E+04  0.46999998093E+01 0.  1.
       -5    1    3    3    0  502  0.11997297047E+04 -0.48674944118E+03  0.14683507512E+04  0.19576394973E+04  0.46999998093E+01 0. -1.
</event>
<event>
 5   0  0.9251510E-06  0.2752994E+04  0.7818609E-02  0.8318012E-01
       -2   -1    0    0    0  501  0.00000000000E+00  0.00000000000E+00  0.88745482386E+03  0.88745482387E+03  0.25500000920E-02 0. -1.
        2   -1    0    0  501    0  0.00000000000E+00  0.00000000000E+00 -0.21350317871E+04  0.21350317871E+04  0.25500000920E-02 0.  1.
    10030    2    1    2    0    0  0.00000000000E+00  0.00000000000E+00 -0.12475769632E+04  0.30224866110E+04  0.27529941944E+04 0.  0.
        2    1    3    3  502    0 -0.80359462205E+03  0.11175761372E+04 -0.62584819286E+03  0.15120934824E+04  0.25500000920E-02 0.  1.
       -2    1    3    3    0  502  0.80359462205E+03 -0.11175761372E+04 -0.62172877039E+03  0.15103931286E+04  0.25500000920E-02 0. -1.
</event>
<event>
 5   0  0.9646321E-06  0.2441187E+04  0.7818609E-02  0.8424243E-01
       -2   -1    0    0    0  501  0.00000000000E+00  0.00000000000E+00  0.11112705571E+04  0.11112705571E+04  0.25500000920E-02 0.  1.
        2   -1    0    0  501    0  0.00000000000E+00  0.00000000000E+00 -0.13406712353E+04  0.13406712353E+04  0.25500000920E-02 0. -1.
    10030    2    1    2    0    0  0.00000000000E+00  0.00000000000E+00 -0.22940067821E+03  0.24519417924E+04  0.24411869822E+04 0.  0.
        3    1    3    3  502    0  0.56938826035E+03  0.33933569720E+03  0.91475252936E+03  0.11296565436E+04  0.10100000352E+00 0.  1.
       -3    1    3    3    0  502 -0.56938826035E+03 -0.33933569720E+03 -0.11441532076E+04  0.13222852487E+04  0.10100000352E+00 0. -1.
</event>
<event>
 5   0  0.9646321E-06  0.2917017E+04  0.7818609E-02  0.8267832E-01
        2   -1    0    0  501    0  0.00000000000E+00  0.00000000000E+00  0.16139407375E+04  0.16139407375E+04  0.25500000920E-02 0.  1.
       -2   -1    0    0    0  501  0.00000000000E+00  0.00000000000E+00 -0.13180453410E+04  0.13180453410E+04  0.25500000920E-02 0. -1.
    10030    2    1    2    0    0  0.00000000000E+00  0.00000000000E+00  0.29589539653E+03  0.29319860784E+04  0.29170170172E+04 0.  0.
        3    1    3    3  502    0 -0.64178460212E+03 -0.25372355861E+03  0.14394475643E+04  0.15963309245E+04  0.10100000352E+00 0.  1.
       -3    1    3    3    0  502  0.64178460212E+03  0.25372355861E+03 -0.11435521678E+04  0.13356551540E+04  0.10100000352E+00 0. -1.
</event>
<event>
 5   0  0.9251510E-06  0.2880318E+04  0.7818609E-02  0.8278758E-01
       -2   -1    0    0    0  501  0.00000000000E+00  0.00000000000E+00  0.87232603143E+03  0.87232603144E+03  0.25500000920E-02 0. -1.
        2   -1    0    0  501    0  0.00000000000E+00  0.00000000000E+00 -0.23776177004E+04  0.23776177004E+04  0.25500000920E-02 0.  1.
    10030    2    1    2    0    0  0.00000000000E+00  0.00000000000E+00 -0.15052916690E+04  0.32499437318E+04  0.28803179081E+04 0.  0.
        2    1    3    3  502    0 -0.47531746795E+03 -0.13564298282E+04 -0.85500229232E+03  0.16723807862E+04  0.25500000920E-02 0.  1.
       -2    1    3    3    0  502  0.47531746795E+03  0.13564298282E+04 -0.65028937666E+03  0.15775629457E+04  0.25500000920E-02 0. -1.
</event>
<event>
 5   0  0.3188375E-06  0.2404378E+04  0.7818609E-02  0.8437866E-01
        3   -1    0    0  501    0  0.00000000000E+00  0.00000000000E+00  0.72763946524E+03  0.72763947225E+03  0.10100000352E+00 0. -1.
       -3   -1    0    0    0  501  0.00000000000E+00  0.00000000000E+00 -0.19862291696E+04  0.19862291722E+04  0.10100000352E+00 0.  1.
    10030    2    1    2    0    0  0.00000000000E+00  0.00000000000E+00 -0.12585897044E+04  0.27138686444E+04  0.24043782929E+04 0.  0.
        5    1    3    3  502    0 -0.62438330465E+03 -0.92988886127E+03 -0.13640636644E+03  0.11283512717E+04  0.46999998093E+01 0. -1.
       -5    1    3    3    0  502  0.62438330465E+03  0.92988886127E+03 -0.11221833379E+04  0.15855173728E+04  0.46999998093E+01 0.  1.
</event>
<event>
 5   0  0.9360689E-06  0.2859502E+04  0.7818609E-02  0.8285030E-01
       -2   -1    0    0    0  501  0.00000000000E+00  0.00000000000E+00  0.13434668898E+04  0.13434668898E+04  0.25500000920E-02 0.  1.
        2   -1    0    0  501    0  0.00000000000E+00  0.00000000000E+00 -0.15215764046E+04  0.15215764046E+04  0.25500000920E-02 0. -1.
    10030    2    1    2    0    0  0.00000000000E+00  0.00000000000E+00 -0.17810951476E+03  0.28650432944E+04  0.28595017188E+04 0.  0.
        5    1    3    3  502    0  0.94799232120E+02 -0.50252072722E+03  0.12486924285E+04  0.13493586798E+04  0.46999998093E+01 0.  1.
       -5    1    3    3    0  502 -0.94799232120E+02  0.50252072722E+03 -0.14268019433E+04  0.15156846146E+04  0.46999998093E+01 0. -1.
</event>
<event>
 5   0  0.9646321E-06  0.2825211E+04  0.7818609E-02  0.8295484E-01
        2   -1    0    0  501    0  0.00000000000E+00  0.00000000000E+00  0.12639583924E+04  0.12639583924E+04  0.25500000920E-02 0.  1.
       -2   -1    0    0    0  501  0.00000000000E+00  0.00000000000E+00 -0.15787339479E+04  0.15787339479E+04  0.25500000920E-02 0. -1.
    10030    2    1    2    0    0  0.00000000000E+00  0.00000000000E+00 -0.31477555549E+03  0.28426923403E+04  0.28252108047E+04 0.  0.
        3    1    3    3  502    0 -0.76528750031E+03 -0.10411220411E+04 -0.73175612136E+03  0.14849468320E+04  0.10100000352E+00 0. -1.
       -3    1    3    3    0  502  0.76528750031E+03  0.10411220411E+04  0.41698056586E+03  0.13577455082E+04  0.10100000352E+00 0.  1.
</event>
<event>
 5   0  0.3746518E-06  0.2883397E+04  0.7818609E-02  0.8277835E-01
        1   -1    0    0  501    0  0.00000000000E+00  0.00000000000E+00  0.12504838255E+04  0.12504838256E+04  0.50400001928E-02 0. -1.
       -1   -1    0    0    0  501  0.00000000000E+00  0.00000000000E+00 -0.16621518484E+04  0.16621518484E+04  0.50400001928E-02 0.  1.
    10030    2    1    2    0    0  0.00000000000E+00  0.00000000000E+00 -0.41166802283E+03  0.29126356739E+04  0.28833966096E+04 0.  0.
        4    1    3    3  502    0 -0.10818543689E+04  0.90685250708E+03 -0.50155174636E+03  0.14981141853E+04  0.12699999809E+01 0. -1.
       -4    1    3    3    0  502  0.10818543689E+04 -0.90685250708E+03  0.89883723531E+02  0.14145214886E+04  0.12699999809E+01 0.  1.
</event>
<event>
 5   0  0.1001573E-05  0.2886762E+04  0.7818609E-02  0.8276827E-01
       -2   -1    0    0    0  501  0.00000000000E+00  0.00000000000E+00  0.97131369860E+03  0.97131369860E+03  0.25500000920E-02 0. -1.
        2   -1    0    0  501    0  0.00000000000E+00  0.00000000000E+00 -0.21448777159E+04  0.21448777159E+04  0.25500000920E-02 0.  1.
    10030    2    1    2    0    0  0.00000000000E+00  0.00000000000E+00 -0.11735640173E+04  0.31161914145E+04  0.28867622744E+04 0.  0.
        1    1    3    3  502    0  0.38231124756E+03  0.95085077961E+03 -0.16839622630E+04  0.19712960200E+04  0.50400001928E-02 0.  1.
       -1    1    3    3    0  502 -0.38231124756E+03 -0.95085077961E+03  0.51039824573E+03  0.11448953945E+04  0.50400001928E-02 0. -1.
</event>
<event>
 5   0  0.9251510E-06  0.2909000E+04  0.7818609E-02  0.8270205E-01
        2   -1    0    0  501    0  0.00000000000E+00  0.00000000000E+00  0.18024863533E+04  0.18024863533E+04  0.25500000920E-02 0.  1.
       -2   -1    0    0    0  501  0.00000000000E+00  0.00000000000E+00 -0.11736959625E+04  0.11736959625E+04  0.25500000920E-02 0. -1.
    10030    2    1    2    0    0  0.00000000000E+00  0.00000000000E+00  0.62879039075E+03  0.29761823158E+04  0.29090004849E+04 0.  0.
        2    1    3    3  502    0 -0.48601420112E+03  0.12563000904E+04  0.87576670748E+03  0.16066944473E+04  0.25500000920E-02 0.  1.
       -2    1    3    3    0  502  0.48601420112E+03 -0.12563000904E+04 -0.24697631673E+03  0.13694878685E+04  0.25500000920E-02 0. -1.
</event>
<event>
 5   0  0.3649705E-06  0.2877751E+04  0.7818609E-02  0.8279528E-01
        1   -1    0    0  501    0  0.00000000000E+00  0.00000000000E+00  0.13831866048E+04  0.13831866049E+04  0.50400001928E-02 0.  1.
       -1   -1    0    0    0  501  0.00000000000E+00  0.00000000000E+00 -0.14968060731E+04  0.14968060731E+04  0.50400001928E-02 0. -1.
    10030    2    1    2    0    0  0.00000000000E+00  0.00000000000E+00 -0.11361946822E+03  0.28799926779E+04  0.28777505871E+04 0.  0.
        2    1    3    3  502    0 -0.18547823114E+03 -0.10946695111E+04 -0.97275971435E+03  0.14761317606E+04  0.25500000920E-02 0. -1.
       -2    1    3    3    0  502  0.18547823114E+03  0.10946695111E+04  0.85914024613E+03  0.14038609173E+04  0.25500000920E-02 0.  1.
</event>
<event>
 5   0  0.9360689E-06  0.2808262E+04  0.7818609E-02  0.8300708E-01
       -2   -1    0    0    0  501  0.00000000000E+00  0.00000000000E+00  0.23845892181E+04  0.23845892181E+04  0.25500000920E-02 0.  1.
        2   -1    0    0  501    0  0.00000000000E+00  0.00000000000E+00 -0.82680210573E+03  0.82680210574E+03  0.25500000920E-02 0. -1.
    10030    2    1    2    0    0  0.00000000000E+00  0.00000000000E+00  0.15577871123E+04  0.32113913238E+04  0.28082616593E+04 0.  0.
        5    1    3    3  502    0  0.12452338822E+04  0.25072311989E+03  0.14632034869E+04  0.19376418757E+04  0.46999998093E+01 0. -1.
       -5    1    3    3    0  502 -0.12452338822E+04 -0.25072311989E+03  0.94583625424E+02  0.12737494481E+04  0.46999998093E+01 0.  1.
</event>
<event>
 5   0  0.3474078E-06  0.2896046E+04  0.7818609E-02  0.8274055E-01
       -1   -1    0    0    0  501  0.00000000000E+00  0.00000000000E+00  0.13872505287E+04  0.13872505287E+04  0.50400001928E-02 0. -1.
        1   -1    0    0  501    0  0.00000000000E+00  0.00000000000E+00 -0.15114579867E+04  0.15114579867E+04  0.50400001928E-02 0.  1.
    10030    2    1    2    0    0  0.00000000000E+00  0.00000000000E+00 -0.12420745808E+03  0.28987085154E+04  0.28960461952E+04 0.  0.
        3    1    3    3  502    0 -0.12403657075E+04  0.59104447214E+03 -0.51961278693E+03  0.14689581733E+04  0.10100000352E+00 0.  1.
       -3    1    3    3    0  502  0.12403657075E+04 -0.59104447214E+03  0.39540532885E+03  0.14297503421E+04  0.10100000352E+00 0. -1.
</event>
<event>
 5   0  0.3474078E-06  0.2867231E+04  0.7818609E-02  0.8282695E-01
        1   -1    0    0  501    0  0.00000000000E+00  0.00000000000E+00  0.18773618024E+04  0.18773618024E+04  0.50400001928E-02 0.  1.
       -1   -1    0    0    0  501  0.00000000000E+00  0.00000000000E+00 -0.10947561258E+04  0.10947561258E+04  0.50400001928E-02 0. -1.
    10030    2    1    2    0    0  0.00000000000E+00  0.00000000000E+00  0.78260567655E+03  0.29721179282E+04  0.28672309524E+04 0.  0.
        3    1    3    3  502    0  0.97534014614E+03  0.22426096213E+03 -0.67273254262E+03  0.12058816127E+04  0.10100000352E+00 0. -1.
       -3    1    3    3    0  502 -0.97534014614E+03 -0.22426096213E+03  0.14553382192E+04  0.17662363155E+04  0.10100000352E+00 0.  1.
</event>
<event>
 5   0  0.3746518E-06  0.3153462E+04  0.7818609E-02  0.8201217E-01
       -1   -1    0    0    0  501  0.00000000000E+00  0.00000000000E+00  0.12334245012E+04  0.12334245013E+04  0.50400001928E-02 0.  1.
        1   -1    0    0  501    0  0.00000000000E+00  0.00000000000E+00 -0.20155919246E+04  0.20155919246E+04  0.50400001928E-02 0. -1.
    10030    2    1    2    0    0  0.00000000000E+00  0.00000000000E+00 -0.78216742332E+03  0.32490164258E+04  0.31534618845E+04 0.  0.
        4    1    3    3  502    0  0.10486372125E+04  0.10185193467E+04 -0.99979676346E+03  0.17710496448E+04  0.12699999809E+01 0. -1.
       -4    1    3    3    0  502 -0.10486372125E+04 -0.10185193467E+04  0.21762934014E+03  0.14779667810E+04  0.12699999809E+01 0.  1.
</event>
<event>
 5   0  0.9505359E-06  0.2800202E+04  0.7818609E-02  0.8303206E-01
        2   -1    0    0  501    0  0.00000000000E+00  0.00000000000E+00  0.24486555408E+04  0.24486555408E+04  0.25500000920E-02 0. -1.
       -2   -1    0    0    0  501  0.00000000000E+00  0.00000000000E+00 -0.80055446233E+03  0.80055446234E+03  0.25500000920E-02 0.  1.
    10030    2    1    2    0    0  0.00000000000E+00  0.00000000000E+00  0.16481010784E+04  0.32492100031E+04  0.28002015069E+04 0.  0.
        4    1    3    3  502    0 -0.12148014429E+04 -0.29017876017E+03  0.89875070258E+02  0.12522082094E+04  0.12699999809E+01 0. -1.
       -4    1    3    3    0  502  0.12148014429E+04  0.29017876017E+03  0.15582260082E+04  0.19970017937E+04  0.12699999809E+01 0.  1.
</event>
<event>
 5   0  0.9251510E-06  0.2930216E+04  0.7818609E-02  0.8263944E-01
       -2   -1    0    0    0  501  0.00000000000E+00  0.00000000000E+00  0.20695867332E+04  0.20695867332E+04  0.25500000920E-02 0.  1.
        2   -1    0    0  501    0  0.00000000000E+00  0.00000000000E+00 -0.10371835245E+04  0.10371835245E+04  0.25500000920E-02 0. -1.
    10030    2    1    2    0    0  0.00000000000E+00  0.00000000000E+00  0.10324032087E+04  0.31067702577E+04  0.29302158707E+04 0.  0.
        2    1    3    3  502    0 -0.33016316304E+03 -0.73759443477E+03  0.18119193029E+04  0.19839619011E+04  0.25500000920E-02 0.  1.
       -2    1    3    3    0  502  0.33016316304E+03  0.73759443477E+03 -0.77951609428E+03  0.11228083566E+04  0.25500000920E-02 0. -1.
</event>
<event>
 5   0  0.9505359E-06  0.2887487E+04  0.7818609E-02  0.8276610E-01
       -2   -1    0    0    0  501  0.00000000000E+00  0.00000000000E+00  0.15790648206E+04  0.15790648206E+04  0.25500000920E-02 0.  1.
        2   -1    0    0  501    0  0.00000000000E+00  0.00000000000E+00 -0.13200190527E+04  0.13200190527E+04  0.25500000920E-02 0. -1.
    10030    2    1    2    0    0  0.00000000000E+00  0.00000000000E+00  0.25904576784E+03  0.28990838733E+04  0.28874872458E+04 0.  0.
        4    1    3    3  502    0 -0.10794732062E+04  0.43241079734E+03  0.98861847605E+03  0.15263058687E+04  0.12699999809E+01 0.  1.
       -4    1    3    3    0  502  0.10794732062E+04 -0.43241079734E+03 -0.72957270821E+03  0.13727780047E+04  0.12699999809E+01 0. -1.
</event>
<event>
 5   0  0.1001573E-05  0.2859214E+04  0.7818609E-02  0.8285117E-01
       -2   -1    0    0    0  501  0.00000000000E+00  0.00000000000E+00  0.15263775748E+04  0.15263775748E+04  0.25500000920E-02 0.  1.
        2   -1    0    0  501    0  0.00000000000E+00  0.00000000000E+00 -0.13389711285E+04  0.13389711285E+04  0.25500000920E-02 0. -1.
    10030    2    1    2    0    0  0.00000000000E+00  0.00000000000E+00  0.18740644628E+03  0.28653487034E+04  0.28592135310E+04 0.  0.
        1    1    3    3  502    0 -0.95171133891E+02 -0.13406543933E+04 -0.39454210331E+03  0.14007409533E+04  0.50400001928E-02 0. -1.
       -1    1    3    3    0  502  0.95171133891E+02  0.13406543933E+04  0.58194854960E+03  0.14646077500E+04  0.50400001928E-02 0.  1.
</event>
<event>
 5   0  0.9646321E-06  0.2480054E+04  0.7818609E-02  0.8410126E-01
        2   -1    0    0  501    0  0.00000000000E+00  0.00000000000E+00  0.12697845482E+04  0.12697845482E+04  0.25500000920E-02 0. -1.
       -2   -1    0    0    0  501  0.00000000000E+00  0.00000000000E+00 -0.12109665180E+04  0.12109665180E+04  0.25500000920E-02 0.  1.
    10030    2    1    2    0    0  0.00000000000E+00  0.00000000000E+00  0.58818030168E+02  0.24807510662E+04  0.24800536873E+04 0.  0.
        3    1    3    3  502    0  0.74793140619E+03 -0.62724329270E+03  0.79436651433E+03  0.12585124973E+04  0.10100000352E+00 0. -1.
       -3    1    3    3    0  502 -0.74793140619E+03  0.62724329270E+03 -0.73554848417E+03  0.12222385689E+04  0.10100000352E+00 0.  1.
</event>
<event>
 5   0  0.3564340E-06  0.2912917E+04  0.7818609E-02  0.8269045E-01
       -1   -1    0    0    0  501  0.00000000000E+00  0.00000000000E+00  0.19231487901E+04  0.19231487901E+04  0.50400001928E-02 0. -1.
        1   -1    0    0  501    0  0.00000000000E+00  0.00000000000E+00 -0.11030202073E+04  0.11030202073E+04  0.50400001928E-02 0.  1.
    10030    2    1    2    0    0  0.00000000000E+00  0.00000000000E+00  0.82012858285E+03  0.30261689974E+04  0.29129174222E+04 0.  0.
        1    1    3    3  502    0 -0.10840166560E+04 -0.68521039478E+03  0.11273172647E+04  0.17074687730E+04  0.50400001928E-02 0. -1.
       -1    1    3    3    0  502  0.10840166560E+04  0.68521039478E+03 -0.30718868184E+03  0.13187002244E+04  0.50400001928E-02 0.  1.
</event>
<event>
 5   0  0.9251510E-06  0.2909671E+04  0.7818609E-02  0.8270006E-01
        2   -1    0    0  501    0  0.00000000000E+00  0.00000000000E+00  0.15965209362E+04  0.15965209362E+04  0.25500000920E-02 0.  1.
       -2   -1    0    0    0  501  0.00000000000E+00  0.00000000000E+00 -0.13257243846E+04  0.13257243846E+04  0.25500000920E-02 0. -1.
    10030    2    1    2    0    0  0.00000000000E+00  0.00000000000E+00  0.27079655161E+03  0.29222453208E+04  0.29096712774E+04 0.  0.
        2    1    3    3  502    0 -0.58312190626E+03  0.13328598415E+04  0.13492601520E+03  0.14610788973E+04  0.25500000920E-02 0.  1.
       -2    1    3    3    0  502  0.58312190626E+03 -0.13328598415E+04  0.13587053642E+03  0.14611664235E+04  0.25500000920E-02 0. -1.
</event>
<event>
 5   0  0.3649705E-06  0.2843725E+04  0.7818609E-02  0.8289821E-01
        1   -1    0    0  501    0  0.00000000000E+00  0.00000000000E+00  0.14616577699E+04  0.14616577699E+04  0.50400001928E-02 0. -1.
       -1   -1    0    0    0  501  0.00000000000E+00  0.00000000000E+00 -0.13831508970E+04  0.13831508971E+04  0.50400001928E-02 0.  1.
    10030    2    1    2    0    0  0.00000000000E+00  0.00000000000E+00  0.78506872867E+02  0.28448086670E+04  0.28437252017E+04 0.  0.
        2    1    3    3  502    0 -0.13245668506E+04  0.47271925034E+03 -0.16999705986E+03  0.14166297440E+04  0.25500000920E-02 0. -1.
       -2    1    3    3    0  502  0.13245668506E+04 -0.47271925034E+03  0.24850393273E+03  0.14281789229E+04  0.25500000920E-02 0.  1.
</event>
<event>
 5   0  0.9251510E-06  0.2914733E+04  0.7818609E-02  0.8268508E-01
        2   -1    0    0  501    0  0.00000000000E+00  0.00000000000E+00  0.13742512018E+04  0.13742512018E+04  0.25500000920E-02 0.  1.
       -2   -1    0    0    0  501  0.00000000000E+00  0.00000000000E+00 -0.15455082286E+04  0.15455082286E+04  0.25500000920E-02 0. -1.
    10030    2    1    2    0    0  0.00000000000E+00  0.00000000000E+00 -0.17125702682E+03  0.29197594304E+04  0.29147326056E+04 0.  0.
        2    1    3    3  502    0  0.23925609027E+03  0.11576161881E+04 -0.93950567414E+03  0.15099634524E+04  0.25500000920E-02 0. -1.
       -2    1    3    3    0  502 -0.23925609027E+03 -0.11576161881E+04  0.76824864732E+03  0.14097959781E+04  0.25500000920E-02 0.  1.
</event>
<event>
 5   0  0.9505359E-06  0.2127663E+04  0.7818609E-02  0.8549155E-01
        2   -1    0    0  501    0  0.00000000000E+00  0.00000000000E+00  0.13494861096E+04  0.13494861096E+04  0.25500000920E-02 0. -1.
       -2   -1    0    0    0  501  0.00000000000E+00  0.00000000000E+00 -0.83864303893E+03  0.83864303894E+03  0.25500000920E-02 0.  1.
    10030    2    1    2    0    0  0.00000000000E+00  0.00000000000E+00  0.51084307065E+03  0.21881291485E+04  0.21276626913E+04 0.  0.
        4    1    3    3  502    0 -0.71656824901E+02 -0.18633360275E+03  0.13300485390E+04  0.13449481927E+04  0.12699999809E+01 0. -1.
       -4    1    3    3    0  502  0.71656824901E+02  0.18633360275E+03 -0.81920546832E+03  0.84318095584E+03  0.12699999809E+01 0.  1.
</event>
<event>
 5   0  0.3564340E-06  0.2939658E+04  0.7818609E-02  0.8261175E-01
       -1   -1    0    0    0  501  0.00000000000E+00  0.00000000000E+00  0.12695475207E+04  0.12695475207E+04  0.50400001928E-02 0.  1.
        1   -1    0    0  501    0  0.00000000000E+00  0.00000000000E+00 -0.17017063377E+04  0.17017063377E+04  0.50400001928E-02 0. -1.
    10030    2    1    2    0    0  0.00000000000E+00  0.00000000000E+00 -0.43215881695E+03  0.29712538584E+04  0.29396578454E+04 0.  0.
        1    1    3    3  502    0  0.24249272957E+03  0.11099707578E+04 -0.11586037280E+04  0.16227139013E+04  0.50400001928E-02 0. -1.
       -1    1    3    3    0  502 -0.24249272957E+03 -0.11099707578E+04  0.72644491105E+03  0.13485399571E+04  0.50400001928E-02 0.  1.
</event>
<event>
 5   0  0.3474078E-06  0.2828012E+04  0.7818609E-02  0.8294624E-01
       -1   -1    0    0    0  501  0.00000000000E+00  0.00000000000E+00  0.13062379507E+04  0.13062379507E+04  0.50400001928E-02 0.  1.
        1   -1    0    0  501    0  0.00000000000E+00  0.00000000000E+00 -0.15306653202E+04  0.15306653203E+04  0.50400001928E-02 0. -1.
    10030    2    1    2    0    0  0.00000000000E+00  0.00000000000E+00 -0.22442736959E+03  0.28369032709E+04  0.28280121153E+04 0.  0.
        3    1    3    3  502    0  0.28425174627E+03  0.10717212164E+04  0.76805740027E+03  0.13488134049E+04  0.10100000352E+00 0.  1.
       -3    1    3    3    0  502 -0.28425174627E+03 -0.10717212164E+04 -0.99248476986E+03  0.14880898661E+04  0.10100000352E+00 0. -1.
</event>
<event>
 5   0  0.9646321E-06  0.2883958E+04  0.7818609E-02  0.8277666E-01
       -2   -1    0    0    0  501  0.00000000000E+00  0.00000000000E+00  0.12601434773E+04  0.12601434773E+04  0.25500000920E-02 0. -1.
        2   -1    0    0  501    0  0.00000000000E+00  0.00000000000E+00 -0.16500530710E+04  0.16500530710E+04  0.25500000920E-02 0.  1.
    10030    2    1    2    0    0  0.00000000000E+00  0.00000000000E+00 -0.38990959372E+03  0.29101965484E+04  0.28839581236E+04 0.  0.
        3    1    3    3  502    0 -0.61951848521E+03  0.12762656720E+04  0.65553567165E+02  0.14201952329E+04  0.10100000352E+00 0. -1.
       -3    1    3    3    0  502  0.61951848521E+03 -0.12762656720E+04 -0.45546316089E+03  0.14900013155E+04  0.10100000352E+00 0.  1.
</event>
<event>
 5   0  0.3486236E-06  0.2889278E+04  0.7818609E-02  0.8276075E-01
       -1   -1    0    0    0  501  0.00000000000E+00  0.00000000000E+00  0.17415539437E+04  0.17415539437E+04  0.50400001928E-02 0. -1.
        1   -1    0    0  501    0  0.00000000000E+00  0.00000000000E+00 -0.11983447054E+04  0.11983447054E+04  0.50400001928E-02 0.  1.
    10030    2    1    2    0    0  0.00000000000E+00  0.00000000000E+00  0.54320923824E+03  0.29398986491E+04  0.28892780743E+04 0.  0.
        5    1    3    3  502    0  0.61994939892E+03  0.10778269015E+04  0.10199571520E+04  0.16082234822E+04  0.46999998093E+01 0. -1.
       -5    1    3    3    0  502 -0.61994939892E+03 -0.10778269015E+04 -0.47674791381E+03  0.13316751669E+04  0.46999998093E+01 0.  1.
</event>
<event>
 5   0  0.3746518E-06  0.2888092E+04  0.7818609E-02  0.8276429E-01
        1   -1    0    0  501    0  0.00000000000E+00  0.00000000000E+00  0.21893201173E+04  0.21893201173E+04  0.50400001928E-02 0.  1.
       -1   -1    0    0    0  501  0.00000000000E+00  0.00000000000E+00 -0.95247305462E+03  0.95247305463E+03  0.50400001928E-02 0. -1.
    10030    2    1    2    0    0  0.00000000000E+00  0.00000000000E+00  0.12368470627E+04  0.31417931719E+04  0.28880917019E+04 0.  0.
        4    1    3    3  502    0 -0.80247699009E+03 -0.10262460637E+04  0.12961394209E+04  0.18376967416E+04  0.12699999809E+01 0.  1.
       -4    1    3    3    0  502  0.80247699009E+03  0.10262460637E+04 -0.59292358204E+02  0.13040964303E+04  0.12699999809E+01 0. -1.
</event>
<event>
 5   0  0.9505359E-06  0.2897548E+04  0.7818609E-02  0.8273608E-01
       -2   -1    0    0    0  501  0.00000000000E+00  0.00000000000E+00  0.11662313001E+04  0.11662313001E+04  0.25500000920E-02 0.  1.
        2   -1    0    0  501    0  0.00000000000E+00  0.00000000000E+00 -0.17997676890E+04  0.17997676890E+04  0.25500000920E-02 0. -1.
    10030    2    1    2    0    0  0.00000000000E+00  0.00000000000E+00 -0.63353638891E+03  0.29659989892E+04  0.28975475229E+04 0.  0.
        4    1    3    3  502    0 -0.12597911606E+04 -0.66705680141E+03 -0.51997115953E+02  0.14264444811E+04  0.12699999809E+01 0.  1.
       -4    1    3    3    0  502  0.12597911606E+04  0.66705680141E+03 -0.58153927295E+03  0.15395545081E+04  0.12699999809E+01 0. -1.
</event>
<event>
 5   0  0.1001573E-05  0.2903006E+04  0.7818609E-02  0.8271984E-01
       -2   -1    0    0    0  501  0.00000000000E+00  0.00000000000E+00  0.17315767536E+04  0.17315767536E+04  0.25500000920E-02 0.  1.
        2   -1    0    0  501    0  0.00000000000E+00  0.00000000000E+00 -0.12167294620E+04  0.12167294620E+04  0.25500000920E-02 0. -1.
    10030    2    1    2    0    0  0.00000000000E+00  0.00000000000E+00  0.51484729157E+03  0.29483062157E+04  0.29030056506E+04 0.  0.
        1    1    3    3  502    0 -0.35803786082E+03  0.19010164874E+03 -0.11580723757E+04  0.12269724422E+04  0.50400001928E-02 0. -1.
       -1    1    3    3    0  502  0.35803786082E+03 -0.19010164874E+03  0.16729196672E+04  0.17213337735E+04  0.50400001928E-02 0.  1.
</event>
<event>
 5   0  0.3649705E-06  0.2906667E+04  0.7818609E-02  0.8270897E-01
       -1   -1    0    0    0  501  0.00000000000E+00  0.00000000000E+00  0.12939153790E+04  0.12939153790E+04  0.50400001928E-02 0. -1.
        1   -1    0    0  501    0  0.00000000000E+00  0.00000000000E+00 -0.16323928479E+04  0.16323928479E+04  0.50400001928E-02 0.  1.
    10030    2    1    2    0    0  0.00000000000E+00  0.00000000000E+00 -0.33847746889E+03  0.29263082270E+04  0.29066669645E+04 0.  0.
        2    1    3    3  502    0 -0.35021940117E+03 -0.58910116876E+03  0.11210158759E+04  0.13139141562E+04  0.25500000920E-02 0. -1.
       -2    1    3    3    0  502  0.35021940117E+03  0.58910116876E+03 -0.14594933448E+04  0.16123940707E+04  0.25500000920E-02 0.  1.
</event>
<event>
 5   0  0.9251510E-06  0.2913156E+04  0.7818609E-02  0.8268974E-01
        2   -1    0    0  501    0  0.00000000000E+00  0.00000000000E+00  0.15960567768E+04  0.15960567768E+04  0.25500000920E-02 0. -1.
       -2   -1    0    0    0  501  0.00000000000E+00  0.00000000000E+00 -0.13292884134E+04  0.13292884134E+04  0.25500000920E-02 0.  1.
    10030    2    1    2    0    0  0.00000000000E+00  0.00000000000E+00  0.26676836341E+03  0.29253451902E+04  0.29131562131E+04 0.  0.
        2    1    3    3  502    0 -0.93209335415E+03 -0.49377656082E+03 -0.87531187157E+03  0.13706874864E+04  0.25500000920E-02 0. -1.
       -2    1    3    3    0  502  0.93209335415E+03  0.49377656082E+03  0.11420802350E+04  0.15546577038E+04  0.25500000920E-02 0.  1.
</event>
<event>
 5   0  0.1001573E-05  0.2901211E+04  0.7818609E-02  0.8272517E-01
        2   -1    0    0  501    0  0.00000000000E+00  0.00000000000E+00  0.22210932498E+04  0.22210932498E+04  0.25500000920E-02 0.  1.
       -2   -1    0    0    0  501  0.00000000000E+00  0.00000000000E+00 -0.94739648990E+03  0.94739648990E+03  0.25500000920E-02 0. -1.
    10030    2    1    2    0    0  0.00000000000E+00  0.00000000000E+00  0.12736967599E+04  0.31684897397E+04  0.29012107463E+04 0.  0.
        1    1    3    3  502    0 -0.13191310262E+04 -0.33046609852E+03  0.11882820074E+04  0.18059149027E+04  0.50400001928E-02 0.  1.
       -1    1    3    3    0  502  0.13191310262E+04  0.33046609852E+03  0.85414752495E+02  0.13625748370E+04  0.50400001928E-02 0. -1.
</event>
<event>
 5   0  0.9646321E-06  0.2673850E+04  0.7818609E-02  0.8343540E-01
       -2   -1    0    0    0  501  0.00000000000E+00  0.00000000000E+00  0.96822694877E+03  0.96822694877E+03  0.25500000920E-02 0. -1.
        2   -1    0    0  501    0  0.00000000000E+00  0.00000000000E+00 -0.18460222996E+04  0.18460222996E+04  0.25500000920E-02 0.  1.
    10030    2    1    2    0    0  0.00000000000E+00  0.00000000000E+00 -0.87779535085E+03  0.28142492484E+04  0.26738500620E+04 0.  0.
        3    1    3    3  502    0  0.63969183910E+03  0.39156757977E+02  0.79600879054E+03  0.10219436900E+04  0.10100000352E+00 0. -1.
       -3    1    3    3    0  502 -0.63969183910E+03 -0.39156757977E+02 -0.16738041414E+04  0.17923055584E+04  0.10100000352E+00 0.  1.
</event>
<event>
 5   0  0.9251510E-06  0.2825194E+04  0.7818609E-02  0.8295489E-01
       -2   -1    0    0    0  501  0.00000000000E+00  0.00000000000E+00  0.82224370181E+03  0.82224370181E+03  0.25500000920E-02 0. -1.
        2   -1    0    0  501    0  0.00000000000E+00  0.00000000000E+00 -0.24268112018E+04  0.24268112018E+04  0.25500000920E-02 0.  1.
    10030    2    1    2    0    0  0.00000000000E+00  0.00000000000E+00 -0.16045675000E+04  0.32490549036E+04  0.28251939588E+04 0.  0.
        2    1    3    3  502    0 -0.10033084420E+04 -0.97439788548E+03 -0.57415105293E+03  0.15118625932E+04  0.25500000920E-02 0. -1.
       -2    1    3    3    0  502  0.10033084420E+04  0.97439788548E+03 -0.10304164471E+04  0.17371923104E+04  0.25500000920E-02 0.  1.
</event>
<event>
 5   0  0.3486236E-06  0.2877586E+04  0.7818609E-02  0.8279578E-01
       -1   -1    0    0    0  501  0.00000000000E+00  0.00000000000E+00  0.97183228648E+03  0.97183228650E+03  0.50400001928E-02 0.  1.
        1   -1    0    0  501    0  0.00000000000E+00  0.00000000000E+00 -0.21301268041E+04  0.21301268041E+04  0.50400001928E-02 0. -1.
    10030    2    1    2    0    0  0.00000000000E+00  0.00000000000E+00 -0.11582945176E+04  0.31019590906E+04  0.28775864905E+04 0.  0.
        5    1    3    3  502    0 -0.10002563198E+04 -0.73368369971E+03 -0.13648845359E+04  0.18443796688E+04  0.46999998093E+01 0. -1.
       -5    1    3    3    0  502  0.10002563198E+04  0.73368369971E+03  0.20659001824E+03  0.12575794218E+04  0.46999998093E+01 0.  1.
</event>
<event>
 5   0  0.9505359E-06  0.2882546E+04  0.7818609E-02  0.8278089E-01
        2   -1    0    0  501    0  0.00000000000E+00  0.00000000000E+00  0.18304450149E+04  0.18304450149E+04  0.25500000920E-02 0. -1.
       -2   -1    0    0    0  501  0.00000000000E+00  0.00000000000E+00 -0.11348432860E+04  0.11348432860E+04  0.25500000920E-02 0.  1.
    10030    2    1    2    0    0  0.00000000000E+00  0.00000000000E+00  0.69560172885E+03  0.29652883009E+04  0.28825462602E+04 0.  0.
        4    1    3    3  502    0 -0.59855265270E+03  0.11729105219E+04  0.95052185118E+03  0.16240313337E+04  0.12699999809E+01 0.  1.
       -4    1    3    3    0  502  0.59855265270E+03 -0.11729105219E+04 -0.25492012232E+03  0.13412569672E+04  0.12699999809E+01 0. -1.
</event>
<event>
 5   0  0.3474078E-06  0.2831999E+04  0.7818609E-02  0.8293402E-01
        1   -1    0    0  501    0  0.00000000000E+00  0.00000000000E+00  0.15768371588E+04  0.15768371588E+04  0.50400001928E-02 0. -1.
       -1   -1    0    0    0  501  0.00000000000E+00  0.00000000000E+00 -0.12715671454E+04  0.12715671454E+04  0.50400001928E-02 0.  1.
    10030    2    1    2    0    0  0.00000000000E+00  0.00000000000E+00  0.30527001338E+03  0.28484043042E+04  0.28319988169E+04 0.  0.
        3    1    3    3  502    0 -0.99433967976E+03  0.95297463549E+03 -0.17818105760E+03  0.13887478368E+04  0.10100000352E+00 0. -1.
       -3    1    3    3    0  502  0.99433967976E+03 -0.95297463549E+03  0.48345107098E+03  0.14596564674E+04  0.10100000352E+00 0.  1.
</event>
<event>
 5   0  0.3474078E-06  0.2914145E+04  0.7818609E-02  0.8268681E-01
       -1   -1    0    0    0  501  0.00000000000E+00  0.00000000000E+00  0.77869932986E+03  0.77869932988E+03  0.50400001928E-02 0.  1.
        1   -1    0    0  501    0  0.00000000000E+00  0.00000000000E+00 -0.27264193435E+04  0.27264193435E+04  0.50400001928E-02 0. -1.
    10030    2    1    2    0    0  0.00000000000E+00  0.00000000000E+00 -0.19477200137E+04  0.35051186734E+04  0.29141454430E+04 0.  0.
        3    1    3    3  502    0  0.57599625453E+03 -0.22522395995E+03  0.61299199949E+03  0.87077937448E+03  0.10100000352E+00 0.  1.
       -3    1    3    3    0  502 -0.57599625453E+03  0.22522395995E+03 -0.25607120132E+04  0.26343392989E+04  0.10100000352E+00 0. -1.
</event>
<event>
 5   0  0.9646321E-06  0.2548983E+04  0.7818609E-02  0.8385740E-01
       -2   -1    0    0    0  501  0.00000000000E+00  0.00000000000E+00  0.77031467744E+03  0.77031467744E+03  0.25500000920E-02 0.  1.
        2   -1    0    0  501    0  0.00000000000E+00  0.00000000000E+00 -0.21086562364E+04  0.21086562364E+04  0.25500000920E-02 0. -1.
    10030    2    1    2    0    0  0.00000000000E+00  0.00000000000E+00 -0.13383415590E+04  0.28789709139E+04  0.25489832080E+04 0.  0.
        3    1    3    3  502    0 -0.34669434188E+02 -0.12706176921E+04 -0.56407923243E+03  0.13906317557E+04  0.10100000352E+00 0. -1.
       -3    1    3    3    0  502  0.34669434188E+02  0.12706176921E+04 -0.77426232658E+03  0.14883391582E+04  0.10100000352E+00 0.  1.
</event>
<event>
 5   0  0.3188375E-06  0.2923917E+04  0.7818609E-02  0.8265797E-01
        3   -1    0    0  501    0  0.00000000000E+00  0.00000000000E+00  0.11285287609E+04  0.11285287654E+04  0.10100000352E+00 0. -1.
       -3   -1    0    0    0  501  0.00000000000E+00  0.00000000000E+00 -0.18939014589E+04  0.18939014616E+04  0.10100000352E+00 0.  1.
    10030    2    1    2    0    0  0.00000000000E+00  0.00000000000E+00 -0.76537269804E+03  0.30224302271E+04  0.29239167414E+04 0.  0.
        4    1    3    3  502    0 -0.12618447093E+04  0.65281679381E+02 -0.11428592658E+04  0.17037143782E+04  0.12699999809E+01 0.  1.
       -4    1    3    3    0  502  0.12618447093E+04 -0.65281679381E+02  0.37748656780E+03  0.13187158488E+04  0.12699999809E+01 0. -1.
</event>
<event>
 5   0  0.3474078E-06  0.2867202E+04  0.7818609E-02  0.8282703E-01
       -1   -1    0    0    0  501  0.00000000000E+00  0.00000000000E+00  0.94976653994E+03  0.94976653996E+03  0.50400001928E-02 0.  1.
        1   -1    0    0  501    0  0.00000000000E+00  0.00000000000E+00 -0.21639132475E+04  0.21639132475E+04  0.50400001928E-02 0. -1.
    10030    2    1    2    0    0  0.00000000000E+00  0.00000000000E+00 -0.12141467076E+04  0.31136797875E+04  0.28672023981E+04 0.  0.
        3    1    3    3  502    0 -0.12374200881E+04  0.41197882649E+03 -0.12534524396E+04  0.18088886247E+04  0.10100000352E+00 0. -1.
       -3    1    3    3    0  502  0.12374200881E+04 -0.41197882649E+03  0.39305732025E+02  0.13047911628E+04  0.10100000352E+00 0.  1.
</event>
<event>
 5   0  0.3746518E-06  0.2884539E+04  0.7818609E-02  0.8277493E-01
       -1   -1    0    0    0  501  0.00000000000E+00  0.00000000000E+00  0.10113250562E+04  0.10113250562E+04  0.50400001928E-02 0.  1.
        1   -1    0    0  501    0  0.00000000000E+00  0.00000000000E+00 -0.20568471818E+04  0.20568471818E+04  0.50400001928E-02 0. -1.
    10030    2    1    2    0    0  0.00000000000E+00  0.00000000000E+00 -0.10455221255E+04  0.30681722380E+04  0.28845388483E+04 0.  0.
        4    1    3    3  502    0  0.95016763906E+03 -0.56549604721E+03  0.46222324312E+03  0.11984390936E+04  0.12699999809E+01 0.  1.
       -4    1    3    3    0  502 -0.95016763906E+03  0.56549604721E+03 -0.15077453686E+04  0.18697331444E+04  0.12699999809E+01 0. -1.
</event>
<event>
 5   0  0.3486236E-06  0.2353674E+04  0.7818609E-02  0.8457054E-01
       -1   -1    0    0    0  501  0.00000000000E+00  0.00000000000E+00  0.12101215390E+04  0.12101215390E+04  0.50400001928E-02 0. -1.
        1   -1    0    0  501    0  0.00000000000E+00  0.00000000000E+00 -0.11444678675E+04  0.11444678675E+04  0.50400001928E-02 0.  1.
    10030    2    1    2    0    0  0.00000000000E+00  0.00000000000E+00  0.65653671469E+02  0.23545894065E+04  0.23536739087E+04 0.  0.
        5    1    3    3  502    0 -0.43070723478E+03  0.85105384579E+03  0.72238570951E+03  0.11965218652E+04  0.46999998093E+01 0. -1.
       -5    1    3    3    0  502  0.43070723478E+03 -0.85105384579E+03 -0.65673203804E+03  0.11580675413E+04  0.46999998093E+01 0.  1.
</event>
<event>
 5   0  0.3746518E-06  0.3010214E+04  0.7818609E-02  0.8240820E-01
        1   -1    0    0  501    0  0.00000000000E+00  0.00000000000E+00  0.11342595503E+04  0.11342595503E+04  0.50400001928E-02 0.  1.
       -1   -1    0    0    0  501  0.00000000000E+00  0.00000000000E+00 -0.19972034809E+04  0.19972034810E+04  0.50400001928E-02 0. -1.
    10030    2    1    2    0    0  0.00000000000E+00  0.00000000000E+00 -0.86294393065E+03  0.31314630313E+04  0.30102140271E+04 0.  0.
        4    1    3    3  502    0 -0.18863415088E+03 -0.13319290762E+04 -0.11337394819E+04  0.17592568695E+04  0.12699999809E+01 0. -1.
       -4    1    3    3    0  502  0.18863415088E+03  0.13319290762E+04  0.27079555128E+03  0.13722061618E+04  0.12699999809E+01 0.  1.
</event>
<event>
 5   0  0.9646321E-06  0.2920765E+04  0.7818609E-02  0.8266726E-01
       -2   -1    0    0    0  501  0.00000000000E+00  0.00000000000E+00  0.15011707039E+04  0.15011707039E+04  0.25500000920E-02 0.  1.
        2   -1    0    0  501    0  0.00000000000E+00  0.00000000000E+00 -0.14207024487E+04  0.14207024487E+04  0.25500000920E-02 0. -1.
    10030    2    1    2    0    0  0.00000000000E+00  0.00000000000E+00  0.80468255248E+02  0.29218731526E+04  0.29207648963E+04 0.  0.
        3    1    3    3  502    0  0.42796385741E+03 -0.92025031296E+03 -0.10102610708E+04  0.14320059857E+04  0.10100000352E+00 0. -1.
       -3    1    3    3    0  502 -0.42796385741E+03  0.92025031296E+03  0.10907293261E+04  0.14898671668E+04  0.10100000352E+00 0.  1.
</event>
<event>
 5   0  0.3564340E-06  0.2912807E+04  0.7818609E-02  0.8269077E-01
       -1   -1    0    0    0  501  0.00000000000E+00  0.00000000000E+00  0.83391367788E+03  0.83391367790E+03  0.50400001928E-02 0.  1.
        1   -1    0    0  501    0  0.00000000000E+00  0.00000000000E+00 -0.25435627807E+04  0.25435627807E+04  0.50400001928E-02 0. -1.
    10030    2    1    2    0    0  0.00000000000E+00  0.00000000000E+00 -0.17096491028E+04  0.33774764586E+04  0.29128074385E+04 0.  0.
        1    1    3    3  502    0 -0.11513067411E+04 -0.19059188636E+03  0.15554753549E+03  0.11772966980E+04  0.50400001928E-02 0.  1.
       -1    1    3    3    0  502  0.11513067411E+04  0.19059188636E+03 -0.18651966383E+04  0.22001797606E+04  0.50400001928E-02 0. -1.
</event>
<event>
 5   0  0.9646321E-06  0.2882395E+04  0.7818609E-02  0.8278135E-01
        2   -1    0    0  501    0  0.00000000000E+00  0.00000000000E+00  0.16987677262E+04  0.16987677262E+04  0.25500000920E-02 0.  1.
       -2   -1    0    0    0  501  0.00000000000E+00  0.00000000000E+00 -0.12226806854E+04  0.12226806854E+04  0.25500000920E-02 0. -1.
    10030    2    1    2    0    0  0.00000000000E+00  0.00000000000E+00  0.47608704087E+03  0.29214484116E+04  0.28823951761E+04 0.  0.
        3    1    3    3  502    0  0.99806141055E+03  0.22469799547E+03  0.12669003362E+04  0.16283894622E+04  0.10100000352E+00 0.  1.
       -3    1    3    3    0  502 -0.99806141055E+03 -0.22469799547E+03 -0.79081329537E+03  0.12930589494E+04  0.10100000352E+00 0. -1.
</event>
<event>
 5   0  0.9505359E-06  0.2761029E+04  0.7818609E-02  0.8315471E-01
       -2   -1    0    0    0  501  0.00000000000E+00  0.00000000000E+00  0.12899059021E+04  0.12899059021E+04  0.25500000920E-02 0. -1.
        2   -1    0    0  501    0  0.00000000000E+00  0.00000000000E+00 -0.14774873448E+04  0.14774873448E+04  0.25500000920E-02 0.  1.
    10030    2    1    2    0    0  0.00000000000E+00  0.00000000000E+00 -0.18758144269E+03  0.27673932468E+04  0.27610285375E+04 0.  0.
        4    1    3    3  502    0  0.37724445293E+03  0.71681677485E+03 -0.12142578172E+04  0.14596449313E+04  0.12699999809E+01 0.  1.
       -4    1    3    3    0  502 -0.37724445293E+03 -0.71681677485E+03  0.10266763745E+04  0.13077483155E+04  0.12699999809E+01 0. -1.
</event>
<event>
 5   0  0.3746518E-06  0.2927939E+04  0.7818609E-02  0.8264613E-01
       -1   -1    0    0    0  501  0.00000000000E+00  0.00000000000E+00  0.13372538430E+04  0.13372538430E+04  0.50400001928E-02 0. -1.
        1   -1    0    0  501    0  0.00000000000E+00  0.00000000000E+00 -0.16026922429E+04  0.16026922429E+04  0.50400001928E-02 0.  1.
    10030    2    1    2    0    0  0.00000000000E+00  0.00000000000E+00 -0.26543839995E+03  0.29399460859E+04  0.29279387705E+04 0.  0.
        4    1    3    3  502    0 -0.18873279794E+03  0.11719956930E+04 -0.99297694877E+03  0.15476429844E+04  0.12699999809E+01 0.  1.
       -4    1    3    3    0  502  0.18873279794E+03 -0.11719956930E+04  0.72753854882E+03  0.13923031015E+04  0.12699999809E+01 0. -1.
</event>
<event>
 5   0  0.3564340E-06  0.2909249E+04  0.7818609E-02  0.8270131E-01
        1   -1    0    0  501    0  0.00000000000E+00  0.00000000000E+00  0.13570037436E+04  0.13570037436E+04  0.50400001928E-02 0. -1.
       -1   -1    0    0    0  501  0.00000000000E+00  0.00000000000E+00 -0.15592675138E+04  0.15592675138E+04  0.50400001928E-02 0.  1.
    10030    2    1    2    0    0  0.00000000000E+00  0.00000000000E+00 -0.20226377025E+03  0.29162712574E+04  0.29092485996E+04 0.  0.
        1    1    3    3  502    0  0.96650356817E+03 -0.13552407868E+03  0.98009869328E+03  0.13831447400E+04  0.50400001928E-02 0. -1.
       -1    1    3    3    0  502 -0.96650356817E+03  0.13552407868E+03 -0.11823624635E+04  0.15331265174E+04  0.50400001928E-02 0.  1.
</event>
<event>
 5   0  0.9251510E-06  0.3139747E+04  0.7818609E-02  0.8204914E-01
       -2   -1    0    0    0  501  0.00000000000E+00  0.00000000000E+00  0.19335816726E+04  0.19335816726E+04  0.25500000920E-02 0.  1.
        2   -1    0    0  501    0  0.00000000000E+00  0.00000000000E+00 -0.12745788271E+04  0.12745788271E+04  0.25500000920E-02 0. -1.
    10030    2    1    2    0    0  0.00000000000E+00  0.00000000000E+00  0.65900284550E+03  0.32081604997E+04  0.31397466525E+04 0.  0.
        2    1    3    3  502    0 -0.12424580000E+02  0.91851312655E+03 -0.97129795989E+03  0.13368771300E+04  0.25500000920E-02 0. -1.
       -2    1    3    3    0  502  0.12424580000E+02 -0.91851312655E+03  0.16303008054E+04  0.18712833697E+04  0.25500000920E-02 0.  1.
</event>
<event>
 5   0  0.9646321E-06  0.2900315E+04  0.7818609E-02  0.8272784E-01
        2   -1    0    0  501    0  0.00000000000E+00  0.00000000000E+00  0.15142356099E+04  0.15142356099E+04  0.25500000920E-02 0. -1.
       -2   -1    0    0    0  501  0.00000000000E+00  0.00000000000E+00 -0.13887913045E+04  0.13887913045E+04  0.25500000920E-02 0.  1.
    10030    2    1    2    0    0  0.00000000000E+00  0.00000000000E+00  0.12544430541E+03  0.29030269143E+04  0.29003153262E+04 0.  0.
        3    1    3    3  502    0  0.92855753729E+03 -0.10859830060E+04  0.31070173255E+03  0.14622290403E+04  0.10100000352E+00 0.  1.
       -3    1    3    3    0  502 -0.92855753729E+03  0.10859830060E+04 -0.18525742714E+03  0.14407978741E+04  0.10100000352E+00 0. -1.
</event>
<event>
 5   0  0.3746518E-06  0.2900918E+04  0.7818609E-02  0.8272605E-01
        1   -1    0    0  501    0  0.00000000000E+00  0.00000000000E+00  0.11967733949E+04  0.11967733949E+04  0.50400001928E-02 0. -1.
       -1   -1    0    0    0  501  0.00000000000E+00  0.00000000000E+00 -0.17579190744E+04  0.17579190744E+04  0.50400001928E-02 0.  1.
    10030    2    1    2    0    0  0.00000000000E+00  0.00000000000E+00 -0.56114567946E+03  0.29546924694E+04  0.29009176332E+04 0.  0.
        4    1    3    3  502    0  0.28021519327E+03 -0.68618994847E+02 -0.17284011571E+04  0.17523131266E+04  0.12699999809E+01 0.  1.
       -4    1    3    3    0  502 -0.28021519327E+03  0.68618994847E+02  0.11672554776E+04  0.12023793428E+04  0.12699999809E+01 0. -1.
</event>
<event>
 5   0  0.3649705E-06  0.2776394E+04  0.7818609E-02  0.8310635E-01
        1   -1    0    0  501    0  0.00000000000E+00  0.00000000000E+00  0.15168495280E+04  0.15168495280E+04  0.50400001928E-02 0. -1.
       -1   -1    0    0    0  501  0.00000000000E+00  0.00000000000E+00 -0.12704560924E+04  0.12704560924E+04  0.50400001928E-02 0.  1.
    10030    2    1    2    0    0  0.00000000000E+00  0.00000000000E+00  0.24639343556E+03  0.27873056205E+04  0.27763938656E+04 0.  0.
        2    1    3    3  502    0 -0.39979531171E+03  0.79701066387E+03  0.11913465638E+04  0.14880755776E+04  0.25500000920E-02 0. -1.
       -2    1    3    3    0  502  0.39979531171E+03 -0.79701066387E+03 -0.94495312826E+03  0.12992300428E+04  0.25500000920E-02 0.  1.
</event>
<event>
 5   0  0.3564340E-06  0.2903680E+04  0.7818609E-02  0.8271783E-01
        1   -1    0    0  501    0  0.00000000000E+00  0.00000000000E+00  0.13496813450E+04  0.13496813450E+04  0.50400001928E-02 0. -1.
       -1   -1    0    0    0  501  0.00000000000E+00  0.00000000000E+00 -0.15617308352E+04  0.15617308352E+04  0.50400001928E-02 0.  1.
    10030    2    1    2    0    0  0.00000000000E+00  0.00000000000E+00 -0.21204949025E+03  0.29114121802E+04  0.29036797167E+04 0.  0.
        1    1    3    3  502    0 -0.76045253653E+03 -0.87740491116E+02  0.11308942747E+04  0.13656164596E+04  0.50400001928E-02 0. -1.
       -1    1    3    3    0  502  0.76045253653E+03  0.87740491116E+02 -0.13429437650E+04  0.15457957207E+04  0.50400001928E-02 0.  1.
</event>
<event>
 5   0  0.9251510E-06  0.2872054E+04  0.7818609E-02  0.8281241E-01
       -2   -1    0    0    0  501  0.00000000000E+00  0.00000000000E+00  0.11217857893E+04  0.11217857893E+04  0.25500000920E-02 0. -1.
        2   -1    0    0  501    0  0.00000000000E+00  0.00000000000E+00 -0.18382952481E+04  0.18382952481E+04  0.25500000920E-02 0.  1.
    10030    2    1    2    0    0  0.00000000000E+00  0.00000000000E+00 -0.71650945881E+03  0.29600810374E+04  0.28720539590E+04 0.  0.
        2    1    3    3  502    0  0.95185310880E+03 -0.76813426674E+03 -0.11337244241E+04  0.16677486808E+04  0.25500000920E-02 0.  1.
       -2    1    3    3    0  502 -0.95185310880E+03  0.76813426674E+03  0.41721496533E+03  0.12923323565E+04  0.25500000920E-02 0. -1.
</event>
<event>
 5   0  0.3486236E-06  0.2910777E+04  0.7818609E-02  0.8269678E-01
        1   -1    0    0  501    0  0.00000000000E+00  0.00000000000E+00  0.93173331537E+03  0.93173331538E+03  0.50400001928E-02 0. -1.
       -1   -1    0    0    0  501  0.00000000000E+00  0.00000000000E+00 -0.22733498232E+04  0.22733498232E+04  0.50400001928E-02 0.  1.
    10030    2    1    2    0    0  0.00000000000E+00  0.00000000000E+00 -0.13416165078E+04  0.32050831386E+04  0.29107770562E+04 0.  0.
        5    1    3    3  502    0 -0.82177917072E+03 -0.59727127746E+03  0.47671422914E+03  0.11221998621E+04  0.46999998093E+01 0. -1.
       -5    1    3    3    0  502  0.82177917072E+03  0.59727127746E+03 -0.18183307369E+04  0.20828832764E+04  0.46999998093E+01 0.  1.
</event>
<event>
 5   0  0.3474078E-06  0.2924821E+04  0.7818609E-02  0.8265531E-01
       -1   -1    0    0    0  501  0.00000000000E+00  0.00000000000E+00  0.10601409557E+04  0.10601409557E+04  0.50400001928E-02 0.  1.
        1   -1    0    0  501    0  0.00000000000E+00  0.00000000000E+00 -0.20173208498E+04  0.20173208498E+04  0.50400001928E-02 0. -1.
    10030    2    1    2    0    0  0.00000000000E+00  0.00000000000E+00 -0.95717989408E+03  0.30774618055E+04  0.29248209885E+04 0.  0.
        3    1    3    3  502    0 -0.99159944280E+02 -0.75889753222E+03  0.83259274598E+03  0.11309150498E+04  0.10100000352E+00 0.  1.
       -3    1    3    3    0  502  0.99159944280E+02  0.75889753222E+03 -0.17897726401E+04  0.19465467557E+04  0.10100000352E+00 0. -1.
</event>
<event>
 5   0  0.9646321E-06  0.2629678E+04  0.7818609E-02  0.8358190E-01
        2   -1    0    0  501    0  0.00000000000E+00  0.00000000000E+00  0.19668281734E+04  0.19668281734E+04  0.25500000920E-02 0.  1.
       -2   -1    0    0    0  501  0.00000000000E+00  0.00000000000E+00 -0.87897967475E+03  0.87897967475E+03  0.25500000920E-02 0. -1.
    10030    2    1    2    0    0  0.00000000000E+00  0.00000000000E+00  0.10878484987E+04  0.28458078482E+04  0.26296782983E+04 0.  0.
        3    1    3    3  502    0 -0.49560849035E+02 -0.29615221772E+03  0.19292269110E+04  0.19524545828E+04  0.10100000352E+00 0.  1.
       -3    1    3    3    0  502  0.49560849035E+02  0.29615221772E+03 -0.84137841229E+03  0.89335326534E+03  0.10100000352E+00 0. -1.
</event>
<event>
 5   0  0.9646321E-06  0.2784546E+04  0.7818609E-02  0.8308082E-01
       -2   -1    0    0    0  501  0.00000000000E+00  0.00000000000E+00  0.74626871799E+03  0.74626871799E+03  0.25500000920E-02 0.  1.
        2   -1    0    0  501    0  0.00000000000E+00  0.00000000000E+00 -0.25974875433E+04  0.25974875433E+04  0.25500000920E-02 0. -1.
    10030    2    1    2    0    0  0.00000000000E+00  0.00000000000E+00 -0.18512188253E+04  0.33437562613E+04  0.27845457072E+04 0.  0.
        3    1    3    3  502    0 -0.21283132358E+03  0.31609375301E+03 -0.25336462358E+04  0.25621427929E+04  0.10100000352E+00 0. -1.
       -3    1    3    3    0  502  0.21283132358E+03 -0.31609375301E+03  0.68242741054E+03  0.78161346831E+03  0.10100000352E+00 0.  1.
</event>
<event>
 5   0  0.3564340E-06  0.3021967E+04  0.7818609E-02  0.8237486E-01
        1   -1    0    0  501    0  0.00000000000E+00  0.00000000000E+00  0.22605242893E+04  0.22605242893E+04  0.50400001928E-02 0.  1.
       -1   -1    0    0    0  501  0.00000000000E+00  0.00000000000E+00 -0.10099744056E+04  0.10099744056E+04  0.50400001928E-02 0. -1.
    10030    2    1    2    0    0  0.00000000000E+00  0.00000000000E+00  0.12505498837E+04  0.32704986949E+04  0.30219673562E+04 0.  0.
        1    1    3    3  502    0  0.11585319818E+04 -0.96057335653E+03  0.77117358611E+03  0.16910370268E+04  0.50400001928E-02 0.  1.
       -1    1    3    3    0  502 -0.11585319818E+04  0.96057335653E+03  0.47937629758E+03  0.15794616681E+04  0.50400001928E-02 0. -1.
</event>
<event>
 5   0  0.1001573E-05  0.2794943E+04  0.7818609E-02  0.8304840E-01
       -2   -1    0    0    0  501  0.00000000000E+00  0.00000000000E+00  0.95756262541E+03  0.95756262542E+03  0.25500000920E-02 0. -1.
        2   -1    0    0  501    0  0.00000000000E+00  0.00000000000E+00 -0.20394764831E+04  0.20394764831E+04  0.25500000920E-02 0.  1.
    10030    2    1    2    0    0  0.00000000000E+00  0.00000000000E+00 -0.10819138577E+04  0.29970391085E+04  0.27949429015E+04 0.  0.
        1    1    3    3  502    0 -0.13191545238E+04 -0.44136936274E+03 -0.68462570292E+03  0.15503831543E+04  0.50400001928E-02 0. -1.
       -1    1    3    3    0  502  0.13191545238E+04  0.44136936274E+03 -0.39728815477E+03  0.14466559542E+04  0.50400001928E-02 0.  1.
</event>
<event>
 5   0  0.3649705E-06  0.2962183E+04  0.7818609E-02  0.8254613E-01
        1   -1    0    0  501    0  0.00000000000E+00  0.00000000000E+00  0.19711222480E+04  0.19711222480E+04  0.50400001928E-02 0.  1.
       -1   -1    0    0    0  501  0.00000000000E+00  0.00000000000E+00 -0.11128845230E+04  0.11128845230E+04  0.50400001928E-02 0. -1.
    10030    2    1    2    0    0  0.00000000000E+00  0.00000000000E+00  0.85823772496E+03  0.30840067710E+04  0.29621826026E+04 0.  0.
        2    1    3    3  502    0 -0.13076990031E+04 -0.24274377916E+03 -0.24931722998E+03  0.13532037194E+04  0.25500000920E-02 0. -1.
       -2    1    3    3    0  502  0.13076990031E+04  0.24274377916E+03  0.11075549549E+04  0.17308030516E+04  0.25500000920E-02 0.  1.
</event>
<event>
 5   0  0.3564340E-06  0.2722286E+04  0.7818609E-02  0.8327810E-01
       -1   -1    0    0    0  501  0.00000000000E+00  0.00000000000E+00  0.20629515258E+04  0.20629515258E+04  0.50400001928E-02 0.  1.
        1   -1    0    0  501    0  0.00000000000E+00  0.00000000000E+00 -0.89808719275E+03  0.89808719276E+03  0.50400001928E-02 0. -1.
    10030    2    1    2    0    0  0.00000000000E+00  0.00000000000E+00  0.11648643331E+04  0.29610387186E+04  0.27222860574E+04 0.  0.
        1    1    3    3  502    0  0.73576808231E+03 -0.37981525789E+03  0.17575018611E+04  0.19427884838E+04  0.50400001928E-02 0.  1.
       -1    1    3    3    0  502 -0.73576808231E+03  0.37981525789E+03 -0.59263752799E+03  0.10182502348E+04  0.50400001928E-02 0. -1.
</event>
<event>
 5   0  0.3188375E-06  0.2321287E+04  0.7818609E-02  0.8469575E-01
       -4   -1    0    0    0  501  0.00000000000E+00  0.00000000000E+00  0.10783285128E+04  0.10783292607E+04  0.12699999809E+01 0. -1.
        4   -1    0    0  501    0  0.00000000000E+00  0.00000000000E+00 -0.12492404082E+04  0.12492410537E+04  0.12699999809E+01 0.  1.
    10030    2    1    2    0    0  0.00000000000E+00  0.00000000000E+00 -0.17091189540E+03  0.23275703144E+04  0.23212868613E+04 0.  0.
        4    1    3    3  502    0 -0.29280694637E+03 -0.14997562229E+03  0.10305991396E+04  0.10818339959E+04  0.12699999809E+01 0. -1.
       -4    1    3    3    0  502  0.29280694637E+03  0.14997562229E+03 -0.12015110350E+04  0.12457363185E+04  0.12699999809E+01 0.  1.
</event>
<event>
 5   0  0.1001573E-05  0.2912461E+04  0.7818609E-02  0.8269180E-01
       -2   -1    0    0    0  501  0.00000000000E+00  0.00000000000E+00  0.16627052479E+04  0.16627052479E+04  0.25500000920E-02 0. -1.
        2   -1    0    0  501    0  0.00000000000E+00  0.00000000000E+00 -0.12753956650E+04  0.12753956650E+04  0.25500000920E-02 0.  1.
    10030    2    1    2    0    0  0.00000000000E+00  0.00000000000E+00  0.38730958288E+03  0.29381009129E+04  0.29124608600E+04 0.  0.
        1    1    3    3  502    0  0.63031438166E+03 -0.13098971316E+04  0.28090522137E+03  0.14805520789E+04  0.50400001928E-02 0.  1.
       -1    1    3    3    0  502 -0.63031438166E+03  0.13098971316E+04  0.10640436151E+03  0.14575488339E+04  0.50400001928E-02 0. -1.
</event>
<event>
 5   0  0.3746518E-06  0.2897017E+04  0.7818609E-02  0.8273766E-01
        1   -1    0    0  501    0  0.00000000000E+00  0.00000000000E+00  0.16132666212E+04  0.16132666212E+04  0.50400001928E-02 0.  1.
       -1   -1    0    0    0  501  0.00000000000E+00  0.00000000000E+00 -0.13005767557E+04  0.13005767557E+04  0.50400001928E-02 0. -1.
    10030    2    1    2    0    0  0.00000000000E+00  0.00000000000E+00  0.31268986555E+03  0.29138433769E+04  0.28970171338E+04 0.  0.
        4    1    3    3  502    0 -0.68068930416E+03  0.23439483249E+03  0.14205847699E+04  0.15925895791E+04  0.12699999809E+01 0.  1.
       -4    1    3    3    0  502  0.68068930416E+03 -0.23439483249E+03 -0.11078949043E+04  0.13212537978E+04  0.12699999809E+01 0. -1.
</event>
<event>
 5   0  0.3649705E-06  0.2877932E+04  0.7818609E-02  0.8279474E-01
       -1   -1    0    0    0  501  0.00000000000E+00  0.00000000000E+00  0.17983630177E+04  0.17983630178E+04  0.50400001928E-02 0. -1.
        1   -1    0    0  501    0  0.00000000000E+00  0.00000000000E+00 -0.11513934354E+04  0.11513934354E+04  0.50400001928E-02 0.  1.
    10030    2    1    2    0    0  0.00000000000E+00  0.00000000000E+00  0.64696958238E+03  0.29497564531E+04  0.28779321556E+04 0.  0.
        2    1    3    3  502    0  0.71645316490E+03  0.40730846070E+03 -0.88553782581E+03  0.12097035011E+04  0.25500000920E-02 0.  1.
       -2    1    3    3    0  502 -0.71645316490E+03 -0.40730846070E+03  0.15325074082E+04  0.17400529520E+04  0.25500000920E-02 0. -1.
</event>
<event>
 5   0  0.9251510E-06  0.2824845E+04  0.7818609E-02  0.8295596E-01
        2   -1    0    0  501    0  0.00000000000E+00  0.00000000000E+00  0.16390579397E+04  0.16390579397E+04  0.25500000920E-02 0. -1.
       -2   -1    0    0    0  501  0.00000000000E+00  0.00000000000E+00 -0.12171239434E+04  0.12171239435E+04  0.25500000920E-02 0.  1.
    10030    2    1    2    0    0  0.00000000000E+00  0.00000000000E+00  0.42193399627E+03  0.28561818832E+04  0.28248445360E+04 0.  0.
        2    1    3    3  502    0  0.15361015196E+03 -0.13219151980E+04  0.68937642360E+03  0.14987647323E+04  0.25500000920E-02 0. -1.
       -2    1    3    3    0  502 -0.15361015196E+03  0.13219151980E+04 -0.26744242734E+03  0.13574171508E+04  0.25500000920E-02 0.  1.
</event>
<event>
 5   0  0.3474078E-06  0.2875977E+04  0.7818609E-02  0.8280061E-01
        1   -1    0    0  501    0  0.00000000000E+00  0.00000000000E+00  0.10081516413E+04  0.10081516413E+04  0.50400001928E-02 0.  1.
       -1   -1    0    0    0  501  0.00000000000E+00  0.00000000000E+00 -0.20510905559E+04  0.20510905559E+04  0.50400001928E-02 0. -1.
    10030    2    1    2    0    0  0.00000000000E+00  0.00000000000E+00 -0.10429389146E+04  0.30592421972E+04  0.28759765718E+04 0.  0.
        3    1    3    3  502    0 -0.85217331600E+03 -0.11039829507E+04 -0.14866138128E+03  0.14025255550E+04  0.10100000352E+00 0.  1.
       -3    1    3    3    0  502  0.85217331600E+03  0.11039829507E+04 -0.89427753330E+03  0.16567166422E+04  0.10100000352E+00 0. -1.
</event>
<event>
 5   0  0.9360689E-06  0.2904469E+04  0.7818609E-02  0.8271549E-01
       -2   -1    0    0    0  501  0.00000000000E+00  0.00000000000E+00  0.83441349654E+03  0.83441349654E+03  0.25500000920E-02 0.  1.
        2   -1    0    0  501    0  0.00000000000E+00  0.00000000000E+00 -0.25275052992E+04  0.25275052992E+04  0.25500000920E-02 0. -1.
    10030    2    1    2    0    0  0.00000000000E+00  0.00000000000E+00 -0.16930918026E+04  0.33619187957E+04  0.29044686496E+04 0.  0.
        5    1    3    3  502    0 -0.13063231350E+04 -0.47436921006E+03 -0.35894323668E+03  0.14353984178E+04  0.46999998093E+01 0.  1.
       -5    1    3    3    0  502  0.13063231350E+04  0.47436921006E+03 -0.13341485659E+04  0.19265203779E+04  0.46999998093E+01 0. -1.
</event>
<event>
 5   0  0.3474078E-06  0.2868161E+04  0.7818609E-02  0.8282414E-01
       -1   -1    0    0    0  501  0.00000000000E+00  0.00000000000E+00  0.14531167738E+04  0.14531167738E+04  0.50400001928E-02 0. -1.
        1   -1    0    0  501    0  0.00000000000E+00  0.00000000000E+00 -0.14152936705E+04  0.14152936705E+04  0.50400001928E-02 0.  1.
    10030    2    1    2    0    0  0.00000000000E+00  0.00000000000E+00  0.37823103294E+02  0.28684104442E+04  0.28681610641E+04 0.  0.
        3    1    3    3  502    0  0.10192174575E+04  0.12761024663E+03 -0.98192436152E+03  0.14210081149E+04  0.10100000352E+00 0.  1.
       -3    1    3    3    0  502 -0.10192174575E+04 -0.12761024663E+03  0.10197474648E+04  0.14474023293E+04  0.10100000352E+00 0. -1.
</event>
<event>
 5   0  0.9251510E-06  0.2879042E+04  0.7818609E-02  0.8279140E-01
        2   -1    0    0  501    0  0.00000000000E+00  0.00000000000E+00  0.13305612785E+04  0.13305612785E+04  0.25500000920E-02 0.  1.
       -2   -1    0    0    0  501  0.00000000000E+00  0.00000000000E+00 -0.15574037861E+04  0.15574037861E+04  0.25500000920E-02 0. -1.
    10030    2    1    2    0    0  0.00000000000E+00  0.00000000000E+00 -0.22684250767E+03  0.28879650646E+04  0.28790423219E+04 0.  0.
        2    1    3    3  502    0  0.73285748105E+03  0.84693486255E+03 -0.10205704158E+04  0.15152368536E+04  0.25500000920E-02 0. -1.
       -2    1    3    3    0  502 -0.73285748105E+03 -0.84693486255E+03  0.79372790817E+03  0.13727282110E+04  0.25500000920E-02 0.  1.
</event>
<event>
 5   0  0.9251510E-06  0.2552948E+04  0.7818609E-02  0.8384362E-01
        2   -1    0    0  501    0  0.00000000000E+00  0.00000000000E+00  0.98538224093E+03  0.98538224093E+03  0.25500000920E-02 0.  1.
       -2   -1    0    0    0  501  0.00000000000E+00  0.00000000000E+00 -0.16535569148E+04  0.16535569148E+04  0.25500000920E-02 0. -1.
    10030    2    1    2    0    0  0.00000000000E+00  0.00000000000E+00 -0.66817467390E+03  0.26389391558E+04  0.25529478007E+04 0.  0.
        2    1    3    3  502    0  0.57497390685E+02  0.98315221931E+03 -0.11735318687E+04  0.15320154318E+04  0.25500000920E-02 0. -1.
       -2    1    3    3    0  502 -0.57497390685E+02 -0.98315221931E+03  0.50535719485E+03  0.11069237240E+04  0.25500000920E-02 0.  1.
</event>
<event>
 5   0  0.3564340E-06  0.2885527E+04  0.7818609E-02  0.8277197E-01
        1   -1    0    0  501    0  0.00000000000E+00  0.00000000000E+00  0.16741175625E+04  0.16741175625E+04  0.50400001928E-02 0.  1.
       -1   -1    0    0    0  501  0.00000000000E+00  0.00000000000E+00 -0.12433810873E+04  0.12433810873E+04  0.50400001928E-02 0. -1.
    10030    2    1    2    0    0  0.00000000000E+00  0.00000000000E+00  0.43073647519E+03  0.29174986497E+04  0.28855267215E+04 0.  0.
        1    1    3    3  502    0 -0.52398502457E+02  0.13828858839E+04 -0.19713155772E+03  0.13978482829E+04  0.50400001928E-02 0. -1.
       -1    1    3    3    0  502  0.52398502457E+02 -0.13828858839E+04  0.62786803291E+03  0.15196503669E+04  0.50400001928E-02 0.  1.
</event>
<event>
 5   0  0.9646321E-06  0.2900399E+04  0.7818609E-02  0.8272759E-01
       -2   -1    0    0    0  501  0.00000000000E+00  0.00000000000E+00  0.94842692966E+03  0.94842692966E+03  0.25500000920E-02 0.  1.
        2   -1    0    0  501    0  0.00000000000E+00  0.00000000000E+00 -0.22174382834E+04  0.22174382834E+04  0.25500000920E-02 0. -1.
    10030    2    1    2    0    0  0.00000000000E+00  0.00000000000E+00 -0.12690113538E+04  0.31658652131E+04  0.29003987194E+04 0.  0.
        3    1    3    3  502    0  0.14617791480E+03  0.12806295438E+04  0.90927663973E+02  0.12921485447E+04  0.10100000352E+00 0.  1.
       -3    1    3    3    0  502 -0.14617791480E+03 -0.12806295438E+04 -0.13599390178E+04  0.18737166684E+04  0.10100000352E+00 0. -1.
</event>
<event>
 5   0  0.9251510E-06  0.3178524E+04  0.7818609E-02  0.8194512E-01
        2   -1    0    0  501    0  0.00000000000E+00  0.00000000000E+00  0.16138233687E+04  0.16138233688E+04  0.25500000920E-02 0.  1.
       -2   -1    0    0    0  501  0.00000000000E+00  0.00000000000E+00 -0.15650746679E+04  0.15650746679E+04  0.25500000920E-02 0. -1.
    10030    2    1    2    0    0  0.00000000000E+00  0.00000000000E+00  0.48748700834E+02  0.31788980367E+04  0.31785242317E+04 0.  0.
        2    1    3    3  502    0  0.19242419238E+03  0.83555971323E+02 -0.15511665599E+04  0.15652879501E+04  0.25500000920E-02 0. -1.
       -2    1    3    3    0  502 -0.19242419238E+03 -0.83555971323E+02  0.15999152607E+04  0.16136100866E+04  0.25500000920E-02 0.  1.
</event>
<event>
 5   0  0.3474078E-06  0.2903864E+04  0.7818609E-02  0.8271729E-01
        1   -1    0    0  501    0  0.00000000000E+00  0.00000000000E+00  0.12409734696E+04  0.12409734696E+04  0.50400001928E-02 0. -1.
       -1   -1    0    0    0  501  0.00000000000E+00  0.00000000000E+00 -0.16987520785E+04  0.16987520785E+04  0.50400001928E-02 0.  1.
    10030    2    1    2    0    0  0.00000000000E+00  0.00000000000E+00 -0.45777860887E+03  0.29397255481E+04  0.29038638129E+04 0.  0.
        3    1    3    3  502    0  0.12172721091E+04  0.23157770555E+03 -0.99502241195E+03  0.15891662065E+04  0.10100000352E+00 0.  1.
       -3    1    3    3    0  502 -0.12172721091E+04 -0.23157770555E+03  0.53724380308E+03  0.13505593417E+04  0.10100000352E+00 0. -1.
</event>
<event>
 5   0  0.3474078E-06  0.2887086E+04  0.7818609E-02  0.8276730E-01
       -1   -1    0    0    0  501  0.00000000000E+00  0.00000000000E+00  0.13723225785E+04  0.13723225785E+04  0.50400001928E-02 0.  1.
        1   -1    0    0  501    0  0.00000000000E+00  0.00000000000E+00 -0.15184598825E+04  0.15184598825E+04  0.50400001928E-02 0. -1.
    10030    2    1    2    0    0  0.00000000000E+00  0.00000000000E+00 -0.14613730407E+03  0.28907824610E+04  0.28870862691E+04 0.  0.
        3    1    3    3  502    0  0.35422696976E+03 -0.10094875684E+04 -0.10434713658E+04  0.14944478573E+04  0.10100000352E+00 0. -1.
       -3    1    3    3    0  502 -0.35422696976E+03  0.10094875684E+04  0.89733406172E+03  0.13963346037E+04  0.10100000352E+00 0.  1.
</event>
<event>
 5   0  0.3746518E-06  0.3115654E+04  0.7818609E-02  0.8211455E-01
        1   -1    0    0  501    0  0.00000000000E+00  0.00000000000E+00  0.11958602585E+04  0.11958602585E+04  0.50400001928E-02 0.  1.
       -1   -1    0    0    0  501  0.00000000000E+00  0.00000000000E+00 -0.20293555546E+04  0.20293555546E+04  0.50400001928E-02 0. -1.
    10030    2    1    2    0    0  0.00000000000E+00  0.00000000000E+00 -0.83349529611E+03  0.32252158131E+04  0.31156544469E+04 0.  0.
        4    1    3    3  502    0 -0.11036558825E+04  0.83762618176E+03  0.32043951007E+03  0.14220959953E+04  0.12699999809E+01 0.  1.
       -4    1    3    3    0  502  0.11036558825E+04 -0.83762618176E+03 -0.11539348062E+04  0.18031198178E+04  0.12699999809E+01 0. -1.
</event>
<event>
 5   0  0.9646321E-06  0.2918329E+04  0.7818609E-02  0.8267445E-01
        2   -1    0    0  501    0  0.00000000000E+00  0.00000000000E+00  0.17229108211E+04  0.17229108211E+04  0.25500000920E-02 0. -1.
       -2   -1    0    0    0  501  0.00000000000E+00  0.00000000000E+00 -0.12357930552E+04  0.12357930552E+04  0.25500000920E-02 0.  1.
    10030    2    1    2    0    0  0.00000000000E+00  0.00000000000E+00  0.48711776588E+03  0.29587038763E+04  0.29183291298E+04 0.  0.
        3    1    3    3  502    0 -0.72484993269E+03  0.92761902987E+03  0.11176214032E+04  0.16232566342E+04  0.10100000352E+00 0.  1.
       -3    1    3    3    0  502  0.72484993269E+03 -0.92761902987E+03 -0.63050363729E+03  0.13354472421E+04  0.10100000352E+00 0. -1.
</event>
<event>
 5   0  0.9251510E-06  0.2350311E+04  0.7818609E-02  0.8458344E-01
       -2   -1    0    0    0  501  0.00000000000E+00  0.00000000000E+00  0.13121362965E+04  0.13121362965E+04  0.25500000920E-02 0. -1.
        2   -1    0    0  501    0  0.00000000000E+00  0.00000000000E+00 -0.10524749383E+04  0.10524749383E+04  0.25500000920E-02 0.  1.
    10030    2    1    2    0    0  0.00000000000E+00  0.00000000000E+00  0.25966135823E+03  0.23646112348E+04  0.23503111009E+04 0.  0.
        2    1    3    3  502    0 -0.68632737202E+03  0.27396336432E+03 -0.78945155168E+03  0.10813579144E+04  0.25500000920E-02 0.  1.
       -2    1    3    3    0  502  0.68632737202E+03 -0.27396336432E+03  0.10491129099E+04  0.12832533204E+04  0.25500000920E-02 0. -1.
</event>
<event>
 5   0  0.9505359E-06  0.2913319E+04  0.7818609E-02  0.8268926E-01
       -2   -1    0    0    0  501  0.00000000000E+00  0.00000000000E+00  0.11035528561E+04  0.11035528561E+04  0.25500000920E-02 0.  1.
        2   -1    0    0  501    0  0.00000000000E+00  0.00000000000E+00 -0.19227505790E+04  0.19227505790E+04  0.25500000920E-02 0. -1.
    10030    2    1    2    0    0  0.00000000000E+00  0.00000000000E+00 -0.81919772291E+03  0.30263034351E+04  0.29133189960E+04 0.  0.
        4    1    3    3  502    0  0.76142965181E+02  0.91719022622E+03  0.76326822547E+03  0.11956653625E+04  0.12699999809E+01 0.  1.
       -4    1    3    3    0  502 -0.76142965181E+02 -0.91719022622E+03 -0.15824659484E+04  0.18306380726E+04  0.12699999809E+01 0. -1.
</event>
<event>
 5   0  0.3649705E-06  0.2911709E+04  0.7818609E-02  0.8269402E-01
       -1   -1    0    0    0  501  0.00000000000E+00  0.00000000000E+00  0.92777993533E+03  0.92777993534E+03  0.50400001928E-02 0.  1.
        1   -1    0    0  501    0  0.00000000000E+00  0.00000000000E+00 -0.22844988899E+04  0.22844988899E+04  0.50400001928E-02 0. -1.
    10030    2    1    2    0    0  0.00000000000E+00  0.00000000000E+00 -0.13567189546E+04  0.32122788253E+04  0.29117089363E+04 0.  0.
        2    1    3    3  502    0  0.63665089928E+03 -0.13063665918E+04 -0.58221904203E+03  0.15655341109E+04  0.25500000920E-02 0. -1.
       -2    1    3    3    0  502 -0.63665089928E+03  0.13063665918E+04 -0.77449991258E+03  0.16467447143E+04  0.25500000920E-02 0.  1.
</event>
<event>
 5   0  0.3188375E-06  0.2901958E+04  0.7818609E-02  0.8272295E-01
       -3   -1    0    0    0  501  0.00000000000E+00  0.00000000000E+00  0.13077171069E+04  0.13077171108E+04  0.10100000352E+00 0. -1.
        3   -1    0    0  501    0  0.00000000000E+00  0.00000000000E+00 -0.16099353873E+04  0.16099353905E+04  0.10100000352E+00 0.  1.
    10030    2    1    2    0    0  0.00000000000E+00  0.00000000000E+00 -0.30221828042E+03  0.29176525013E+04  0.29019579993E+04 0.  0.
        3    1    3    3  502    0 -0.77693899792E+03 -0.71813298446E+03  0.84723181279E+03  0.13554154141E+04  0.10100000352E+00 0. -1.
       -3    1    3    3    0  502  0.77693899792E+03  0.71813298446E+03 -0.11494500932E+04  0.15622370873E+04  0.10100000352E+00 0.  1.
</event>
<event>
 5   0  0.1001573E-05  0.2899420E+04  0.7818609E-02  0.8273050E-01
       -2   -1    0    0    0  501  0.00000000000E+00  0.00000000000E+00  0.11629668517E+04  0.11629668517E+04  0.25500000920E-02 0.  1.
        2   -1    0    0  501    0  0.00000000000E+00  0.00000000000E+00 -0.18071532440E+04  0.18071532440E+04  0.25500000920E-02 0. -1.
    10030    2    1    2    0    0  0.00000000000E+00  0.00000000000E+00 -0.64418639231E+03  0.29701200957E+04  0.28994201618E+04 0.  0.
        1    1    3    3  502    0 -0.14277467927E+04  0.65445495601E+02 -0.73449811569E+02  0.14311320316E+04  0.50400001928E-02 0.  1.
       -1    1    3    3    0  502  0.14277467927E+04 -0.65445495601E+02 -0.57073658074E+03  0.15389880641E+04  0.50400001928E-02 0. -1.
</event>
<event>
 5   0  0.9251510E-06  0.2652515E+04  0.7818609E-02  0.8350579E-01
       -2   -1    0    0    0  501  0.00000000000E+00  0.00000000000E+00  0.11118169457E+04  0.11118169457E+04  0.25500000920E-02 0. -1.
        2   -1    0    0  501    0  0.00000000000E+00  0.00000000000E+00 -0.15820575086E+04  0.15820575086E+04  0.25500000920E-02 0.  1.
    10030    2    1    2    0    0  0.00000000000E+00  0.00000000000E+00 -0.47024056294E+03  0.26938744543E+04  0.26525145406E+04 0.  0.
        2    1    3    3  502    0  0.44383049049E+03 -0.23374228955E+03 -0.14820007266E+04  0.15645916770E+04  0.25500000920E-02 0.  1.
       -2    1    3    3    0  502 -0.44383049049E+03  0.23374228955E+03  0.10117601636E+04  0.11292827772E+04  0.25500000920E-02 0. -1.
</event>
<event>
 5   0  0.3564340E-06  0.2946722E+04  0.7818609E-02  0.8259110E-01
       -1   -1    0    0    0  501  0.00000000000E+00  0.00000000000E+00  0.18947463913E+04  0.18947463913E+04  0.50400001928E-02 0.  1.
        1   -1    0    0  501    0  0.00000000000E+00  0.00000000000E+00 -0.11456906231E+04  0.11456906231E+04  0.50400001928E-02 0. -1.
    10030    2    1    2    0    0  0.00000000000E+00  0.00000000000E+00  0.74905576824E+03  0.30404370144E+04  0.29467223647E+04 0.  0.
        1    1    3    3  502    0 -0.11666893364E+03 -0.14016724402E+04  0.82722480244E+03  0.16317469606E+04  0.50400001928E-02 0.  1.
       -1    1    3    3    0  502  0.11666893364E+03  0.14016724402E+04 -0.78169034204E+02  0.14086900538E+04  0.50400001928E-02 0. -1.
</event>
<event>
 5   0  0.3474078E-06  0.2983429E+04  0.7818609E-02  0.8248479E-01
        1   -1    0    0  501    0  0.00000000000E+00  0.00000000000E+00  0.13810443956E+04  0.13810443956E+04  0.50400001928E-02 0. -1.
       -1   -1    0    0    0  501  0.00000000000E+00  0.00000000000E+00 -0.16112536958E+04  0.16112536958E+04  0.50400001928E-02 0.  1.
    10030    2    1    2    0    0  0.00000000000E+00  0.00000000000E+00 -0.23020930026E+03  0.29922980914E+04  0.29834294940E+04 0.  0.
        3    1    3    3  502    0 -0.99234215901E+03 -0.73268314063E+03  0.72622458803E+03  0.14314222674E+04  0.10100000352E+00 0. -1.
       -3    1    3    3    0  502  0.99234215901E+03  0.73268314063E+03 -0.95643388829E+03  0.15608758240E+04  0.10100000352E+00 0.  1.
</event>
<event>
 5   0  0.3746518E-06  0.2917843E+04  0.7818609E-02  0.8267588E-01
        1   -1    0    0  501    0  0.00000000000E+00  0.00000000000E+00  0.13185434297E+04  0.13185434297E+04  0.50400001928E-02 0. -1.
       -1   -1    0    0    0  501  0.00000000000E+00  0.00000000000E+00 -0.16142448400E+04  0.16142448400E+04  0.50400001928E-02 0.  1.
    10030    2    1    2    0    0  0.00000000000E+00  0.00000000000E+00 -0.29570141029E+03  0.29327882697E+04  0.29178429894E+04 0.  0.
        4    1    3    3  502    0 -0.71237827008E+02 -0.12522855315E+03 -0.16070765033E+04  0.16135220850E+04  0.12699999809E+01 0.  1.
       -4    1    3    3    0  502  0.71237827008E+02  0.12522855315E+03  0.13113750930E+04  0.13192661847E+04  0.12699999809E+01 0. -1.
</event>
<event>
 5   0  0.3474078E-06  0.2873992E+04  0.7818609E-02  0.8280658E-01
        1   -1    0    0  501    0  0.00000000000E+00  0.00000000000E+00  0.15030453473E+04  0.15030453473E+04  0.50400001928E-02 0.  1.
       -1   -1    0    0    0  501  0.00000000000E+00  0.00000000000E+00 -0.13738489761E+04  0.13738489762E+04  0.50400001928E-02 0. -1.
    10030    2    1    2    0    0  0.00000000000E+00  0.00000000000E+00  0.12919637112E+03  0.28768943234E+04  0.28739918660E+04 0.  0.
        3    1    3    3  502    0 -0.77908620823E+03 -0.12055916724E+04  0.13197664461E+03  0.14414730123E+04  0.10100000352E+00 0.  1.
       -3    1    3    3    0  502  0.77908620823E+03  0.12055916724E+04 -0.27802734953E+01  0.14354213111E+04  0.10100000352E+00 0. -1.
</event>
<event>
 5   0  0.9646321E-06  0.2909076E+04  0.7818609E-02  0.8270182E-01
        2   -1    0    0  501    0  0.00000000000E+00  0.00000000000E+00  0.12817943813E+04  0.12817943813E+04  0.25500000920E-02 0. -1.
       -2   -1    0    0    0  501  0.00000000000E+00  0.00000000000E+00 -0.16505620926E+04  0.16505620927E+04  0.25500000920E-02 0.  1.
    10030    2    1    2    0    0  0.00000000000E+00  0.00000000000E+00 -0.36876771139E+03  0.29323564739E+04  0.29090762907E+04 0.  0.
        3    1    3    3  502    0  0.10568231960E+04 -0.69888802196E+03  0.53572904959E+03  0.13756181736E+04  0.10100000352E+00 0. -1.
       -3    1    3    3    0  502 -0.10568231960E+04  0.69888802196E+03 -0.90449676098E+03  0.15567383003E+04  0.10100000352E+00 0.  1.
</event>
<event>
 5   0  0.3649705E-06  0.2928830E+04  0.7818609E-02  0.8264351E-01
        1   -1    0    0  501    0  0.00000000000E+00  0.00000000000E+00  0.86234253809E+03  0.86234253811E+03  0.50400001928E-02 0.  1.
       -1   -1    0    0    0  501  0.00000000000E+00  0.00000000000E+00 -0.24868437688E+04  0.24868437688E+04  0.50400001928E-02 0. -1.
    10030    2    1    2    0    0  0.00000000000E+00  0.00000000000E+00 -0.16245012307E+04  0.33491863069E+04  0.29288299148E+04 0.  0.
        2    1    3    3  502    0 -0.14506154921E+04 -0.16616303229E+03 -0.68381041571E+03  0.16122940625E+04  0.25500000920E-02 0.  1.
       -2    1    3    3    0  502  0.14506154921E+04  0.16616303229E+03 -0.94069081500E+03  0.17368922444E+04  0.25500000920E-02 0. -1.
</event>
<event>
 5   0  0.1001573E-05  0.2893884E+04  0.7818609E-02  0.8274699E-01
        2   -1    0    0  501    0  0.00000000000E+00  0.00000000000E+00  0.11867774885E+04  0.11867774885E+04  0.25500000920E-02 0.  1.
       -2   -1    0    0    0  501  0.00000000000E+00  0.00000000000E+00 -0.17641397179E+04  0.17641397179E+04  0.25500000920E-02 0. -1.
    10030    2    1    2    0    0  0.00000000000E+00  0.00000000000E+00 -0.57736222945E+03  0.29509172064E+04  0.28938841053E+04 0.  0.
        1    1    3    3  502    0  0.12602935589E+03  0.46168959343E+03 -0.16810964667E+04  0.17478918759E+04  0.50400001928E-02 0. -1.
       -1    1    3    3    0  502 -0.12602935589E+03 -0.46168959343E+03  0.11037342373E+04  0.12030253305E+04  0.50400001928E-02 0.  1.
</event>
<event>
 5   0  0.3649705E-06  0.2929601E+04  0.7818609E-02  0.8264124E-01
       -1   -1    0    0    0  501  0.00000000000E+00  0.00000000000E+00  0.14931802103E+04  0.14931802103E+04  0.50400001928E-02 0.  1.
        1   -1    0    0  501    0  0.00000000000E+00  0.00000000000E+00 -0.14369601345E+04  0.14369601345E+04  0.50400001928E-02 0. -1.
    10030    2    1    2    0    0  0.00000000000E+00  0.00000000000E+00  0.56220075847E+02  0.29301403448E+04  0.29296009529E+04 0.  0.
        2    1    3    3  502    0  0.86239518711E+03 -0.36194838229E+01  0.12123474104E+04  0.14877919219E+04  0.25500000920E-02 0.  1.
       -2    1    3    3    0  502 -0.86239518711E+03  0.36194838229E+01 -0.11561273345E+04  0.14423484229E+04  0.25500000920E-02 0. -1.
</event>
<event>
 5   0  0.3474078E-06  0.2987628E+04  0.7818609E-02  0.8247273E-01
       -1   -1    0    0    0  501  0.00000000000E+00  0.00000000000E+00  0.11244609179E+04  0.11244609179E+04  0.50400001928E-02 0. -1.
        1   -1    0    0  501    0  0.00000000000E+00  0.00000000000E+00 -0.19844888106E+04  0.19844888106E+04  0.50400001928E-02 0.  1.
    10030    2    1    2    0    0  0.00000000000E+00  0.00000000000E+00 -0.86002789266E+03  0.31089497285E+04  0.29876278949E+04 0.  0.
        3    1    3    3  502    0 -0.91942631855E+03  0.11689786187E+04 -0.57578948237E+03  0.15948007099E+04  0.10100000352E+00 0.  1.
       -3    1    3    3    0  502  0.91942631855E+03 -0.11689786187E+04 -0.28423841030E+03  0.15141490185E+04  0.10100000352E+00 0. -1.
</event>
<event>
 5   0  0.9505359E-06  0.2897397E+04  0.7818609E-02  0.8273652E-01
       -2   -1    0    0    0  501  0.00000000000E+00  0.00000000000E+00  0.14007737402E+04  0.14007737402E+04  0.25500000920E-02 0.  1.
        2   -1    0    0  501    0  0.00000000000E+00  0.00000000000E+00 -0.14982631278E+04  0.14982631278E+04  0.25500000920E-02 0. -1.
    10030    2    1    2    0    0  0.00000000000E+00  0.00000000000E+00 -0.97489387558E+02  0.28990368680E+04  0.28973972081E+04 0.  0.
        4    1    3    3  502    0  0.29551392737E+03  0.14094819348E+04 -0.20618120906E+03  0.14548127404E+04  0.12699999809E+01 0.  1.
       -4    1    3    3    0  502 -0.29551392737E+03 -0.14094819348E+04  0.10869182150E+03  0.14442241276E+04  0.12699999809E+01 0. -1.
</event>
<event>
 5   0  0.3746518E-06  0.2921455E+04  0.7818609E-02  0.8266522E-01
        1   -1    0    0  501    0  0.00000000000E+00  0.00000000000E+00  0.17799983802E+04  0.17799983802E+04  0.50400001928E-02 0.  1.
       -1   -1    0    0    0  501  0.00000000000E+00  0.00000000000E+00 -0.11987231230E+04  0.11987231230E+04  0.50400001928E-02 0. -1.
    10030    2    1    2    0    0  0.00000000000E+00  0.00000000000E+00  0.58127525721E+03  0.29787215033E+04  0.29214552657E+04 0.  0.
        4    1    3    3  502    0 -0.82078105337E+03 -0.10716476555E+04 -0.27852804657E+03  0.13782923205E+04  0.12699999809E+01 0. -1.
       -4    1    3    3    0  502  0.82078105337E+03  0.10716476555E+04  0.85980330378E+03  0.16004291828E+04  0.12699999809E+01 0.  1.
</event>
<event>
 5   0  0.9251510E-06  0.2907675E+04  0.7818609E-02  0.8270598E-01
        2   -1    0    0  501    0  0.00000000000E+00  0.00000000000E+00  0.10249466864E+04  0.10249466864E+04  0.25500000920E-02 0.  1.
       -2   -1    0    0    0  501  0.00000000000E+00  0.00000000000E+00 -0.20621980259E+04  0.20621980259E+04  0.25500000920E-02 0. -1.
    10030    2    1    2    0    0  0.00000000000E+00  0.00000000000E+00 -0.10372513395E+04  0.30871447124E+04  0.29076746953E+04 0.  0.
        2    1    3    3  502    0  0.11214961723E+04 -0.72071733024E+03 -0.11344760933E+04  0.17504922567E+04  0.25500000920E-02 0. -1.
       -2    1    3    3    0  502 -0.11214961723E+04  0.72071733024E+03  0.97224753772E+02  0.13366524557E+04  0.25500000920E-02 0.  1.
</event>
<event>
 5   0  0.3486236E-06  0.2877683E+04  0.7818609E-02  0.8279549E-01
        1   -1    0    0  501    0  0.00000000000E+00  0.00000000000E+00  0.14741053173E+04  0.14741053173E+04  0.50400001928E-02 0. -1.
       -1   -1    0    0    0  501  0.00000000000E+00  0.00000000000E+00 -0.14044208035E+04  0.14044208035E+04  0.50400001928E-02 0.  1.
    10030    2    1    2    0    0  0.00000000000E+00  0.00000000000E+00  0.69684513758E+02  0.28785261208E+04  0.28776825219E+04 0.  0.
        5    1    3    3  502    0  0.25515134663E+03  0.18235412783E+03 -0.13698082840E+04  0.14052587173E+04  0.46999998093E+01 0.  1.
       -5    1    3    3    0  502 -0.25515134663E+03 -0.18235412783E+03  0.14394927977E+04  0.14732674035E+04  0.46999998093E+01 0. -1.
</event>
<event>
 5   0  0.9646321E-06  0.2893230E+04  0.7818609E-02  0.8274895E-01
        2   -1    0    0  501    0  0.00000000000E+00  0.00000000000E+00  0.19208739090E+04  0.19208739090E+04  0.25500000920E-02 0.  1.
       -2   -1    0    0    0  501  0.00000000000E+00  0.00000000000E+00 -0.10894492356E+04  0.10894492356E+04  0.25500000920E-02 0. -1.
    10030    2    1    2    0    0  0.00000000000E+00  0.00000000000E+00  0.83142467335E+03  0.30103231446E+04  0.28932297606E+04 0.  0.
        3    1    3    3  502    0 -0.57418294908E+03 -0.73395862414E+03 -0.73555577138E+03  0.11871914858E+04  0.10100000352E+00 0. -1.
       -3    1    3    3    0  502  0.57418294908E+03  0.73395862414E+03  0.15669804447E+04  0.18231316588E+04  0.10100000352E+00 0.  1.
</event>
<event>
 5   0  0.3649705E-06  0.2597559E+04  0.7818609E-02  0.8369031E-01
       -1   -1    0    0    0  501  0.00000000000E+00  0.00000000000E+00  0.15036742365E+04  0.15036742365E+04  0.50400001928E-02 0. -1.
        1   -1    0    0  501    0  0.00000000000E+00  0.00000000000E+00 -0.11218041033E+04  0.11218041033E+04  0.50400001928E-02 0.  1.
    10030    2    1    2    0    0  0.00000000000E+00  0.00000000000E+00  0.38187013320E+03  0.26254783398E+04  0.25975587990E+04 0.  0.
        2    1    3    3  502    0 -0.20234204092E+03  0.41789720567E+03  0.14169222478E+04  0.14910563478E+04  0.25500000920E-02 0. -1.
       -2    1    3    3    0  502  0.20234204092E+03 -0.41789720567E+03 -0.10350521146E+04  0.11344219920E+04  0.25500000920E-02 0.  1.
</event>
<event>
 5   0  0.9251510E-06  0.2896016E+04  0.7818609E-02  0.8274064E-01
       -2   -1    0    0    0  501  0.00000000000E+00  0.00000000000E+00  0.10244592330E+04  0.10244592330E+04  0.25500000920E-02 0.  1.
        2   -1    0    0  501    0  0.00000000000E+00  0.00000000000E+00 -0.20466667599E+04  0.20466667599E+04  0.25500000920E-02 0. -1.
    10030    2    1    2    0    0  0.00000000000E+00  0.00000000000E+00 -0.10222075270E+04  0.30711259929E+04  0.28960156485E+04 0.  0.
        2    1    3    3  502    0  0.40387795488E+03 -0.92514148740E+03  0.58980214208E+03  0.11691324737E+04  0.25500000920E-02 0.  1.
       -2    1    3    3    0  502 -0.40387795488E+03  0.92514148740E+03 -0.16120096691E+04  0.19019935193E+04  0.25500000920E-02 0. -1.
</event>
<event>
 5   0  0.1001573E-05  0.2863006E+04  0.7818609E-02  0.8283970E-01
       -2   -1    0    0    0  501  0.00000000000E+00  0.00000000000E+00  0.12401471623E+04  0.12401471623E+04  0.25500000920E-02 0. -1.
        2   -1    0    0  501    0  0.00000000000E+00  0.00000000000E+00 -0.16523849775E+04  0.16523849775E+04  0.25500000920E-02 0.  1.
    10030    2    1    2    0    0  0.00000000000E+00  0.00000000000E+00 -0.41223781525E+03  0.28925321398E+04  0.28630057918E+04 0.  0.
        1    1    3    3  502    0  0.13888877706E+04 -0.21916312498E+03 -0.47751319171E+03  0.14849446330E+04  0.50400001928E-02 0.  1.
       -1    1    3    3    0  502 -0.13888877706E+04  0.21916312498E+03  0.65275376466E+02  0.14075875069E+04  0.50400001928E-02 0. -1.
</event>
<event>
 5   0  0.3474078E-06  0.2868143E+04  0.7818609E-02  0.8282419E-01
       -1   -1    0    0    0  501  0.00000000000E+00  0.00000000000E+00  0.13234623875E+04  0.13234623875E+04  0.50400001928E-02 0. -1.
        1   -1    0    0  501    0  0.00000000000E+00  0.00000000000E+00 -0.15539251323E+04  0.15539251323E+04  0.50400001928E-02 0.  1.
    10030    2    1    2    0    0  0.00000000000E+00  0.00000000000E+00 -0.23046274484E+03  0.28773875198E+04  0.28681432778E+04 0.  0.
        3    1    3    3  502    0 -0.50156939879E+03  0.77433655331E+03 -0.12166736811E+04  0.15269131659E+04  0.10100000352E+00 0.  1.
       -3    1    3    3    0  502  0.50156939879E+03 -0.77433655331E+03  0.98621093626E+03  0.13504743539E+04  0.10100000352E+00 0. -1.
</event>
<event>
 5   0  0.3746518E-06  0.2892469E+04  0.7818609E-02  0.8275122E-01
        1   -1    0    0  501    0  0.00000000000E+00  0.00000000000E+00  0.17868602014E+04  0.17868602014E+04  0.50400001928E-02 0. -1.
       -1   -1    0    0    0  501  0.00000000000E+00  0.00000000000E+00 -0.11705412842E+04  0.11705412842E+04  0.50400001928E-02 0.  1.
    10030    2    1    2    0    0  0.00000000000E+00  0.00000000000E+00  0.61631891712E+03  0.29574014856E+04  0.28924685892E+04 0.  0.
        4    1    3    3  502    0 -0.98893581265E+02  0.31943600482E+03  0.17467900902E+04  0.17785096383E+04  0.12699999809E+01 0. -1.
       -4    1    3    3    0  502  0.98893581265E+02 -0.31943600482E+03 -0.11304711730E+04  0.11788918473E+04  0.12699999809E+01 0.  1.
</event>
<event>
 5   0  0.9251510E-06  0.2976699E+04  0.7818609E-02  0.8250416E-01
        2   -1    0    0  501    0  0.00000000000E+00  0.00000000000E+00  0.17371714628E+04  0.17371714628E+04  0.25500000920E-02 0.  1.
       -2   -1    0    0    0  501  0.00000000000E+00  0.00000000000E+00 -0.12751672807E+04  0.12751672807E+04  0.25500000920E-02 0. -1.
    10030    2    1    2    0    0  0.00000000000E+00  0.00000000000E+00  0.46200418211E+03  0.30123387435E+04  0.29766989840E+04 0.  0.
        2    1    3    3  502    0  0.76687293968E+03 -0.10035446219E+04  0.10278228393E+04  0.16283782432E+04  0.25500000920E-02 0.  1.
       -2    1    3    3    0  502 -0.76687293968E+03  0.10035446219E+04 -0.56581865721E+03  0.13839605004E+04  0.25500000920E-02 0. -1.
</event>
<event>
 5   0  0.9505359E-06  0.2862659E+04  0.7818609E-02  0.8284075E-01
       -2   -1    0    0    0  501  0.00000000000E+00  0.00000000000E+00  0.14380166975E+04  0.14380166975E+04  0.25500000920E-02 0. -1.
        2   -1    0    0  501    0  0.00000000000E+00  0.00000000000E+00 -0.14246736661E+04  0.14246736661E+04  0.25500000920E-02 0.  1.
    10030    2    1    2    0    0  0.00000000000E+00  0.00000000000E+00  0.13343031415E+02  0.28626903637E+04  0.28626592675E+04 0.  0.
        4    1    3    3  502    0  0.69495713039E+03 -0.87955177564E+03 -0.88335285349E+03  0.14271967684E+04  0.12699999809E+01 0. -1.
       -4    1    3    3    0  502 -0.69495713039E+03  0.87955177564E+03  0.89669588490E+03  0.14354935953E+04  0.12699999809E+01 0.  1.
</event>
<event>
 5   0  0.9646321E-06  0.2883302E+04  0.7818609E-02  0.8277863E-01
       -2   -1    0    0    0  501  0.00000000000E+00  0.00000000000E+00  0.12308513479E+04  0.12308513479E+04  0.25500000920E-02 0.  1.
        2   -1    0    0  501    0  0.00000000000E+00  0.00000000000E+00 -0.16885523546E+04  0.16885523546E+04  0.25500000920E-02 0. -1.
    10030    2    1    2    0    0  0.00000000000E+00  0.00000000000E+00 -0.45770100672E+03  0.29194037026E+04  0.28833015394E+04 0.  0.
        3    1    3    3  502    0  0.18125203746E+03 -0.91370039616E+03 -0.13429257089E+04  0.16343653768E+04  0.10100000352E+00 0. -1.
       -3    1    3    3    0  502 -0.18125203746E+03  0.91370039616E+03  0.88522470221E+03  0.12850383257E+04  0.10100000352E+00 0.  1.
</event>
<event>
 5   0  0.9360689E-06  0.2798265E+04  0.7818609E-02  0.8303807E-01
       -2   -1    0    0    0  501  0.00000000000E+00  0.00000000000E+00  0.18265124595E+04  0.18265124595E+04  0.25500000920E-02 0. -1.
        2   -1    0    0  501    0  0.00000000000E+00  0.00000000000E+00 -0.10717541263E+04  0.10717541264E+04  0.25500000920E-02 0.  1.
    10030    2    1    2    0    0  0.00000000000E+00  0.00000000000E+00  0.75475833314E+03  0.28982665858E+04  0.27982653665E+04 0.  0.
        5    1    3    3  502    0 -0.81290402669E+03 -0.85019467098E+02  0.15535261688E+04  0.17554221468E+04  0.46999998093E+01 0. -1.
       -5    1    3    3    0  502  0.81290402669E+03  0.85019467098E+02 -0.79876783569E+03  0.11428444390E+04  0.46999998093E+01 0.  1.
</event>
<event>
 5   0  0.3746518E-06  0.2739557E+04  0.7818609E-02  0.8322283E-01
        1   -1    0    0  501    0  0.00000000000E+00  0.00000000000E+00  0.10080626581E+04  0.10080626581E+04  0.50400001928E-02 0.  1.
       -1   -1    0    0    0  501  0.00000000000E+00  0.00000000000E+00 -0.18612860332E+04  0.18612860332E+04  0.50400001928E-02 0. -1.
    10030    2    1    2    0    0  0.00000000000E+00  0.00000000000E+00 -0.85322337511E+03  0.28693486913E+04  0.27395568591E+04 0.  0.
        4    1    3    3  502    0  0.52080133763E+03  0.12716098036E+03 -0.17468415991E+04  0.18272550816E+04  0.12699999809E+01 0. -1.
       -4    1    3    3    0  502 -0.52080133763E+03 -0.12716098036E+03  0.89361822395E+03  0.10420936097E+04  0.12699999809E+01 0.  1.
</event>
<event>
 5   0  0.3486236E-06  0.2909833E+04  0.7818609E-02  0.8269958E-01
        1   -1    0    0  501    0  0.00000000000E+00  0.00000000000E+00  0.12455493624E+04  0.12455493624E+04  0.50400001928E-02 0.  1.
       -1   -1    0    0    0  501  0.00000000000E+00  0.00000000000E+00 -0.16994763233E+04  0.16994763233E+04  0.50400001928E-02 0. -1.
    10030    2    1    2    0    0  0.00000000000E+00  0.00000000000E+00 -0.45392696091E+03  0.29450256856E+04  0.29098327449E+04 0.  0.
        5    1    3    3  502    0 -0.28732679601E+02  0.65764717671E+03 -0.15401279733E+04  0.16749154128E+04  0.46999998093E+01 0. -1.
       -5    1    3    3    0  502  0.28732679601E+02 -0.65764717671E+03  0.10862010124E+04  0.12701102729E+04  0.46999998093E+01 0.  1.
</event>
<event>
 5   0  0.3564340E-06  0.2982540E+04  0.7818609E-02  0.8248734E-01
        1   -1    0    0  501    0  0.00000000000E+00  0.00000000000E+00  0.16884386649E+04  0.16884386649E+04  0.50400001928E-02 0. -1.
       -1   -1    0    0    0  501  0.00000000000E+00  0.00000000000E+00 -0.13171261721E+04  0.13171261721E+04  0.50400001928E-02 0.  1.
    10030    2    1    2    0    0  0.00000000000E+00  0.00000000000E+00  0.37131249286E+03  0.30055648370E+04  0.29825403639E+04 0.  0.
        1    1    3    3  502    0  0.36362433498E+03 -0.55929901085E+03  0.15296872238E+04  0.16688262471E+04  0.50400001928E-02 0. -1.
       -1    1    3    3    0  502 -0.36362433498E+03  0.55929901085E+03 -0.11583747309E+04  0.13367385899E+04  0.50400001928E-02 0.  1.
</event>
<event>
 5   0  0.9505359E-06  0.2756170E+04  0.7818609E-02  0.8317006E-01
       -2   -1    0    0    0  501  0.00000000000E+00  0.00000000000E+00  0.11870755557E+04  0.11870755557E+04  0.25500000920E-02 0.  1.
        2   -1    0    0  501    0  0.00000000000E+00  0.00000000000E+00 -0.15998298825E+04  0.15998298825E+04  0.25500000920E-02 0. -1.
    10030    2    1    2    0    0  0.00000000000E+00  0.00000000000E+00 -0.41275432682E+03  0.27869054382E+04  0.27561704931E+04 0.  0.
        4    1    3    3  502    0  0.12646111734E+04  0.35435916041E+03 -0.62853193156E+03  0.14559759051E+04  0.12699999809E+01 0. -1.
       -4    1    3    3    0  502 -0.12646111734E+04 -0.35435916041E+03  0.21577760474E+03  0.13309295331E+04  0.12699999809E+01 0.  1.
</event>
<event>
 5   0  0.9505359E-06  0.2891583E+04  0.7818609E-02  0.8275386E-01
        2   -1    0    0  501    0  0.00000000000E+00  0.00000000000E+00  0.20991477280E+04  0.20991477280E+04  0.25500000920E-02 0.  1.
       -2   -1    0    0    0  501  0.00000000000E+00  0.00000000000E+00 -0.99579118589E+03  0.99579118589E+03  0.25500000920E-02 0. -1.
    10030    2    1    2    0    0  0.00000000000E+00  0.00000000000E+00  0.11033565421E+04  0.30949389139E+04  0.28915828229E+04 0.  0.
        4    1    3    3  502    0  0.14081361117E+04 -0.17135762605E+03  0.85079672400E+03  0.16541062311E+04  0.12699999809E+01 0.  1.
       -4    1    3    3    0  502 -0.14081361117E+04  0.17135762605E+03  0.25255981808E+03  0.14408326828E+04  0.12699999809E+01 0. -1.
</event>
<event>
 5   0  0.3188375E-06  0.2932775E+04  0.7818609E-02  0.8263192E-01
        3   -1    0    0  501    0  0.00000000000E+00  0.00000000000E+00  0.18491437739E+04  0.18491437766E+04  0.10100000352E+00 0.  1.
       -3   -1    0    0    0  501  0.00000000000E+00  0.00000000000E+00 -0.11628581272E+04  0.11628581316E+04  0.10100000352E+00 0. -1.
    10030    2    1    2    0    0  0.00000000000E+00  0.00000000000E+00  0.68628564667E+03  0.30120019082E+04  0.29327747111E+04 0.  0.
        2    1    3    3  502    0  0.29804775340E+03  0.23313346568E+03  0.17981392695E+04  0.18375223832E+04  0.25500000920E-02 0.  1.
       -2    1    3    3    0  502 -0.29804775340E+03 -0.23313346568E+03 -0.11118536228E+04  0.11744795250E+04  0.25500000920E-02 0. -1.
</event>
<event>
 5   0  0.9251510E-06  0.2837886E+04  0.7818609E-02  0.8291602E-01
        2   -1    0    0  501    0  0.00000000000E+00  0.00000000000E+00  0.20496041839E+04  0.20496041839E+04  0.25500000920E-02 0. -1.
       -2   -1    0    0    0  501  0.00000000000E+00  0.00000000000E+00 -0.98233573178E+03  0.98233573178E+03  0.25500000920E-02 0.  1.
    10030    2    1    2    0    0  0.00000000000E+00  0.00000000000E+00  0.10672684521E+04  0.30319399157E+04  0.28378861329E+04 0.  0.
        2    1    3    3  502    0  0.88643080382E+03 -0.10846235104E+04  0.29181267990E+03  0.14308467316E+04  0.25500000920E-02 0.  1.
       -2    1    3    3    0  502 -0.88643080382E+03  0.10846235104E+04  0.77545577223E+03  0.16010931840E+04  0.25500000920E-02 0. -1.
</event>
<event>
 5   0  0.3649705E-06  0.2481693E+04  0.7818609E-02  0.8409537E-01
        1   -1    0    0  501    0  0.00000000000E+00  0.00000000000E+00  0.19502874137E+04  0.19502874137E+04  0.50400001928E-02 0.  1.
       -1   -1    0    0    0  501  0.00000000000E+00  0.00000000000E+00 -0.78947335991E+03  0.78947335993E+03  0.50400001928E-02 0. -1.
    10030    2    1    2    0    0  0.00000000000E+00  0.00000000000E+00  0.11608140538E+04  0.27397607736E+04  0.24816929361E+04 0.  0.
        2    1    3    3  502    0  0.11387445420E+04 -0.43289237092E+03  0.84064180689E+03  0.14801397178E+04  0.25500000920E-02 0.  1.
       -2    1    3    3    0  502 -0.11387445420E+04  0.43289237092E+03  0.32017224688E+03  0.12596210558E+04  0.25500000920E-02 0. -1.
</event>
<event>
 5   0  0.3474078E-06  0.2926009E+04  0.7818609E-02  0.8265181E-01
        1   -1    0    0  501    0  0.00000000000E+00  0.00000000000E+00  0.21328295193E+04  0.21328295193E+04  0.50400001928E-02 0.  1.
       -1   -1    0    0    0  501  0.00000000000E+00  0.00000000000E+00 -0.10035413672E+04  0.10035413673E+04  0.50400001928E-02 0. -1.
    10030    2    1    2    0    0  0.00000000000E+00  0.00000000000E+00  0.11292881520E+04  0.31363708865E+04  0.29260093314E+04 0.  0.
        3    1    3    3  502    0  0.72339514736E+03 -0.11926531776E+04  0.10375672818E+04  0.17384671454E+04  0.10100000352E+00 0.  1.
       -3    1    3    3    0  502 -0.72339514736E+03  0.11926531776E+04  0.91720870236E+02  0.13979037411E+04  0.10100000352E+00 0. -1.
</event>
<event>
 5   0  0.9360689E-06  0.2206017E+04  0.7818609E-02  0.8515928E-01
        2   -1    0    0  501    0  0.00000000000E+00  0.00000000000E+00  0.10073178055E+04  0.10073178055E+04  0.25500000920E-02 0.  1.
       -2   -1    0    0    0  501  0.00000000000E+00  0.00000000000E+00 -0.12077893310E+04  0.12077893310E+04  0.25500000920E-02 0. -1.
    10030    2    1    2    0    0  0.00000000000E+00  0.00000000000E+00 -0.20047152553E+03  0.22151071365E+04  0.22060169523E+04 0.  0.
        5    1    3    3  502    0 -0.61061638915E+03 -0.24240075418E+03  0.78941461188E+03  0.10270384704E+04  0.46999998093E+01 0.  1.
       -5    1    3    3    0  502  0.61061638915E+03  0.24240075418E+03 -0.98988613741E+03  0.11880686661E+04  0.46999998093E+01 0. -1.
</event>
<event>
 5   0  0.1001573E-05  0.2886065E+04  0.7818609E-02  0.8277036E-01
        2   -1    0    0  501    0  0.00000000000E+00  0.00000000000E+00  0.18642132847E+04  0.18642132847E+04  0.25500000920E-02 0. -1.
       -2   -1    0    0    0  501  0.00000000000E+00  0.00000000000E+00 -0.11170090596E+04  0.11170090596E+04  0.25500000920E-02 0.  1.
    10030    2    1    2    0    0  0.00000000000E+00  0.00000000000E+00  0.74720422510E+03  0.29812223442E+04  0.28860652300E+04 0.  0.
        1    1    3    3  502    0  0.13924068862E+04 -0.35621186254E+03  0.50692865088E+03  0.15240277178E+04  0.50400001928E-02 0. -1.
       -1    1    3    3    0  502 -0.13924068862E+04  0.35621186254E+03  0.24027557421E+03  0.14571946264E+04  0.50400001928E-02 0.  1.
</event>
<event>
 5   0  0.3746518E-06  0.2883641E+04  0.7818609E-02  0.8277762E-01
       -1   -1    0    0    0  501  0.00000000000E+00  0.00000000000E+00  0.12698905534E+04  0.12698905534E+04  0.50400001928E-02 0.  1.
        1   -1    0    0  501    0  0.00000000000E+00  0.00000000000E+00 -0.16370276992E+04  0.16370276992E+04  0.50400001928E-02 0. -1.
    10030    2    1    2    0    0  0.00000000000E+00  0.00000000000E+00 -0.36713714578E+03  0.29069182526E+04  0.28836407618E+04 0.  0.
        4    1    3    3  502    0 -0.85174633606E+03 -0.11625144923E+04 -0.22788515387E+03  0.14590562094E+04  0.12699999809E+01 0.  1.
       -4    1    3    3    0  502  0.85174633606E+03  0.11625144923E+04 -0.13925199191E+03  0.14478620432E+04  0.12699999809E+01 0. -1.
</event>
<event>
 5   0  0.3746518E-06  0.3275561E+04  0.7818609E-02  0.8169142E-01
        1   -1    0    0  501    0  0.00000000000E+00  0.00000000000E+00  0.17896339563E+04  0.17896339563E+04  0.50400001928E-02 0.  1.
       -1   -1    0    0    0  501  0.00000000000E+00  0.00000000000E+00 -0.14988121297E+04  0.14988121297E+04  0.50400001928E-02 0. -1.
    10030    2    1    2    0    0  0.00000000000E+00  0.00000000000E+00  0.29082182662E+03  0.32884460860E+04  0.32755610704E+04 0.  0.
        4    1    3    3  502    0 -0.83393067807E+03  0.13630529768E+04  0.50594707265E+03  0.16761079460E+04  0.12699999809E+01 0. -1.
       -4    1    3    3    0  502  0.83393067807E+03 -0.13630529768E+04 -0.21512524603E+03  0.16123381400E+04  0.12699999809E+01 0.  1.
</event>
<event>
 5   0  0.3486236E-06  0.2728371E+04  0.7818609E-02  0.8325858E-01
       -1   -1    0    0    0  501  0.00000000000E+00  0.00000000000E+00  0.94245396055E+03  0.94245396056E+03  0.50400001928E-02 0. -1.
        1   -1    0    0  501    0  0.00000000000E+00  0.00000000000E+00 -0.19746348364E+04  0.19746348364E+04  0.50400001928E-02 0.  1.
    10030    2    1    2    0    0  0.00000000000E+00  0.00000000000E+00 -0.10321808758E+04  0.29170887969E+04  0.27283712520E+04 0.  0.
        5    1    3    3  502    0 -0.48384497209E+03  0.30434373268E+03 -0.18404141245E+04  0.19271422636E+04  0.46999998093E+01 0.  1.
       -5    1    3    3    0  502  0.48384497209E+03 -0.30434373268E+03  0.80823324864E+03  0.98994653333E+03  0.46999998093E+01 0. -1.
</event>
<event>
 5   0  0.9505359E-06  0.2935800E+04  0.7818609E-02  0.8262305E-01
        2   -1    0    0  501    0  0.00000000000E+00  0.00000000000E+00  0.17198755474E+04  0.17198755474E+04  0.25500000920E-02 0. -1.
       -2   -1    0    0    0  501  0.00000000000E+00  0.00000000000E+00 -0.12528410871E+04  0.12528410871E+04  0.25500000920E-02 0.  1.
    10030    2    1    2    0    0  0.00000000000E+00  0.00000000000E+00  0.46703446031E+03  0.29727166346E+04  0.29358002320E+04 0.  0.
        4    1    3    3  502    0 -0.59343580703E+03 -0.72438498870E+03 -0.91110839024E+03  0.13065296708E+04  0.12699999809E+01 0.  1.
       -4    1    3    3    0  502  0.59343580703E+03  0.72438498870E+03  0.13781428505E+04  0.16661869638E+04  0.12699999809E+01 0. -1.
</event>
<event>
 5   0  0.3486236E-06  0.2861837E+04  0.7818609E-02  0.8284324E-01
       -1   -1    0    0    0  501  0.00000000000E+00  0.00000000000E+00  0.17866852050E+04  0.17866852050E+04  0.50400001928E-02 0.  1.
        1   -1    0    0  501    0  0.00000000000E+00  0.00000000000E+00 -0.11459920611E+04  0.11459920611E+04  0.50400001928E-02 0. -1.
    10030    2    1    2    0    0  0.00000000000E+00  0.00000000000E+00  0.64069314393E+03  0.29326772660E+04  0.28618365156E+04 0.  0.
        5    1    3    3  502    0  0.97999504908E+03  0.82506182949E+03 -0.33291889866E+03  0.13236216989E+04  0.46999998093E+01 0. -1.
       -5    1    3    3    0  502 -0.97999504908E+03 -0.82506182949E+03  0.97361204259E+03  0.16090555672E+04  0.46999998093E+01 0.  1.
</event>
<event>
 5   0  0.9646321E-06  0.3158624E+04  0.7818609E-02  0.8199831E-01
       -2   -1    0    0    0  501  0.00000000000E+00  0.00000000000E+00  0.14927362418E+04  0.14927362418E+04  0.25500000920E-02 0. -1.
        2   -1    0    0  501    0  0.00000000000E+00  0.00000000000E+00 -0.16709093739E+04  0.16709093739E+04  0.25500000920E-02 0.  1.
    10030    2    1    2    0    0  0.00000000000E+00  0.00000000000E+00 -0.17817313211E+03  0.31636456157E+04  0.31586243709E+04 0.  0.
        3    1    3    3  502    0 -0.12978693656E+04 -0.74701001664E+03  0.41344614232E+03  0.15535207040E+04  0.10100000352E+00 0. -1.
       -3    1    3    3    0  502  0.12978693656E+04  0.74701001664E+03 -0.59161927443E+03  0.16101249116E+04  0.10100000352E+00 0.  1.
</event>
<event>
 5   0  0.9646321E-06  0.2878201E+04  0.7818609E-02  0.8279393E-01
       -2   -1    0    0    0  501  0.00000000000E+00  0.00000000000E+00  0.11984877213E+04  0.11984877213E+04  0.25500000920E-02 0. -1.
        2   -1    0    0  501    0  0.00000000000E+00  0.00000000000E+00 -0.17280193921E+04  0.17280193921E+04  0.25500000920E-02 0.  1.
    10030    2    1    2    0    0  0.00000000000E+00  0.00000000000E+00 -0.52953167083E+03  0.29265071133E+04  0.28782008432E+04 0.  0.
        3    1    3    3  502    0 -0.76863551930E+03  0.19955023404E+03 -0.14850708882E+04  0.16840595033E+04  0.10100000352E+00 0.  1.
       -3    1    3    3    0  502  0.76863551930E+03 -0.19955023404E+03  0.95553921740E+03  0.12424476100E+04  0.10100000352E+00 0. -1.
</event>
<event>
 5   0  0.3188375E-06  0.2873910E+04  0.7818609E-02  0.8280683E-01
        3   -1    0    0  501    0  0.00000000000E+00  0.00000000000E+00  0.23383541348E+04  0.23383541370E+04  0.10100000352E+00 0.  1.
       -3   -1    0    0    0  501  0.00000000000E+00  0.00000000000E+00 -0.88303124450E+03  0.88303125027E+03  0.10100000352E+00 0. -1.
    10030    2    1    2    0    0  0.00000000000E+00  0.00000000000E+00  0.14553228903E+04  0.32213853872E+04  0.28739100713E+04 0.  0.
        4    1    3    3  502    0  0.79314352720E+03 -0.98491253600E+03  0.14926003218E+04  0.19562685633E+04  0.12699999809E+01 0.  1.
       -4    1    3    3    0  502 -0.79314352720E+03  0.98491253600E+03 -0.37277431542E+02  0.12651168239E+04  0.12699999809E+01 0. -1.
</event>
<event>
 5   0  0.3486236E-06  0.2877739E+04  0.7818609E-02  0.8279532E-01
        1   -1    0    0  501    0  0.00000000000E+00  0.00000000000E+00  0.19019473188E+04  0.19019473188E+04  0.50400001928E-02 0.  1.
       -1   -1    0    0    0  501  0.00000000000E+00  0.00000000000E+00 -0.10885399520E+04  0.10885399520E+04  0.50400001928E-02 0. -1.
    10030    2    1    2    0    0  0.00000000000E+00  0.00000000000E+00  0.81340736679E+03  0.29904872708E+04  0.28777391425E+04 0.  0.
        5    1    3    3  502    0 -0.26937996800E+03  0.12950077413E+04 -0.18179944099E+03  0.13351718031E+04  0.46999998093E+01 0. -1.
       -5    1    3    3    0  502  0.26937996800E+03 -0.12950077413E+04  0.99520680778E+03  0.16553154676E+04  0.46999998093E+01 0.  1.
</event>
<event>
 5   0  0.9646321E-06  0.2939177E+04  0.7818609E-02  0.8261316E-01
        2   -1    0    0  501    0  0.00000000000E+00  0.00000000000E+00  0.19751762483E+04  0.19751762483E+04  0.25500000920E-02 0. -1.
       -2   -1    0    0    0  501  0.00000000000E+00  0.00000000000E+00 -0.10934166375E+04  0.10934166375E+04  0.25500000920E-02 0.  1.
    10030    2    1    2    0    0  0.00000000000E+00  0.00000000000E+00  0.88175961078E+03  0.30685928857E+04  0.29391771446E+04 0.  0.
        3    1    3    3  502    0 -0.54234188840E+03 -0.35910480639E+03  0.18167053140E+04  0.19296396540E+04  0.10100000352E+00 0. -1.
       -3    1    3    3    0  502  0.54234188840E+03  0.35910480639E+03 -0.93494570327E+03  0.11389532318E+04  0.10100000352E+00 0.  1.
</event>
<event>
 5   0  0.3188375E-06  0.2886675E+04  0.7818609E-02  0.8276853E-01
       -3   -1    0    0    0  501  0.00000000000E+00  0.00000000000E+00  0.22700306476E+04  0.22700306499E+04  0.10100000352E+00 0. -1.
        3   -1    0    0  501    0  0.00000000000E+00  0.00000000000E+00 -0.91770717530E+03  0.91770718085E+03  0.10100000352E+00 0.  1.
    10030    2    1    2    0    0  0.00000000000E+00  0.00000000000E+00  0.13523234723E+04  0.31877378307E+04  0.28866751989E+04 0.  0.
        5    1    3    3  502    0 -0.75606162658E+03 -0.27491918252E+03  0.19994687813E+04  0.21552510846E+04  0.46999998093E+01 0. -1.
       -5    1    3    3    0  502  0.75606162658E+03  0.27491918252E+03 -0.64714530896E+03  0.10324867462E+04  0.46999998093E+01 0.  1.
</event>
<event>
 5   0  0.9251510E-06  0.2898894E+04  0.7818609E-02  0.8273206E-01
       -2   -1    0    0    0  501  0.00000000000E+00  0.00000000000E+00  0.26892645588E+04  0.26892645588E+04  0.25500000920E-02 0.  1.
        2   -1    0    0  501    0  0.00000000000E+00  0.00000000000E+00 -0.78121626851E+03  0.78121626851E+03  0.25500000920E-02 0. -1.
    10030    2    1    2    0    0  0.00000000000E+00  0.00000000000E+00  0.19080482902E+04  0.34704808273E+04  0.28988944262E+04 0.  0.
        2    1    3    3  502    0 -0.10169700492E+04 -0.44861349281E+03  0.20677273739E+04  0.23475473668E+04  0.25500000920E-02 0.  1.
       -2    1    3    3    0  502  0.10169700492E+04  0.44861349281E+03 -0.15967908362E+03  0.11229334604E+04  0.25500000920E-02 0. -1.
</event>
<event>
 5   0  0.1001573E-05  0.2738129E+04  0.7818609E-02  0.8322739E-01
        2   -1    0    0  501    0  0.00000000000E+00  0.00000000000E+00  0.19219480499E+04  0.19219480499E+04  0.25500000920E-02 0. -1.
       -2   -1    0    0    0  501  0.00000000000E+00  0.00000000000E+00 -0.97522786520E+03  0.97522786520E+03  0.25500000920E-02 0.  1.
    10030    2    1    2    0    0  0.00000000000E+00  0.00000000000E+00  0.94672018469E+03  0.28971759151E+04  0.27381287725E+04 0.  0.
        1    1    3    3  502    0 -0.38246990414E+03 -0.75582198630E+03  0.16113744277E+04  0.18204608342E+04  0.50400001928E-02 0. -1.
       -1    1    3    3    0  502  0.38246990414E+03  0.75582198630E+03 -0.66465424305E+03  0.10767150809E+04  0.50400001928E-02 0.  1.
</event>
<event>
 5   0  0.3564340E-06  0.2648022E+04  0.7818609E-02  0.8352070E-01
       -1   -1    0    0    0  501  0.00000000000E+00  0.00000000000E+00  0.99980945731E+03  0.99980945733E+03  0.50400001928E-02 0.  1.
        1   -1    0    0  501    0  0.00000000000E+00  0.00000000000E+00 -0.17533387818E+04  0.17533387818E+04  0.50400001928E-02 0. -1.
    10030    2    1    2    0    0  0.00000000000E+00  0.00000000000E+00 -0.75352932452E+03  0.27531482392E+04  0.26480216736E+04 0.  0.
        1    1    3    3  502    0  0.12681016147E+04 -0.19943221264E+03 -0.71390619069E+03  0.14688488560E+04  0.50400001928E-02 0. -1.
       -1    1    3    3    0  502 -0.12681016147E+04  0.19943221264E+03 -0.39623133823E+02  0.12842993831E+04  0.50400001928E-02 0.  1.
</event>
<event>
 5   0  0.9505359E-06  0.2907400E+04  0.7818609E-02  0.8270679E-01
       -2   -1    0    0    0  501  0.00000000000E+00  0.00000000000E+00  0.11900822969E+04  0.11900822969E+04  0.25500000920E-02 0.  1.
        2   -1    0    0  501    0  0.00000000000E+00  0.00000000000E+00 -0.17757117703E+04  0.17757117703E+04  0.25500000920E-02 0. -1.
    10030    2    1    2    0    0  0.00000000000E+00  0.00000000000E+00 -0.58562947338E+03  0.29657940672E+04  0.29073996232E+04 0.  0.
        4    1    3    3  502    0 -0.12482825071E+04 -0.73636428976E+03 -0.40822390422E+03  0.15056858748E+04  0.12699999809E+01 0.  1.
       -4    1    3    3    0  502  0.12482825071E+04  0.73636428976E+03 -0.17740556916E+03  0.14601081924E+04  0.12699999809E+01 0. -1.
</event>
<event>
 5   0  0.9505359E-06  0.2883912E+04  0.7818609E-02  0.8277680E-01
        2   -1    0    0  501    0  0.00000000000E+00  0.00000000000E+00  0.16204038355E+04  0.16204038355E+04  0.25500000920E-02 0.  1.
       -2   -1    0    0    0  501  0.00000000000E+00  0.00000000000E+00 -0.12831601997E+04  0.12831601997E+04  0.25500000920E-02 0. -1.
    10030    2    1    2    0    0  0.00000000000E+00  0.00000000000E+00  0.33724363582E+03  0.29035640352E+04  0.28839124184E+04 0.  0.
        4    1    3    3  502    0 -0.39255390547E+02 -0.12973049247E+04  0.80115043290E+03  0.15252490558E+04  0.12699999809E+01 0.  1.
       -4    1    3    3    0  502  0.39255390547E+02  0.12973049247E+04 -0.46390679708E+03  0.13783149794E+04  0.12699999809E+01 0. -1.
</event>
<event>
 5   0  0.9360689E-06  0.2898167E+04  0.7818609E-02  0.8273423E-01
        2   -1    0    0  501    0  0.00000000000E+00  0.00000000000E+00  0.23707530129E+04  0.23707530129E+04  0.25500000920E-02 0. -1.
       -2   -1    0    0    0  501  0.00000000000E+00  0.00000000000E+00 -0.88572819410E+03  0.88572819411E+03  0.25500000920E-02 0.  1.
    10030    2    1    2    0    0  0.00000000000E+00  0.00000000000E+00  0.14850248188E+04  0.32564812070E+04  0.28981668584E+04 0.  0.
        5    1    3    3  502    0  0.20622633922E+03 -0.19940366384E+03 -0.85349588787E+03  0.90042681255E+03  0.46999998093E+01 0.  1.
       -5    1    3    3    0  502 -0.20622633922E+03  0.19940366384E+03  0.23385207067E+04  0.23560543945E+04  0.46999998093E+01 0. -1.
</event>
<event>
 5   0  0.3746518E-06  0.2872190E+04  0.7818609E-02  0.8281200E-01
       -1   -1    0    0    0  501  0.00000000000E+00  0.00000000000E+00  0.90441410290E+03  0.90441410291E+03  0.50400001928E-02 0.  1.
        1   -1    0    0  501    0  0.00000000000E+00  0.00000000000E+00 -0.22803374411E+04  0.22803374411E+04  0.50400001928E-02 0. -1.
    10030    2    1    2    0    0  0.00000000000E+00  0.00000000000E+00 -0.13759233382E+04  0.31847515441E+04  0.28721903427E+04 0.  0.
        4    1    3    3  502    0  0.12778790510E+03  0.59102865124E+03 -0.21322963090E+04  0.22163785276E+04  0.12699999809E+01 0. -1.
       -4    1    3    3    0  502 -0.12778790510E+03 -0.59102865124E+03  0.75637297075E+03  0.96837301648E+03  0.12699999809E+01 0.  1.
</event>
<event>
 5   0  0.3649705E-06  0.3150315E+04  0.7818609E-02  0.8202064E-01
        1   -1    0    0  501    0  0.00000000000E+00  0.00000000000E+00  0.12318747357E+04  0.12318747357E+04  0.50400001928E-02 0. -1.
       -1   -1    0    0    0  501  0.00000000000E+00  0.00000000000E+00 -0.20141015771E+04  0.20141015771E+04  0.50400001928E-02 0.  1.
    10030    2    1    2    0    0  0.00000000000E+00  0.00000000000E+00 -0.78222684143E+03  0.32459763129E+04  0.31503148084E+04 0.  0.
        2    1    3    3  502    0  0.12159562163E+04  0.89604123305E+03 -0.85153984273E+03  0.17339433425E+04  0.25500000920E-02 0.  1.
       -2    1    3    3    0  502 -0.12159562163E+04 -0.89604123305E+03  0.69313001301E+02  0.15120329704E+04  0.25500000920E-02 0. -1.
</event>
<event>
 5   0  0.9646321E-06  0.2892942E+04  0.7818609E-02  0.8274980E-01
       -2   -1    0    0    0  501  0.00000000000E+00  0.00000000000E+00  0.17286519549E+04  0.17286519549E+04  0.25500000920E-02 0.  1.
        2   -1    0    0  501    0  0.00000000000E+00  0.00000000000E+00 -0.12103528764E+04  0.12103528764E+04  0.25500000920E-02 0. -1.
    10030    2    1    2    0    0  0.00000000000E+00  0.00000000000E+00  0.51829907850E+03  0.29390048313E+04  0.28929423540E+04 0.  0.
        3    1    3    3  502    0  0.16577727020E+03  0.12942161810E+04  0.89343115278E+03  0.15813591817E+04  0.10100000352E+00 0.  1.
       -3    1    3    3    0  502 -0.16577727020E+03 -0.12942161810E+04 -0.37513207428E+03  0.13576456496E+04  0.10100000352E+00 0. -1.
</event>
<event>
 5   0  0.9505359E-06  0.2979323E+04  0.7818609E-02  0.8249660E-01
        2   -1    0    0  501    0  0.00000000000E+00  0.00000000000E+00  0.17283784154E+04  0.17283784154E+04  0.25500000920E-02 0. -1.
       -2   -1    0    0    0  501  0.00000000000E+00  0.00000000000E+00 -0.12839155213E+04  0.12839155213E+04  0.25500000920E-02 0.  1.
    10030    2    1    2    0    0  0.00000000000E+00  0.00000000000E+00  0.44446289410E+03  0.30122939366E+04  0.29793233286E+04 0.  0.
        4    1    3    3  502    0  0.13334961658E+04 -0.21700223676E+03  0.85670145295E+03  0.15997627910E+04  0.12699999809E+01 0. -1.
       -4    1    3    3    0  502 -0.13334961658E+04  0.21700223676E+03 -0.41223855885E+03  0.14125311456E+04  0.12699999809E+01 0.  1.
</event>
<event>
 5   0  0.9505359E-06  0.2778788E+04  0.7818609E-02  0.8309884E-01
       -2   -1    0    0    0  501  0.00000000000E+00  0.00000000000E+00  0.10286643757E+04  0.10286643757E+04  0.25500000920E-02 0. -1.
        2   -1    0    0  501    0  0.00000000000E+00  0.00000000000E+00 -0.18766240917E+04  0.18766240917E+04  0.25500000920E-02 0.  1.
    10030    2    1    2    0    0  0.00000000000E+00  0.00000000000E+00 -0.84795971603E+03  0.29052884674E+04  0.27787884768E+04 0.  0.
        4    1    3    3  502    0 -0.11754621802E+04  0.58246680614E+03 -0.90245485802E+03  0.15922956073E+04  0.12699999809E+01 0.  1.
       -4    1    3    3    0  502  0.11754621802E+04 -0.58246680614E+03  0.54495141990E+02  0.13129928601E+04  0.12699999809E+01 0. -1.
</event>
<event>
 5   0  0.3474078E-06  0.2696199E+04  0.7818609E-02  0.8336239E-01
        1   -1    0    0  501    0  0.00000000000E+00  0.00000000000E+00  0.15009654973E+04  0.15009654973E+04  0.50400001928E-02 0. -1.
       -1   -1    0    0    0  501  0.00000000000E+00  0.00000000000E+00 -0.12108018829E+04  0.12108018829E+04  0.50400001928E-02 0.  1.
    10030    2    1    2    0    0  0.00000000000E+00  0.00000000000E+00  0.29016361443E+03  0.27117673803E+04  0.26961986947E+04 0.  0.
        3    1    3    3  502    0 -0.78720251347E+03  0.34259061482E+03 -0.90030227943E+03  0.12440258563E+04  0.10100000352E+00 0.  1.
       -3    1    3    3    0  502  0.78720251347E+03 -0.34259061482E+03  0.11904658939E+04  0.14677415240E+04  0.10100000352E+00 0. -1.
</event>
<event>
 5   0  0.3564340E-06  0.2336846E+04  0.7818609E-02  0.8463533E-01
       -1   -1    0    0    0  501  0.00000000000E+00  0.00000000000E+00  0.13187550006E+04  0.13187550007E+04  0.50400001928E-02 0. -1.
        1   -1    0    0  501    0  0.00000000000E+00  0.00000000000E+00 -0.10352278219E+04  0.10352278219E+04  0.50400001928E-02 0.  1.
    10030    2    1    2    0    0  0.00000000000E+00  0.00000000000E+00  0.28352717874E+03  0.23539828226E+04  0.23368456235E+04 0.  0.
        1    1    3    3  502    0  0.83446148753E+03 -0.55848636198E+03 -0.46009508665E+03  0.11045001039E+04  0.50400001928E-02 0.  1.
       -1    1    3    3    0  502 -0.83446148753E+03  0.55848636198E+03  0.74362226539E+03  0.12494827187E+04  0.50400001928E-02 0. -1.
</event>
<event>
 5   0  0.3649705E-06  0.2942250E+04  0.7818609E-02  0.8260417E-01
       -1   -1    0    0    0  501  0.00000000000E+00  0.00000000000E+00  0.17090693395E+04  0.17090693396E+04  0.50400001928E-02 0. -1.
        1   -1    0    0  501    0  0.00000000000E+00  0.00000000000E+00 -0.12663080722E+04  0.12663080722E+04  0.50400001928E-02 0.  1.
    10030    2    1    2    0    0  0.00000000000E+00  0.00000000000E+00  0.44276126735E+03  0.29753774118E+04  0.29422496839E+04 0.  0.
        2    1    3    3  502    0  0.70385733237E+02  0.13945518780E+04 -0.24695277147E+03  0.14179967430E+04  0.25500000920E-02 0. -1.
       -2    1    3    3    0  502 -0.70385733237E+02 -0.13945518780E+04  0.68971403882E+03  0.15573806687E+04  0.25500000920E-02 0.  1.
</event>
<event>
 5   0  0.1001573E-05  0.2955609E+04  0.7818609E-02  0.8256522E-01
        2   -1    0    0  501    0  0.00000000000E+00  0.00000000000E+00  0.13046908821E+04  0.13046908821E+04  0.25500000920E-02 0.  1.
       -2   -1    0    0    0  501  0.00000000000E+00  0.00000000000E+00 -0.16738872495E+04  0.16738872495E+04  0.25500000920E-02 0. -1.
    10030    2    1    2    0    0  0.00000000000E+00  0.00000000000E+00 -0.36919636738E+03  0.29785781316E+04  0.29556085208E+04 0.  0.
        1    1    3    3  502    0 -0.10999304795E+04  0.57575980983E+03  0.62322924843E+03  0.13891584195E+04  0.50400001928E-02 0.  1.
       -1    1    3    3    0  502  0.10999304795E+04 -0.57575980983E+03 -0.99242561581E+03  0.15894197121E+04  0.50400001928E-02 0. -1.
</event>
<event>
 5   0  0.9505359E-06  0.2953170E+04  0.7818609E-02  0.8257231E-01
        2   -1    0    0  501    0  0.00000000000E+00  0.00000000000E+00  0.14306543507E+04  0.14306543507E+04  0.25500000920E-02 0. -1.
       -2   -1    0    0    0  501  0.00000000000E+00  0.00000000000E+00 -0.15239906010E+04  0.15239906010E+04  0.25500000920E-02 0.  1.
    10030    2    1    2    0    0  0.00000000000E+00  0.00000000000E+00 -0.93336250271E+02  0.29546449516E+04  0.29531703531E+04 0.  0.
        4    1    3    3  502    0 -0.10326645564E+04  0.86596763008E+03  0.55696235421E+03  0.14582539900E+04  0.12699999809E+01 0. -1.
       -4    1    3    3    0  502  0.10326645564E+04 -0.86596763008E+03 -0.65029860449E+03  0.14963909617E+04  0.12699999809E+01 0.  1.
</event>
<event>
 5   0  0.3486236E-06  0.2876949E+04  0.7818609E-02  0.8279769E-01
       -1   -1    0    0    0  501  0.00000000000E+00  0.00000000000E+00  0.11616840346E+04  0.11616840346E+04  0.50400001928E-02 0.  1.
        1   -1    0    0  501    0  0.00000000000E+00  0.00000000000E+00 -0.17812151941E+04  0.17812151941E+04  0.50400001928E-02 0. -1.
    10030    2    1    2    0    0  0.00000000000E+00  0.00000000000E+00 -0.61953115948E+03  0.29428992287E+04  0.28769492545E+04 0.  0.
        5    1    3    3  502    0 -0.80114530137E+03 -0.72102630134E+03  0.66468628456E+03  0.12663106523E+04  0.46999998093E+01 0.  1.
       -5    1    3    3    0  502  0.80114530137E+03  0.72102630134E+03 -0.12842174440E+04  0.16765885765E+04  0.46999998093E+01 0. -1.
</event>
<event>
 5   0  0.1001573E-05  0.2864380E+04  0.7818609E-02  0.8283555E-01
       -2   -1    0    0    0  501  0.00000000000E+00  0.00000000000E+00  0.11748194037E+04  0.11748194037E+04  0.25500000920E-02 0.  1.
        2   -1    0    0  501    0  0.00000000000E+00  0.00000000000E+00 -0.17459439712E+04  0.17459439712E+04  0.25500000920E-02 0. -1.
    10030    2    1    2    0    0  0.00000000000E+00  0.00000000000E+00 -0.57112456755E+03  0.29207633749E+04  0.28643804602E+04 0.  0.
        1    1    3    3  502    0 -0.10112100678E+04  0.43907780127E+03  0.64667318039E+03  0.12780928444E+04  0.50400001928E-02 0.  1.
       -1    1    3    3    0  502  0.10112100678E+04 -0.43907780127E+03 -0.12177977479E+04  0.16426705305E+04  0.50400001928E-02 0. -1.
</event>
<event>
 5   0  0.3474078E-06  0.2878619E+04  0.7818609E-02  0.8279267E-01
       -1   -1    0    0    0  501  0.00000000000E+00  0.00000000000E+00  0.12180202970E+04  0.12180202970E+04  0.50400001928E-02 0.  1.
        1   -1    0    0  501    0  0.00000000000E+00  0.00000000000E+00 -0.17008029536E+04  0.17008029536E+04  0.50400001928E-02 0. -1.
    10030    2    1    2    0    0  0.00000000000E+00  0.00000000000E+00 -0.48278265661E+03  0.29188232505E+04  0.28786194737E+04 0.  0.
        3    1    3    3  502    0 -0.10137827924E+04 -0.51203360778E+03 -0.11378651939E+04  0.16076912562E+04  0.10100000352E+00 0. -1.
       -3    1    3    3    0  502  0.10137827924E+04  0.51203360778E+03  0.65508253727E+03  0.13111319943E+04  0.10100000352E+00 0.  1.
</event>
<event>
 5   0  0.3486236E-06  0.2930931E+04  0.7818609E-02  0.8263734E-01
        1   -1    0    0  501    0  0.00000000000E+00  0.00000000000E+00  0.14260569629E+04  0.14260569629E+04  0.50400001928E-02 0.  1.
       -1   -1    0    0    0  501  0.00000000000E+00  0.00000000000E+00 -0.15059631213E+04  0.15059631213E+04  0.50400001928E-02 0. -1.
    10030    2    1    2    0    0  0.00000000000E+00  0.00000000000E+00 -0.79906158418E+02  0.29320200842E+04  0.29309310432E+04 0.  0.
        5    1    3    3  502    0 -0.82716645527E+03  0.11643348255E+04 -0.36823225234E+03  0.14749566137E+04  0.46999998093E+01 0. -1.
       -5    1    3    3    0  502  0.82716645527E+03 -0.11643348255E+04  0.28832609392E+03  0.14570634705E+04  0.46999998093E+01 0.  1.
</event>
<event>
 5   0  0.3486236E-06  0.2870973E+04  0.7818609E-02  0.8281566E-01
        1   -1    0    0  501    0  0.00000000000E+00  0.00000000000E+00  0.17091644205E+04  0.17091644205E+04  0.50400001928E-02 0. -1.
       -1   -1    0    0    0  501  0.00000000000E+00  0.00000000000E+00 -0.12056312254E+04  0.12056312254E+04  0.50400001928E-02 0.  1.
    10030    2    1    2    0    0  0.00000000000E+00  0.00000000000E+00  0.50353319514E+03  0.29147956459E+04  0.28709733504E+04 0.  0.
        5    1    3    3  502    0 -0.41395600339E+03 -0.92545577830E+03  0.12835324841E+04  0.16356361753E+04  0.46999998093E+01 0. -1.
       -5    1    3    3    0  502  0.41395600339E+03  0.92545577830E+03 -0.77999928897E+03  0.12791594706E+04  0.46999998093E+01 0.  1.
</event>
<event>
 5   0  0.9360689E-06  0.2866087E+04  0.7818609E-02  0.8283040E-01
       -2   -1    0    0    0  501  0.00000000000E+00  0.00000000000E+00  0.83685142588E+03  0.83685142588E+03  0.25500000920E-02 0.  1.
        2   -1    0    0  501    0  0.00000000000E+00  0.00000000000E+00 -0.24539768250E+04  0.24539768250E+04  0.25500000920E-02 0. -1.
    10030    2    1    2    0    0  0.00000000000E+00  0.00000000000E+00 -0.16171253991E+04  0.32908282509E+04  0.28660872318E+04 0.  0.
        5    1    3    3  502    0 -0.10146246110E+03 -0.97765991481E+03  0.38880110985E+03  0.10570250390E+04  0.46999998093E+01 0.  1.
       -5    1    3    3    0  502  0.10146246110E+03  0.97765991481E+03 -0.20059265090E+04  0.22338032119E+04  0.46999998093E+01 0. -1.
</event>
<event>
 5   0  0.9360689E-06  0.2928133E+04  0.7818609E-02  0.8264556E-01
        2   -1    0    0  501    0  0.00000000000E+00  0.00000000000E+00  0.13117613047E+04  0.13117613047E+04  0.25500000920E-02 0. -1.
       -2   -1    0    0    0  501  0.00000000000E+00  0.00000000000E+00 -0.16340553080E+04  0.16340553080E+04  0.25500000920E-02 0.  1.
    10030    2    1    2    0    0  0.00000000000E+00  0.00000000000E+00 -0.32229400334E+03  0.29458166127E+04  0.29281328677E+04 0.  0.
        5    1    3    3  502    0 -0.60750388520E+03  0.10785917150E+04 -0.94756305228E+03  0.15589480062E+04  0.46999998093E+01 0.  1.
       -5    1    3    3    0  502  0.60750388520E+03 -0.10785917150E+04  0.62526904893E+03  0.13868686065E+04  0.46999998093E+01 0. -1.
</event>
<event>
 5   0  0.9251510E-06  0.2929455E+04  0.7818609E-02  0.8264167E-01
        2   -1    0    0  501    0  0.00000000000E+00  0.00000000000E+00  0.20882975877E+04  0.20882975877E+04  0.25500000920E-02 0.  1.
       -2   -1    0    0    0  501  0.00000000000E+00  0.00000000000E+00 -0.10273570263E+04  0.10273570263E+04  0.25500000920E-02 0. -1.
    10030    2    1    2    0    0  0.00000000000E+00  0.00000000000E+00  0.10609405615E+04  0.31156546140E+04  0.29294553758E+04 0.  0.
        2    1    3    3  502    0  0.67313188290E+03  0.12828983551E+04  0.75979653135E+03  0.16359173238E+04  0.25500000920E-02 0.  1.
       -2    1    3    3    0  502 -0.67313188290E+03 -0.12828983551E+04  0.30114403011E+03  0.14797372902E+04  0.25500000920E-02 0. -1.
</event>
<event>
 5   0  0.3564340E-06  0.2933403E+04  0.7818609E-02  0.8263008E-01
        1   -1    0    0  501    0  0.00000000000E+00  0.00000000000E+00  0.13395805404E+04  0.13395805404E+04  0.50400001928E-02 0.  1.
       -1   -1    0    0    0  501  0.00000000000E+00  0.00000000000E+00 -0.16058859498E+04  0.16058859498E+04  0.50400001928E-02 0. -1.
    10030    2    1    2    0    0  0.00000000000E+00  0.00000000000E+00 -0.26630540936E+03  0.29454664902E+04  0.29334031898E+04 0.  0.
        1    1    3    3  502    0  0.13690707353E+04  0.17515882582E+03 -0.63135668088E+03  0.15177768449E+04  0.50400001928E-02 0. -1.
       -1    1    3    3    0  502 -0.13690707353E+04 -0.17515882582E+03  0.36505127151E+03  0.14276896453E+04  0.50400001928E-02 0.  1.
</event>
<event>
 5   0  0.9360689E-06  0.2875953E+04  0.7818609E-02  0.8280068E-01
       -2   -1    0    0    0  501  0.00000000000E+00  0.00000000000E+00  0.99952654391E+03  0.99952654391E+03  0.25500000920E-02 0. -1.
        2   -1    0    0  501    0  0.00000000000E+00  0.00000000000E+00 -0.20687559684E+04  0.20687559684E+04  0.25500000920E-02 0.  1.
    10030    2    1    2    0    0  0.00000000000E+00  0.00000000000E+00 -0.10692294245E+04  0.30682825123E+04  0.28759530617E+04 0.  0.
        5    1    3    3  502    0 -0.52778295951E+03 -0.48170908339E+03 -0.18659259616E+04  0.19980741421E+04  0.46999998093E+01 0.  1.
       -5    1    3    3    0  502  0.52778295951E+03  0.48170908339E+03  0.79669653709E+03  0.10702083702E+04  0.46999998093E+01 0. -1.
</event>
<event>
 5   0  0.3486236E-06  0.2805093E+04  0.7818609E-02  0.8301689E-01
        1   -1    0    0  501    0  0.00000000000E+00  0.00000000000E+00  0.16628890412E+04  0.16628890412E+04  0.50400001928E-02 0. -1.
       -1   -1    0    0    0  501  0.00000000000E+00  0.00000000000E+00 -0.11829629304E+04  0.11829629304E+04  0.50400001928E-02 0.  1.
    10030    2    1    2    0    0  0.00000000000E+00  0.00000000000E+00  0.47992611072E+03  0.28458519716E+04  0.28050925783E+04 0.  0.
        5    1    3    3  502    0  0.88537499762E+03 -0.75422598712E+03 -0.55524267058E+03  0.12888220355E+04  0.46999998093E+01 0.  1.
       -5    1    3    3    0  502 -0.88537499762E+03  0.75422598712E+03  0.10351687813E+04  0.15570299361E+04  0.46999998093E+01 0. -1.
</event>
<event>
 5   0  0.9646321E-06  0.2898363E+04  0.7818609E-02  0.8273365E-01
        2   -1    0    0  501    0  0.00000000000E+00  0.00000000000E+00  0.16680603837E+04  0.16680603837E+04  0.25500000920E-02 0.  1.
       -2   -1    0    0    0  501  0.00000000000E+00  0.00000000000E+00 -0.12590238090E+04  0.12590238090E+04  0.25500000920E-02 0. -1.
    10030    2    1    2    0    0  0.00000000000E+00  0.00000000000E+00  0.40903657474E+03  0.29270841927E+04  0.28983634955E+04 0.  0.
        3    1    3    3  502    0 -0.14063524497E+04 -0.33613730795E+03  0.30197440377E+03  0.14771608082E+04  0.10100000352E+00 0.  1.
       -3    1    3    3    0  502  0.14063524497E+04  0.33613730795E+03  0.10706217096E+03  0.14499233846E+04  0.10100000352E+00 0. -1.
</event>
<event>
 5   0  0.9360689E-06  0.2812883E+04  0.7818609E-02  0.8299280E-01
        2   -1    0    0  501    0  0.00000000000E+00  0.00000000000E+00  0.25333682158E+04  0.25333682158E+04  0.25500000920E-02 0. -1.
       -2   -1    0    0    0  501  0.00000000000E+00  0.00000000000E+00 -0.78080949393E+03  0.78080949394E+03  0.25500000920E-02 0.  1.
    10030    2    1    2    0    0  0.00000000000E+00  0.00000000000E+00  0.17525587219E+04  0.33141777098E+04  0.28128831860E+04 0.  0.
        5    1    3    3  502    0 -0.11756893338E+03  0.78686453335E+03 -0.49018329641E+03  0.93449451685E+03  0.46999998093E+01 0.  1.
       -5    1    3    3    0  502  0.11756893338E+03 -0.78686453335E+03  0.22427420183E+04  0.23796831929E+04  0.46999998093E+01 0. -1.
</event>
<event>
 5   0  0.3746518E-06  0.2911591E+04  0.7818609E-02  0.8269437E-01
        1   -1    0    0  501    0  0.00000000000E+00  0.00000000000E+00  0.21183039218E+04  0.21183039218E+04  0.50400001928E-02 0.  1.
       -1   -1    0    0    0  501  0.00000000000E+00  0.00000000000E+00 -0.10004890495E+04  0.10004890495E+04  0.50400001928E-02 0. -1.
    10030    2    1    2    0    0  0.00000000000E+00  0.00000000000E+00  0.11178148723E+04  0.31187929713E+04  0.29115905463E+04 0.  0.
        4    1    3    3  502    0  0.13540946915E+03  0.23849503324E+03  0.20903817686E+04  0.21082962687E+04  0.12699999809E+01 0.  1.
       -4    1    3    3    0  502 -0.13540946915E+03 -0.23849503324E+03 -0.97256689634E+03  0.10104967026E+04  0.12699999809E+01 0. -1.
</event>
<event>
 5   0  0.9646321E-06  0.2872398E+04  0.7818609E-02  0.8281138E-01
        2   -1    0    0  501    0  0.00000000000E+00  0.00000000000E+00  0.27743022229E+04  0.27743022229E+04  0.25500000920E-02 0.  1.
       -2   -1    0    0    0  501  0.00000000000E+00  0.00000000000E+00 -0.74349042407E+03  0.74349042407E+03  0.25500000920E-02 0. -1.
    10030    2    1    2    0    0  0.00000000000E+00  0.00000000000E+00  0.20308117988E+04  0.35177926470E+04  0.28723976996E+04 0.  0.
        3    1    3    3  502    0  0.84570403702E+03 -0.95524201175E+03  0.18231105370E+04  0.22251819385E+04  0.10100000352E+00 0.  1.
       -3    1    3    3    0  502 -0.84570403702E+03  0.95524201175E+03  0.20770126186E+03  0.12926107085E+04  0.10100000352E+00 0. -1.
</event>
<event>
 5   0  0.9251510E-06  0.2659691E+04  0.7818609E-02  0.8348204E-01
        2   -1    0    0  501    0  0.00000000000E+00  0.00000000000E+00  0.14573911820E+04  0.14573911820E+04  0.25500000920E-02 0. -1.
       -2   -1    0    0    0  501  0.00000000000E+00  0.00000000000E+00 -0.12134621409E+04  0.12134621409E+04  0.25500000920E-02 0.  1.
    10030    2    1    2    0    0  0.00000000000E+00  0.00000000000E+00  0.24392904106E+03  0.26708533229E+04  0.26596909774E+04 0.  0.
        2    1    3    3  502    0  0.11516607583E+04 -0.60106474695E+02 -0.54304867733E+03  0.12746910043E+04  0.25500000920E-02 0.  1.
       -2    1    3    3    0  502 -0.11516607583E+04  0.60106474695E+02  0.78697771839E+03  0.13961623186E+04  0.25500000920E-02 0. -1.
</event>
<event>
 5   0  0.9505359E-06  0.2914944E+04  0.7818609E-02  0.8268445E-01
       -2   -1    0    0    0  501  0.00000000000E+00  0.00000000000E+00  0.18905188174E+04  0.18905188174E+04  0.25500000920E-02 0. -1.
        2   -1    0    0  501    0  0.00000000000E+00  0.00000000000E+00 -0.11236198483E+04  0.11236198483E+04  0.25500000920E-02 0.  1.
    10030    2    1    2    0    0  0.00000000000E+00  0.00000000000E+00  0.76689896904E+03  0.30141386657E+04  0.29149438875E+04 0.  0.
        4    1    3    3  502    0  0.23275474456E+03 -0.11443161528E+04 -0.51834576302E+03  0.12776220770E+04  0.12699999809E+01 0.  1.
       -4    1    3    3    0  502 -0.23275474456E+03  0.11443161528E+04  0.12852447321E+04  0.17365165887E+04  0.12699999809E+01 0. -1.
</event>
<event>
 5   0  0.9646321E-06  0.2905703E+04  0.7818609E-02  0.8271183E-01
        2   -1    0    0  501    0  0.00000000000E+00  0.00000000000E+00  0.17386391830E+04  0.17386391830E+04  0.25500000920E-02 0.  1.
       -2   -1    0    0    0  501  0.00000000000E+00  0.00000000000E+00 -0.12140399302E+04  0.12140399302E+04  0.25500000920E-02 0. -1.
    10030    2    1    2    0    0  0.00000000000E+00  0.00000000000E+00  0.52459925279E+03  0.29526791132E+04  0.29057029390E+04 0.  0.
        3    1    3    3  502    0  0.10182277515E+04  0.75954121055E+03 -0.45414255064E+03  0.13490500624E+04  0.10100000352E+00 0. -1.
       -3    1    3    3    0  502 -0.10182277515E+04 -0.75954121055E+03  0.97874180343E+03  0.16036290508E+04  0.10100000352E+00 0.  1.
</event>
<event>
 5   0  0.1001573E-05  0.2866087E+04  0.7818609E-02  0.8283040E-01
       -2   -1    0    0    0  501  0.00000000000E+00  0.00000000000E+00  0.14441411222E+04  0.14441411222E+04  0.25500000920E-02 0. -1.
        2   -1    0    0  501    0  0.00000000000E+00  0.00000000000E+00 -0.14220314804E+04  0.14220314804E+04  0.25500000920E-02 0.  1.
    10030    2    1    2    0    0  0.00000000000E+00  0.00000000000E+00  0.22109641870E+02  0.28661726026E+04  0.28660873245E+04 0.  0.
        1    1    3    3  502    0  0.12863766385E+04  0.38192201386E+03 -0.49193614527E+03  0.14292062314E+04  0.50400001928E-02 0.  1.
       -1    1    3    3    0  502 -0.12863766385E+04 -0.38192201386E+03  0.51404578714E+03  0.14369663712E+04  0.50400001928E-02 0. -1.
</event>
<event>
 5   0  0.1001573E-05  0.2898114E+04  0.7818609E-02  0.8273439E-01
        2   -1    0    0  501    0  0.00000000000E+00  0.00000000000E+00  0.16592934424E+04  0.16592934424E+04  0.25500000920E-02 0. -1.
       -2   -1    0    0    0  501  0.00000000000E+00  0.00000000000E+00 -0.12654577456E+04  0.12654577456E+04  0.25500000920E-02 0.  1.
    10030    2    1    2    0    0  0.00000000000E+00  0.00000000000E+00  0.39383569672E+03  0.29247511880E+04  0.28981136892E+04 0.  0.
        1    1    3    3  502    0  0.97581002871E+03  0.16010564924E+03  0.12658638105E+04  0.16063157279E+04  0.50400001928E-02 0. -1.
       -1    1    3    3    0  502 -0.97581002871E+03 -0.16010564924E+03 -0.87202811379E+03  0.13184354601E+04  0.50400001928E-02 0.  1.
</event>
<event>
 5   0  0.3564340E-06  0.2855357E+04  0.7818609E-02  0.8286285E-01
       -1   -1    0    0    0  501  0.00000000000E+00  0.00000000000E+00  0.10481641369E+04  0.10481641370E+04  0.50400001928E-02 0.  1.
        1   -1    0    0  501    0  0.00000000000E+00  0.00000000000E+00 -0.19446049887E+04  0.19446049887E+04  0.50400001928E-02 0. -1.
    10030    2    1    2    0    0  0.00000000000E+00  0.00000000000E+00 -0.89644085176E+03  0.29927691257E+04  0.28553565169E+04 0.  0.
        1    1    3    3  502    0  0.24408764149E+03 -0.31557259224E+03 -0.18849924484E+04  0.19267489115E+04  0.50400001928E-02 0. -1.
       -1    1    3    3    0  502 -0.24408764149E+03  0.31557259224E+03  0.98855159662E+03  0.10660202141E+04  0.50400001928E-02 0.  1.
</event>
<event>
 5   0  0.3649705E-06  0.2561440E+04  0.7818609E-02  0.8381418E-01
        1   -1    0    0  501    0  0.00000000000E+00  0.00000000000E+00  0.17184259805E+04  0.17184259805E+04  0.50400001928E-02 0.  1.
       -1   -1    0    0    0  501  0.00000000000E+00  0.00000000000E+00 -0.95450334773E+03  0.95450334774E+03  0.50400001928E-02 0. -1.
    10030    2    1    2    0    0  0.00000000000E+00  0.00000000000E+00  0.76392263281E+03  0.26729293283E+04  0.25614397133E+04 0.  0.
        2    1    3    3  502    0  0.15326449745E+02 -0.54076340579E+03 -0.82942081218E+03  0.99025190976E+03  0.25500000920E-02 0. -1.
       -2    1    3    3    0  502 -0.15326449745E+02  0.54076340579E+03  0.15933434450E+04  0.16826774185E+04  0.25500000920E-02 0.  1.
</event>
<event>
 5   0  0.1001573E-05  0.2900589E+04  0.7818609E-02  0.8272702E-01
       -2   -1    0    0    0  501  0.00000000000E+00  0.00000000000E+00  0.81008667621E+03  0.81008667622E+03  0.25500000920E-02 0.  1.
        2   -1    0    0  501    0  0.00000000000E+00  0.00000000000E+00 -0.25964556577E+04  0.25964556577E+04  0.25500000920E-02 0. -1.
    10030    2    1    2    0    0  0.00000000000E+00  0.00000000000E+00 -0.17863689815E+04  0.34065423340E+04  0.29005889979E+04 0.  0.
        1    1    3    3  502    0  0.29417283656E+03 -0.25438213767E+02  0.77441249592E+03  0.82879398788E+03  0.50400001928E-02 0.  1.
       -1    1    3    3    0  502 -0.29417283656E+03  0.25438213767E+02 -0.25607814774E+04  0.25777483461E+04  0.50400001928E-02 0. -1.
</event>
<event>
 5   0  0.3486236E-06  0.2955089E+04  0.7818609E-02  0.8256673E-01
        1   -1    0    0  501    0  0.00000000000E+00  0.00000000000E+00  0.18177351503E+04  0.18177351504E+04  0.50400001928E-02 0. -1.
       -1   -1    0    0    0  501  0.00000000000E+00  0.00000000000E+00 -0.12010211311E+04  0.12010211311E+04  0.50400001928E-02 0.  1.
    10030    2    1    2    0    0  0.00000000000E+00  0.00000000000E+00  0.61671401928E+03  0.30187562814E+04  0.29550893904E+04 0.  0.
        5    1    3    3  502    0 -0.53322790338E+03  0.12539584326E+04  0.89195555484E+03  0.16286038651E+04  0.46999998093E+01 0.  1.
       -5    1    3    3    0  502  0.53322790338E+03 -0.12539584326E+04 -0.27524153556E+03  0.13901524163E+04  0.46999998093E+01 0. -1.
</event>
<event>
 5   0  0.9360689E-06  0.2894973E+04  0.7818609E-02  0.8274375E-01
        2   -1    0    0  501    0  0.00000000000E+00  0.00000000000E+00  0.20652860041E+04  0.20652860041E+04  0.25500000920E-02 0.  1.
       -2   -1    0    0    0  501  0.00000000000E+00  0.00000000000E+00 -0.10144923525E+04  0.10144923525E+04  0.25500000920E-02 0. -1.
    10030    2    1    2    0    0  0.00000000000E+00  0.00000000000E+00  0.10507936516E+04  0.30797783566E+04  0.28949727853E+04 0.  0.
        5    1    3    3  502    0 -0.60629788146E+02  0.24111756268E+03  0.20423925973E+04  0.20574749724E+04  0.46999998093E+01 0.  1.
       -5    1    3    3    0  502  0.60629788146E+02 -0.24111756268E+03 -0.99159894578E+03  0.10223033843E+04  0.46999998093E+01 0. -1.
</event>
<event>
 5   0  0.3474078E-06  0.2906447E+04  0.7818609E-02  0.8270962E-01
       -1   -1    0    0    0  501  0.00000000000E+00  0.00000000000E+00  0.15002049186E+04  0.15002049186E+04  0.50400001928E-02 0.  1.
        1   -1    0    0  501    0  0.00000000000E+00  0.00000000000E+00 -0.14077131125E+04  0.14077131125E+04  0.50400001928E-02 0. -1.
    10030    2    1    2    0    0  0.00000000000E+00  0.00000000000E+00  0.92491806132E+02  0.29079180312E+04  0.29064467210E+04 0.  0.
        3    1    3    3  502    0 -0.12410505914E+04  0.73820500754E+03  0.20974503375E+03  0.14591594132E+04  0.10100000352E+00 0.  1.
       -3    1    3    3    0  502  0.12410505914E+04 -0.73820500754E+03 -0.11725322762E+03  0.14487586180E+04  0.10100000352E+00 0. -1.
</event>
<event>
 5   0  0.9251510E-06  0.2920201E+04  0.7818609E-02  0.8266892E-01
        2   -1    0    0  501    0  0.00000000000E+00  0.00000000000E+00  0.13194092967E+04  0.13194092967E+04  0.25500000920E-02 0.  1.
       -2   -1    0    0    0  501  0.00000000000E+00  0.00000000000E+00 -0.16157935205E+04  0.16157935205E+04  0.25500000920E-02 0. -1.
    10030    2    1    2    0    0  0.00000000000E+00  0.00000000000E+00 -0.29638422380E+03  0.29352028171E+04  0.29202006728E+04 0.  0.
        2    1    3    3  502    0  0.54095035933E+03  0.10312304871E+04  0.73714471729E+03  0.13782038830E+04  0.25500000920E-02 0. -1.
       -2    1    3    3    0  502 -0.54095035933E+03 -0.10312304871E+04 -0.10335289411E+04  0.15569989342E+04  0.25500000920E-02 0.  1.
</event>
<event>
 5   0  0.3746518E-06  0.2915960E+04  0.7818609E-02  0.8268145E-01
        1   -1    0    0  501    0  0.00000000000E+00  0.00000000000E+00  0.13155058940E+04  0.13155058940E+04  0.50400001928E-02 0.  1.
       -1   -1    0    0    0  501  0.00000000000E+00  0.00000000000E+00 -0.16158846981E+04  0.16158846981E+04  0.50400001928E-02 0. -1.
    10030    2    1    2    0    0  0.00000000000E+00  0.00000000000E+00 -0.30037880408E+03  0.29313905921E+04  0.29159601125E+04 0.  0.
        4    1    3    3  502    0  0.56726721985E+02 -0.37481988671E+03 -0.15654732079E+04  0.16107190463E+04  0.12699999809E+01 0. -1.
       -4    1    3    3    0  502 -0.56726721985E+02  0.37481988671E+03  0.12650944038E+04  0.13206715458E+04  0.12699999809E+01 0.  1.
</event>
<event>
 5   0  0.3486236E-06  0.2913196E+04  0.7818609E-02  0.8268962E-01
       -1   -1    0    0    0  501  0.00000000000E+00  0.00000000000E+00  0.96988860269E+03  0.96988860270E+03  0.50400001928E-02 0. -1.
        1   -1    0    0  501    0  0.00000000000E+00  0.00000000000E+00 -0.21875482238E+04  0.21875482238E+04  0.50400001928E-02 0.  1.
    10030    2    1    2    0    0  0.00000000000E+00  0.00000000000E+00 -0.12176596211E+04  0.31574368265E+04  0.29131962448E+04 0.  0.
        5    1    3    3  502    0 -0.98348213573E+03 -0.52281397211E+03 -0.16261875522E+04  0.19710605282E+04  0.46999998093E+01 0.  1.
       -5    1    3    3    0  502  0.98348213573E+03  0.52281397211E+03  0.40852793111E+03  0.11863762983E+04  0.46999998093E+01 0. -1.
</event>
<event>
 5   0  0.3564340E-06  0.2890220E+04  0.7818609E-02  0.8275793E-01
       -1   -1    0    0    0  501  0.00000000000E+00  0.00000000000E+00  0.82010432760E+03  0.82010432761E+03  0.50400001928E-02 0. -1.
        1   -1    0    0  501    0  0.00000000000E+00  0.00000000000E+00 -0.25464352782E+04  0.25464352782E+04  0.50400001928E-02 0.  1.
    10030    2    1    2    0    0  0.00000000000E+00  0.00000000000E+00 -0.17263309506E+04  0.33665396059E+04  0.28902197783E+04 0.  0.
        1    1    3    3  502    0 -0.64015543981E+03  0.46400850176E+03 -0.22721641984E+04  0.24057915581E+04  0.50400001928E-02 0.  1.
       -1    1    3    3    0  502  0.64015543981E+03 -0.46400850176E+03  0.54583324774E+03  0.96074804771E+03  0.50400001928E-02 0. -1.
</event>
<event>
 5   0  0.3649705E-06  0.3306178E+04  0.7818609E-02  0.8161325E-01
        1   -1    0    0  501    0  0.00000000000E+00  0.00000000000E+00  0.25750842443E+04  0.25750842443E+04  0.50400001928E-02 0. -1.
       -1   -1    0    0    0  501  0.00000000000E+00  0.00000000000E+00 -0.10612091128E+04  0.10612091128E+04  0.50400001928E-02 0.  1.
    10030    2    1    2    0    0  0.00000000000E+00  0.00000000000E+00  0.15138751316E+04  0.36362933571E+04  0.33061777727E+04 0.  0.
        2    1    3    3  502    0  0.53550508902E+03 -0.13705845690E+04 -0.71559187811E+02  0.14732238385E+04  0.25500000920E-02 0.  1.
       -2    1    3    3    0  502 -0.53550508902E+03  0.13705845690E+04  0.15854343194E+04  0.21630695186E+04  0.25500000920E-02 0. -1.
</event>
<event>
 5   0  0.9646321E-06  0.2921937E+04  0.7818609E-02  0.8266380E-01
       -2   -1    0    0    0  501  0.00000000000E+00  0.00000000000E+00  0.95739444354E+03  0.95739444354E+03  0.25500000920E-02 0. -1.
        2   -1    0    0  501    0  0.00000000000E+00  0.00000000000E+00 -0.22294151262E+04  0.22294151262E+04  0.25500000920E-02 0.  1.
    10030    2    1    2    0    0  0.00000000000E+00  0.00000000000E+00 -0.12720206827E+04  0.31868095698E+04  0.29219374765E+04 0.  0.
        3    1    3    3  502    0  0.93638969316E+03  0.21543502807E+03 -0.18363154190E+04  0.20725086820E+04  0.10100000352E+00 0.  1.
       -3    1    3    3    0  502 -0.93638969316E+03 -0.21543502807E+03  0.56429473632E+03  0.11143008877E+04  0.10100000352E+00 0. -1.
</event>
<event>
 5   0  0.1001573E-05  0.2974401E+04  0.7818609E-02  0.8251079E-01
       -2   -1    0    0    0  501  0.00000000000E+00  0.00000000000E+00  0.10224590503E+04  0.10224590503E+04  0.25500000920E-02 0.  1.
        2   -1    0    0  501    0  0.00000000000E+00  0.00000000000E+00 -0.21631826160E+04  0.21631826160E+04  0.25500000920E-02 0. -1.
    10030    2    1    2    0    0  0.00000000000E+00  0.00000000000E+00 -0.11407235657E+04  0.31856416664E+04  0.29744012125E+04 0.  0.
        1    1    3    3  502    0 -0.84585393023E+03  0.82413479470E+03  0.39777029460E+03  0.12461493644E+04  0.50400001928E-02 0.  1.
       -1    1    3    3    0  502  0.84585393023E+03 -0.82413479470E+03 -0.15384938603E+04  0.19394923020E+04  0.50400001928E-02 0. -1.
</event>
<event>
 5   0  0.3649705E-06  0.2855611E+04  0.7818609E-02  0.8286208E-01
        1   -1    0    0  501    0  0.00000000000E+00  0.00000000000E+00  0.15748952593E+04  0.15748952593E+04  0.50400001928E-02 0.  1.
       -1   -1    0    0    0  501  0.00000000000E+00  0.00000000000E+00 -0.12944534322E+04  0.12944534322E+04  0.50400001928E-02 0. -1.
    10030    2    1    2    0    0  0.00000000000E+00  0.00000000000E+00  0.28044182704E+03  0.28693486915E+04  0.28556110196E+04 0.  0.
        2    1    3    3  502    0  0.93233740885E+03  0.10800109886E+04  0.85629123958E+02  0.14293387024E+04  0.25500000920E-02 0.  1.
       -2    1    3    3    0  502 -0.93233740885E+03 -0.10800109886E+04  0.19481270308E+03  0.14400099891E+04  0.25500000920E-02 0. -1.
</event>
<event>
 5   0  0.3746518E-06  0.2883700E+04  0.7818609E-02  0.8277744E-01
        1   -1    0    0  501    0  0.00000000000E+00  0.00000000000E+00  0.13891295552E+04  0.13891295552E+04  0.50400001928E-02 0.  1.
       -1   -1    0    0    0  501  0.00000000000E+00  0.00000000000E+00 -0.14965718059E+04  0.14965718059E+04  0.50400001928E-02 0. -1.
    10030    2    1    2    0    0  0.00000000000E+00  0.00000000000E+00 -0.10744225072E+03  0.28857013611E+04  0.28837004887E+04 0.  0.
        4    1    3    3  502    0 -0.80920104532E+03  0.15861218344E+02 -0.12478104078E+04  0.14873097649E+04  0.12699999809E+01 0. -1.
       -4    1    3    3    0  502  0.80920104532E+03 -0.15861218344E+02  0.11403681570E+04  0.13983915963E+04  0.12699999809E+01 0.  1.
</event>
<event>
 5   0  0.3474078E-06  0.2867274E+04  0.7818609E-02  0.8282682E-01
        1   -1    0    0  501    0  0.00000000000E+00  0.00000000000E+00  0.15761020232E+04  0.15761020232E+04  0.50400001928E-02 0. -1.
       -1   -1    0    0    0  501  0.00000000000E+00  0.00000000000E+00 -0.13040495034E+04  0.13040495034E+04  0.50400001928E-02 0.  1.
    10030    2    1    2    0    0  0.00000000000E+00  0.00000000000E+00  0.27205251980E+03  0.28801515267E+04  0.28672740091E+04 0.  0.
        3    1    3    3  502    0  0.10365016374E+03 -0.23989467412E+03  0.15519749070E+04  0.15738230311E+04  0.10100000352E+00 0. -1.
       -3    1    3    3    0  502 -0.10365016374E+03  0.23989467412E+03 -0.12799223872E+04  0.13063284956E+04  0.10100000352E+00 0.  1.
</event>
<event>
 5   0  0.3746518E-06  0.2103392E+04  0.7818609E-02  0.8559751E-01
       -1   -1    0    0    0  501  0.00000000000E+00  0.00000000000E+00  0.75495351790E+03  0.75495351792E+03  0.50400001928E-02 0.  1.
        1   -1    0    0  501    0  0.00000000000E+00  0.00000000000E+00 -0.14650767132E+04  0.14650767132E+04  0.50400001928E-02 0. -1.
    10030    2    1    2    0    0  0.00000000000E+00  0.00000000000E+00 -0.71012319533E+03  0.22200302312E+04  0.21033923254E+04 0.  0.
        4    1    3    3  502    0 -0.16809391986E+03  0.72233204311E+03  0.43197187995E+03  0.85826596365E+03  0.12699999809E+01 0.  1.
       -4    1    3    3    0  502  0.16809391986E+03 -0.72233204311E+03 -0.11420950753E+04  0.13617642675E+04  0.12699999809E+01 0. -1.
</event>
<event>
 5   0  0.9251510E-06  0.2896551E+04  0.7818609E-02  0.8273904E-01
        2   -1    0    0  501    0  0.00000000000E+00  0.00000000000E+00  0.16459842763E+04  0.16459842763E+04  0.25500000920E-02 0. -1.
       -2   -1    0    0    0  501  0.00000000000E+00  0.00000000000E+00 -0.12743150443E+04  0.12743150443E+04  0.25500000920E-02 0.  1.
    10030    2    1    2    0    0  0.00000000000E+00  0.00000000000E+00  0.37166923198E+03  0.29202993206E+04  0.28965514157E+04 0.  0.
        2    1    3    3  502    0 -0.39106544367E+03 -0.30807913975E+03 -0.11853369376E+04  0.12856393714E+04  0.25500000920E-02 0.  1.
       -2    1    3    3    0  502  0.39106544367E+03  0.30807913975E+03  0.15570061696E+04  0.16346599492E+04  0.25500000920E-02 0. -1.
</event>
<event>
 5   0  0.1001573E-05  0.2896507E+04  0.7818609E-02  0.8273918E-01
       -2   -1    0    0    0  501  0.00000000000E+00  0.00000000000E+00  0.16205075391E+04  0.16205075391E+04  0.25500000920E-02 0.  1.
        2   -1    0    0  501    0  0.00000000000E+00  0.00000000000E+00 -0.12943090507E+04  0.12943090507E+04  0.25500000920E-02 0. -1.
    10030    2    1    2    0    0  0.00000000000E+00  0.00000000000E+00  0.32619848835E+03  0.29148165898E+04  0.28965065680E+04 0.  0.
        1    1    3    3  502    0  0.46766798938E+03  0.12076027147E+03 -0.12108671663E+04  0.13036470710E+04  0.50400001928E-02 0. -1.
       -1    1    3    3    0  502 -0.46766798938E+03 -0.12076027147E+03  0.15370656546E+04  0.16111695187E+04  0.50400001928E-02 0.  1.
</event>
<event>
 5   0  0.3564340E-06  0.2946470E+04  0.7818609E-02  0.8259184E-01
       -1   -1    0    0    0  501  0.00000000000E+00  0.00000000000E+00  0.14606089800E+04  0.14606089800E+04  0.50400001928E-02 0. -1.
        1   -1    0    0  501    0  0.00000000000E+00  0.00000000000E+00 -0.14859698531E+04  0.14859698531E+04  0.50400001928E-02 0.  1.
    10030    2    1    2    0    0  0.00000000000E+00  0.00000000000E+00 -0.25360873117E+02  0.29465788332E+04  0.29464696920E+04 0.  0.
        1    1    3    3  502    0 -0.26478810144E+03  0.36353971832E+03 -0.14156390440E+04  0.14853645238E+04  0.50400001928E-02 0.  1.
       -1    1    3    3    0  502  0.26478810144E+03 -0.36353971832E+03  0.13902781709E+04  0.14612143094E+04  0.50400001928E-02 0. -1.
</event>
<event>
 5   0  0.9251510E-06  0.2949266E+04  0.7818609E-02  0.8258369E-01
       -2   -1    0    0    0  501  0.00000000000E+00  0.00000000000E+00  0.13471563080E+04  0.13471563080E+04  0.25500000920E-02 0.  1.
        2   -1    0    0  501    0  0.00000000000E+00  0.00000000000E+00 -0.16141722613E+04  0.16141722613E+04  0.25500000920E-02 0. -1.
    10030    2    1    2    0    0  0.00000000000E+00  0.00000000000E+00 -0.26701595327E+03  0.29613285693E+04  0.29492659046E+04 0.  0.
        2    1    3    3  502    0  0.14653685826E+04 -0.16270951960E+03 -0.16124110564E+03  0.14831649149E+04  0.25500000920E-02 0. -1.
       -2    1    3    3    0  502 -0.14653685826E+04  0.16270951960E+03 -0.10577484763E+03  0.14781636544E+04  0.25500000920E-02 0.  1.
</event>
<event>
 5   0  0.3474078E-06  0.2888526E+04  0.7818609E-02  0.8276299E-01
       -1   -1    0    0    0  501  0.00000000000E+00  0.00000000000E+00  0.25651646021E+04  0.25651646021E+04  0.50400001928E-02 0. -1.
        1   -1    0    0  501    0  0.00000000000E+00  0.00000000000E+00 -0.81316268999E+03  0.81316269000E+03  0.50400001928E-02 0.  1.
    10030    2    1    2    0    0  0.00000000000E+00  0.00000000000E+00  0.17520019122E+04  0.33783272922E+04  0.28885263704E+04 0.  0.
        3    1    3    3  502    0  0.12290526811E+04 -0.38001668997E+03  0.16437515536E+04  0.20873194192E+04  0.10100000352E+00 0. -1.
       -3    1    3    3    0  502 -0.12290526811E+04  0.38001668997E+03  0.10825035856E+03  0.12910078729E+04  0.10100000352E+00 0.  1.
</event>
<event>
 5   0  0.1001573E-05  0.2908173E+04  0.7818609E-02  0.8270450E-01
        2   -1    0    0  501    0  0.00000000000E+00  0.00000000000E+00  0.14144187258E+04  0.14144187258E+04  0.25500000920E-02 0.  1.
       -2   -1    0    0    0  501  0.00000000000E+00  0.00000000000E+00 -0.14948671644E+04  0.14948671644E+04  0.25500000920E-02 0. -1.
    10030    2    1    2    0    0  0.00000000000E+00  0.00000000000E+00 -0.80448438590E+02  0.29092858902E+04  0.29081733854E+04 0.  0.
        1    1    3    3  502    0 -0.99323459010E+03  0.75691293760E+03  0.70500099498E+03  0.14340357558E+04  0.50400001928E-02 0.  1.
       -1    1    3    3    0  502  0.99323459010E+03 -0.75691293760E+03 -0.78544943357E+03  0.14752501343E+04  0.50400001928E-02 0. -1.
</event>
<event>
 5   0  0.3474078E-06  0.2966728E+04  0.7818609E-02  0.8253296E-01
       -1   -1    0    0    0  501  0.00000000000E+00  0.00000000000E+00  0.18186293504E+04  0.18186293504E+04  0.50400001928E-02 0. -1.
        1   -1    0    0  501    0  0.00000000000E+00  0.00000000000E+00 -0.12099052572E+04  0.12099052572E+04  0.50400001928E-02 0.  1.
    10030    2    1    2    0    0  0.00000000000E+00  0.00000000000E+00  0.60872409315E+03  0.30285346076E+04  0.29667283071E+04 0.  0.
        3    1    3    3  502    0  0.11629888123E+04 -0.43862646687E+03  0.11308165160E+04  0.16803815513E+04  0.10100000352E+00 0. -1.
       -3    1    3    3    0  502 -0.11629888123E+04  0.43862646687E+03 -0.52209242288E+03  0.13481530563E+04  0.10100000352E+00 0.  1.
</event>
<event>
 5   0  0.9360689E-06  0.2883736E+04  0.7818609E-02  0.8277733E-01
        2   -1    0    0  501    0  0.00000000000E+00  0.00000000000E+00  0.17802879041E+04  0.17802879041E+04  0.25500000920E-02 0.  1.
       -2   -1    0    0    0  501  0.00000000000E+00  0.00000000000E+00 -0.11677790962E+04  0.11677790962E+04  0.25500000920E-02 0. -1.
    10030    2    1    2    0    0  0.00000000000E+00  0.00000000000E+00  0.61250880789E+03  0.29480670002E+04  0.28837357712E+04 0.  0.
        5    1    3    3  502    0 -0.15864553243E+03 -0.10127144053E+04  0.13428780590E+04  0.16894089034E+04  0.46999998093E+01 0.  1.
       -5    1    3    3    0  502  0.15864553243E+03  0.10127144053E+04 -0.73036925108E+03  0.12586580968E+04  0.46999998093E+01 0. -1.
</event>
<event>
 5   0  0.1001573E-05  0.2888662E+04  0.7818609E-02  0.8276259E-01
        2   -1    0    0  501    0  0.00000000000E+00  0.00000000000E+00  0.13601787431E+04  0.13601787431E+04  0.25500000920E-02 0. -1.
       -2   -1    0    0    0  501  0.00000000000E+00  0.00000000000E+00 -0.15336895678E+04  0.15336895678E+04  0.25500000920E-02 0.  1.
    10030    2    1    2    0    0  0.00000000000E+00  0.00000000000E+00 -0.17351082468E+03  0.28938683110E+04  0.28886619385E+04 0.  0.
        1    1    3    3  502    0  0.91022628753E+03  0.25357705684E+03 -0.11810972294E+04  0.15125488037E+04  0.50400001928E-02 0.  1.
       -1    1    3    3    0  502 -0.91022628753E+03 -0.25357705684E+03  0.10075864047E+04  0.13813195073E+04  0.50400001928E-02 0. -1.
</event>
<event>
 5   0  0.3649705E-06  0.3012416E+04  0.7818609E-02  0.8240194E-01
        1   -1    0    0  501    0  0.00000000000E+00  0.00000000000E+00  0.81463656478E+03  0.81463656480E+03  0.50400001928E-02 0. -1.
       -1   -1    0    0    0  501  0.00000000000E+00  0.00000000000E+00 -0.27848761047E+04  0.27848761047E+04  0.50400001928E-02 0.  1.
    10030    2    1    2    0    0  0.00000000000E+00  0.00000000000E+00 -0.19702395399E+04  0.35995126695E+04  0.30124155777E+04 0.  0.
        2    1    3    3  502    0  0.77252214841E+03  0.93420871707E+03 -0.20532797882E+04  0.23844274545E+04  0.25500000920E-02 0.  1.
       -2    1    3    3    0  502 -0.77252214841E+03 -0.93420871707E+03  0.83040248359E+02  0.12150852150E+04  0.25500000920E-02 0. -1.
</event>
<event>
 5   0  0.9251510E-06  0.2914649E+04  0.7818609E-02  0.8268532E-01
        2   -1    0    0  501    0  0.00000000000E+00  0.00000000000E+00  0.20601033417E+04  0.20601033418E+04  0.25500000920E-02 0. -1.
       -2   -1    0    0    0  501  0.00000000000E+00  0.00000000000E+00 -0.10309163548E+04  0.10309163548E+04  0.25500000920E-02 0.  1.
    10030    2    1    2    0    0  0.00000000000E+00  0.00000000000E+00  0.10291869869E+04  0.30910196966E+04  0.29146486770E+04 0.  0.
        2    1    3    3  502    0 -0.10127730111E+04  0.10477695971E+04  0.49736459863E+03  0.15397733095E+04  0.25500000920E-02 0. -1.
       -2    1    3    3    0  502  0.10127730111E+04 -0.10477695971E+04  0.53182238830E+03  0.15512463871E+04  0.25500000920E-02 0.  1.
</event>
<event>
 5   0  0.1001573E-05  0.2668472E+04  0.7818609E-02  0.8345308E-01
       -2   -1    0    0    0  501  0.00000000000E+00  0.00000000000E+00  0.16605837912E+04  0.16605837912E+04  0.25500000920E-02 0. -1.
        2   -1    0    0  501    0  0.00000000000E+00  0.00000000000E+00 -0.10720239187E+04  0.10720239187E+04  0.25500000920E-02 0.  1.
    10030    2    1    2    0    0  0.00000000000E+00  0.00000000000E+00  0.58855987244E+03  0.27326077099E+04  0.26684718797E+04 0.  0.
        1    1    3    3  502    0 -0.91695941001E+03  0.68512176989E+03 -0.40774728406E+03  0.12150984515E+04  0.50400001928E-02 0.  1.
       -1    1    3    3    0  502  0.91695941001E+03 -0.68512176989E+03  0.99630715650E+03  0.15175092584E+04  0.50400001928E-02 0. -1.
</event>
<event>
 5   0  0.3649705E-06  0.2886786E+04  0.7818609E-02  0.8276820E-01
        1   -1    0    0  501    0  0.00000000000E+00  0.00000000000E+00  0.10079442793E+04  0.10079442793E+04  0.50400001928E-02 0.  1.
       -1   -1    0    0    0  501  0.00000000000E+00  0.00000000000E+00 -0.20669625281E+04  0.20669625281E+04  0.50400001928E-02 0. -1.
    10030    2    1    2    0    0  0.00000000000E+00  0.00000000000E+00 -0.10590182487E+04  0.30749068074E+04  0.28867857945E+04 0.  0.
        2    1    3    3  502    0  0.79590292675E+03  0.11175890007E+04 -0.10069560553E+04  0.17018892856E+04  0.25500000920E-02 0. -1.
       -2    1    3    3    0  502 -0.79590292675E+03 -0.11175890007E+04 -0.52062193484E+02  0.13730175218E+04  0.25500000920E-02 0.  1.
</event>
<event>
 5   0  0.3746518E-06  0.2889349E+04  0.7818609E-02  0.8276054E-01
       -1   -1    0    0    0  501  0.00000000000E+00  0.00000000000E+00  0.14918814802E+04  0.14918814802E+04  0.50400001928E-02 0.  1.
        1   -1    0    0  501    0  0.00000000000E+00  0.00000000000E+00 -0.13989610971E+04  0.13989610971E+04  0.50400001928E-02 0. -1.
    10030    2    1    2    0    0  0.00000000000E+00  0.00000000000E+00  0.92920383047E+02  0.28908425773E+04  0.28893488210E+04 0.  0.
        4    1    3    3  502    0  0.10033895644E+04  0.90659290920E+03  0.55503510936E+03  0.14617684175E+04  0.12699999809E+01 0.  1.
       -4    1    3    3    0  502 -0.10033895644E+04 -0.90659290920E+03 -0.46211472632E+03  0.14290741598E+04  0.12699999809E+01 0. -1.
</event>
<event>
 5   0  0.9360689E-06  0.2866735E+04  0.7818609E-02  0.8282844E-01
       -2   -1    0    0    0  501  0.00000000000E+00  0.00000000000E+00  0.84059632148E+03  0.84059632149E+03  0.25500000920E-02 0.  1.
        2   -1    0    0  501    0  0.00000000000E+00  0.00000000000E+00 -0.24441482566E+04  0.24441482566E+04  0.25500000920E-02 0. -1.
    10030    2    1    2    0    0  0.00000000000E+00  0.00000000000E+00 -0.16035519352E+04  0.32847445781E+04  0.28667347514E+04 0.  0.
        5    1    3    3  502    0  0.10808511572E+04  0.30468371315E+03 -0.18224180715E+04  0.21406310066E+04  0.46999998093E+01 0. -1.
       -5    1    3    3    0  502 -0.10808511572E+04 -0.30468371315E+03  0.21886613632E+03  0.11441135716E+04  0.46999998093E+01 0.  1.
</event>
<event>
 5   0  0.3474078E-06  0.2977573E+04  0.7818609E-02  0.8250164E-01
        1   -1    0    0  501    0  0.00000000000E+00  0.00000000000E+00  0.22399488483E+04  0.22399488484E+04  0.50400001928E-02 0. -1.
       -1   -1    0    0    0  501  0.00000000000E+00  0.00000000000E+00 -0.98952499710E+03  0.98952499711E+03  0.50400001928E-02 0.  1.
    10030    2    1    2    0    0  0.00000000000E+00  0.00000000000E+00  0.12504238512E+04  0.32294738455E+04  0.29775730907E+04 0.  0.
        3    1    3    3  502    0 -0.55749909972E+03  0.11952586049E+04  0.13743215350E+04  0.19047855708E+04  0.10100000352E+00 0. -1.
       -3    1    3    3    0  502  0.55749909972E+03 -0.11952586049E+04 -0.12389768375E+03  0.13246882747E+04  0.10100000352E+00 0.  1.
</event>
<event>
 5   0  0.3474078E-06  0.2888955E+04  0.7818609E-02  0.8276171E-01
       -1   -1    0    0    0  501  0.00000000000E+00  0.00000000000E+00  0.18995606540E+04  0.18995606540E+04  0.50400001928E-02 0.  1.
        1   -1    0    0  501    0  0.00000000000E+00  0.00000000000E+00 -0.10984198081E+04  0.10984198081E+04  0.50400001928E-02 0. -1.
    10030    2    1    2    0    0  0.00000000000E+00  0.00000000000E+00  0.80114084589E+03  0.29979804621E+04  0.28889548623E+04 0.  0.
        3    1    3    3  502    0 -0.65824808043E+03  0.80506986997E+03  0.14409453362E+04  0.17770063318E+04  0.10100000352E+00 0.  1.
       -3    1    3    3    0  502  0.65824808043E+03 -0.80506986997E+03 -0.63980449033E+03  0.12209741303E+04  0.10100000352E+00 0. -1.
</event>
<event>
 5   0  0.9646321E-06  0.2879236E+04  0.7818609E-02  0.8279082E-01
        2   -1    0    0  501    0  0.00000000000E+00  0.00000000000E+00  0.18480456176E+04  0.18480456176E+04  0.25500000920E-02 0.  1.
       -2   -1    0    0    0  501  0.00000000000E+00  0.00000000000E+00 -0.11214547814E+04  0.11214547814E+04  0.25500000920E-02 0. -1.
    10030    2    1    2    0    0  0.00000000000E+00  0.00000000000E+00  0.72659083620E+03  0.29695003989E+04  0.28792357278E+04 0.  0.
        3    1    3    3  502    0 -0.84116134011E+03 -0.96684125232E+03 -0.31313602972E+03  0.13192378825E+04  0.10100000352E+00 0. -1.
       -3    1    3    3    0  502  0.84116134011E+03  0.96684125232E+03  0.10397268659E+04  0.16502625165E+04  0.10100000352E+00 0.  1.
</event>
<event>
 5   0  0.9360689E-06  0.2882060E+04  0.7818609E-02  0.8278235E-01
       -2   -1    0    0    0  501  0.00000000000E+00  0.00000000000E+00  0.16878361297E+04  0.16878361297E+04  0.25500000920E-02 0. -1.
        2   -1    0    0  501    0  0.00000000000E+00  0.00000000000E+00 -0.12303133770E+04  0.12303133770E+04  0.25500000920E-02 0.  1.
    10030    2    1    2    0    0  0.00000000000E+00  0.00000000000E+00  0.45752275279E+03  0.29181495067E+04  0.28820599359E+04 0.  0.
        5    1    3    3  502    0 -0.48616772382E+03 -0.38551277754E+03 -0.10881271672E+04  0.12526060751E+04  0.46999998093E+01 0.  1.
       -5    1    3    3    0  502  0.48616772382E+03  0.38551277754E+03  0.15456499200E+04  0.16655434316E+04  0.46999998093E+01 0. -1.
</event>
<event>
 5   0  0.3486236E-06  0.2875652E+04  0.7818609E-02  0.8280159E-01
       -1   -1    0    0    0  501  0.00000000000E+00  0.00000000000E+00  0.18851195354E+04  0.18851195354E+04  0.50400001928E-02 0. -1.
        1   -1    0    0  501    0  0.00000000000E+00  0.00000000000E+00 -0.10966648327E+04  0.10966648327E+04  0.50400001928E-02 0.  1.
    10030    2    1    2    0    0  0.00000000000E+00  0.00000000000E+00  0.78845470273E+03  0.29817843682E+04  0.28756524825E+04 0.  0.
        5    1    3    3  502    0 -0.98877553008E+03 -0.15215183772E+03  0.14650541717E+04  0.17740442629E+04  0.46999998093E+01 0.  1.
       -5    1    3    3    0  502  0.98877553008E+03  0.15215183772E+03 -0.67659946895E+03  0.12077401053E+04  0.46999998093E+01 0. -1.
</event>
<event>
 5   0  0.3649705E-06  0.2768932E+04  0.7818609E-02  0.8312979E-01
       -1   -1    0    0    0  501  0.00000000000E+00  0.00000000000E+00  0.96058350798E+03  0.96058350800E+03  0.50400001928E-02 0.  1.
        1   -1    0    0  501    0  0.00000000000E+00  0.00000000000E+00 -0.19953978669E+04  0.19953978669E+04  0.50400001928E-02 0. -1.
    10030    2    1    2    0    0  0.00000000000E+00  0.00000000000E+00 -0.10348143589E+04  0.29559813749E+04  0.27689321283E+04 0.  0.
        2    1    3    3  502    0  0.67012320570E+03  0.58555834833E+03  0.61480425649E+03  0.10816320834E+04  0.25500000920E-02 0.  1.
       -2    1    3    3    0  502 -0.67012320570E+03 -0.58555834833E+03 -0.16496186154E+04  0.18743492915E+04  0.25500000920E-02 0. -1.
</event>
<event>
 5   0  0.9505359E-06  0.2304903E+04  0.7818609E-02  0.8475990E-01
       -2   -1    0    0    0  501  0.00000000000E+00  0.00000000000E+00  0.11601201287E+04  0.11601201287E+04  0.25500000920E-02 0. -1.
        2   -1    0    0  501    0  0.00000000000E+00  0.00000000000E+00 -0.11448340424E+04  0.11448340424E+04  0.25500000920E-02 0.  1.
    10030    2    1    2    0    0  0.00000000000E+00  0.00000000000E+00  0.15286086246E+02  0.23049541711E+04  0.23049034831E+04 0.  0.
        4    1    3    3  502    0 -0.24727638413E+03 -0.70537330427E+03  0.88484321295E+03  0.11582945363E+04  0.12699999809E+01 0. -1.
       -4    1    3    3    0  502  0.24727638413E+03  0.70537330427E+03 -0.86955712670E+03  0.11466596348E+04  0.12699999809E+01 0.  1.
</event>
<event>
 5   0  0.9360689E-06  0.2893512E+04  0.7818609E-02  0.8274811E-01
        2   -1    0    0  501    0  0.00000000000E+00  0.00000000000E+00  0.16991111887E+04  0.16991111887E+04  0.25500000920E-02 0. -1.
       -2   -1    0    0    0  501  0.00000000000E+00  0.00000000000E+00 -0.12318808092E+04  0.12318808092E+04  0.25500000920E-02 0.  1.
    10030    2    1    2    0    0  0.00000000000E+00  0.00000000000E+00  0.46723037953E+03  0.29309919978E+04  0.28935116837E+04 0.  0.
        5    1    3    3  502    0 -0.62062399752E+03 -0.10605531961E+04  0.10071382352E+04  0.15888035570E+04  0.46999998093E+01 0. -1.
       -5    1    3    3    0  502  0.62062399752E+03  0.10605531961E+04 -0.53990785569E+03  0.13421884408E+04  0.46999998093E+01 0.  1.
</event>
<event>
 5   0  0.3564340E-06  0.2917894E+04  0.7818609E-02  0.8267573E-01
       -1   -1    0    0    0  501  0.00000000000E+00  0.00000000000E+00  0.18419652988E+04  0.18419652988E+04  0.50400001928E-02 0.  1.
        1   -1    0    0  501    0  0.00000000000E+00  0.00000000000E+00 -0.11555736713E+04  0.11555736713E+04  0.50400001928E-02 0. -1.
    10030    2    1    2    0    0  0.00000000000E+00  0.00000000000E+00  0.68639162755E+03  0.29975389701E+04  0.29178941740E+04 0.  0.
        1    1    3    3  502    0  0.50690585978E+03  0.99509769077E+03 -0.62123349888E+03  0.12779295853E+04  0.50400001928E-02 0. -1.
       -1    1    3    3    0  502 -0.50690585978E+03 -0.99509769077E+03  0.13076251264E+04  0.17196093848E+04  0.50400001928E-02 0.  1.
</event>
<event>
 5   0  0.9251510E-06  0.2896247E+04  0.7818609E-02  0.8273995E-01
       -2   -1    0    0    0  501  0.00000000000E+00  0.00000000000E+00  0.11573044100E+04  0.11573044100E+04  0.25500000920E-02 0.  1.
        2   -1    0    0  501    0  0.00000000000E+00  0.00000000000E+00 -0.18120227615E+04  0.18120227615E+04  0.25500000920E-02 0. -1.
    10030    2    1    2    0    0  0.00000000000E+00  0.00000000000E+00 -0.65471835156E+03  0.29693271715E+04  0.28962471806E+04 0.  0.
        2    1    3    3  502    0  0.56684000440E+03 -0.11559728143E+03  0.10336894356E+04  0.11845607504E+04  0.25500000920E-02 0.  1.
       -2    1    3    3    0  502 -0.56684000440E+03  0.11559728143E+03 -0.16884077872E+04  0.17847664211E+04  0.25500000920E-02 0. -1.
</event>
<event>
 5   0  0.3649705E-06  0.2801160E+04  0.7818609E-02  0.8302908E-01
       -1   -1    0    0    0  501  0.00000000000E+00  0.00000000000E+00  0.26190948032E+04  0.26190948032E+04  0.50400001928E-02 0.  1.
        1   -1    0    0  501    0  0.00000000000E+00  0.00000000000E+00 -0.74897024461E+03  0.74897024462E+03  0.50400001928E-02 0. -1.
    10030    2    1    2    0    0  0.00000000000E+00  0.00000000000E+00  0.18701245585E+04  0.33680650478E+04  0.28011598137E+04 0.  0.
        2    1    3    3  502    0 -0.88466292157E+03 -0.43442088783E+03  0.21315831815E+04  0.23484030430E+04  0.25500000920E-02 0.  1.
       -2    1    3    3    0  502  0.88466292157E+03  0.43442088783E+03 -0.26145862293E+03  0.10196620048E+04  0.25500000920E-02 0. -1.
</event>
<event>
 5   0  0.1001573E-05  0.2977891E+04  0.7818609E-02  0.8250072E-01
        2   -1    0    0  501    0  0.00000000000E+00  0.00000000000E+00  0.20206616931E+04  0.20206616931E+04  0.25500000920E-02 0.  1.
       -2   -1    0    0    0  501  0.00000000000E+00  0.00000000000E+00 -0.10971451206E+04  0.10971451206E+04  0.25500000920E-02 0. -1.
    10030    2    1    2    0    0  0.00000000000E+00  0.00000000000E+00  0.92351657247E+03  0.31178068137E+04  0.29778912787E+04 0.  0.
        1    1    3    3  502    0  0.30816111618E+02  0.13926034537E+04 -0.88944859166E+02  0.13957812150E+04  0.50400001928E-02 0. -1.
       -1    1    3    3    0  502 -0.30816111618E+02 -0.13926034537E+04  0.10124614316E+04  0.17220255987E+04  0.50400001928E-02 0.  1.
</event>
<event>
 5   0  0.3474078E-06  0.2860243E+04  0.7818609E-02  0.8284806E-01
        1   -1    0    0  501    0  0.00000000000E+00  0.00000000000E+00  0.13548985103E+04  0.13548985104E+04  0.50400001928E-02 0.  1.
       -1   -1    0    0    0  501  0.00000000000E+00  0.00000000000E+00 -0.15095203801E+04  0.15095203801E+04  0.50400001928E-02 0. -1.
    10030    2    1    2    0    0  0.00000000000E+00  0.00000000000E+00 -0.15462186972E+03  0.28644188904E+04  0.28602425871E+04 0.  0.
        3    1    3    3  502    0  0.11842605365E+04  0.43321707457E+03  0.59828274200E+03  0.13957407716E+04  0.10100000352E+00 0.  1.
       -3    1    3    3    0  502 -0.11842605365E+04 -0.43321707457E+03 -0.75290461172E+03  0.14686781188E+04  0.10100000352E+00 0. -1.
</event>
<event>
 5   0  0.3474078E-06  0.2146569E+04  0.7818609E-02  0.8541002E-01
        1   -1    0    0  501    0  0.00000000000E+00  0.00000000000E+00  0.95776266386E+03  0.95776266387E+03  0.50400001928E-02 0.  1.
       -1   -1    0    0    0  501  0.00000000000E+00  0.00000000000E+00 -0.12027402123E+04  0.12027402123E+04  0.50400001928E-02 0. -1.
    10030    2    1    2    0    0  0.00000000000E+00  0.00000000000E+00 -0.24497754842E+03  0.21605028762E+04  0.21465690482E+04 0.  0.
        3    1    3    3  502    0 -0.60267780975E+03  0.80249878686E+03 -0.50537212461E+03  0.11236662493E+04  0.10100000352E+00 0. -1.
       -3    1    3    3    0  502  0.60267780975E+03 -0.80249878686E+03  0.26039457619E+03  0.10368366269E+04  0.10100000352E+00 0.  1.
</event>
<event>
 5   0  0.9505359E-06  0.2935275E+04  0.7818609E-02  0.8262459E-01
        2   -1    0    0  501    0  0.00000000000E+00  0.00000000000E+00  0.19604825371E+04  0.19604825371E+04  0.25500000920E-02 0. -1.
       -2   -1    0    0    0  501  0.00000000000E+00  0.00000000000E+00 -0.10986886574E+04  0.10986886574E+04  0.25500000920E-02 0.  1.
    10030    2    1    2    0    0  0.00000000000E+00  0.00000000000E+00  0.86179387966E+03  0.30591711945E+04  0.29352750649E+04 0.  0.
        4    1    3    3  502    0  0.10440785703E+04 -0.51405859555E+03 -0.50105156391E+03  0.12670479798E+04  0.12699999809E+01 0.  1.
       -4    1    3    3    0  502 -0.10440785703E+04  0.51405859555E+03  0.13628454436E+04  0.17921232147E+04  0.12699999809E+01 0. -1.
</event>
<event>
 5   0  0.1001573E-05  0.2873943E+04  0.7818609E-02  0.8280673E-01
       -2   -1    0    0    0  501  0.00000000000E+00  0.00000000000E+00  0.11434258300E+04  0.11434258300E+04  0.25500000920E-02 0.  1.
        2   -1    0    0  501    0  0.00000000000E+00  0.00000000000E+00 -0.18058781241E+04  0.18058781241E+04  0.25500000920E-02 0. -1.
    10030    2    1    2    0    0  0.00000000000E+00  0.00000000000E+00 -0.66245229413E+03  0.29493039541E+04  0.28739434183E+04 0.  0.
        1    1    3    3  502    0  0.66269266613E+03  0.11560123600E+04  0.22080264293E+03  0.13506590811E+04  0.50400001928E-02 0.  1.
       -1    1    3    3    0  502 -0.66269266613E+03 -0.11560123600E+04 -0.88325493706E+03  0.15986448730E+04  0.50400001928E-02 0. -1.
</event>
<event>
 5   0  0.3188375E-06  0.2926012E+04  0.7818609E-02  0.8265180E-01
       -4   -1    0    0    0  501  0.00000000000E+00  0.00000000000E+00  0.13890132935E+04  0.13890138741E+04  0.12699999809E+01 0. -1.
        4   -1    0    0  501    0  0.00000000000E+00  0.00000000000E+00 -0.15409394066E+04  0.15409399300E+04  0.12699999809E+01 0.  1.
    10030    2    1    2    0    0  0.00000000000E+00  0.00000000000E+00 -0.15192611313E+03  0.29299538041E+04  0.29260122607E+04 0.  0.
        4    1    3    3  502    0  0.72159979868E+03  0.83291480403E+03  0.88758676310E+03  0.14150142102E+04  0.12699999809E+01 0. -1.
       -4    1    3    3    0  502 -0.72159979868E+03 -0.83291480403E+03 -0.10395128762E+04  0.15149395938E+04  0.12699999809E+01 0.  1.
</event>
<event>
 5   0  0.3746518E-06  0.2860030E+04  0.7818609E-02  0.8284870E-01
        1   -1    0    0  501    0  0.00000000000E+00  0.00000000000E+00  0.16402126473E+04  0.16402126473E+04  0.50400001928E-02 0.  1.
       -1   -1    0    0    0  501  0.00000000000E+00  0.00000000000E+00 -0.12467546712E+04  0.12467546713E+04  0.50400001928E-02 0. -1.
    10030    2    1    2    0    0  0.00000000000E+00  0.00000000000E+00  0.39345797608E+03  0.28869673186E+04  0.28600299159E+04 0.  0.
        4    1    3    3  502    0  0.24431969961E+03 -0.13437950479E+04  0.62435081778E+03  0.15017632313E+04  0.12699999809E+01 0.  1.
       -4    1    3    3    0  502 -0.24431969961E+03  0.13437950479E+04 -0.23089284171E+03  0.13852040873E+04  0.12699999809E+01 0. -1.
</event>
<event>
 5   0  0.3486236E-06  0.2912322E+04  0.7818609E-02  0.8269221E-01
       -1   -1    0    0    0  501  0.00000000000E+00  0.00000000000E+00  0.17069281120E+04  0.17069281120E+04  0.50400001928E-02 0. -1.
        1   -1    0    0  501    0  0.00000000000E+00  0.00000000000E+00 -0.12422347448E+04  0.12422347448E+04  0.50400001928E-02 0.  1.
    10030    2    1    2    0    0  0.00000000000E+00  0.00000000000E+00  0.46469336727E+03  0.29491628568E+04  0.29123223775E+04 0.  0.
        5    1    3    3  502    0  0.53364558061E+03  0.81404162976E+03  0.13290712342E+04  0.16473900013E+04  0.46999998093E+01 0. -1.
       -5    1    3    3    0  502 -0.53364558061E+03 -0.81404162976E+03 -0.86437786692E+03  0.13017728556E+04  0.46999998093E+01 0.  1.
</event>
<event>
 5   0  0.9251510E-06  0.2867032E+04  0.7818609E-02  0.8282755E-01
       -2   -1    0    0    0  501  0.00000000000E+00  0.00000000000E+00  0.83663883080E+03  0.83663883081E+03  0.25500000920E-02 0. -1.
        2   -1    0    0  501    0  0.00000000000E+00  0.00000000000E+00 -0.24562188527E+04  0.24562188527E+04  0.25500000920E-02 0.  1.
    10030    2    1    2    0    0  0.00000000000E+00  0.00000000000E+00 -0.16195800219E+04  0.32928576836E+04  0.28670319630E+04 0.  0.
        2    1    3    3  502    0 -0.37836127343E+03  0.85609107424E+03 -0.20568357688E+04  0.22597837420E+04  0.25500000920E-02 0.  1.
       -2    1    3    3    0  502  0.37836127343E+03 -0.85609107424E+03  0.43725574685E+03  0.10330739416E+04  0.25500000920E-02 0. -1.
</event>
<event>
 5   0  0.3746518E-06  0.2843080E+04  0.7818609E-02  0.8290017E-01
        1   -1    0    0  501    0  0.00000000000E+00  0.00000000000E+00  0.16654707650E+04  0.16654707650E+04  0.50400001928E-02 0. -1.
       -1   -1    0    0    0  501  0.00000000000E+00  0.00000000000E+00 -0.12133358688E+04  0.12133358688E+04  0.50400001928E-02 0.  1.
    10030    2    1    2    0    0  0.00000000000E+00  0.00000000000E+00  0.45213489623E+03  0.28788066338E+04  0.28430796103E+04 0.  0.
        4    1    3    3  502    0 -0.13407422367E+03  0.63910991432E+03  0.15046049116E+04  0.16402057593E+04  0.12699999809E+01 0. -1.
       -4    1    3    3    0  502  0.13407422367E+03 -0.63910991432E+03 -0.10524700154E+04  0.12386008745E+04  0.12699999809E+01 0.  1.
</event>
<event>
 5   0  0.9360689E-06  0.2955430E+04  0.7818609E-02  0.8256574E-01
        2   -1    0    0  501    0  0.00000000000E+00  0.00000000000E+00  0.13767895719E+04  0.13767895719E+04  0.25500000920E-02 0.  1.
       -2   -1    0    0    0  501  0.00000000000E+00  0.00000000000E+00 -0.15860388558E+04  0.15860388558E+04  0.25500000920E-02 0. -1.
    10030    2    1    2    0    0  0.00000000000E+00  0.00000000000E+00 -0.20924928394E+03  0.29628284277E+04  0.29554300921E+04 0.  0.
        5    1    3    3  502    0 -0.77989049115E+03  0.12452165735E+04  0.53333024964E+02  0.14702584789E+04  0.46999998093E+01 0. -1.
       -5    1    3    3    0  502  0.77989049115E+03 -0.12452165735E+04 -0.26258230890E+03  0.14925699488E+04  0.46999998093E+01 0.  1.
</event>
<event>
 5   0  0.3486236E-06  0.2893167E+04  0.7818609E-02  0.8274913E-01
        1   -1    0    0  501    0  0.00000000000E+00  0.00000000000E+00  0.12070822371E+04  0.12070822371E+04  0.50400001928E-02 0. -1.
       -1   -1    0    0    0  501  0.00000000000E+00  0.00000000000E+00 -0.17336049067E+04  0.17336049067E+04  0.50400001928E-02 0.  1.
    10030    2    1    2    0    0  0.00000000000E+00  0.00000000000E+00 -0.52652266964E+03  0.29406871438E+04  0.28931669078E+04 0.  0.
        5    1    3    3  502    0  0.28747828945E+03 -0.49893849711E+03 -0.16120838009E+04  0.17118468570E+04  0.46999998093E+01 0.  1.
       -5    1    3    3    0  502 -0.28747828945E+03  0.49893849711E+03  0.10855611312E+04  0.12288402868E+04  0.46999998093E+01 0. -1.
</event>
<event>
 5   0  0.3564340E-06  0.2892996E+04  0.7818609E-02  0.8274964E-01
       -1   -1    0    0    0  501  0.00000000000E+00  0.00000000000E+00  0.89358260846E+03  0.89358260847E+03  0.50400001928E-02 0.  1.
        1   -1    0    0  501    0  0.00000000000E+00  0.00000000000E+00 -0.23415373746E+04  0.23415373746E+04  0.50400001928E-02 0. -1.
    10030    2    1    2    0    0  0.00000000000E+00  0.00000000000E+00 -0.14479547661E+04  0.32351199830E+04  0.28929964224E+04 0.  0.
        1    1    3    3  502    0  0.12560769550E+04 -0.36773165506E+03 -0.14127753218E+04  0.19258478645E+04  0.50400001928E-02 0. -1.
       -1    1    3    3    0  502 -0.12560769550E+04  0.36773165506E+03 -0.35179444275E+02  0.13092721186E+04  0.50400001928E-02 0.  1.
</event>
<event>
 5   0  0.9251510E-06  0.2762418E+04  0.7818609E-02  0.8315032E-01
        2   -1    0    0  501    0  0.00000000000E+00  0.00000000000E+00  0.93895927053E+03  0.93895927053E+03  0.25500000920E-02 0. -1.
       -2   -1    0    0    0  501  0.00000000000E+00  0.00000000000E+00 -0.20317588491E+04  0.20317588491E+04  0.25500000920E-02 0.  1.
    10030    2    1    2    0    0  0.00000000000E+00  0.00000000000E+00 -0.10927995786E+04  0.29707181196E+04  0.27624183657E+04 0.  0.
        2    1    3    3  502    0 -0.10148022239E+04 -0.57910312895E+03 -0.13385249443E+04  0.17767478758E+04  0.25500000920E-02 0.  1.
       -2    1    3    3    0  502  0.10148022239E+04  0.57910312895E+03  0.24572536576E+03  0.11939702438E+04  0.25500000920E-02 0. -1.
</event>
<event>
 5   0  0.3486236E-06  0.2894961E+04  0.7818609E-02  0.8274378E-01
        1   -1    0    0  501    0  0.00000000000E+00  0.00000000000E+00  0.18554445736E+04  0.18554445736E+04  0.50400001928E-02 0. -1.
       -1   -1    0    0    0  501  0.00000000000E+00  0.00000000000E+00 -0.11292169080E+04  0.11292169080E+04  0.50400001928E-02 0.  1.
    10030    2    1    2    0    0  0.00000000000E+00  0.00000000000E+00  0.72622766568E+03  0.29846614816E+04  0.28949607143E+04 0.  0.
        5    1    3    3  502    0 -0.60086668166E+03  0.35584538610E+03 -0.94404790522E+03  0.11742722194E+04  0.46999998093E+01 0.  1.
       -5    1    3    3    0  502  0.60086668166E+03 -0.35584538610E+03  0.16702755709E+04  0.18103892622E+04  0.46999998093E+01 0. -1.
</event>
<event>
 5   0  0.1001573E-05  0.2988964E+04  0.7818609E-02  0.8246889E-01
        2   -1    0    0  501    0  0.00000000000E+00  0.00000000000E+00  0.17995424433E+04  0.17995424433E+04  0.25500000920E-02 0. -1.
       -2   -1    0    0    0  501  0.00000000000E+00  0.00000000000E+00 -0.12411356517E+04  0.12411356517E+04  0.25500000920E-02 0.  1.
    10030    2    1    2    0    0  0.00000000000E+00  0.00000000000E+00  0.55840679169E+03  0.30406780950E+04  0.29889638894E+04 0.  0.
        1    1    3    3  502    0 -0.10565215157E+04 -0.85874483129E+03  0.90614184392E+03  0.16354734604E+04  0.50400001928E-02 0. -1.
       -1    1    3    3    0  502  0.10565215157E+04  0.85874483129E+03 -0.34773505223E+03  0.14052046346E+04  0.50400001928E-02 0.  1.
</event>
<event>
 5   0  0.3564340E-06  0.2866032E+04  0.7818609E-02  0.8283056E-01
       -1   -1    0    0    0  501  0.00000000000E+00  0.00000000000E+00  0.84107295171E+03  0.84107295172E+03  0.50400001928E-02 0.  1.
        1   -1    0    0  501    0  0.00000000000E+00  0.00000000000E+00 -0.24415654088E+04  0.24415654088E+04  0.50400001928E-02 0. -1.
    10030    2    1    2    0    0  0.00000000000E+00  0.00000000000E+00 -0.16004924571E+04  0.32826383605E+04  0.28660318387E+04 0.  0.
        1    1    3    3  502    0 -0.52741010411E+02 -0.30420432628E+03 -0.24030190351E+04  0.24227716297E+04  0.50400001928E-02 0. -1.
       -1    1    3    3    0  502  0.52741010411E+02  0.30420432628E+03  0.80252657805E+03  0.85986673084E+03  0.50400001928E-02 0.  1.
</event>
<event>
 5   0  0.3649705E-06  0.2891535E+04  0.7818609E-02  0.8275401E-01
        1   -1    0    0  501    0  0.00000000000E+00  0.00000000000E+00  0.17671662781E+04  0.17671662781E+04  0.50400001928E-02 0. -1.
       -1   -1    0    0    0  501  0.00000000000E+00  0.00000000000E+00 -0.11828220605E+04  0.11828220605E+04  0.50400001928E-02 0.  1.
    10030    2    1    2    0    0  0.00000000000E+00  0.00000000000E+00  0.58434421763E+03  0.29499883386E+04  0.28915347194E+04 0.  0.
        2    1    3    3  502    0 -0.21860416764E+03 -0.38518890256E+03  0.16962513502E+04  0.17531191961E+04  0.25500000920E-02 0. -1.
       -2    1    3    3    0  502  0.21860416764E+03  0.38518890256E+03 -0.11119071326E+04  0.11968691425E+04  0.25500000920E-02 0.  1.
</event>
<event>
 5   0  0.9505359E-06  0.2969073E+04  0.7818609E-02  0.8252618E-01
       -2   -1    0    0    0  501  0.00000000000E+00  0.00000000000E+00  0.14485512681E+04  0.14485512681E+04  0.25500000920E-02 0.  1.
        2   -1    0    0  501    0  0.00000000000E+00  0.00000000000E+00 -0.15214152850E+04  0.15214152850E+04  0.25500000920E-02 0. -1.
    10030    2    1    2    0    0  0.00000000000E+00  0.00000000000E+00 -0.72864016896E+02  0.29699665531E+04  0.29690726097E+04 0.  0.
        4    1    3    3  502    0 -0.11503880660E+03 -0.21532219447E+03 -0.15011982867E+04  0.15209192889E+04  0.12699999809E+01 0. -1.
       -4    1    3    3    0  502  0.11503880660E+03  0.21532219447E+03  0.14283342698E+04  0.14490472642E+04  0.12699999809E+01 0.  1.
</event>
<event>
 5   0  0.9251510E-06  0.2850584E+04  0.7818609E-02  0.8287734E-01
       -2   -1    0    0    0  501  0.00000000000E+00  0.00000000000E+00  0.13015394643E+04  0.13015394643E+04  0.25500000920E-02 0. -1.
        2   -1    0    0  501    0  0.00000000000E+00  0.00000000000E+00 -0.15608108593E+04  0.15608108593E+04  0.25500000920E-02 0.  1.
    10030    2    1    2    0    0  0.00000000000E+00  0.00000000000E+00 -0.25927139508E+03  0.28623503236E+04  0.28505837505E+04 0.  0.
        2    1    3    3  502    0 -0.25290271358E+03 -0.12698287823E+04 -0.72794084186E+03  0.14853695796E+04  0.25500000920E-02 0.  1.
       -2    1    3    3    0  502  0.25290271358E+03  0.12698287823E+04  0.46866944678E+03  0.13769807440E+04  0.25500000920E-02 0. -1.
</event>
<event>
 5   0  0.9505359E-06  0.2942391E+04  0.7818609E-02  0.8260375E-01
        2   -1    0    0  501    0  0.00000000000E+00  0.00000000000E+00  0.13235391847E+04  0.13235391847E+04  0.25500000920E-02 0. -1.
       -2   -1    0    0    0  501  0.00000000000E+00  0.00000000000E+00 -0.16353250205E+04  0.16353250205E+04  0.25500000920E-02 0.  1.
    10030    2    1    2    0    0  0.00000000000E+00  0.00000000000E+00 -0.31178583583E+03  0.29588642052E+04  0.29423913705E+04 0.  0.
        4    1    3    3  502    0 -0.68894149901E+03  0.10713426167E+04  0.58443501351E+03  0.14014211677E+04  0.12699999809E+01 0. -1.
       -4    1    3    3    0  502  0.68894149901E+03 -0.10713426167E+04 -0.89622084934E+03  0.15574430375E+04  0.12699999809E+01 0.  1.
</event>
<event>
 5   0  0.3649705E-06  0.2832429E+04  0.7818609E-02  0.8293271E-01
        1   -1    0    0  501    0  0.00000000000E+00  0.00000000000E+00  0.23905353530E+04  0.23905353530E+04  0.50400001928E-02 0.  1.
       -1   -1    0    0    0  501  0.00000000000E+00  0.00000000000E+00 -0.83900187938E+03  0.83900187939E+03  0.50400001928E-02 0. -1.
    10030    2    1    2    0    0  0.00000000000E+00  0.00000000000E+00  0.15515334736E+04  0.32295372324E+04  0.28324291016E+04 0.  0.
        2    1    3    3  502    0 -0.16650354284E+03  0.12542336707E+04  0.15012408986E+04  0.19633007325E+04  0.25500000920E-02 0.  1.
       -2    1    3    3    0  502  0.16650354284E+03 -0.12542336707E+04  0.50292574988E+02  0.12662364999E+04  0.25500000920E-02 0. -1.
</event>
<event>
 5   0  0.1001573E-05  0.2903264E+04  0.7818609E-02  0.8271907E-01
       -2   -1    0    0    0  501  0.00000000000E+00  0.00000000000E+00  0.94205343682E+03  0.94205343682E+03  0.25500000920E-02 0. -1.
        2   -1    0    0  501    0  0.00000000000E+00  0.00000000000E+00 -0.22368537329E+04  0.22368537329E+04  0.25500000920E-02 0.  1.
    10030    2    1    2    0    0  0.00000000000E+00  0.00000000000E+00 -0.12948002961E+04  0.31789071697E+04  0.29032641952E+04 0.  0.
        1    1    3    3  502    0  0.12176703012E+04 -0.57474032065E+03 -0.53512870697E+02  0.13475574295E+04  0.50400001928E-02 0.  1.
       -1    1    3    3    0  502 -0.12176703012E+04  0.57474032065E+03 -0.12412874254E+04  0.18313497402E+04  0.50400001928E-02 0. -1.
</event>
<event>
 5   0  0.3746518E-06  0.2742791E+04  0.7818609E-02  0.8321253E-01
        1   -1    0    0  501    0  0.00000000000E+00  0.00000000000E+00  0.22492673827E+04  0.22492673827E+04  0.50400001928E-02 0.  1.
       -1   -1    0    0    0  501  0.00000000000E+00  0.00000000000E+00 -0.83615009582E+03  0.83615009584E+03  0.50400001928E-02 0. -1.
    10030    2    1    2    0    0  0.00000000000E+00  0.00000000000E+00  0.14131172869E+04  0.30854174786E+04  0.27427906501E+04 0.  0.
        4    1    3    3  502    0  0.37138860835E+03 -0.54228849351E+03  0.20605412510E+04  0.21628310541E+04  0.12699999809E+01 0.  1.
       -4    1    3    3    0  502 -0.37138860835E+03  0.54228849351E+03 -0.64742396404E+03  0.92258642452E+03  0.12699999809E+01 0. -1.
</event>
<event>
 5   0  0.3649705E-06  0.2891175E+04  0.7818609E-02  0.8275508E-01
        1   -1    0    0  501    0  0.00000000000E+00  0.00000000000E+00  0.15304691392E+04  0.15304691392E+04  0.50400001928E-02 0.  1.
       -1   -1    0    0    0  501  0.00000000000E+00  0.00000000000E+00 -0.13654135579E+04  0.13654135579E+04  0.50400001928E-02 0. -1.
    10030    2    1    2    0    0  0.00000000000E+00  0.00000000000E+00  0.16505558135E+03  0.28958826971E+04  0.28911750640E+04 0.  0.
        2    1    3    3  502    0  0.38887970013E+03  0.13302434530E+04 -0.32917463109E+03  0.14244756942E+04  0.25500000920E-02 0. -1.
       -2    1    3    3    0  502 -0.38887970013E+03 -0.13302434530E+04  0.49423021244E+03  0.14714070030E+04  0.25500000920E-02 0.  1.
</event>
<event>
 5   0  0.3564340E-06  0.2929022E+04  0.7818609E-02  0.8264295E-01
        1   -1    0    0  501    0  0.00000000000E+00  0.00000000000E+00  0.20309821410E+04  0.20309821411E+04  0.50400001928E-02 0.  1.
       -1   -1    0    0    0  501  0.00000000000E+00  0.00000000000E+00 -0.10560371724E+04  0.10560371724E+04  0.50400001928E-02 0. -1.
    10030    2    1    2    0    0  0.00000000000E+00  0.00000000000E+00  0.97494496865E+03  0.30870193135E+04  0.29290221149E+04 0.  0.
        1    1    3    3  502    0  0.62475338790E+03  0.12960974727E+04  0.19959545212E+03  0.14525920966E+04  0.50400001928E-02 0.  1.
       -1    1    3    3    0  502 -0.62475338790E+03 -0.12960974727E+04  0.77534951654E+03  0.16344272169E+04  0.50400001928E-02 0. -1.
</event>
<event>
 5   0  0.9505359E-06  0.2861028E+04  0.7818609E-02  0.8284568E-01
        2   -1    0    0  501    0  0.00000000000E+00  0.00000000000E+00  0.17929571597E+04  0.17929571597E+04  0.25500000920E-02 0. -1.
       -2   -1    0    0    0  501  0.00000000000E+00  0.00000000000E+00 -0.11413378301E+04  0.11413378301E+04  0.25500000920E-02 0.  1.
    10030    2    1    2    0    0  0.00000000000E+00  0.00000000000E+00  0.65161932962E+03  0.29342949899E+04  0.28610276715E+04 0.  0.
        4    1    3    3  502    0 -0.13612850848E+04 -0.21001009431E+03  0.72192161537E+03  0.15551121354E+04  0.12699999809E+01 0.  1.
       -4    1    3    3    0  502  0.13612850848E+04  0.21001009431E+03 -0.70302285748E+02  0.13791828545E+04  0.12699999809E+01 0. -1.
</event>
<event>
 5   0  0.3474078E-06  0.2932082E+04  0.7818609E-02  0.8263396E-01
        1   -1    0    0  501    0  0.00000000000E+00  0.00000000000E+00  0.25975921343E+04  0.25975921343E+04  0.50400001928E-02 0. -1.
       -1   -1    0    0    0  501  0.00000000000E+00  0.00000000000E+00 -0.82741110063E+03  0.82741110065E+03  0.50400001928E-02 0.  1.
    10030    2    1    2    0    0  0.00000000000E+00  0.00000000000E+00  0.17701810337E+04  0.34250032350E+04  0.29320822409E+04 0.  0.
        3    1    3    3  502    0 -0.38367707738E+03 -0.17510537180E+03  0.25252003705E+04  0.25601771252E+04  0.10100000352E+00 0. -1.
       -3    1    3    3    0  502  0.38367707738E+03  0.17510537180E+03 -0.75501933683E+03  0.86482610976E+03  0.10100000352E+00 0.  1.
</event>
<event>
 5   0  0.3486236E-06  0.2876160E+04  0.7818609E-02  0.8280006E-01
        1   -1    0    0  501    0  0.00000000000E+00  0.00000000000E+00  0.16796714147E+04  0.16796714148E+04  0.50400001928E-02 0. -1.
       -1   -1    0    0    0  501  0.00000000000E+00  0.00000000000E+00 -0.12312370912E+04  0.12312370912E+04  0.50400001928E-02 0.  1.
    10030    2    1    2    0    0  0.00000000000E+00  0.00000000000E+00  0.44843432358E+03  0.29109085059E+04  0.28761597639E+04 0.  0.
        5    1    3    3  502    0 -0.71175092672E+03 -0.78818039872E+03 -0.75715449172E+03  0.13042709599E+04  0.46999998093E+01 0.  1.
       -5    1    3    3    0  502  0.71175092672E+03  0.78818039872E+03  0.12055888153E+04  0.16066375460E+04  0.46999998093E+01 0. -1.
</event>
<event>
 5   0  0.3474078E-06  0.2887559E+04  0.7818609E-02  0.8276589E-01
       -1   -1    0    0    0  501  0.00000000000E+00  0.00000000000E+00  0.10409817604E+04  0.10409817604E+04  0.50400001928E-02 0.  1.
        1   -1    0    0  501    0  0.00000000000E+00  0.00000000000E+00 -0.20024359257E+04  0.20024359257E+04  0.50400001928E-02 0. -1.
    10030    2    1    2    0    0  0.00000000000E+00  0.00000000000E+00 -0.96145416530E+03  0.30434176860E+04  0.28875590210E+04 0.  0.
        3    1    3    3  502    0  0.10442950012E+04 -0.37024338286E+03  0.49490800824E+03  0.12134933699E+04  0.10100000352E+00 0.  1.
       -3    1    3    3    0  502 -0.10442950012E+04  0.37024338286E+03 -0.14563621735E+04  0.18299243161E+04  0.10100000352E+00 0. -1.
</event>
<event>
 5   0  0.9251510E-06  0.2630996E+04  0.7818609E-02  0.8357748E-01
       -2   -1    0    0    0  501  0.00000000000E+00  0.00000000000E+00  0.59454006556E+03  0.59454006557E+03  0.25500000920E-02 0.  1.
        2   -1    0    0  501    0  0.00000000000E+00  0.00000000000E+00 -0.29107125035E+04  0.29107125035E+04  0.25500000920E-02 0. -1.
    10030    2    1    2    0    0  0.00000000000E+00  0.00000000000E+00 -0.23161724379E+04  0.35052525691E+04  0.26309961632E+04 0.  0.
        2    1    3    3  502    0 -0.14615067630E+03  0.22282021495E+03 -0.28743782095E+04  0.28867038226E+04  0.25500000920E-02 0. -1.
       -2    1    3    3    0  502  0.14615067630E+03 -0.22282021495E+03  0.55820577153E+03  0.61854874646E+03  0.25500000920E-02 0.  1.
</event>
<event>
 5   0  0.9251510E-06  0.2900407E+04  0.7818609E-02  0.8272757E-01
        2   -1    0    0  501    0  0.00000000000E+00  0.00000000000E+00  0.14015718400E+04  0.14015718400E+04  0.25500000920E-02 0. -1.
       -2   -1    0    0    0  501  0.00000000000E+00  0.00000000000E+00 -0.15005221958E+04  0.15005221958E+04  0.25500000920E-02 0.  1.
    10030    2    1    2    0    0  0.00000000000E+00  0.00000000000E+00 -0.98950355833E+02  0.29020940359E+04  0.29004066301E+04 0.  0.
        2    1    3    3  502    0  0.11786488289E+04 -0.66992806057E+03  0.46567674739E+03  0.14334822989E+04  0.25500000920E-02 0. -1.
       -2    1    3    3    0  502 -0.11786488289E+04  0.66992806057E+03 -0.56462710322E+03  0.14686117370E+04  0.25500000920E-02 0.  1.
</event>
<event>
 5   0  0.9505359E-06  0.2910566E+04  0.7818609E-02  0.8269741E-01
        2   -1    0    0  501    0  0.00000000000E+00  0.00000000000E+00  0.18215290592E+04  0.18215290592E+04  0.25500000920E-02 0. -1.
       -2   -1    0    0    0  501  0.00000000000E+00  0.00000000000E+00 -0.11626759016E+04  0.11626759016E+04  0.25500000920E-02 0.  1.
    10030    2    1    2    0    0  0.00000000000E+00  0.00000000000E+00  0.65885315763E+03  0.29842049608E+04  0.29105655404E+04 0.  0.
        4    1    3    3  502    0  0.83095111352E+03 -0.89781779475E+03  0.11375884757E+04  0.16705285686E+04  0.12699999809E+01 0. -1.
       -4    1    3    3    0  502 -0.83095111352E+03  0.89781779475E+03 -0.47873531812E+03  0.13136763922E+04  0.12699999809E+01 0.  1.
</event>
<event>
 5   0  0.3188375E-06  0.2941248E+04  0.7818609E-02  0.8260710E-01
        3   -1    0    0  501    0  0.00000000000E+00  0.00000000000E+00  0.17604560474E+04  0.17604560503E+04  0.10100000352E+00 0.  1.
       -3   -1    0    0    0  501  0.00000000000E+00  0.00000000000E+00 -0.12285079689E+04  0.12285079730E+04  0.10100000352E+00 0. -1.
    10030    2    1    2    0    0  0.00000000000E+00  0.00000000000E+00  0.53194807848E+03  0.29889640233E+04  0.29412475541E+04 0.  0.
        4    1    3    3  502    0 -0.99377067980E+03 -0.98703150897E+03 -0.18954036710E+03  0.14134137849E+04  0.12699999809E+01 0. -1.
       -4    1    3    3    0  502  0.99377067980E+03  0.98703150897E+03  0.72148844558E+03  0.15755502384E+04  0.12699999809E+01 0.  1.
</event>
<event>
 5   0  0.3474078E-06  0.3093871E+04  0.7818609E-02  0.8217422E-01
       -1   -1    0    0    0  501  0.00000000000E+00  0.00000000000E+00  0.19545275632E+04  0.19545275632E+04  0.50400001928E-02 0.  1.
        1   -1    0    0  501    0  0.00000000000E+00  0.00000000000E+00 -0.12243418311E+04  0.12243418311E+04  0.50400001928E-02 0. -1.
    10030    2    1    2    0    0  0.00000000000E+00  0.00000000000E+00  0.73018573211E+03  0.31788693944E+04  0.30938712680E+04 0.  0.
        3    1    3    3  502    0 -0.12732012011E+04 -0.11310716857E+03 -0.53015127006E+03  0.13837972790E+04  0.10100000352E+00 0. -1.
       -3    1    3    3    0  502  0.12732012011E+04  0.11310716857E+03  0.12603370022E+04  0.17950721154E+04  0.10100000352E+00 0.  1.
</event>
<event>
 5   0  0.3746518E-06  0.2870687E+04  0.7818609E-02  0.8281653E-01
       -1   -1    0    0    0  501  0.00000000000E+00  0.00000000000E+00  0.72862181986E+03  0.72862181988E+03  0.50400001928E-02 0. -1.
        1   -1    0    0  501    0  0.00000000000E+00  0.00000000000E+00 -0.28275445012E+04  0.28275445012E+04  0.50400001928E-02 0.  1.
    10030    2    1    2    0    0  0.00000000000E+00  0.00000000000E+00 -0.20989226814E+04  0.35561663211E+04  0.28706867612E+04 0.  0.
        4    1    3    3  502    0 -0.69311284250E+03 -0.89195152476E+03 -0.21464872797E+04  0.24255704875E+04  0.12699999809E+01 0.  1.
       -4    1    3    3    0  502  0.69311284250E+03  0.89195152476E+03  0.47564598384E+02  0.11305958336E+04  0.12699999809E+01 0. -1.
</event>
<event>
 5   0  0.9360689E-06  0.2681682E+04  0.7818609E-02  0.8340973E-01
        2   -1    0    0  501    0  0.00000000000E+00  0.00000000000E+00  0.30656506013E+04  0.30656506013E+04  0.25500000920E-02 0. -1.
       -2   -1    0    0    0  501  0.00000000000E+00  0.00000000000E+00 -0.58645139333E+03  0.58645139333E+03  0.25500000920E-02 0.  1.
    10030    2    1    2    0    0  0.00000000000E+00  0.00000000000E+00  0.24791992079E+04  0.36521019946E+04  0.26816823575E+04 0.  0.
        5    1    3    3  502    0 -0.58281782124E+03  0.10210337632E+04  0.21176058071E+04  0.24220782404E+04  0.46999998093E+01 0.  1.
       -5    1    3    3    0  502  0.58281782124E+03 -0.10210337632E+04  0.36159340082E+03  0.12300237542E+04  0.46999998093E+01 0. -1.
</event>
<event>
 5   0  0.3486236E-06  0.2910391E+04  0.7818609E-02  0.8269792E-01
       -1   -1    0    0    0  501  0.00000000000E+00  0.00000000000E+00  0.10463559234E+04  0.10463559234E+04  0.50400001928E-02 0.  1.
        1   -1    0    0  501    0  0.00000000000E+00  0.00000000000E+00 -0.20237804466E+04  0.20237804466E+04  0.50400001928E-02 0. -1.
    10030    2    1    2    0    0  0.00000000000E+00  0.00000000000E+00 -0.97742452316E+03  0.30701363700E+04  0.29103914912E+04 0.  0.
        5    1    3    3  502    0 -0.14231991459E+03 -0.58925208415E+03  0.90681278707E+03  0.10907815994E+04  0.46999998093E+01 0.  1.
       -5    1    3    3    0  502  0.14231991459E+03  0.58925208415E+03 -0.18842373102E+04  0.19793547706E+04  0.46999998093E+01 0. -1.
</event>
<event>
 5   0  0.3649705E-06  0.2903596E+04  0.7818609E-02  0.8271808E-01
       -1   -1    0    0    0  501  0.00000000000E+00  0.00000000000E+00  0.14764160641E+04  0.14764160641E+04  0.50400001928E-02 0.  1.
        1   -1    0    0  501    0  0.00000000000E+00  0.00000000000E+00 -0.14275904592E+04  0.14275904592E+04  0.50400001928E-02 0. -1.
    10030    2    1    2    0    0  0.00000000000E+00  0.00000000000E+00  0.48825604935E+02  0.29040065233E+04  0.29035960373E+04 0.  0.
        2    1    3    3  502    0 -0.10748634988E+04  0.64628102447E+03  0.75575265426E+03  0.14642994154E+04  0.25500000920E-02 0.  1.
       -2    1    3    3    0  502  0.10748634988E+04 -0.64628102447E+03 -0.70692704932E+03  0.14397071079E+04  0.25500000920E-02 0. -1.
</event>
<event>
 5   0  0.9646321E-06  0.2875152E+04  0.7818609E-02  0.8280309E-01
       -2   -1    0    0    0  501  0.00000000000E+00  0.00000000000E+00  0.17062822474E+04  0.17062822474E+04  0.25500000920E-02 0.  1.
        2   -1    0    0  501    0  0.00000000000E+00  0.00000000000E+00 -0.12111860436E+04  0.12111860436E+04  0.25500000920E-02 0. -1.
    10030    2    1    2    0    0  0.00000000000E+00  0.00000000000E+00  0.49509620382E+03  0.29174682910E+04  0.28751523399E+04 0.  0.
        3    1    3    3  502    0 -0.94118032523E+03 -0.97650853400E+03 -0.23616045287E+03  0.13766484995E+04  0.10100000352E+00 0. -1.
       -3    1    3    3    0  502  0.94118032523E+03  0.97650853400E+03  0.73125665669E+03  0.15408197915E+04  0.10100000352E+00 0.  1.
</event>
<event>
 5   0  0.3474078E-06  0.2953166E+04  0.7818609E-02  0.8257233E-01
        1   -1    0    0  501    0  0.00000000000E+00  0.00000000000E+00  0.12559446392E+04  0.12559446392E+04  0.50400001928E-02 0.  1.
       -1   -1    0    0    0  501  0.00000000000E+00  0.00000000000E+00 -0.17359816341E+04  0.17359816341E+04  0.50400001928E-02 0. -1.
    10030    2    1    2    0    0  0.00000000000E+00  0.00000000000E+00 -0.48003699486E+03  0.29919262733E+04  0.29531656419E+04 0.  0.
        3    1    3    3  502    0 -0.10522588124E+04 -0.88852063371E+03 -0.77952953924E+03  0.15825245140E+04  0.10100000352E+00 0. -1.
       -3    1    3    3    0  502  0.10522588124E+04  0.88852063371E+03  0.29949254438E+03  0.14094017593E+04  0.10100000352E+00 0.  1.
</event>
<event>
 5   0  0.3474078E-06  0.2799522E+04  0.7818609E-02  0.8303417E-01
       -1   -1    0    0    0  501  0.00000000000E+00  0.00000000000E+00  0.10712257941E+04  0.10712257942E+04  0.50400001928E-02 0. -1.
        1   -1    0    0  501    0  0.00000000000E+00  0.00000000000E+00 -0.18290553565E+04  0.18290553565E+04  0.50400001928E-02 0.  1.
    10030    2    1    2    0    0  0.00000000000E+00  0.00000000000E+00 -0.75782956234E+03  0.29002811507E+04  0.27995222998E+04 0.  0.
        3    1    3    3  502    0  0.82802298196E+03  0.95640772827E+03  0.24181050934E+03  0.12879480323E+04  0.10100000352E+00 0. -1.
       -3    1    3    3    0  502 -0.82802298196E+03 -0.95640772827E+03 -0.99964007167E+03  0.16123331183E+04  0.10100000352E+00 0.  1.
</event>
<event>
 5   0  0.3474078E-06  0.2911110E+04  0.7818609E-02  0.8269579E-01
        1   -1    0    0  501    0  0.00000000000E+00  0.00000000000E+00  0.13321713459E+04  0.13321713459E+04  0.50400001928E-02 0.  1.
       -1   -1    0    0    0  501  0.00000000000E+00  0.00000000000E+00 -0.15903666785E+04  0.15903666785E+04  0.50400001928E-02 0. -1.
    10030    2    1    2    0    0  0.00000000000E+00  0.00000000000E+00 -0.25819533262E+03  0.29225380244E+04  0.29111103851E+04 0.  0.
        3    1    3    3  502    0 -0.91528748574E+03 -0.10997670030E+04 -0.39735863828E+03  0.14849688684E+04  0.10100000352E+00 0. -1.
       -3    1    3    3    0  502  0.91528748574E+03  0.10997670030E+04  0.13916330566E+03  0.14375691560E+04  0.10100000352E+00 0.  1.
</event>
<event>
 5   0  0.3188375E-06  0.3238832E+04  0.7818609E-02  0.8178636E-01
        4   -1    0    0  501    0  0.00000000000E+00  0.00000000000E+00  0.10411348316E+04  0.10411356062E+04  0.12699999809E+01 0. -1.
       -4   -1    0    0    0  501  0.00000000000E+00  0.00000000000E+00 -0.25188916747E+04  0.25188919949E+04  0.12699999809E+01 0.  1.
    10030    2    1    2    0    0  0.00000000000E+00  0.00000000000E+00 -0.14777568431E+04  0.35600276011E+04  0.32388317698E+04 0.  0.
        1    1    3    3  502    0 -0.15043641592E+04 -0.56162826687E+03 -0.50839320159E+03  0.16843400729E+04  0.50400001928E-02 0. -1.
       -1    1    3    3    0  502  0.15043641592E+04  0.56162826687E+03 -0.96936364156E+03  0.18756875282E+04  0.50400001928E-02 0.  1.
</event>
<event>
 5   0  0.3746518E-06  0.2923636E+04  0.7818609E-02  0.8265880E-01
       -1   -1    0    0    0  501  0.00000000000E+00  0.00000000000E+00  0.10538335208E+04  0.10538335208E+04  0.50400001928E-02 0.  1.
        1   -1    0    0  501    0  0.00000000000E+00  0.00000000000E+00 -0.20277514561E+04  0.20277514561E+04  0.50400001928E-02 0. -1.
    10030    2    1    2    0    0  0.00000000000E+00  0.00000000000E+00 -0.97391793532E+03  0.30815849769E+04  0.29236364044E+04 0.  0.
        4    1    3    3  502    0  0.10679931382E+04  0.97382634254E+02  0.56009567196E+03  0.12098766447E+04  0.12699999809E+01 0.  1.
       -4    1    3    3    0  502 -0.10679931382E+04 -0.97382634254E+02 -0.15340136073E+04  0.18717083322E+04  0.12699999809E+01 0. -1.
</event>
<event>
 5   0  0.3746518E-06  0.2945029E+04  0.7818609E-02  0.8259605E-01
       -1   -1    0    0    0  501  0.00000000000E+00  0.00000000000E+00  0.14120169385E+04  0.14120169385E+04  0.50400001928E-02 0. -1.
        1   -1    0    0  501    0  0.00000000000E+00  0.00000000000E+00 -0.15356043043E+04  0.15356043043E+04  0.50400001928E-02 0.  1.
    10030    2    1    2    0    0  0.00000000000E+00  0.00000000000E+00 -0.12358736580E+03  0.29476212428E+04  0.29450292281E+04 0.  0.
        4    1    3    3  502    0 -0.57507710560E+03  0.12673360542E+04 -0.54330266986E+03  0.14939992489E+04  0.12699999809E+01 0.  1.
       -4    1    3    3    0  502  0.57507710560E+03 -0.12673360542E+04  0.41971530407E+03  0.14536219939E+04  0.12699999809E+01 0. -1.
</event>
<event>
 5   0  0.9646321E-06  0.2358269E+04  0.7818609E-02  0.8455294E-01
        2   -1    0    0  501    0  0.00000000000E+00  0.00000000000E+00  0.11343661319E+04  0.11343661319E+04  0.25500000920E-02 0.  1.
       -2   -1    0    0    0  501  0.00000000000E+00  0.00000000000E+00 -0.12256699196E+04  0.12256699196E+04  0.25500000920E-02 0. -1.
    10030    2    1    2    0    0  0.00000000000E+00  0.00000000000E+00 -0.91303787740E+02  0.23600360516E+04  0.23582692346E+04 0.  0.
        3    1    3    3  502    0  0.10834080202E+03 -0.10595522212E+04 -0.55196551784E+03  0.11996060111E+04  0.10100000352E+00 0. -1.
       -3    1    3    3    0  502 -0.10834080202E+03  0.10595522212E+04  0.46066173010E+03  0.11604300404E+04  0.10100000352E+00 0.  1.
</event>
<event>
 5   0  0.9505359E-06  0.2920371E+04  0.7818609E-02  0.8266842E-01
        2   -1    0    0  501    0  0.00000000000E+00  0.00000000000E+00  0.23575510815E+04  0.23575510815E+04  0.25500000920E-02 0. -1.
       -2   -1    0    0    0  501  0.00000000000E+00  0.00000000000E+00 -0.90438852205E+03  0.90438852205E+03  0.25500000920E-02 0.  1.
    10030    2    1    2    0    0  0.00000000000E+00  0.00000000000E+00  0.14531625595E+04  0.32619396036E+04  0.29203713040E+04 0.  0.
        4    1    3    3  502    0 -0.16893838602E+03  0.17241785039E+03 -0.88194759943E+03  0.91438573613E+03  0.12699999809E+01 0.  1.
       -4    1    3    3    0  502  0.16893838602E+03 -0.17241785039E+03  0.23351101589E+04  0.23475538674E+04  0.12699999809E+01 0. -1.
</event>
<event>
 5   0  0.9505359E-06  0.2898827E+04  0.7818609E-02  0.8273227E-01
       -2   -1    0    0    0  501  0.00000000000E+00  0.00000000000E+00  0.19150165866E+04  0.19150165866E+04  0.25500000920E-02 0.  1.
        2   -1    0    0  501    0  0.00000000000E+00  0.00000000000E+00 -0.10970137707E+04  0.10970137707E+04  0.25500000920E-02 0. -1.
    10030    2    1    2    0    0  0.00000000000E+00  0.00000000000E+00  0.81800281594E+03  0.30120303573E+04  0.28988270501E+04 0.  0.
        4    1    3    3  502    0 -0.38981410214E+03  0.13198667964E+04 -0.63503793272E+02  0.13776929046E+04  0.12699999809E+01 0.  1.
       -4    1    3    3    0  502  0.38981410214E+03 -0.13198667964E+04  0.88150660921E+03  0.16343374528E+04  0.12699999809E+01 0. -1.
</event>
<event>
 5   0  0.3486236E-06  0.2906320E+04  0.7818609E-02  0.8271000E-01
       -1   -1    0    0    0  501  0.00000000000E+00  0.00000000000E+00  0.13056372810E+04  0.13056372810E+04  0.50400001928E-02 0.  1.
        1   -1    0    0  501    0  0.00000000000E+00  0.00000000000E+00 -0.16173512692E+04  0.16173512692E+04  0.50400001928E-02 0. -1.
    10030    2    1    2    0    0  0.00000000000E+00  0.00000000000E+00 -0.31171398820E+03  0.29229885503E+04  0.29063200881E+04 0.  0.
        5    1    3    3  502    0 -0.90516029233E+03  0.10871871623E+04 -0.48996845367E+03  0.14971246629E+04  0.46999998093E+01 0.  1.
       -5    1    3    3    0  502  0.90516029233E+03 -0.10871871623E+04  0.17825446547E+03  0.14258638873E+04  0.46999998093E+01 0. -1.
</event>
<event>
 5   0  0.3474078E-06  0.3033179E+04  0.7818609E-02  0.8234319E-01
        1   -1    0    0  501    0  0.00000000000E+00  0.00000000000E+00  0.17867335854E+04  0.17867335854E+04  0.50400001928E-02 0. -1.
       -1   -1    0    0    0  501  0.00000000000E+00  0.00000000000E+00 -0.12872899774E+04  0.12872899775E+04  0.50400001928E-02 0.  1.
    10030    2    1    2    0    0  0.00000000000E+00  0.00000000000E+00  0.49944360796E+03  0.30740235629E+04  0.30331793464E+04 0.  0.
        3    1    3    3  502    0 -0.66269616965E+03 -0.45653543985E+03  0.15525096948E+04  0.17486786966E+04  0.10100000352E+00 0. -1.
       -3    1    3    3    0  502  0.66269616965E+03  0.45653543985E+03 -0.10530660869E+04  0.13253448663E+04  0.10100000352E+00 0.  1.
</event>
<event>
 5   0  0.9505359E-06  0.2923946E+04  0.7818609E-02  0.8265788E-01
        2   -1    0    0  501    0  0.00000000000E+00  0.00000000000E+00  0.12298326813E+04  0.12298326813E+04  0.25500000920E-02 0.  1.
       -2   -1    0    0    0  501  0.00000000000E+00  0.00000000000E+00 -0.17379314947E+04  0.17379314947E+04  0.25500000920E-02 0. -1.
    10030    2    1    2    0    0  0.00000000000E+00  0.00000000000E+00 -0.50809881332E+03  0.29677641760E+04  0.29239459298E+04 0.  0.
        4    1    3    3  502    0  0.33155489198E+03 -0.73879085830E+03  0.98141111121E+03  0.12723639262E+04  0.12699999809E+01 0.  1.
       -4    1    3    3    0  502 -0.33155489198E+03  0.73879085830E+03 -0.14895099245E+04  0.16954002498E+04  0.12699999809E+01 0. -1.
</event>
<event>
 5   0  0.9360689E-06  0.2894779E+04  0.7818609E-02  0.8274432E-01
       -2   -1    0    0    0  501  0.00000000000E+00  0.00000000000E+00  0.17577815046E+04  0.17577815046E+04  0.25500000920E-02 0. -1.
        2   -1    0    0  501    0  0.00000000000E+00  0.00000000000E+00 -0.11918072353E+04  0.11918072353E+04  0.25500000920E-02 0.  1.
    10030    2    1    2    0    0  0.00000000000E+00  0.00000000000E+00  0.56597426932E+03  0.29495887399E+04  0.28947792422E+04 0.  0.
        5    1    3    3  502    0  0.53856194264E+03 -0.99273067160E+02 -0.10821601692E+04  0.12128465813E+04  0.46999998093E+01 0.  1.
       -5    1    3    3    0  502 -0.53856194264E+03  0.99273067160E+02  0.16481344386E+04  0.17367421586E+04  0.46999998093E+01 0. -1.
</event>
<event>
 5   0  0.3486236E-06  0.2846507E+04  0.7818609E-02  0.8288974E-01
        1   -1    0    0  501    0  0.00000000000E+00  0.00000000000E+00  0.18833980445E+04  0.18833980445E+04  0.50400001928E-02 0.  1.
       -1   -1    0    0    0  501  0.00000000000E+00  0.00000000000E+00 -0.10755294760E+04  0.10755294760E+04  0.50400001928E-02 0. -1.
    10030    2    1    2    0    0  0.00000000000E+00  0.00000000000E+00  0.80786856853E+03  0.29589275205E+04  0.28465067096E+04 0.  0.
        5    1    3    3  502    0 -0.23751983540E+03  0.10041747027E+04  0.14228749595E+04  0.17576625803E+04  0.46999998093E+01 0.  1.
       -5    1    3    3    0  502  0.23751983540E+03 -0.10041747027E+04 -0.61500639097E+03  0.12012649402E+04  0.46999998093E+01 0. -1.
</event>
<event>
 5   0  0.3474078E-06  0.2867241E+04  0.7818609E-02  0.8282692E-01
        1   -1    0    0  501    0  0.00000000000E+00  0.00000000000E+00  0.13659919187E+04  0.13659919187E+04  0.50400001928E-02 0.  1.
       -1   -1    0    0    0  501  0.00000000000E+00  0.00000000000E+00 -0.15045971440E+04  0.15045971440E+04  0.50400001928E-02 0. -1.
    10030    2    1    2    0    0  0.00000000000E+00  0.00000000000E+00 -0.13860522535E+03  0.28705890627E+04  0.28672408616E+04 0.  0.
        3    1    3    3  502    0 -0.56836682690E+03  0.12944263458E+04 -0.30767120132E+03  0.14468040617E+04  0.10100000352E+00 0.  1.
       -3    1    3    3    0  502  0.56836682690E+03 -0.12944263458E+04  0.16906597598E+03  0.14237850010E+04  0.10100000352E+00 0. -1.
</event>
<event>
 5   0  0.9251510E-06  0.2716087E+04  0.7818609E-02  0.8329804E-01
       -2   -1    0    0    0  501  0.00000000000E+00  0.00000000000E+00  0.11402468305E+04  0.11402468305E+04  0.25500000920E-02 0. -1.
        2   -1    0    0  501    0  0.00000000000E+00  0.00000000000E+00 -0.16174406155E+04  0.16174406155E+04  0.25500000920E-02 0.  1.
    10030    2    1    2    0    0  0.00000000000E+00  0.00000000000E+00 -0.47719378507E+03  0.27576874460E+04  0.27160865489E+04 0.  0.
        2    1    3    3  502    0  0.69025983942E+03 -0.48909984167E+03 -0.13172263456E+04  0.15654911519E+04  0.25500000920E-02 0.  1.
       -2    1    3    3    0  502 -0.69025983942E+03  0.48909984167E+03  0.84003256051E+03  0.11921962941E+04  0.25500000920E-02 0. -1.
</event>
<event>
 5   0  0.9360689E-06  0.2845676E+04  0.7818609E-02  0.8289226E-01
       -2   -1    0    0    0  501  0.00000000000E+00  0.00000000000E+00  0.91227981009E+03  0.91227981009E+03  0.25500000920E-02 0.  1.
        2   -1    0    0  501    0  0.00000000000E+00  0.00000000000E+00 -0.22191311343E+04  0.22191311343E+04  0.25500000920E-02 0. -1.
    10030    2    1    2    0    0  0.00000000000E+00  0.00000000000E+00 -0.13068513242E+04  0.31314109444E+04  0.28456763904E+04 0.  0.
        5    1    3    3  502    0  0.11515127601E+04  0.78814023104E+03 -0.95937088867E+03  0.16933875080E+04  0.46999998093E+01 0. -1.
       -5    1    3    3    0  502 -0.11515127601E+04 -0.78814023104E+03 -0.34748043550E+03  0.14380234363E+04  0.46999998093E+01 0.  1.
</event>
<event>
 5   0  0.1001573E-05  0.2740530E+04  0.7818609E-02  0.8321973E-01
       -2   -1    0    0    0  501  0.00000000000E+00  0.00000000000E+00  0.83711323196E+03  0.83711323196E+03  0.25500000920E-02 0.  1.
        2   -1    0    0  501    0  0.00000000000E+00  0.00000000000E+00 -0.22429773882E+04  0.22429773882E+04  0.25500000920E-02 0. -1.
    10030    2    1    2    0    0  0.00000000000E+00  0.00000000000E+00 -0.14058641563E+04  0.30800906202E+04  0.27405299127E+04 0.  0.
        1    1    3    3  502    0  0.10323600605E+04 -0.41830082460E+03 -0.15998626679E+04  0.19494366957E+04  0.50400001928E-02 0. -1.
       -1    1    3    3    0  502 -0.10323600605E+04  0.41830082460E+03  0.19399851163E+03  0.11306539245E+04  0.50400001928E-02 0.  1.
</event>
<event>
 5   0  0.9505359E-06  0.2908230E+04  0.7818609E-02  0.8270433E-01
        2   -1    0    0  501    0  0.00000000000E+00  0.00000000000E+00  0.23893318101E+04  0.23893318101E+04  0.25500000920E-02 0.  1.
       -2   -1    0    0    0  501  0.00000000000E+00  0.00000000000E+00 -0.88495446064E+03  0.88495446064E+03  0.25500000920E-02 0. -1.
    10030    2    1    2    0    0  0.00000000000E+00  0.00000000000E+00  0.15043773495E+04  0.32742862708E+04  0.29082295943E+04 0.  0.
        4    1    3    3  502    0  0.42984793011E+03 -0.53324454285E+03 -0.69196818049E+03  0.97362239149E+03  0.12699999809E+01 0. -1.
       -4    1    3    3    0  502 -0.42984793011E+03  0.53324454285E+03  0.21963455300E+04  0.23006638793E+04  0.12699999809E+01 0.  1.
</event>
<event>
 5   0  0.9360689E-06  0.2809536E+04  0.7818609E-02  0.8300314E-01
       -2   -1    0    0    0  501  0.00000000000E+00  0.00000000000E+00  0.97773430878E+03  0.97773430878E+03  0.25500000920E-02 0.  1.
        2   -1    0    0  501    0  0.00000000000E+00  0.00000000000E+00 -0.20183118806E+04  0.20183118806E+04  0.25500000920E-02 0. -1.
    10030    2    1    2    0    0  0.00000000000E+00  0.00000000000E+00 -0.10405775718E+04  0.29960461893E+04  0.28095357420E+04 0.  0.
        5    1    3    3  502    0 -0.13626075046E+04  0.33879097423E+03 -0.56642944176E+03  0.15140485257E+04  0.46999998093E+01 0.  1.
       -5    1    3    3    0  502  0.13626075046E+04 -0.33879097423E+03 -0.47414813002E+03  0.14819976636E+04  0.46999998093E+01 0. -1.
</event>
<event>
 5   0  0.9646321E-06  0.2907628E+04  0.7818609E-02  0.8270612E-01
        2   -1    0    0  501    0  0.00000000000E+00  0.00000000000E+00  0.15918993176E+04  0.15918993176E+04  0.25500000920E-02 0.  1.
       -2   -1    0    0    0  501  0.00000000000E+00  0.00000000000E+00 -0.13277064662E+04  0.13277064662E+04  0.25500000920E-02 0. -1.
    10030    2    1    2    0    0  0.00000000000E+00  0.00000000000E+00  0.26419285139E+03  0.29196057837E+04  0.29076279111E+04 0.  0.
        3    1    3    3  502    0  0.14157079952E+04  0.17525229227E+03  0.41366648048E+03  0.14852819466E+04  0.10100000352E+00 0.  1.
       -3    1    3    3    0  502 -0.14157079952E+04 -0.17525229227E+03 -0.14947362909E+03  0.14343238371E+04  0.10100000352E+00 0. -1.
</event>
<event>
 5   0  0.3746518E-06  0.3049569E+04  0.7818609E-02  0.8229716E-01
        1   -1    0    0  501    0  0.00000000000E+00  0.00000000000E+00  0.13087279649E+04  0.13087279649E+04  0.50400001928E-02 0. -1.
       -1   -1    0    0    0  501  0.00000000000E+00  0.00000000000E+00 -0.17765101459E+04  0.17765101459E+04  0.50400001928E-02 0.  1.
    10030    2    1    2    0    0  0.00000000000E+00  0.00000000000E+00 -0.46778218101E+03  0.30852381108E+04  0.30495694829E+04 0.  0.
        4    1    3    3  502    0  0.10065577415E+04  0.80075185454E+03 -0.10623739117E+04  0.16682331854E+04  0.12699999809E+01 0. -1.
       -4    1    3    3    0  502 -0.10065577415E+04 -0.80075185454E+03  0.59459173070E+03  0.14170049254E+04  0.12699999809E+01 0.  1.
</event>
<event>
 5   0  0.9360689E-06  0.2912787E+04  0.7818609E-02  0.8269083E-01
       -2   -1    0    0    0  501  0.00000000000E+00  0.00000000000E+00  0.23196095483E+04  0.23196095483E+04  0.25500000920E-02 0.  1.
        2   -1    0    0  501    0  0.00000000000E+00  0.00000000000E+00 -0.91441329691E+03  0.91441329692E+03  0.25500000920E-02 0. -1.
    10030    2    1    2    0    0  0.00000000000E+00  0.00000000000E+00  0.14051962514E+04  0.32340228452E+04  0.29127868543E+04 0.  0.
        5    1    3    3  502    0  0.58994639838E+03 -0.96936189989E+03  0.17161613114E+04  0.20574088030E+04  0.46999998093E+01 0. -1.
       -5    1    3    3    0  502 -0.58994639838E+03  0.96936189989E+03 -0.31096505997E+03  0.11766140423E+04  0.46999998093E+01 0.  1.
</event>
<event>
 5   0  0.3486236E-06  0.2893433E+04  0.7818609E-02  0.8274834E-01
        1   -1    0    0  501    0  0.00000000000E+00  0.00000000000E+00  0.12901825178E+04  0.12901825178E+04  0.50400001928E-02 0.  1.
       -1   -1    0    0    0  501  0.00000000000E+00  0.00000000000E+00 -0.16222424149E+04  0.16222424149E+04  0.50400001928E-02 0. -1.
    10030    2    1    2    0    0  0.00000000000E+00  0.00000000000E+00 -0.33205989709E+03  0.29124249327E+04  0.28934331189E+04 0.  0.
        5    1    3    3  502    0 -0.42396196745E+03 -0.43923404640E+03 -0.14862396944E+04  0.16067360755E+04  0.46999998093E+01 0. -1.
       -5    1    3    3    0  502  0.42396196745E+03  0.43923404640E+03  0.11541797973E+04  0.13056888572E+04  0.46999998093E+01 0.  1.
</event>
<event>
 5   0  0.3486236E-06  0.2893545E+04  0.7818609E-02  0.8274801E-01
        1   -1    0    0  501    0  0.00000000000E+00  0.00000000000E+00  0.23575459314E+04  0.23575459314E+04  0.50400001928E-02 0.  1.
       -1   -1    0    0    0  501  0.00000000000E+00  0.00000000000E+00 -0.88785157749E+03  0.88785157751E+03  0.50400001928E-02 0. -1.
    10030    2    1    2    0    0  0.00000000000E+00  0.00000000000E+00  0.14696943539E+04  0.32453975089E+04  0.28935451434E+04 0.  0.
        5    1    3    3  502    0  0.50537292084E+03  0.13445800622E+02  0.22552433587E+04  0.23112177041E+04  0.46999998093E+01 0.  1.
       -5    1    3    3    0  502 -0.50537292084E+03 -0.13445800622E+02 -0.78554900484E+03  0.93417980479E+03  0.46999998093E+01 0. -1.
</event>
<event>
 5   0  0.3486236E-06  0.2947305E+04  0.7818609E-02  0.8258941E-01
       -1   -1    0    0    0  501  0.00000000000E+00  0.00000000000E+00  0.97602526481E+03  0.97602526482E+03  0.50400001928E-02 0. -1.
        1   -1    0    0  501    0  0.00000000000E+00  0.00000000000E+00 -0.22249947253E+04  0.22249947253E+04  0.50400001928E-02 0.  1.
    10030    2    1    2    0    0  0.00000000000E+00  0.00000000000E+00 -0.12489694605E+04  0.32010199901E+04  0.29473045760E+04 0.  0.
        5    1    3    3  502    0  0.83349423957E+03 -0.81755049189E+03 -0.16010713545E+04  0.19815531853E+04  0.46999998093E+01 0.  1.
       -5    1    3    3    0  502 -0.83349423957E+03  0.81755049189E+03  0.35210189400E+03  0.12194668048E+04  0.46999998093E+01 0. -1.
</event>
<event>
 5   0  0.3564340E-06  0.2850347E+04  0.7818609E-02  0.8287806E-01
        1   -1    0    0  501    0  0.00000000000E+00  0.00000000000E+00  0.15326821493E+04  0.15326821493E+04  0.50400001928E-02 0.  1.
       -1   -1    0    0    0  501  0.00000000000E+00  0.00000000000E+00 -0.13252056945E+04  0.13252056945E+04  0.50400001928E-02 0. -1.
    10030    2    1    2    0    0  0.00000000000E+00  0.00000000000E+00  0.20747645481E+03  0.28578878438E+04  0.28503467242E+04 0.  0.
        1    1    3    3  502    0  0.13443826791E+04  0.10755439582E+03  0.56559385200E+03  0.14624736378E+04  0.50400001928E-02 0.  1.
       -1    1    3    3    0  502 -0.13443826791E+04 -0.10755439582E+03 -0.35811739719E+03  0.13954142059E+04  0.50400001928E-02 0. -1.
</event>
<event>
 5   0  0.9646321E-06  0.2885007E+04  0.7818609E-02  0.8277352E-01
       -2   -1    0    0    0  501  0.00000000000E+00  0.00000000000E+00  0.82778147848E+03  0.82778147849E+03  0.25500000920E-02 0. -1.
        2   -1    0    0  501    0  0.00000000000E+00  0.00000000000E+00 -0.25137260635E+04  0.25137260635E+04  0.25500000920E-02 0.  1.
    10030    2    1    2    0    0  0.00000000000E+00  0.00000000000E+00 -0.16859445850E+04  0.33415075420E+04  0.28850066741E+04 0.  0.
        3    1    3    3  502    0  0.29188842664E+02 -0.54169396714E+03 -0.23910792610E+04  0.24518450981E+04  0.10100000352E+00 0.  1.
       -3    1    3    3    0  502 -0.29188842664E+02  0.54169396714E+03  0.70513467598E+03  0.88966244388E+03  0.10100000352E+00 0. -1.
</event>
<event>
 5   0  0.9360689E-06  0.2911153E+04  0.7818609E-02  0.8269567E-01
        2   -1    0    0  501    0  0.00000000000E+00  0.00000000000E+00  0.23306654558E+04  0.23306654558E+04  0.25500000920E-02 0. -1.
       -2   -1    0    0    0  501  0.00000000000E+00  0.00000000000E+00 -0.90905483701E+03  0.90905483701E+03  0.25500000920E-02 0.  1.
    10030    2    1    2    0    0  0.00000000000E+00  0.00000000000E+00  0.14216106188E+04  0.32397202928E+04  0.29111528342E+04 0.  0.
        5    1    3    3  502    0  0.97639439689E+03  0.20672272450E+03 -0.46830677238E+03  0.11024579929E+04  0.46999998093E+01 0.  1.
       -5    1    3    3    0  502 -0.97639439689E+03 -0.20672272450E+03  0.18899173912E+04  0.21372622999E+04  0.46999998093E+01 0. -1.
</event>
<event>
 5   0  0.3746518E-06  0.2873380E+04  0.7818609E-02  0.8280842E-01
       -1   -1    0    0    0  501  0.00000000000E+00  0.00000000000E+00  0.17553412687E+04  0.17553412687E+04  0.50400001928E-02 0. -1.
        1   -1    0    0  501    0  0.00000000000E+00  0.00000000000E+00 -0.11758841673E+04  0.11758841674E+04  0.50400001928E-02 0.  1.
    10030    2    1    2    0    0  0.00000000000E+00  0.00000000000E+00  0.57945710135E+03  0.29312254361E+04  0.28733798956E+04 0.  0.
        4    1    3    3  502    0  0.11863679995E+04  0.76442616829E+03  0.15504753937E+02  0.14114029925E+04  0.12699999809E+01 0.  1.
       -4    1    3    3    0  502 -0.11863679995E+04 -0.76442616829E+03  0.56395234742E+03  0.15198224436E+04  0.12699999809E+01 0. -1.
</event>
<event>
 5   0  0.9251510E-06  0.2862791E+04  0.7818609E-02  0.8284035E-01
        2   -1    0    0  501    0  0.00000000000E+00  0.00000000000E+00  0.15595625448E+04  0.15595625448E+04  0.25500000920E-02 0. -1.
       -2   -1    0    0    0  501  0.00000000000E+00  0.00000000000E+00 -0.13137611999E+04  0.13137611999E+04  0.25500000920E-02 0.  1.
    10030    2    1    2    0    0  0.00000000000E+00  0.00000000000E+00  0.24580134490E+03  0.28733237448E+04  0.28627907784E+04 0.  0.
        2    1    3    3  502    0  0.43576950695E+03 -0.79105243282E+03  0.12374971141E+04  0.15320111364E+04  0.25500000920E-02 0. -1.
       -2    1    3    3    0  502 -0.43576950695E+03  0.79105243282E+03 -0.99169576921E+03  0.13413126084E+04  0.25500000920E-02 0.  1.
</event>
<event>
 5   0  0.9251510E-06  0.2827330E+04  0.7818609E-02  0.8294833E-01
       -2   -1    0    0    0  501  0.00000000000E+00  0.00000000000E+00  0.11178773927E+04  0.11178773927E+04  0.25500000920E-02 0.  1.
        2   -1    0    0  501    0  0.00000000000E+00  0.00000000000E+00 -0.17877170477E+04  0.17877170477E+04  0.25500000920E-02 0. -1.
    10030    2    1    2    0    0  0.00000000000E+00  0.00000000000E+00 -0.66983965506E+03  0.29055944404E+04  0.28273298161E+04 0.  0.
        2    1    3    3  502    0 -0.20454344720E+03 -0.66726478301E+03 -0.15983279279E+04  0.17440563286E+04  0.25500000920E-02 0. -1.
       -2    1    3    3    0  502  0.20454344720E+03  0.66726478301E+03  0.92848827280E+03  0.11615381118E+04  0.25500000920E-02 0.  1.
</event>
<event>
 5   0  0.3564340E-06  0.3013055E+04  0.7818609E-02  0.8240013E-01
       -1   -1    0    0    0  501  0.00000000000E+00  0.00000000000E+00  0.14898974653E+04  0.14898974653E+04  0.50400001928E-02 0.  1.
        1   -1    0    0  501    0  0.00000000000E+00  0.00000000000E+00 -0.15233434936E+04  0.15233434936E+04  0.50400001928E-02 0. -1.
    10030    2    1    2    0    0  0.00000000000E+00  0.00000000000E+00 -0.33446028325E+02  0.30132409589E+04  0.30130553330E+04 0.  0.
        1    1    3    3  502    0 -0.85141458320E+03 -0.79652734109E+03  0.93741281123E+03  0.14960298715E+04  0.50400001928E-02 0.  1.
       -1    1    3    3    0  502  0.85141458320E+03  0.79652734109E+03 -0.97085883956E+03  0.15172110875E+04  0.50400001928E-02 0. -1.
</event>
<event>
 5   0  0.9360689E-06  0.2915289E+04  0.7818609E-02  0.8268343E-01
       -2   -1    0    0    0  501  0.00000000000E+00  0.00000000000E+00  0.10312886569E+04  0.10312886569E+04  0.25500000920E-02 0. -1.
        2   -1    0    0  501    0  0.00000000000E+00  0.00000000000E+00 -0.20602642877E+04  0.20602642877E+04  0.25500000920E-02 0.  1.
    10030    2    1    2    0    0  0.00000000000E+00  0.00000000000E+00 -0.10289756309E+04  0.30915529446E+04  0.29152887954E+04 0.  0.
        5    1    3    3  502    0  0.16795461653E+03  0.11326954896E+04 -0.14709617871E+04  0.18641240556E+04  0.46999998093E+01 0.  1.
       -5    1    3    3    0  502 -0.16795461653E+03 -0.11326954896E+04  0.44198615628E+03  0.12274288890E+04  0.46999998093E+01 0. -1.
</event>
<event>
 5   0  0.3474078E-06  0.2822368E+04  0.7818609E-02  0.8296357E-01
        1   -1    0    0  501    0  0.00000000000E+00  0.00000000000E+00  0.19154139707E+04  0.19154139707E+04  0.50400001928E-02 0. -1.
       -1   -1    0    0    0  501  0.00000000000E+00  0.00000000000E+00 -0.10396919604E+04  0.10396919604E+04  0.50400001928E-02 0.  1.
    10030    2    1    2    0    0  0.00000000000E+00  0.00000000000E+00  0.87572201035E+03  0.29551059311E+04  0.28223681590E+04 0.  0.
        3    1    3    3  502    0  0.63011706522E+03 -0.43876839503E+02  0.17591405752E+04  0.18691035997E+04  0.10100000352E+00 0. -1.
       -3    1    3    3    0  502 -0.63011706522E+03  0.43876839503E+02 -0.88341856484E+03  0.10860023314E+04  0.10100000352E+00 0.  1.
</event>
<event>
 5   0  0.9505359E-06  0.2914431E+04  0.7818609E-02  0.8268597E-01
        2   -1    0    0  501    0  0.00000000000E+00  0.00000000000E+00  0.30627860164E+04  0.30627860164E+04  0.25500000920E-02 0. -1.
       -2   -1    0    0    0  501  0.00000000000E+00  0.00000000000E+00 -0.69331536809E+03  0.69331536809E+03  0.25500000920E-02 0.  1.
    10030    2    1    2    0    0  0.00000000000E+00  0.00000000000E+00  0.23694706483E+04  0.37561013845E+04  0.29144307261E+04 0.  0.
        4    1    3    3  502    0 -0.14214993759E+04  0.25782231474E+03  0.14304262150E+04  0.20330404795E+04  0.12699999809E+01 0.  1.
       -4    1    3    3    0  502  0.14214993759E+04 -0.25782231474E+03  0.93904443333E+03  0.17230609050E+04  0.12699999809E+01 0. -1.
</event>
<event>
 5   0  0.9360689E-06  0.2863057E+04  0.7818609E-02  0.8283955E-01
        2   -1    0    0  501    0  0.00000000000E+00  0.00000000000E+00  0.74988026632E+03  0.74988026632E+03  0.25500000920E-02 0.  1.
       -2   -1    0    0    0  501  0.00000000000E+00  0.00000000000E+00 -0.27328009973E+04  0.27328009973E+04  0.25500000920E-02 0. -1.
    10030    2    1    2    0    0  0.00000000000E+00  0.00000000000E+00 -0.19829207310E+04  0.34826812636E+04  0.28630567858E+04 0.  0.
        5    1    3    3  502    0  0.39670311192E+02  0.49848478306E+03  0.64017217758E+03  0.81234433554E+03  0.46999998093E+01 0.  1.
       -5    1    3    3    0  502 -0.39670311192E+02 -0.49848478306E+03 -0.26230929086E+04  0.26703369281E+04  0.46999998093E+01 0. -1.
</event>
<event>
 5   0  0.3564340E-06  0.2934348E+04  0.7818609E-02  0.8262731E-01
       -1   -1    0    0    0  501  0.00000000000E+00  0.00000000000E+00  0.10827132410E+04  0.10827132410E+04  0.50400001928E-02 0.  1.
        1   -1    0    0  501    0  0.00000000000E+00  0.00000000000E+00 -0.19881524162E+04  0.19881524162E+04  0.50400001928E-02 0. -1.
    10030    2    1    2    0    0  0.00000000000E+00  0.00000000000E+00 -0.90543917513E+03  0.30708656572E+04  0.29343475910E+04 0.  0.
        1    1    3    3  502    0 -0.12306485252E+04  0.78624356796E+03 -0.60043974593E+03  0.15789878497E+04  0.50400001928E-02 0.  1.
       -1    1    3    3    0  502  0.12306485252E+04 -0.78624356796E+03 -0.30499942920E+03  0.14918778076E+04  0.50400001928E-02 0. -1.
</event>
<event>
 5   0  0.3564340E-06  0.2807670E+04  0.7818609E-02  0.8300891E-01
        1   -1    0    0  501    0  0.00000000000E+00  0.00000000000E+00  0.26792063146E+04  0.26792063146E+04  0.50400001928E-02 0.  1.
       -1   -1    0    0    0  501  0.00000000000E+00  0.00000000000E+00 -0.73557355659E+03  0.73557355661E+03  0.50400001928E-02 0. -1.
    10030    2    1    2    0    0  0.00000000000E+00  0.00000000000E+00  0.19436327580E+04  0.34147798712E+04  0.28076704349E+04 0.  0.
        1    1    3    3  502    0 -0.33594238123E+03  0.17947429040E+03  0.26151642601E+04  0.26427547014E+04  0.50400001928E-02 0.  1.
       -1    1    3    3    0  502  0.33594238123E+03 -0.17947429040E+03 -0.67153150212E+03  0.77202516979E+03  0.50400001928E-02 0. -1.
</event>
<event>
 5   0  0.3474078E-06  0.2883563E+04  0.7818609E-02  0.8277785E-01
        1   -1    0    0  501    0  0.00000000000E+00  0.00000000000E+00  0.16258180286E+04  0.16258180286E+04  0.50400001928E-02 0.  1.
       -1   -1    0    0    0  501  0.00000000000E+00  0.00000000000E+00 -0.12785770981E+04  0.12785770981E+04  0.50400001928E-02 0. -1.
    10030    2    1    2    0    0  0.00000000000E+00  0.00000000000E+00  0.34724093048E+03  0.29043951268E+04  0.28835628636E+04 0.  0.
        3    1    3    3  502    0  0.73551303678E+03  0.12139194951E+04 -0.81495239650E+02  0.14216966808E+04  0.10100000352E+00 0. -1.
       -3    1    3    3    0  502 -0.73551303678E+03 -0.12139194951E+04  0.42873617013E+03  0.14826984460E+04  0.10100000352E+00 0.  1.
</event>
<event>
 5   0  0.9505359E-06  0.2890354E+04  0.7818609E-02  0.8275753E-01
        2   -1    0    0  501    0  0.00000000000E+00  0.00000000000E+00  0.19003163783E+04  0.19003163783E+04  0.25500000920E-02 0. -1.
       -2   -1    0    0    0  501  0.00000000000E+00  0.00000000000E+00 -0.10990470183E+04  0.10990470183E+04  0.25500000920E-02 0.  1.
    10030    2    1    2    0    0  0.00000000000E+00  0.00000000000E+00  0.80126936005E+03  0.29993633966E+04  0.28903543377E+04 0.  0.
        4    1    3    3  502    0  0.25881066716E+03 -0.61117275157E+03 -0.93153419866E+03  0.11437974776E+04  0.12699999809E+01 0.  1.
       -4    1    3    3    0  502 -0.25881066716E+03  0.61117275157E+03  0.17328035587E+04  0.18555659190E+04  0.12699999809E+01 0. -1.
</event>
<event>
 5   0  0.1001573E-05  0.2755683E+04  0.7818609E-02  0.8317160E-01
        2   -1    0    0  501    0  0.00000000000E+00  0.00000000000E+00  0.11626397764E+04  0.11626397764E+04  0.25500000920E-02 0. -1.
       -2   -1    0    0    0  501  0.00000000000E+00  0.00000000000E+00 -0.16328771062E+04  0.16328771062E+04  0.25500000920E-02 0.  1.
    10030    2    1    2    0    0  0.00000000000E+00  0.00000000000E+00 -0.47023732977E+03  0.27955168826E+04  0.27556834895E+04 0.  0.
        1    1    3    3  502    0  0.57433280644E+03 -0.10907225102E+04  0.38933924657E+03  0.12927176087E+04  0.50400001928E-02 0. -1.
       -1    1    3    3    0  502 -0.57433280644E+03  0.10907225102E+04 -0.85957657634E+03  0.15027992739E+04  0.50400001928E-02 0.  1.
</event>
<event>
 5   0  0.9360689E-06  0.2878389E+04  0.7818609E-02  0.8279336E-01
       -2   -1    0    0    0  501  0.00000000000E+00  0.00000000000E+00  0.97481491198E+03  0.97481491198E+03  0.25500000920E-02 0.  1.
        2   -1    0    0  501    0  0.00000000000E+00  0.00000000000E+00 -0.21247941664E+04  0.21247941664E+04  0.25500000920E-02 0. -1.
    10030    2    1    2    0    0  0.00000000000E+00  0.00000000000E+00 -0.11499792544E+04  0.30996090784E+04  0.28783891594E+04 0.  0.
        5    1    3    3  502    0  0.11292753604E+04  0.88039600724E+03 -0.73066501254E+03  0.16075613269E+04  0.46999998093E+01 0. -1.
       -5    1    3    3    0  502 -0.11292753604E+04 -0.88039600724E+03 -0.41931424186E+03  0.14920477515E+04  0.46999998093E+01 0.  1.
</event>
<event>
 5   0  0.3649705E-06  0.2295676E+04  0.7818609E-02  0.8479628E-01
        1   -1    0    0  501    0  0.00000000000E+00  0.00000000000E+00  0.15288328906E+04  0.15288328906E+04  0.50400001928E-02 0. -1.
       -1   -1    0    0    0  501  0.00000000000E+00  0.00000000000E+00 -0.86178983574E+03  0.86178983575E+03  0.50400001928E-02 0.  1.
    10030    2    1    2    0    0  0.00000000000E+00  0.00000000000E+00  0.66704305483E+03  0.23906227263E+04  0.22956764978E+04 0.  0.
        2    1    3    3  502    0  0.58298525418E+03 -0.94127713377E+03  0.18249086280E+02  0.11073425298E+04  0.25500000920E-02 0. -1.
       -2    1    3    3    0  502 -0.58298525418E+03  0.94127713377E+03  0.64879396855E+03  0.12832801965E+04  0.25500000920E-02 0.  1.
</event>
<event>
 5   0  0.3486236E-06  0.2909658E+04  0.7818609E-02  0.8270010E-01
       -1   -1    0    0    0  501  0.00000000000E+00  0.00000000000E+00  0.11889521807E+04  0.11889521807E+04  0.50400001928E-02 0. -1.
        1   -1    0    0  501    0  0.00000000000E+00  0.00000000000E+00 -0.17801624163E+04  0.17801624163E+04  0.50400001928E-02 0.  1.
    10030    2    1    2    0    0  0.00000000000E+00  0.00000000000E+00 -0.59121023555E+03  0.29691145970E+04  0.29096583902E+04 0.  0.
        5    1    3    3  502    0  0.71045093905E+03  0.62196971179E+03 -0.14249813635E+04  0.17094387486E+04  0.46999998093E+01 0.  1.
       -5    1    3    3    0  502 -0.71045093905E+03 -0.62196971179E+03  0.83377112790E+03  0.12596758483E+04  0.46999998093E+01 0. -1.
</event>
<event>
 5   0  0.9505359E-06  0.2864602E+04  0.7818609E-02  0.8283488E-01
       -2   -1    0    0    0  501  0.00000000000E+00  0.00000000000E+00  0.18831476090E+04  0.18831476090E+04  0.25500000920E-02 0.  1.
        2   -1    0    0  501    0  0.00000000000E+00  0.00000000000E+00 -0.10893921429E+04  0.10893921429E+04  0.25500000920E-02 0. -1.
    10030    2    1    2    0    0  0.00000000000E+00  0.00000000000E+00  0.79375546605E+03  0.29725397519E+04  0.28646020381E+04 0.  0.
        4    1    3    3  502    0  0.79542124987E+03 -0.21040711479E+03 -0.81969664539E+03  0.11614087661E+04  0.12699999809E+01 0. -1.
       -4    1    3    3    0  502 -0.79542124987E+03  0.21040711479E+03  0.16134521114E+04  0.18111309857E+04  0.12699999809E+01 0.  1.
</event>
<event>
 5   0  0.3474078E-06  0.2205202E+04  0.7818609E-02  0.8516266E-01
       -1   -1    0    0    0  501  0.00000000000E+00  0.00000000000E+00  0.60607554923E+03  0.60607554925E+03  0.50400001928E-02 0.  1.
        1   -1    0    0  501    0  0.00000000000E+00  0.00000000000E+00 -0.20059026931E+04  0.20059026931E+04  0.50400001928E-02 0. -1.
    10030    2    1    2    0    0  0.00000000000E+00  0.00000000000E+00 -0.13998271439E+04  0.26119782424E+04  0.22052016474E+04 0.  0.
        3    1    3    3  502    0  0.33042322619E+03  0.12550684906E+03 -0.19369806004E+04  0.19689655492E+04  0.10100000352E+00 0.  1.
       -3    1    3    3    0  502 -0.33042322619E+03 -0.12550684906E+03  0.53715345647E+03  0.64301269317E+03  0.10100000352E+00 0. -1.
</event>
<event>
 5   0  0.9505359E-06  0.2927670E+04  0.7818609E-02  0.8264692E-01
       -2   -1    0    0    0  501  0.00000000000E+00  0.00000000000E+00  0.11002064220E+04  0.11002064220E+04  0.25500000920E-02 0. -1.
        2   -1    0    0  501    0  0.00000000000E+00  0.00000000000E+00 -0.19476462431E+04  0.19476462431E+04  0.25500000920E-02 0.  1.
    10030    2    1    2    0    0  0.00000000000E+00  0.00000000000E+00 -0.84743982106E+03  0.30478526651E+04  0.29276699981E+04 0.  0.
        4    1    3    3  502    0  0.79984582242E+03 -0.56776259011E+03  0.70748762462E+03  0.12093998719E+04  0.12699999809E+01 0. -1.
       -4    1    3    3    0  502 -0.79984582242E+03  0.56776259011E+03 -0.15549274457E+04  0.18384527931E+04  0.12699999809E+01 0.  1.
</event>
<event>
 5   0  0.3474078E-06  0.2915222E+04  0.7818609E-02  0.8268363E-01
       -1   -1    0    0    0  501  0.00000000000E+00  0.00000000000E+00  0.13833874675E+04  0.13833874675E+04  0.50400001928E-02 0.  1.
        1   -1    0    0  501    0  0.00000000000E+00  0.00000000000E+00 -0.15358170748E+04  0.15358170748E+04  0.50400001928E-02 0. -1.
    10030    2    1    2    0    0  0.00000000000E+00  0.00000000000E+00 -0.15242960729E+03  0.29192045423E+04  0.29152221827E+04 0.  0.
        3    1    3    3  502    0  0.68517916127E+03 -0.11652503293E+04 -0.62225896196E+03  0.14881145920E+04  0.10100000352E+00 0. -1.
       -3    1    3    3    0  502 -0.68517916127E+03  0.11652503293E+04  0.46982935467E+03  0.14310899503E+04  0.10100000352E+00 0.  1.
</event>
<event>
 5   0  0.3474078E-06  0.2927572E+04  0.7818609E-02  0.8264721E-01
        1   -1    0    0  501    0  0.00000000000E+00  0.00000000000E+00  0.10366389109E+04  0.10366389109E+04  0.50400001928E-02 0. -1.
       -1   -1    0    0    0  501  0.00000000000E+00  0.00000000000E+00 -0.20669395208E+04  0.20669395208E+04  0.50400001928E-02 0.  1.
    10030    2    1    2    0    0  0.00000000000E+00  0.00000000000E+00 -0.10303006099E+04  0.31035784317E+04  0.29275723279E+04 0.  0.
        3    1    3    3  502    0  0.33648158883E+03  0.12992999192E+03  0.98878931762E+03  0.10525236279E+04  0.10100000352E+00 0. -1.
       -3    1    3    3    0  502 -0.33648158883E+03 -0.12992999192E+03 -0.20190899276E+04  0.20510548038E+04  0.10100000352E+00 0.  1.
</event>
<event>
 5   0  0.9505359E-06  0.2867072E+04  0.7818609E-02  0.8282742E-01
        2   -1    0    0  501    0  0.00000000000E+00  0.00000000000E+00  0.18915186974E+04  0.18915186974E+04  0.25500000920E-02 0.  1.
       -2   -1    0    0    0  501  0.00000000000E+00  0.00000000000E+00 -0.10864421766E+04  0.10864421766E+04  0.25500000920E-02 0. -1.
    10030    2    1    2    0    0  0.00000000000E+00  0.00000000000E+00  0.80507652075E+03  0.29779608740E+04  0.28670721587E+04 0.  0.
        4    1    3    3  502    0 -0.76280177860E+01  0.14128543765E+04  0.15065456646E+03  0.14208849662E+04  0.12699999809E+01 0. -1.
       -4    1    3    3    0  502  0.76280177860E+01 -0.14128543765E+04  0.65442195429E+03  0.15570759079E+04  0.12699999809E+01 0.  1.
</event>
<event>
 5   0  0.1001573E-05  0.2930389E+04  0.7818609E-02  0.8263893E-01
        2   -1    0    0  501    0  0.00000000000E+00  0.00000000000E+00  0.14185775016E+04  0.14185775016E+04  0.25500000920E-02 0.  1.
       -2   -1    0    0    0  501  0.00000000000E+00  0.00000000000E+00 -0.15133432280E+04  0.15133432280E+04  0.25500000920E-02 0. -1.
    10030    2    1    2    0    0  0.00000000000E+00  0.00000000000E+00 -0.94765726403E+02  0.29319207296E+04  0.29303888175E+04 0.  0.
        1    1    3    3  502    0  0.90769248692E+02 -0.81870878043E+03  0.11649731333E+04  0.14267745180E+04  0.50400001928E-02 0.  1.
       -1    1    3    3    0  502 -0.90769248692E+02  0.81870878043E+03 -0.12597388597E+04  0.15051462116E+04  0.50400001928E-02 0. -1.
</event>
<event>
 5   0  0.9251510E-06  0.2908851E+04  0.7818609E-02  0.8270249E-01
        2   -1    0    0  501    0  0.00000000000E+00  0.00000000000E+00  0.11773443261E+04  0.11773443261E+04  0.25500000920E-02 0.  1.
       -2   -1    0    0    0  501  0.00000000000E+00  0.00000000000E+00 -0.17967163487E+04  0.17967163487E+04  0.25500000920E-02 0. -1.
    10030    2    1    2    0    0  0.00000000000E+00  0.00000000000E+00 -0.61937202252E+03  0.29740606748E+04  0.29088511813E+04 0.  0.
        2    1    3    3  502    0  0.10582989066E+04 -0.99720998857E+03 -0.34085653494E+03  0.14935218493E+04  0.25500000920E-02 0.  1.
       -2    1    3    3    0  502 -0.10582989066E+04  0.99720998857E+03 -0.27851548758E+03  0.14805388255E+04  0.25500000920E-02 0. -1.
</event>
<event>
 5   0  0.9505359E-06  0.2586996E+04  0.7818609E-02  0.8372632E-01
       -2   -1    0    0    0  501  0.00000000000E+00  0.00000000000E+00  0.11721546873E+04  0.11721546873E+04  0.25500000920E-02 0. -1.
        2   -1    0    0  501    0  0.00000000000E+00  0.00000000000E+00 -0.14274033251E+04  0.14274033251E+04  0.25500000920E-02 0.  1.
    10030    2    1    2    0    0  0.00000000000E+00  0.00000000000E+00 -0.25524863775E+03  0.25995580124E+04  0.25869963264E+04 0.  0.
        4    1    3    3  502    0  0.18369005451E+03  0.28227173858E+03 -0.13825746486E+04  0.14230016312E+04  0.12699999809E+01 0.  1.
       -4    1    3    3    0  502 -0.18369005451E+03 -0.28227173858E+03  0.11273260108E+04  0.11765563812E+04  0.12699999809E+01 0. -1.
</event>
<event>
 5   0  0.3564340E-06  0.2926342E+04  0.7818609E-02  0.8265083E-01
       -1   -1    0    0    0  501  0.00000000000E+00  0.00000000000E+00  0.13488118737E+04  0.13488118737E+04  0.50400001928E-02 0.  1.
        1   -1    0    0  501    0  0.00000000000E+00  0.00000000000E+00 -0.15872264975E+04  0.15872264975E+04  0.50400001928E-02 0. -1.
    10030    2    1    2    0    0  0.00000000000E+00  0.00000000000E+00 -0.23841462381E+03  0.29360383713E+04  0.29263423902E+04 0.  0.
        1    1    3    3  502    0  0.39781509529E+03  0.10514348045E+03  0.12895667974E+04  0.13536227416E+04  0.50400001928E-02 0.  1.
       -1    1    3    3    0  502 -0.39781509529E+03 -0.10514348045E+03 -0.15279814212E+04  0.15824156297E+04  0.50400001928E-02 0. -1.
</event>
<event>
 5   0  0.3474078E-06  0.2913597E+04  0.7818609E-02  0.8268843E-01
       -1   -1    0    0    0  501  0.00000000000E+00  0.00000000000E+00  0.14800027066E+04  0.14800027066E+04  0.50400001928E-02 0. -1.
        1   -1    0    0  501    0  0.00000000000E+00  0.00000000000E+00 -0.14339581091E+04  0.14339581091E+04  0.50400001928E-02 0.  1.
    10030    2    1    2    0    0  0.00000000000E+00  0.00000000000E+00  0.46044597470E+02  0.29139608157E+04  0.29135970090E+04 0.  0.
        3    1    3    3  502    0  0.17852061646E+03  0.14243538988E+04  0.27126334973E+03  0.14609029587E+04  0.10100000352E+00 0. -1.
       -3    1    3    3    0  502 -0.17852061646E+03 -0.14243538988E+04 -0.22521875226E+03  0.14530578571E+04  0.10100000352E+00 0.  1.
</event>
<event>
 5   0  0.9251510E-06  0.2888060E+04  0.7818609E-02  0.8276439E-01
       -2   -1    0    0    0  501  0.00000000000E+00  0.00000000000E+00  0.81969580911E+03  0.81969580911E+03  0.25500000920E-02 0.  1.
        2   -1    0    0  501    0  0.00000000000E+00  0.00000000000E+00 -0.25438986429E+04  0.25438986429E+04  0.25500000920E-02 0. -1.
    10030    2    1    2    0    0  0.00000000000E+00  0.00000000000E+00 -0.17242028338E+04  0.33635944520E+04  0.28880602877E+04 0.  0.
        2    1    3    3  502    0  0.62659125875E+03 -0.40184073514E+02 -0.23765973431E+04  0.24581387871E+04  0.25500000920E-02 0. -1.
       -2    1    3    3    0  502 -0.62659125875E+03  0.40184073514E+02  0.65239450934E+03  0.90545566491E+03  0.25500000920E-02 0.  1.
</event>
<event>
 5   0  0.3649705E-06  0.2986825E+04  0.7818609E-02  0.8247503E-01
        1   -1    0    0  501    0  0.00000000000E+00  0.00000000000E+00  0.75374734813E+03  0.75374734814E+03  0.50400001928E-02 0.  1.
       -1   -1    0    0    0  501  0.00000000000E+00  0.00000000000E+00 -0.29589227657E+04  0.29589227657E+04  0.50400001928E-02 0. -1.
    10030    2    1    2    0    0  0.00000000000E+00  0.00000000000E+00 -0.22051754176E+04  0.37126701139E+04  0.29868245265E+04 0.  0.
        2    1    3    3  502    0  0.13238936957E+04 -0.57247724352E+03 -0.15837736853E+04  0.21421400043E+04  0.25500000920E-02 0. -1.
       -2    1    3    3    0  502 -0.13238936957E+04  0.57247724352E+03 -0.62140173230E+03  0.15705301095E+04  0.25500000920E-02 0.  1.
</event>
<event>
 5   0  0.3746518E-06  0.2934274E+04  0.7818609E-02  0.8262752E-01
        1   -1    0    0  501    0  0.00000000000E+00  0.00000000000E+00  0.16981157494E+04  0.16981157494E+04  0.50400001928E-02 0. -1.
       -1   -1    0    0    0  501  0.00000000000E+00  0.00000000000E+00 -0.12675760770E+04  0.12675760770E+04  0.50400001928E-02 0.  1.
    10030    2    1    2    0    0  0.00000000000E+00  0.00000000000E+00  0.43053967240E+03  0.29656918264E+04  0.29342739477E+04 0.  0.
        4    1    3    3  502    0 -0.13492616419E+04  0.40990993429E+02 -0.36560290311E+03  0.13985186218E+04  0.12699999809E+01 0. -1.
       -4    1    3    3    0  502  0.13492616419E+04 -0.40990993429E+02  0.79614257552E+03  0.15671732046E+04  0.12699999809E+01 0.  1.
</event>
<event>
 5   0  0.3746518E-06  0.2859624E+04  0.7818609E-02  0.8284993E-01
        1   -1    0    0  501    0  0.00000000000E+00  0.00000000000E+00  0.14803938044E+04  0.14803938044E+04  0.50400001928E-02 0. -1.
       -1   -1    0    0    0  501  0.00000000000E+00  0.00000000000E+00 -0.13809580440E+04  0.13809580440E+04  0.50400001928E-02 0.  1.
    10030    2    1    2    0    0  0.00000000000E+00  0.00000000000E+00  0.99435760400E+02  0.28613518483E+04  0.28596235643E+04 0.  0.
        4    1    3    3  502    0  0.86871779173E+03  0.10158964083E+04 -0.45817534342E+03  0.14130259630E+04  0.12699999809E+01 0.  1.
       -4    1    3    3    0  502 -0.86871779173E+03 -0.10158964083E+04  0.55761110382E+03  0.14483258853E+04  0.12699999809E+01 0. -1.
</event>
<event>
 5   0  0.9251510E-06  0.2581222E+04  0.7818609E-02  0.8374608E-01
        2   -1    0    0  501    0  0.00000000000E+00  0.00000000000E+00  0.11433203499E+04  0.11433203499E+04  0.25500000920E-02 0.  1.
       -2   -1    0    0    0  501  0.00000000000E+00  0.00000000000E+00 -0.14568766257E+04  0.14568766257E+04  0.25500000920E-02 0. -1.
    10030    2    1    2    0    0  0.00000000000E+00  0.00000000000E+00 -0.31355627585E+03  0.26001969756E+04  0.25812219536E+04 0.  0.
        2    1    3    3  502    0 -0.83602912869E+03  0.42866122200E+03 -0.10481453641E+04  0.14075879551E+04  0.25500000920E-02 0. -1.
       -2    1    3    3    0  502  0.83602912869E+03 -0.42866122200E+03  0.73458908820E+03  0.11926090205E+04  0.25500000920E-02 0.  1.
</event>
<event>
 5   0  0.3564340E-06  0.2780140E+04  0.7818609E-02  0.8309461E-01
        1   -1    0    0  501    0  0.00000000000E+00  0.00000000000E+00  0.29285752882E+04  0.29285752882E+04  0.50400001928E-02 0. -1.
       -1   -1    0    0    0  501  0.00000000000E+00  0.00000000000E+00 -0.65980716403E+03  0.65980716405E+03  0.50400001928E-02 0.  1.
    10030    2    1    2    0    0  0.00000000000E+00  0.00000000000E+00  0.22687681242E+04  0.35883824523E+04  0.27801402523E+04 0.  0.
        1    1    3    3  502    0 -0.66467806784E+03  0.82376339800E+03  0.22974021472E+04  0.25295137271E+04  0.50400001928E-02 0. -1.
       -1    1    3    3    0  502  0.66467806784E+03 -0.82376339800E+03 -0.28634023023E+02  0.10588687251E+04  0.50400001928E-02 0.  1.
</event>
<event>
 5   0  0.9251510E-06  0.3063301E+04  0.7818609E-02  0.8225883E-01
        2   -1    0    0  501    0  0.00000000000E+00  0.00000000000E+00  0.16870846825E+04  0.16870846825E+04  0.25500000920E-02 0. -1.
       -2   -1    0    0    0  501  0.00000000000E+00  0.00000000000E+00 -0.13905362996E+04  0.13905362996E+04  0.25500000920E-02 0.  1.
    10030    2    1    2    0    0  0.00000000000E+00  0.00000000000E+00  0.29654838289E+03  0.30776209820E+04  0.30633005020E+04 0.  0.
        2    1    3    3  502    0 -0.65357208429E+03  0.13507672181E+03 -0.12367750580E+04  0.14053521745E+04  0.25500000920E-02 0.  1.
       -2    1    3    3    0  502  0.65357208429E+03 -0.13507672181E+03  0.15333234409E+04  0.16722688075E+04  0.25500000920E-02 0. -1.
</event>
<event>
 5   0  0.9251510E-06  0.2868521E+04  0.7818609E-02  0.8282305E-01
       -2   -1    0    0    0  501  0.00000000000E+00  0.00000000000E+00  0.79667582574E+03  0.79667582574E+03  0.25500000920E-02 0.  1.
        2   -1    0    0  501    0  0.00000000000E+00  0.00000000000E+00 -0.25821088793E+04  0.25821088793E+04  0.25500000920E-02 0. -1.
    10030    2    1    2    0    0  0.00000000000E+00  0.00000000000E+00 -0.17854330536E+04  0.33787847050E+04  0.28685213777E+04 0.  0.
        2    1    3    3  502    0 -0.48506640390E+03  0.13407559479E+04 -0.10759060248E+04  0.17861941950E+04  0.25500000920E-02 0. -1.
       -2    1    3    3    0  502  0.48506640390E+03 -0.13407559479E+04 -0.70952702873E+03  0.15925905100E+04  0.25500000920E-02 0.  1.
</event>
<event>
 5   0  0.9251510E-06  0.2917859E+04  0.7818609E-02  0.8267584E-01
       -2   -1    0    0    0  501  0.00000000000E+00  0.00000000000E+00  0.14499909328E+04  0.14499909328E+04  0.25500000920E-02 0.  1.
        2   -1    0    0  501    0  0.00000000000E+00  0.00000000000E+00 -0.14679228626E+04  0.14679228626E+04  0.25500000920E-02 0. -1.
    10030    2    1    2    0    0  0.00000000000E+00  0.00000000000E+00 -0.17931929795E+02  0.29179137954E+04  0.29178586949E+04 0.  0.
        2    1    3    3  502    0 -0.37800703171E+03  0.37151720610E+03  0.13503096765E+04  0.14506035202E+04  0.25500000920E-02 0.  1.
       -2    1    3    3    0  502  0.37800703171E+03 -0.37151720610E+03 -0.13682416063E+04  0.14673102752E+04  0.25500000920E-02 0. -1.
</event>
<event>
 5   0  0.1001573E-05  0.2959396E+04  0.7818609E-02  0.8255422E-01
       -2   -1    0    0    0  501  0.00000000000E+00  0.00000000000E+00  0.17928778579E+04  0.17928778579E+04  0.25500000920E-02 0.  1.
        2   -1    0    0  501    0  0.00000000000E+00  0.00000000000E+00 -0.12212245031E+04  0.12212245031E+04  0.25500000920E-02 0. -1.
    10030    2    1    2    0    0  0.00000000000E+00  0.00000000000E+00  0.57165335474E+03  0.30141023610E+04  0.29593961351E+04 0.  0.
        1    1    3    3  502    0 -0.20172998827E+03 -0.48411636701E+03  0.16950378703E+04  0.17743215680E+04  0.50400001928E-02 0.  1.
       -1    1    3    3    0  502  0.20172998827E+03  0.48411636701E+03 -0.11233845155E+04  0.12397807930E+04  0.50400001928E-02 0. -1.
</event>
<event>
 5   0  0.3649705E-06  0.2886140E+04  0.7818609E-02  0.8277013E-01
       -1   -1    0    0    0  501  0.00000000000E+00  0.00000000000E+00  0.89676345859E+03  0.89676345860E+03  0.50400001928E-02 0.  1.
        1   -1    0    0  501    0  0.00000000000E+00  0.00000000000E+00 -0.23221854748E+04  0.23221854748E+04  0.50400001928E-02 0. -1.
    10030    2    1    2    0    0  0.00000000000E+00  0.00000000000E+00 -0.14254220162E+04  0.32189489334E+04  0.28861400367E+04 0.  0.
        2    1    3    3  502    0  0.10369801585E+04 -0.65624748288E+03  0.13409163839E+03  0.12344914643E+04  0.25500000920E-02 0.  1.
       -2    1    3    3    0  502 -0.10369801585E+04  0.65624748288E+03 -0.15595136546E+04  0.19844574691E+04  0.25500000920E-02 0. -1.
</event>
<event>
 5   0  0.9505359E-06  0.2874222E+04  0.7818609E-02  0.8280589E-01
        2   -1    0    0  501    0  0.00000000000E+00  0.00000000000E+00  0.11977123538E+04  0.11977123538E+04  0.25500000920E-02 0. -1.
       -2   -1    0    0    0  501  0.00000000000E+00  0.00000000000E+00 -0.17243608313E+04  0.17243608313E+04  0.25500000920E-02 0.  1.
    10030    2    1    2    0    0  0.00000000000E+00  0.00000000000E+00 -0.52664847742E+03  0.29220731851E+04  0.28742221696E+04 0.  0.
        4    1    3    3  502    0 -0.51967005873E+03 -0.94247004318E+03  0.70488581170E+03  0.12865350258E+04  0.12699999809E+01 0. -1.
       -4    1    3    3    0  502  0.51967005873E+03  0.94247004318E+03 -0.12315342891E+04  0.16355381593E+04  0.12699999809E+01 0.  1.
</event>
<event>
 5   0  0.9360689E-06  0.2911546E+04  0.7818609E-02  0.8269450E-01
        2   -1    0    0  501    0  0.00000000000E+00  0.00000000000E+00  0.20481773772E+04  0.20481773772E+04  0.25500000920E-02 0.  1.
       -2   -1    0    0    0  501  0.00000000000E+00  0.00000000000E+00 -0.10347127908E+04  0.10347127908E+04  0.25500000920E-02 0. -1.
    10030    2    1    2    0    0  0.00000000000E+00  0.00000000000E+00  0.10134645864E+04  0.30828901680E+04  0.29115462078E+04 0.  0.
        5    1    3    3  502    0 -0.40933812146E+03  0.89098178829E+03 -0.63262504071E+03  0.11668945012E+04  0.46999998093E+01 0. -1.
       -5    1    3    3    0  502  0.40933812146E+03 -0.89098178829E+03  0.16460896271E+04  0.19159956668E+04  0.46999998093E+01 0.  1.
</event>
<event>
 5   0  0.3474078E-06  0.2740933E+04  0.7818609E-02  0.8321844E-01
        1   -1    0    0  501    0  0.00000000000E+00  0.00000000000E+00  0.17656034285E+04  0.17656034285E+04  0.50400001928E-02 0. -1.
       -1   -1    0    0    0  501  0.00000000000E+00  0.00000000000E+00 -0.10637602621E+04  0.10637602621E+04  0.50400001928E-02 0.  1.
    10030    2    1    2    0    0  0.00000000000E+00  0.00000000000E+00  0.70184316641E+03  0.28293636907E+04  0.27409332469E+04 0.  0.
        3    1    3    3  502    0 -0.18294321674E+03  0.31619629663E+02  0.17525623136E+04  0.17623684901E+04  0.10100000352E+00 0. -1.
       -3    1    3    3    0  502  0.18294321674E+03 -0.31619629663E+02 -0.10507191472E+04  0.10669952006E+04  0.10100000352E+00 0.  1.
</event>
<event>
 5   0  0.9360689E-06  0.2704149E+04  0.7818609E-02  0.8333660E-01
       -2   -1    0    0    0  501  0.00000000000E+00  0.00000000000E+00  0.15011454363E+04  0.15011454363E+04  0.25500000920E-02 0. -1.
        2   -1    0    0  501    0  0.00000000000E+00  0.00000000000E+00 -0.12178066325E+04  0.12178066325E+04  0.25500000920E-02 0.  1.
    10030    2    1    2    0    0  0.00000000000E+00  0.00000000000E+00  0.28333880383E+03  0.27189520689E+04  0.27041485675E+04 0.  0.
        5    1    3    3  502    0  0.85360754616E+03 -0.10482198134E+04  0.16773735391E+03  0.13621925451E+04  0.46999998093E+01 0. -1.
       -5    1    3    3    0  502 -0.85360754616E+03  0.10482198134E+04  0.11560144993E+03  0.13567595237E+04  0.46999998093E+01 0.  1.
</event>
<event>
 5   0  0.3486236E-06  0.2894292E+04  0.7818609E-02  0.8274578E-01
       -1   -1    0    0    0  501  0.00000000000E+00  0.00000000000E+00  0.12157334318E+04  0.12157334318E+04  0.50400001928E-02 0.  1.
        1   -1    0    0  501    0  0.00000000000E+00  0.00000000000E+00 -0.17226075287E+04  0.17226075287E+04  0.50400001928E-02 0. -1.
    10030    2    1    2    0    0  0.00000000000E+00  0.00000000000E+00 -0.50687409682E+03  0.29383409605E+04  0.28942920119E+04 0.  0.
        5    1    3    3  502    0  0.11098064608E+04  0.76693741638E+03 -0.78518917062E+03  0.15608995819E+04  0.46999998093E+01 0. -1.
       -5    1    3    3    0  502 -0.11098064608E+04 -0.76693741638E+03  0.27831507380E+03  0.13774413786E+04  0.46999998093E+01 0.  1.
</event>
<event>
 5   0  0.9360689E-06  0.2971456E+04  0.7818609E-02  0.8251929E-01
        2   -1    0    0  501    0  0.00000000000E+00  0.00000000000E+00  0.19163453083E+04  0.19163453083E+04  0.25500000920E-02 0. -1.
       -2   -1    0    0    0  501  0.00000000000E+00  0.00000000000E+00 -0.11518735919E+04  0.11518735919E+04  0.25500000920E-02 0.  1.
    10030    2    1    2    0    0  0.00000000000E+00  0.00000000000E+00  0.76447171643E+03  0.30682189002E+04  0.29714559082E+04 0.  0.
        5    1    3    3  502    0  0.63732393367E+00  0.13085599160E+04  0.11087355653E+04  0.17151227663E+04  0.46999998093E+01 0. -1.
       -5    1    3    3    0  502 -0.63732393367E+00 -0.13085599160E+04 -0.34426384885E+03  0.13530961338E+04  0.46999998093E+01 0.  1.
</event>
<event>
 5   0  0.9251510E-06  0.2830428E+04  0.7818609E-02  0.8293883E-01
        2   -1    0    0  501    0  0.00000000000E+00  0.00000000000E+00  0.22223865538E+04  0.22223865538E+04  0.25500000920E-02 0. -1.
       -2   -1    0    0    0  501  0.00000000000E+00  0.00000000000E+00 -0.90120732838E+03  0.90120732839E+03  0.25500000920E-02 0.  1.
    10030    2    1    2    0    0  0.00000000000E+00  0.00000000000E+00  0.13211792254E+04  0.31235938822E+04  0.28304282706E+04 0.  0.
        2    1    3    3  502    0 -0.77115305685E+03 -0.11722890218E+04  0.45742224052E+03  0.14758637111E+04  0.25500000920E-02 0.  1.
       -2    1    3    3    0  502  0.77115305685E+03  0.11722890218E+04  0.86375698488E+03  0.16477301711E+04  0.25500000920E-02 0. -1.
</event>
<event>
 5   0  0.3564340E-06  0.2893745E+04  0.7818609E-02  0.8274741E-01
        1   -1    0    0  501    0  0.00000000000E+00  0.00000000000E+00  0.21619969125E+04  0.21619969125E+04  0.50400001928E-02 0.  1.
       -1   -1    0    0    0  501  0.00000000000E+00  0.00000000000E+00 -0.96829027539E+03  0.96829027540E+03  0.50400001928E-02 0. -1.
    10030    2    1    2    0    0  0.00000000000E+00  0.00000000000E+00  0.11937066371E+04  0.31302871879E+04  0.28937453833E+04 0.  0.
        1    1    3    3  502    0 -0.22268780302E+03  0.87572582680E+03  0.18192486018E+04  0.20312929519E+04  0.50400001928E-02 0.  1.
       -1    1    3    3    0  502  0.22268780302E+03 -0.87572582680E+03 -0.62554196463E+03  0.10989942360E+04  0.50400001928E-02 0. -1.
</event>
<event>
 5   0  0.3474078E-06  0.2984992E+04  0.7818609E-02  0.8248030E-01
       -1   -1    0    0    0  501  0.00000000000E+00  0.00000000000E+00  0.18132966116E+04  0.18132966116E+04  0.50400001928E-02 0.  1.
        1   -1    0    0  501    0  0.00000000000E+00  0.00000000000E+00 -0.12284499161E+04  0.12284499161E+04  0.50400001928E-02 0. -1.
    10030    2    1    2    0    0  0.00000000000E+00  0.00000000000E+00  0.58484669550E+03  0.30417465278E+04  0.29849918395E+04 0.  0.
        3    1    3    3  502    0  0.66290341714E+03 -0.11346025817E+04  0.10135364801E+04  0.16595240780E+04  0.10100000352E+00 0.  1.
       -3    1    3    3    0  502 -0.66290341714E+03  0.11346025817E+04 -0.42868978462E+03  0.13822224497E+04  0.10100000352E+00 0. -1.
</event>
<event>
 5   0  0.9505359E-06  0.2981948E+04  0.7818609E-02  0.8248905E-01
       -2   -1    0    0    0  501  0.00000000000E+00  0.00000000000E+00  0.10935976278E+04  0.10935976278E+04  0.25500000920E-02 0. -1.
        2   -1    0    0  501    0  0.00000000000E+00  0.00000000000E+00 -0.20327432867E+04  0.20327432867E+04  0.25500000920E-02 0.  1.
    10030    2    1    2    0    0  0.00000000000E+00  0.00000000000E+00 -0.93914565893E+03  0.31263409145E+04  0.29819478441E+04 0.  0.
        4    1    3    3  502    0  0.97739656227E+02 -0.80057510975E+03 -0.17842995671E+04  0.19581113617E+04  0.12699999809E+01 0.  1.
       -4    1    3    3    0  502 -0.97739656227E+02  0.80057510975E+03  0.84515390813E+03  0.11682295528E+04  0.12699999809E+01 0. -1.
</event>
<event>
 5   0  0.9505359E-06  0.2857267E+04  0.7818609E-02  0.8285706E-01
        2   -1    0    0  501    0  0.00000000000E+00  0.00000000000E+00  0.65307829690E+03  0.65307829690E+03  0.25500000920E-02 0.  1.
       -2   -1    0    0    0  501  0.00000000000E+00  0.00000000000E+00 -0.31251906653E+04  0.31251906653E+04  0.25500000920E-02 0. -1.
    10030    2    1    2    0    0  0.00000000000E+00  0.00000000000E+00 -0.24721123684E+04  0.37782689622E+04  0.28572673639E+04 0.  0.
        4    1    3    3  502    0  0.41556099887E+03  0.11054190535E+04 -0.17295161093E+03  0.11935476950E+04  0.12699999809E+01 0.  1.
       -4    1    3    3    0  502 -0.41556099887E+03 -0.11054190535E+04 -0.22991607575E+04  0.25847212672E+04  0.12699999809E+01 0. -1.
</event>
<event>
 5   0  0.1001573E-05  0.2912407E+04  0.7818609E-02  0.8269196E-01
       -2   -1    0    0    0  501  0.00000000000E+00  0.00000000000E+00  0.13686872769E+04  0.13686872769E+04  0.25500000920E-02 0.  1.
        2   -1    0    0  501    0  0.00000000000E+00  0.00000000000E+00 -0.15493158748E+04  0.15493158748E+04  0.25500000920E-02 0. -1.
    10030    2    1    2    0    0  0.00000000000E+00  0.00000000000E+00 -0.18062859786E+03  0.29180031517E+04  0.29124072007E+04 0.  0.
        1    1    3    3  502    0 -0.31109992739E+03 -0.14200755700E+04 -0.57059869750E+01  0.14537641995E+04  0.50400001928E-02 0.  1.
       -1    1    3    3    0  502  0.31109992739E+03  0.14200755700E+04 -0.17492261089E+03  0.14642389522E+04  0.50400001928E-02 0. -1.
</event>
<event>
 5   0  0.9360689E-06  0.2974466E+04  0.7818609E-02  0.8251060E-01
       -2   -1    0    0    0  501  0.00000000000E+00  0.00000000000E+00  0.88390384848E+03  0.88390384848E+03  0.25500000920E-02 0. -1.
        2   -1    0    0  501    0  0.00000000000E+00  0.00000000000E+00 -0.25023785729E+04  0.25023785729E+04  0.25500000920E-02 0.  1.
    10030    2    1    2    0    0  0.00000000000E+00  0.00000000000E+00 -0.16184747244E+04  0.33862824213E+04  0.29744660367E+04 0.  0.
        5    1    3    3  502    0  0.84094686140E+02  0.14659080280E+04 -0.10783592119E+04  0.18217680815E+04  0.46999998093E+01 0.  1.
       -5    1    3    3    0  502 -0.84094686140E+02 -0.14659080280E+04 -0.54011551249E+03  0.15645143399E+04  0.46999998093E+01 0. -1.
</event>
<event>
 5   0  0.3474078E-06  0.2815140E+04  0.7818609E-02  0.8298583E-01
        1   -1    0    0  501    0  0.00000000000E+00  0.00000000000E+00  0.21298730418E+04  0.21298730418E+04  0.50400001928E-02 0.  1.
       -1   -1    0    0    0  501  0.00000000000E+00  0.00000000000E+00 -0.93022106839E+03  0.93022106840E+03  0.50400001928E-02 0. -1.
    10030    2    1    2    0    0  0.00000000000E+00  0.00000000000E+00  0.11996519734E+04  0.30600941102E+04  0.28151396246E+04 0.  0.
        3    1    3    3  502    0  0.41587911140E+02 -0.33237969991E+03  0.20859154274E+04  0.21126402911E+04  0.10100000352E+00 0.  1.
       -3    1    3    3    0  502 -0.41587911140E+02  0.33237969991E+03 -0.88626345397E+03  0.94745381909E+03  0.10100000352E+00 0. -1.
</event>
<event>
 5   0  0.3564340E-06  0.2860476E+04  0.7818609E-02  0.8284735E-01
       -1   -1    0    0    0  501  0.00000000000E+00  0.00000000000E+00  0.12528278542E+04  0.12528278542E+04  0.50400001928E-02 0.  1.
        1   -1    0    0  501    0  0.00000000000E+00  0.00000000000E+00 -0.16327706004E+04  0.16327706004E+04  0.50400001928E-02 0. -1.
    10030    2    1    2    0    0  0.00000000000E+00  0.00000000000E+00 -0.37994274613E+03  0.28855984546E+04  0.28604758260E+04 0.  0.
        1    1    3    3  502    0  0.70679694933E+03  0.48159168414E+03  0.96643330851E+03  0.12905370268E+04  0.50400001928E-02 0.  1.
       -1    1    3    3    0  502 -0.70679694933E+03 -0.48159168414E+03 -0.13463760546E+04  0.15950614278E+04  0.50400001928E-02 0. -1.
</event>
<event>
 5   0  0.9251510E-06  0.2916777E+04  0.7818609E-02  0.8267903E-01
        2   -1    0    0  501    0  0.00000000000E+00  0.00000000000E+00  0.20223726565E+04  0.20223726565E+04  0.25500000920E-02 0. -1.
       -2   -1    0    0    0  501  0.00000000000E+00  0.00000000000E+00 -0.10516839836E+04  0.10516839836E+04  0.25500000920E-02 0.  1.
    10030    2    1    2    0    0  0.00000000000E+00  0.00000000000E+00  0.97068867288E+03  0.30740566401E+04  0.29167769416E+04 0.  0.
        2    1    3    3  502    0 -0.82466286709E+03 -0.38106857842E+03  0.16877468918E+04  0.19167085529E+04  0.25500000920E-02 0. -1.
       -2    1    3    3    0  502  0.82466286709E+03  0.38106857842E+03 -0.71705821892E+03  0.11573480873E+04  0.25500000920E-02 0.  1.
</event>
<event>
 5   0  0.3486236E-06  0.2927084E+04  0.7818609E-02  0.8264865E-01
        1   -1    0    0  501    0  0.00000000000E+00  0.00000000000E+00  0.97375508094E+03  0.97375508095E+03  0.50400001928E-02 0. -1.
       -1   -1    0    0    0  501  0.00000000000E+00  0.00000000000E+00 -0.21996855206E+04  0.21996855206E+04  0.50400001928E-02 0.  1.
    10030    2    1    2    0    0  0.00000000000E+00  0.00000000000E+00 -0.12259304396E+04  0.31734406015E+04  0.29270838404E+04 0.  0.
        5    1    3    3  502    0 -0.47206454880E+03 -0.14687785153E+03  0.88047485207E+03  0.10097901250E+04  0.46999998093E+01 0. -1.
       -5    1    3    3    0  502  0.47206454880E+03  0.14687785153E+03 -0.21064052917E+04  0.21636504765E+04  0.46999998093E+01 0.  1.
</event>
<event>
 5   0  0.3474078E-06  0.2885097E+04  0.7818609E-02  0.8277326E-01
        1   -1    0    0  501    0  0.00000000000E+00  0.00000000000E+00  0.24620953034E+04  0.24620953035E+04  0.50400001928E-02 0. -1.
       -1   -1    0    0    0  501  0.00000000000E+00  0.00000000000E+00 -0.84519290327E+03  0.84519290328E+03  0.50400001928E-02 0.  1.
    10030    2    1    2    0    0  0.00000000000E+00  0.00000000000E+00  0.16169024002E+04  0.33072882067E+04  0.28850965167E+04 0.  0.
        3    1    3    3  502    0  0.12988784975E+04  0.47117121091E+03  0.12836729703E+04  0.18859756006E+04  0.10100000352E+00 0. -1.
       -3    1    3    3    0  502 -0.12988784975E+04 -0.47117121091E+03  0.33322942992E+03  0.14213126061E+04  0.10100000352E+00 0.  1.
</event>
<event>
 5   0  0.3649705E-06  0.2916174E+04  0.7818609E-02  0.8268082E-01
        1   -1    0    0  501    0  0.00000000000E+00  0.00000000000E+00  0.12587894910E+04  0.12587894910E+04  0.50400001928E-02 0. -1.
       -1   -1    0    0    0  501  0.00000000000E+00  0.00000000000E+00 -0.16889377899E+04  0.16889377899E+04  0.50400001928E-02 0.  1.
    10030    2    1    2    0    0  0.00000000000E+00  0.00000000000E+00 -0.43014829891E+03  0.29477272809E+04  0.29161736169E+04 0.  0.
        2    1    3    3  502    0 -0.10413315172E+04  0.16358541599E+03 -0.12333899316E+04  0.16224617840E+04  0.25500000920E-02 0.  1.
       -2    1    3    3    0  502  0.10413315172E+04 -0.16358541599E+03  0.80324163273E+03  0.13252654970E+04  0.25500000920E-02 0. -1.
</event>
<event>
 5   0  0.9251510E-06  0.2930781E+04  0.7818609E-02  0.8263778E-01
        2   -1    0    0  501    0  0.00000000000E+00  0.00000000000E+00  0.98895030866E+03  0.98895030866E+03  0.25500000920E-02 0. -1.
       -2   -1    0    0    0  501  0.00000000000E+00  0.00000000000E+00 -0.21713623722E+04  0.21713623722E+04  0.25500000920E-02 0.  1.
    10030    2    1    2    0    0  0.00000000000E+00  0.00000000000E+00 -0.11824120635E+04  0.31603126808E+04  0.29307811165E+04 0.  0.
        2    1    3    3  502    0 -0.77516791307E+03 -0.80910933898E+03  0.42711989276E+03  0.11991557942E+04  0.25500000920E-02 0. -1.
       -2    1    3    3    0  502  0.77516791307E+03  0.80910933898E+03 -0.16095319563E+04  0.19611568867E+04  0.25500000920E-02 0.  1.
</event>
<event>
 5   0  0.9646321E-06  0.2924396E+04  0.7818609E-02  0.8265656E-01
        2   -1    0    0  501    0  0.00000000000E+00  0.00000000000E+00  0.18179042678E+04  0.18179042678E+04  0.25500000920E-02 0. -1.
       -2   -1    0    0    0  501  0.00000000000E+00  0.00000000000E+00 -0.11760918342E+04  0.11760918342E+04  0.25500000920E-02 0.  1.
    10030    2    1    2    0    0  0.00000000000E+00  0.00000000000E+00  0.64181243359E+03  0.29939961020E+04  0.29243955716E+04 0.  0.
        3    1    3    3  502    0  0.27547094359E+03  0.12928055338E+04 -0.31910550206E+03  0.13598009857E+04  0.10100000352E+00 0.  1.
       -3    1    3    3    0  502 -0.27547094359E+03 -0.12928055338E+04  0.96091793564E+03  0.16341951163E+04  0.10100000352E+00 0. -1.
</event>
<event>
 5   0  0.3486236E-06  0.2928084E+04  0.7818609E-02  0.8264570E-01
        1   -1    0    0  501    0  0.00000000000E+00  0.00000000000E+00  0.18327538970E+04  0.18327538970E+04  0.50400001928E-02 0.  1.
       -1   -1    0    0    0  501  0.00000000000E+00  0.00000000000E+00 -0.11695069856E+04  0.11695069857E+04  0.50400001928E-02 0. -1.
    10030    2    1    2    0    0  0.00000000000E+00  0.00000000000E+00  0.66324691134E+03  0.30022608827E+04  0.29280836638E+04 0.  0.
        5    1    3    3  502    0 -0.69320489210E+03  0.38334826424E+03 -0.93078906806E+03  0.12222435491E+04  0.46999998093E+01 0. -1.
       -5    1    3    3    0  502  0.69320489210E+03 -0.38334826424E+03  0.15940359794E+04  0.17800173336E+04  0.46999998093E+01 0.  1.
</event>
<event>
 5   0  0.3564340E-06  0.2871543E+04  0.7818609E-02  0.8281395E-01
        1   -1    0    0  501    0  0.00000000000E+00  0.00000000000E+00  0.19598953151E+04  0.19598953152E+04  0.50400001928E-02 0. -1.
       -1   -1    0    0    0  501  0.00000000000E+00  0.00000000000E+00 -0.10518110992E+04  0.10518110992E+04  0.50400001928E-02 0.  1.
    10030    2    1    2    0    0  0.00000000000E+00  0.00000000000E+00  0.90808421599E+03  0.30117064143E+04  0.28715428924E+04 0.  0.
        1    1    3    3  502    0 -0.76195278150E+03 -0.10144679313E+04 -0.25086704479E+03  0.12933102872E+04  0.50400001928E-02 0.  1.
       -1    1    3    3    0  502  0.76195278150E+03  0.10144679313E+04  0.11589512608E+04  0.17183961271E+04  0.50400001928E-02 0. -1.
</event>
<event>
 5   0  0.3474078E-06  0.2905052E+04  0.7818609E-02  0.8271376E-01
        1   -1    0    0  501    0  0.00000000000E+00  0.00000000000E+00  0.22340645101E+04  0.22340645101E+04  0.50400001928E-02 0. -1.
       -1   -1    0    0    0  501  0.00000000000E+00  0.00000000000E+00 -0.94439175394E+03  0.94439175396E+03  0.50400001928E-02 0.  1.
    10030    2    1    2    0    0  0.00000000000E+00  0.00000000000E+00  0.12896727561E+04  0.31784562640E+04  0.29050522206E+04 0.  0.
        3    1    3    3  502    0 -0.34974788707E+03 -0.14191336960E+03  0.21794718044E+04  0.22119132771E+04  0.10100000352E+00 0. -1.
       -3    1    3    3    0  502  0.34974788707E+03  0.14191336960E+03 -0.88979904831E+03  0.96654298691E+03  0.10100000352E+00 0.  1.
</event>
<event>
 5   0  0.9360689E-06  0.2460188E+04  0.7818609E-02  0.8417308E-01
        2   -1    0    0  501    0  0.00000000000E+00  0.00000000000E+00  0.16531664423E+04  0.16531664423E+04  0.25500000920E-02 0.  1.
       -2   -1    0    0    0  501  0.00000000000E+00  0.00000000000E+00 -0.91529266649E+03  0.91529266650E+03  0.25500000920E-02 0. -1.
    10030    2    1    2    0    0  0.00000000000E+00  0.00000000000E+00  0.73787377582E+03  0.25684591088E+04  0.24601878962E+04 0.  0.
        5    1    3    3  502    0 -0.10530917724E+04 -0.27944925319E+03  0.96504232036E+03  0.14554803112E+04  0.46999998093E+01 0.  1.
       -5    1    3    3    0  502  0.10530917724E+04  0.27944925319E+03 -0.22716854454E+03  0.11129787976E+04  0.46999998093E+01 0. -1.
</event>
<event>
 5   0  0.3188375E-06  0.2913764E+04  0.7818609E-02  0.8268794E-01
        3   -1    0    0  501    0  0.00000000000E+00  0.00000000000E+00  0.10098366463E+04  0.10098366514E+04  0.10100000352E+00 0. -1.
       -3   -1    0    0    0  501  0.00000000000E+00  0.00000000000E+00 -0.21018300611E+04  0.21018300636E+04  0.10100000352E+00 0.  1.
    10030    2    1    2    0    0  0.00000000000E+00  0.00000000000E+00 -0.10919934148E+04  0.31116667149E+04  0.29137639106E+04 0.  0.
        1    1    3    3  502    0  0.97760217072E+03 -0.67979799279E+03  0.35046708004E+03  0.12412326492E+04  0.50400001928E-02 0. -1.
       -1    1    3    3    0  502 -0.97760217072E+03  0.67979799279E+03 -0.14424604948E+04  0.18704340658E+04  0.50400001928E-02 0.  1.
</event>
<event>
 5   0  0.9251510E-06  0.2959550E+04  0.7818609E-02  0.8255377E-01
       -2   -1    0    0    0  501  0.00000000000E+00  0.00000000000E+00  0.91640869925E+03  0.91640869926E+03  0.25500000920E-02 0.  1.
        2   -1    0    0  501    0  0.00000000000E+00  0.00000000000E+00 -0.23894739731E+04  0.23894739731E+04  0.25500000920E-02 0. -1.
    10030    2    1    2    0    0  0.00000000000E+00  0.00000000000E+00 -0.14730652739E+04  0.33058826724E+04  0.29595504629E+04 0.  0.
        2    1    3    3  502    0 -0.96306946143E+03 -0.98622138961E+03 -0.13541363777E+03  0.13850892643E+04  0.25500000920E-02 0.  1.
       -2    1    3    3    0  502  0.96306946143E+03  0.98622138961E+03 -0.13376516361E+04  0.19207934081E+04  0.25500000920E-02 0. -1.
</event>
<event>
 5   0  0.9251510E-06  0.2893891E+04  0.7818609E-02  0.8274697E-01
        2   -1    0    0  501    0  0.00000000000E+00  0.00000000000E+00  0.14892893682E+04  0.14892893682E+04  0.25500000920E-02 0. -1.
       -2   -1    0    0    0  501  0.00000000000E+00  0.00000000000E+00 -0.14058054133E+04  0.14058054133E+04  0.25500000920E-02 0.  1.
    10030    2    1    2    0    0  0.00000000000E+00  0.00000000000E+00  0.83483954869E+02  0.28950947814E+04  0.28938908450E+04 0.  0.
        2    1    3    3  502    0 -0.11244836347E+04  0.91059729507E+03  0.41320900605E+02  0.14475352484E+04  0.25500000920E-02 0. -1.
       -2    1    3    3    0  502  0.11244836347E+04 -0.91059729507E+03  0.42163054264E+02  0.14475595330E+04  0.25500000920E-02 0.  1.
</event>
<event>
 5   0  0.9360689E-06  0.2907172E+04  0.7818609E-02  0.8270747E-01
        2   -1    0    0  501    0  0.00000000000E+00  0.00000000000E+00  0.12594792164E+04  0.12594792164E+04  0.25500000920E-02 0.  1.
       -2   -1    0    0    0  501  0.00000000000E+00  0.00000000000E+00 -0.16776077355E+04  0.16776077355E+04  0.25500000920E-02 0. -1.
    10030    2    1    2    0    0  0.00000000000E+00  0.00000000000E+00 -0.41812851916E+03  0.29370869519E+04  0.29071718739E+04 0.  0.
        5    1    3    3  502    0 -0.13979975873E+03 -0.13338067445E+04  0.35733430312E+03  0.13879100469E+04  0.46999998093E+01 0.  1.
       -5    1    3    3    0  502  0.13979975873E+03  0.13338067445E+04 -0.77546282227E+03  0.15491769050E+04  0.46999998093E+01 0. -1.
</event>
<event>
 5   0  0.1001573E-05  0.2895659E+04  0.7818609E-02  0.8274170E-01
        2   -1    0    0  501    0  0.00000000000E+00  0.00000000000E+00  0.12952125526E+04  0.12952125526E+04  0.25500000920E-02 0. -1.
       -2   -1    0    0    0  501  0.00000000000E+00  0.00000000000E+00 -0.16184295762E+04  0.16184295762E+04  0.25500000920E-02 0.  1.
    10030    2    1    2    0    0  0.00000000000E+00  0.00000000000E+00 -0.32321702365E+03  0.29136421288E+04  0.28956590287E+04 0.  0.
        1    1    3    3  502    0 -0.86920645795E+03 -0.26523322337E+03  0.97248555014E+03  0.13310134014E+04  0.50400001928E-02 0. -1.
       -1    1    3    3    0  502  0.86920645795E+03  0.26523322337E+03 -0.12957025738E+04  0.15826287275E+04  0.50400001928E-02 0.  1.
</event>
<event>
 5   0  0.9251510E-06  0.2912557E+04  0.7818609E-02  0.8269151E-01
        2   -1    0    0  501    0  0.00000000000E+00  0.00000000000E+00  0.13213309574E+04  0.13213309574E+04  0.25500000920E-02 0.  1.
       -2   -1    0    0    0  501  0.00000000000E+00  0.00000000000E+00 -0.16050081971E+04  0.16050081971E+04  0.25500000920E-02 0. -1.
    10030    2    1    2    0    0  0.00000000000E+00  0.00000000000E+00 -0.28367723967E+03  0.29263391545E+04  0.29125569644E+04 0.  0.
        2    1    3    3  502    0 -0.11958511836E+04 -0.83098572330E+03 -0.15413139092E+03  0.14643612298E+04  0.25500000920E-02 0.  1.
       -2    1    3    3    0  502  0.11958511836E+04  0.83098572330E+03 -0.12954584875E+03  0.14619779248E+04  0.25500000920E-02 0. -1.
</event>
<event>
 5   0  0.1001573E-05  0.2869206E+04  0.7818609E-02  0.8282099E-01
        2   -1    0    0  501    0  0.00000000000E+00  0.00000000000E+00  0.19705714037E+04  0.19705714037E+04  0.25500000920E-02 0. -1.
       -2   -1    0    0    0  501  0.00000000000E+00  0.00000000000E+00 -0.10444109800E+04  0.10444109800E+04  0.25500000920E-02 0.  1.
    10030    2    1    2    0    0  0.00000000000E+00  0.00000000000E+00  0.92616042370E+03  0.30149823838E+04  0.28692064485E+04 0.  0.
        1    1    3    3  502    0 -0.16565243859E+03  0.18835924401E+03 -0.10211885597E+04  0.10515445828E+04  0.50400001928E-02 0.  1.
       -1    1    3    3    0  502  0.16565243859E+03 -0.18835924401E+03  0.19473489834E+04  0.19634378010E+04  0.50400001928E-02 0. -1.
</event>
<event>
 5   0  0.3746518E-06  0.2927770E+04  0.7818609E-02  0.8264663E-01
       -1   -1    0    0    0  501  0.00000000000E+00  0.00000000000E+00  0.17452535754E+04  0.17452535754E+04  0.50400001928E-02 0. -1.
        1   -1    0    0  501    0  0.00000000000E+00  0.00000000000E+00 -0.12278781130E+04  0.12278781130E+04  0.50400001928E-02 0.  1.
    10030    2    1    2    0    0  0.00000000000E+00  0.00000000000E+00  0.51737546245E+03  0.29731316884E+04  0.29277695721E+04 0.  0.
        4    1    3    3  502    0 -0.68640950072E+03  0.48751555536E+03 -0.95741749553E+03  0.12749428587E+04  0.12699999809E+01 0.  1.
       -4    1    3    3    0  502  0.68640950072E+03 -0.48751555536E+03  0.14747929580E+04  0.16981888297E+04  0.12699999809E+01 0. -1.
</event>
<event>
 5   0  0.3746518E-06  0.2950585E+04  0.7818609E-02  0.8257984E-01
        1   -1    0    0  501    0  0.00000000000E+00  0.00000000000E+00  0.18404386599E+04  0.18404386600E+04  0.50400001928E-02 0. -1.
       -1   -1    0    0    0  501  0.00000000000E+00  0.00000000000E+00 -0.11825917689E+04  0.11825917689E+04  0.50400001928E-02 0.  1.
    10030    2    1    2    0    0  0.00000000000E+00  0.00000000000E+00  0.65784689105E+03  0.30230304289E+04  0.29505847627E+04 0.  0.
        4    1    3    3  502    0  0.90390084732E+03  0.57439326404E+03 -0.71064278160E+03  0.12852934060E+04  0.12699999809E+01 0.  1.
       -4    1    3    3    0  502 -0.90390084732E+03 -0.57439326404E+03  0.13684896727E+04  0.17377370229E+04  0.12699999809E+01 0. -1.
</event>
<event>
 5   0  0.3746518E-06  0.2241048E+04  0.7818609E-02  0.8501535E-01
        1   -1    0    0  501    0  0.00000000000E+00  0.00000000000E+00  0.65080455383E+03  0.65080455385E+03  0.50400001928E-02 0. -1.
       -1   -1    0    0    0  501  0.00000000000E+00  0.00000000000E+00 -0.19292645186E+04  0.19292645186E+04  0.50400001928E-02 0.  1.
    10030    2    1    2    0    0  0.00000000000E+00  0.00000000000E+00 -0.12784599647E+04  0.25800690724E+04  0.22410480890E+04 0.  0.
        4    1    3    3  502    0 -0.12999754415E+03  0.15937224378E+03  0.62888764495E+03  0.66166468580E+03  0.12699999809E+01 0. -1.
       -4    1    3    3    0  502  0.12999754415E+03 -0.15937224378E+03 -0.19073476097E+04  0.19184043866E+04  0.12699999809E+01 0.  1.
</event>
<event>
 5   0  0.9505359E-06  0.2883013E+04  0.7818609E-02  0.8277950E-01
       -2   -1    0    0    0  501  0.00000000000E+00  0.00000000000E+00  0.89376755920E+03  0.89376755920E+03  0.25500000920E-02 0. -1.
        2   -1    0    0  501    0  0.00000000000E+00  0.00000000000E+00 -0.23249236935E+04  0.23249236935E+04  0.25500000920E-02 0.  1.
    10030    2    1    2    0    0  0.00000000000E+00  0.00000000000E+00 -0.14311561343E+04  0.32186912527E+04  0.28830132673E+04 0.  0.
        4    1    3    3  502    0  0.10809154690E+04  0.45684801174E+03  0.21906470742E+03  0.11937668600E+04  0.12699999809E+01 0.  1.
       -4    1    3    3    0  502 -0.10809154690E+04 -0.45684801174E+03 -0.16502208417E+04  0.20249243927E+04  0.12699999809E+01 0. -1.
</event>
<event>
 5   0  0.3486236E-06  0.2892925E+04  0.7818609E-02  0.8274986E-01
       -1   -1    0    0    0  501  0.00000000000E+00  0.00000000000E+00  0.12714074080E+04  0.12714074080E+04  0.50400001928E-02 0.  1.
        1   -1    0    0  501    0  0.00000000000E+00  0.00000000000E+00 -0.16456197705E+04  0.16456197705E+04  0.50400001928E-02 0. -1.
    10030    2    1    2    0    0  0.00000000000E+00  0.00000000000E+00 -0.37421236252E+03  0.29170271785E+04  0.28929245873E+04 0.  0.
        5    1    3    3  502    0 -0.48528900022E+03  0.80168017730E+03  0.92390617060E+03  0.13159867866E+04  0.46999998093E+01 0.  1.
       -5    1    3    3    0  502  0.48528900022E+03 -0.80168017730E+03 -0.12981185331E+04  0.16010403919E+04  0.46999998093E+01 0. -1.
</event>
<event>
 5   0  0.3649705E-06  0.2822248E+04  0.7818609E-02  0.8296394E-01
       -1   -1    0    0    0  501  0.00000000000E+00  0.00000000000E+00  0.16232560954E+04  0.16232560954E+04  0.50400001928E-02 0. -1.
        1   -1    0    0  501    0  0.00000000000E+00  0.00000000000E+00 -0.12267136761E+04  0.12267136762E+04  0.50400001928E-02 0.  1.
    10030    2    1    2    0    0  0.00000000000E+00  0.00000000000E+00  0.39654241926E+03  0.28499697716E+04  0.28222476519E+04 0.  0.
        2    1    3    3  502    0 -0.10847284359E+04 -0.12845601879E+03  0.11004299562E+04  0.15505105021E+04  0.25500000920E-02 0. -1.
       -2    1    3    3    0  502  0.10847284359E+04  0.12845601879E+03 -0.70388753695E+03  0.12994592695E+04  0.25500000920E-02 0.  1.
</event>
<event>
 5   0  0.3746518E-06  0.2527458E+04  0.7818609E-02  0.8393268E-01
        1   -1    0    0  501    0  0.00000000000E+00  0.00000000000E+00  0.16033265161E+04  0.16033265162E+04  0.50400001928E-02 0. -1.
       -1   -1    0    0    0  501  0.00000000000E+00  0.00000000000E+00 -0.99606089450E+03  0.99606089452E+03  0.50400001928E-02 0.  1.
    10030    2    1    2    0    0  0.00000000000E+00  0.00000000000E+00  0.60726562165E+03  0.25993874107E+04  0.25274578880E+04 0.  0.
        4    1    3    3  502    0 -0.89213068079E+03  0.41485758616E+03  0.11193023096E+04  0.14902493890E+04  0.12699999809E+01 0. -1.
       -4    1    3    3    0  502  0.89213068079E+03 -0.41485758616E+03 -0.51203668791E+03  0.11091380217E+04  0.12699999809E+01 0.  1.
</event>
<event>
 5   0  0.3746518E-06  0.2905095E+04  0.7818609E-02  0.8271363E-01
        1   -1    0    0  501    0  0.00000000000E+00  0.00000000000E+00  0.16254001998E+04  0.16254001998E+04  0.50400001928E-02 0. -1.
       -1   -1    0    0    0  501  0.00000000000E+00  0.00000000000E+00 -0.12980767787E+04  0.12980767787E+04  0.50400001928E-02 0.  1.
    10030    2    1    2    0    0  0.00000000000E+00  0.00000000000E+00  0.32732342111E+03  0.29234769785E+04  0.29050950108E+04 0.  0.
        4    1    3    3  502    0 -0.10950688535E+04 -0.94276259534E+03  0.14686022406E+02  0.14450586138E+04  0.12699999809E+01 0. -1.
       -4    1    3    3    0  502  0.10950688535E+04  0.94276259534E+03  0.31263739871E+03  0.14784183647E+04  0.12699999809E+01 0.  1.
</event>
<event>
 5   0  0.9646321E-06  0.2788982E+04  0.7818609E-02  0.8306697E-01
        2   -1    0    0  501    0  0.00000000000E+00  0.00000000000E+00  0.15511707674E+04  0.15511707674E+04  0.25500000920E-02 0.  1.
       -2   -1    0    0    0  501  0.00000000000E+00  0.00000000000E+00 -0.12536371169E+04  0.12536371169E+04  0.25500000920E-02 0. -1.
    10030    2    1    2    0    0  0.00000000000E+00  0.00000000000E+00  0.29753365045E+03  0.28048078843E+04  0.27889820714E+04 0.  0.
        3    1    3    3  502    0 -0.12759138615E+04 -0.53629905450E+03 -0.22588940793E+02  0.13842265451E+04  0.10100000352E+00 0. -1.
       -3    1    3    3    0  502  0.12759138615E+04  0.53629905450E+03  0.32012259124E+03  0.14205813392E+04  0.10100000352E+00 0.  1.
</event>
<event>
 5   0  0.3649705E-06  0.3028407E+04  0.7818609E-02  0.8235665E-01
       -1   -1    0    0    0  501  0.00000000000E+00  0.00000000000E+00  0.15904895273E+04  0.15904895273E+04  0.50400001928E-02 0. -1.
        1   -1    0    0  501    0  0.00000000000E+00  0.00000000000E+00 -0.14415768918E+04  0.14415768918E+04  0.50400001928E-02 0.  1.
    10030    2    1    2    0    0  0.00000000000E+00  0.00000000000E+00  0.14891263550E+03  0.30320664192E+04  0.30284074688E+04 0.  0.
        2    1    3    3  502    0 -0.89585715489E+03  0.12202609550E+04  0.10937120688E+03  0.15177479702E+04  0.25500000920E-02 0.  1.
       -2    1    3    3    0  502  0.89585715489E+03 -0.12202609550E+04  0.39541428616E+02  0.15143184489E+04  0.25500000920E-02 0. -1.
</event>
<event>
 5   0  0.9646321E-06  0.2987064E+04  0.7818609E-02  0.8247435E-01
       -2   -1    0    0    0  501  0.00000000000E+00  0.00000000000E+00  0.11955145957E+04  0.11955145957E+04  0.25500000920E-02 0.  1.
        2   -1    0    0  501    0  0.00000000000E+00  0.00000000000E+00 -0.18658389606E+04  0.18658389606E+04  0.25500000920E-02 0. -1.
    10030    2    1    2    0    0  0.00000000000E+00  0.00000000000E+00 -0.67032436499E+03  0.30613535563E+04  0.29870639167E+04 0.  0.
        3    1    3    3  502    0  0.36371681103E+03 -0.13505233385E+04  0.20173153529E+03  0.14131167075E+04  0.10100000352E+00 0.  1.
       -3    1    3    3    0  502 -0.36371681103E+03  0.13505233385E+04 -0.87205590028E+03  0.16482368488E+04  0.10100000352E+00 0. -1.
</event>
<event>
 5   0  0.3486236E-06  0.2966826E+04  0.7818609E-02  0.8253268E-01
       -1   -1    0    0    0  501  0.00000000000E+00  0.00000000000E+00  0.12393603747E+04  0.12393603747E+04  0.50400001928E-02 0. -1.
        1   -1    0    0  501    0  0.00000000000E+00  0.00000000000E+00 -0.17755246246E+04  0.17755246246E+04  0.50400001928E-02 0.  1.
    10030    2    1    2    0    0  0.00000000000E+00  0.00000000000E+00 -0.53616424986E+03  0.30148849993E+04  0.29668264958E+04 0.  0.
        5    1    3    3  502    0 -0.76782547210E+03  0.78632776744E+03 -0.12805268157E+04  0.16874946901E+04  0.46999998093E+01 0.  1.
       -5    1    3    3    0  502  0.76782547210E+03 -0.78632776744E+03  0.74436256586E+03  0.13273903092E+04  0.46999998093E+01 0. -1.
</event>
<event>
 5   0  0.9646321E-06  0.2912680E+04  0.7818609E-02  0.8269115E-01
        2   -1    0    0  501    0  0.00000000000E+00  0.00000000000E+00  0.24227455123E+04  0.24227455123E+04  0.25500000920E-02 0. -1.
       -2   -1    0    0    0  501  0.00000000000E+00  0.00000000000E+00 -0.87542245157E+03  0.87542245158E+03  0.25500000920E-02 0.  1.
    10030    2    1    2    0    0  0.00000000000E+00  0.00000000000E+00  0.15473230608E+04  0.32981679639E+04  0.29126797393E+04 0.  0.
        3    1    3    3  502    0  0.71596444069E+03  0.78081371438E+03  0.19052456204E+04  0.21799623899E+04  0.10100000352E+00 0. -1.
       -3    1    3    3    0  502 -0.71596444069E+03 -0.78081371438E+03 -0.35792255967E+03  0.11182055740E+04  0.10100000352E+00 0.  1.
</event>
<event>
 5   0  0.3474078E-06  0.2844047E+04  0.7818609E-02  0.8289722E-01
       -1   -1    0    0    0  501  0.00000000000E+00  0.00000000000E+00  0.10425094460E+04  0.10425094460E+04  0.50400001928E-02 0.  1.
        1   -1    0    0  501    0  0.00000000000E+00  0.00000000000E+00 -0.19396957473E+04  0.19396957473E+04  0.50400001928E-02 0. -1.
    10030    2    1    2    0    0  0.00000000000E+00  0.00000000000E+00 -0.89718630130E+03  0.29822051933E+04  0.28440472141E+04 0.  0.
        3    1    3    3  502    0 -0.37935091778E+03 -0.68676456000E+03  0.79502137898E+03  0.11169653902E+04  0.10100000352E+00 0.  1.
       -3    1    3    3    0  502  0.37935091778E+03  0.68676456000E+03 -0.16922076803E+04  0.18652398031E+04  0.10100000352E+00 0. -1.
</event>
<event>
 5   0  0.3486236E-06  0.2894482E+04  0.7818609E-02  0.8274521E-01
       -1   -1    0    0    0  501  0.00000000000E+00  0.00000000000E+00  0.19764686247E+04  0.19764686247E+04  0.50400001928E-02 0. -1.
        1   -1    0    0  501    0  0.00000000000E+00  0.00000000000E+00 -0.10597215130E+04  0.10597215130E+04  0.50400001928E-02 0.  1.
    10030    2    1    2    0    0  0.00000000000E+00  0.00000000000E+00  0.91674711171E+03  0.30361901377E+04  0.28944818682E+04 0.  0.
        5    1    3    3  502    0 -0.13903036407E+04 -0.16119362379E+03  0.72167997654E+02  0.14014841802E+04  0.46999998093E+01 0.  1.
       -5    1    3    3    0  502  0.13903036407E+04  0.16119362379E+03  0.84457911406E+03  0.16347059575E+04  0.46999998093E+01 0. -1.
</event>
<event>
 5   0  0.9360689E-06  0.2571068E+04  0.7818609E-02  0.8378096E-01
       -2   -1    0    0    0  501  0.00000000000E+00  0.00000000000E+00  0.16263692193E+04  0.16263692193E+04  0.25500000920E-02 0. -1.
        2   -1    0    0  501    0  0.00000000000E+00  0.00000000000E+00 -0.10161270732E+04  0.10161270732E+04  0.25500000920E-02 0.  1.
    10030    2    1    2    0    0  0.00000000000E+00  0.00000000000E+00  0.61024214612E+03  0.26424962925E+04  0.25710681008E+04 0.  0.
        5    1    3    3  502    0 -0.96092654431E+03 -0.80752616077E+03  0.19742988495E+02  0.12553446537E+04  0.46999998093E+01 0.  1.
       -5    1    3    3    0  502  0.96092654431E+03  0.80752616077E+03  0.59049915763E+03  0.13871516388E+04  0.46999998093E+01 0. -1.
</event>
<event>
 5   0  0.3474078E-06  0.2882901E+04  0.7818609E-02  0.8277983E-01
        1   -1    0    0  501    0  0.00000000000E+00  0.00000000000E+00  0.18368512971E+04  0.18368512971E+04  0.50400001928E-02 0.  1.
       -1   -1    0    0    0  501  0.00000000000E+00  0.00000000000E+00 -0.11311640712E+04  0.11311640712E+04  0.50400001928E-02 0. -1.
    10030    2    1    2    0    0  0.00000000000E+00  0.00000000000E+00  0.70568722592E+03  0.29680153683E+04  0.28829014492E+04 0.  0.
        3    1    3    3  502    0 -0.12968991222E+04 -0.41639153932E+03  0.83841542296E+03  0.15994591832E+04  0.10100000352E+00 0.  1.
       -3    1    3    3    0  502  0.12968991222E+04  0.41639153932E+03 -0.13272819704E+03  0.13685561851E+04  0.10100000352E+00 0. -1.
</event>
<event>
 5   0  0.3649705E-06  0.2896681E+04  0.7818609E-02  0.8273866E-01
       -1   -1    0    0    0  501  0.00000000000E+00  0.00000000000E+00  0.11694414637E+04  0.11694414637E+04  0.50400001928E-02 0.  1.
        1   -1    0    0  501    0  0.00000000000E+00  0.00000000000E+00 -0.17937540806E+04  0.17937540806E+04  0.50400001928E-02 0. -1.
    10030    2    1    2    0    0  0.00000000000E+00  0.00000000000E+00 -0.62431261690E+03  0.29631955443E+04  0.28966811337E+04 0.  0.
        2    1    3    3  502    0 -0.47381097580E+03 -0.79718682021E+03 -0.14502158613E+04  0.17213743671E+04  0.25500000920E-02 0. -1.
       -2    1    3    3    0  502  0.47381097580E+03  0.79718682021E+03  0.82590324444E+03  0.12418211773E+04  0.25500000920E-02 0.  1.
</event>
<event>
 5   0  0.9251510E-06  0.2950707E+04  0.7818609E-02  0.8257949E-01
        2   -1    0    0  501    0  0.00000000000E+00  0.00000000000E+00  0.23801275455E+04  0.23801275455E+04  0.25500000920E-02 0. -1.
       -2   -1    0    0    0  501  0.00000000000E+00  0.00000000000E+00 -0.91451709595E+03  0.91451709596E+03  0.25500000920E-02 0.  1.
    10030    2    1    2    0    0  0.00000000000E+00  0.00000000000E+00  0.14656104495E+04  0.32946446414E+04  0.29507065804E+04 0.  0.
        2    1    3    3  502    0  0.75905529301E+03  0.31313719498E+03  0.21014230900E+04  0.22561469021E+04  0.25500000920E-02 0. -1.
       -2    1    3    3    0  502 -0.75905529301E+03 -0.31313719498E+03 -0.63581264049E+03  0.10384977393E+04  0.25500000920E-02 0.  1.
</event>
<event>
 5   0  0.9251510E-06  0.2912171E+04  0.7818609E-02  0.8269265E-01
        2   -1    0    0  501    0  0.00000000000E+00  0.00000000000E+00  0.19576613012E+04  0.19576613012E+04  0.25500000920E-02 0. -1.
       -2   -1    0    0    0  501  0.00000000000E+00  0.00000000000E+00 -0.10830192421E+04  0.10830192421E+04  0.25500000920E-02 0.  1.
    10030    2    1    2    0    0  0.00000000000E+00  0.00000000000E+00  0.87464205910E+03  0.30406805432E+04  0.29121709143E+04 0.  0.
        2    1    3    3  502    0  0.24333401669E+03 -0.72972423301E+03  0.17281932094E+04  0.18916555365E+04  0.25500000920E-02 0. -1.
       -2    1    3    3    0  502 -0.24333401669E+03  0.72972423301E+03 -0.85355115025E+03  0.11490250067E+04  0.25500000920E-02 0.  1.
</event>
<event>
 5   0  0.9505359E-06  0.2889460E+04  0.7818609E-02  0.8276020E-01
        2   -1    0    0  501    0  0.00000000000E+00  0.00000000000E+00  0.23538309793E+04  0.23538309793E+04  0.25500000920E-02 0. -1.
       -2   -1    0    0    0  501  0.00000000000E+00  0.00000000000E+00 -0.88674342100E+03  0.88674342101E+03  0.25500000920E-02 0.  1.
    10030    2    1    2    0    0  0.00000000000E+00  0.00000000000E+00  0.14670875583E+04  0.32405744003E+04  0.28894595585E+04 0.  0.
        4    1    3    3  502    0  0.83879872639E+02 -0.47858579983E+03 -0.79236168261E+03  0.92947235021E+03  0.12699999809E+01 0.  1.
       -4    1    3    3    0  502 -0.83879872639E+02  0.47858579983E+03  0.22594492409E+04  0.23111020501E+04  0.12699999809E+01 0. -1.
</event>
<event>
 5   0  0.1001573E-05  0.2874903E+04  0.7818609E-02  0.8280384E-01
       -2   -1    0    0    0  501  0.00000000000E+00  0.00000000000E+00  0.84668379775E+03  0.84668379775E+03  0.25500000920E-02 0.  1.
        2   -1    0    0  501    0  0.00000000000E+00  0.00000000000E+00 -0.24404235659E+04  0.24404235659E+04  0.25500000920E-02 0. -1.
    10030    2    1    2    0    0  0.00000000000E+00  0.00000000000E+00 -0.15937397682E+04  0.32871073637E+04  0.28749031934E+04 0.  0.
        1    1    3    3  502    0 -0.80073315441E+03 -0.11576674709E+04 -0.46371719722E+03  0.14820260446E+04  0.50400001928E-02 0. -1.
       -1    1    3    3    0  502  0.80073315441E+03  0.11576674709E+04 -0.11300225710E+04  0.18050813191E+04  0.50400001928E-02 0.  1.
</event>
<event>
 5   0  0.3188375E-06  0.2908783E+04  0.7818609E-02  0.8270269E-01
        4   -1    0    0  501    0  0.00000000000E+00  0.00000000000E+00  0.17921210523E+04  0.17921215023E+04  0.12699999809E+01 0. -1.
       -4   -1    0    0    0  501  0.00000000000E+00  0.00000000000E+00 -0.11803070104E+04  0.11803076937E+04  0.12699999809E+01 0.  1.
    10030    2    1    2    0    0  0.00000000000E+00  0.00000000000E+00  0.61181404187E+03  0.29724291960E+04  0.29087830623E+04 0.  0.
        2    1    3    3  502    0  0.12652982257E+03  0.13753280785E+04  0.77163983755E+03  0.15820762176E+04  0.25500000920E-02 0.  1.
       -2    1    3    3    0  502 -0.12652982257E+03 -0.13753280785E+04 -0.15982579568E+03  0.13903529784E+04  0.25500000920E-02 0. -1.
</event>
<event>
 5   0  0.9251510E-06  0.2893589E+04  0.7818609E-02  0.8274788E-01
        2   -1    0    0  501    0  0.00000000000E+00  0.00000000000E+00  0.12427644970E+04  0.12427644970E+04  0.25500000920E-02 0. -1.
       -2   -1    0    0    0  501  0.00000000000E+00  0.00000000000E+00 -0.16843207164E+04  0.16843207164E+04  0.25500000920E-02 0.  1.
    10030    2    1    2    0    0  0.00000000000E+00  0.00000000000E+00 -0.44155621936E+03  0.29270852134E+04  0.28935887669E+04 0.  0.
        2    1    3    3  502    0  0.59085934576E+03  0.13030113175E+04 -0.32052159751E+01  0.14307213332E+04  0.25500000920E-02 0. -1.
       -2    1    3    3    0  502 -0.59085934576E+03 -0.13030113175E+04 -0.43835100339E+03  0.14963638802E+04  0.25500000920E-02 0.  1.
</event>
<event>
 5   0  0.9646321E-06  0.2690621E+04  0.7818609E-02  0.8338054E-01
       -2   -1    0    0    0  501  0.00000000000E+00  0.00000000000E+00  0.13002968616E+04  0.13002968616E+04  0.25500000920E-02 0. -1.
        2   -1    0    0  501    0  0.00000000000E+00  0.00000000000E+00 -0.13918827046E+04  0.13918827046E+04  0.25500000920E-02 0.  1.
    10030    2    1    2    0    0  0.00000000000E+00  0.00000000000E+00 -0.91585842995E+02  0.26921795661E+04  0.26906212758E+04 0.  0.
        3    1    3    3  502    0  0.23483215683E+03  0.18933605115E+03 -0.13576076879E+04  0.13907166953E+04  0.10100000352E+00 0.  1.
       -3    1    3    3    0  502 -0.23483215683E+03 -0.18933605115E+03  0.12660218449E+04  0.13014628708E+04  0.10100000352E+00 0. -1.
</event>
<event>
 5   0  0.3188375E-06  0.2924355E+04  0.7818609E-02  0.8265668E-01
       -3   -1    0    0    0  501  0.00000000000E+00  0.00000000000E+00  0.19574106135E+04  0.19574106161E+04  0.10100000352E+00 0. -1.
        3   -1    0    0  501    0  0.00000000000E+00  0.00000000000E+00 -0.10922407349E+04  0.10922407396E+04  0.10100000352E+00 0.  1.
    10030    2    1    2    0    0  0.00000000000E+00  0.00000000000E+00  0.86516987863E+03  0.30496513557E+04  0.29243553944E+04 0.  0.
        3    1    3    3  502    0 -0.13920512392E+04  0.27620412380E+03  0.65556243424E+02  0.14207015878E+04  0.10100000352E+00 0. -1.
       -3    1    3    3    0  502  0.13920512392E+04 -0.27620412380E+03  0.79961363520E+03  0.16289497679E+04  0.10100000352E+00 0.  1.
</event>
<event>
 5   0  0.3188375E-06  0.2904390E+04  0.7818609E-02  0.8271573E-01
        3   -1    0    0  501    0  0.00000000000E+00  0.00000000000E+00  0.10535585182E+04  0.10535585231E+04  0.10100000352E+00 0.  1.
       -3   -1    0    0    0  501  0.00000000000E+00  0.00000000000E+00 -0.20016636331E+04  0.20016636356E+04  0.10100000352E+00 0. -1.
    10030    2    1    2    0    0  0.00000000000E+00  0.00000000000E+00 -0.94810511484E+03  0.30552221587E+04  0.29043896313E+04 0.  0.
        3    1    3    3  502    0 -0.74395384399E+03  0.12284531307E+04 -0.24769055299E+03  0.14573657868E+04  0.10100000352E+00 0. -1.
       -3    1    3    3    0  502  0.74395384399E+03 -0.12284531307E+04 -0.70041456185E+03  0.15978563718E+04  0.10100000352E+00 0.  1.
</event>
<event>
 5   0  0.3474078E-06  0.2958237E+04  0.7818609E-02  0.8255758E-01
       -1   -1    0    0    0  501  0.00000000000E+00  0.00000000000E+00  0.12731478336E+04  0.12731478336E+04  0.50400001928E-02 0. -1.
        1   -1    0    0  501    0  0.00000000000E+00  0.00000000000E+00 -0.17184106937E+04  0.17184106937E+04  0.50400001928E-02 0.  1.
    10030    2    1    2    0    0  0.00000000000E+00  0.00000000000E+00 -0.44526286017E+03  0.29915585273E+04  0.29582365368E+04 0.  0.
        3    1    3    3  502    0 -0.10609548040E+04 -0.89850957501E+01 -0.12648150609E+04  0.16508976276E+04  0.10100000352E+00 0.  1.
       -3    1    3    3    0  502  0.10609548040E+04  0.89850957501E+01  0.81955220076E+03  0.13406608997E+04  0.10100000352E+00 0. -1.
</event>
<event>
 5   0  0.9360689E-06  0.2881399E+04  0.7818609E-02  0.8278433E-01
        2   -1    0    0  501    0  0.00000000000E+00  0.00000000000E+00  0.12263110803E+04  0.12263110803E+04  0.25500000920E-02 0. -1.
       -2   -1    0    0    0  501  0.00000000000E+00  0.00000000000E+00 -0.16925684622E+04  0.16925684622E+04  0.25500000920E-02 0.  1.
    10030    2    1    2    0    0  0.00000000000E+00  0.00000000000E+00 -0.46625738189E+03  0.29188795425E+04  0.28813992847E+04 0.  0.
        5    1    3    3  502    0  0.50073418545E+03 -0.52337774446E+03 -0.14946931356E+04  0.16609601583E+04  0.46999998093E+01 0.  1.
       -5    1    3    3    0  502 -0.50073418545E+03  0.52337774446E+03  0.10284357537E+04  0.12579193843E+04  0.46999998093E+01 0. -1.
</event>
<event>
 5   0  0.3746518E-06  0.3248679E+04  0.7818609E-02  0.8176078E-01
        1   -1    0    0  501    0  0.00000000000E+00  0.00000000000E+00  0.31496571246E+04  0.31496571246E+04  0.50400001928E-02 0.  1.
       -1   -1    0    0    0  501  0.00000000000E+00  0.00000000000E+00 -0.83770344259E+03  0.83770344260E+03  0.50400001928E-02 0. -1.
    10030    2    1    2    0    0  0.00000000000E+00  0.00000000000E+00  0.23119536820E+04  0.39873605672E+04  0.32486788800E+04 0.  0.
        4    1    3    3  502    0 -0.12904521593E+04 -0.20349572929E+03 -0.28809425726E+02  0.13067168336E+04  0.12699999809E+01 0. -1.
       -4    1    3    3    0  502  0.12904521593E+04  0.20349572929E+03  0.23407631078E+04  0.26806437337E+04  0.12699999809E+01 0.  1.
</event>
<event>
 5   0  0.1001573E-05  0.2924969E+04  0.7818609E-02  0.8265487E-01
        2   -1    0    0  501    0  0.00000000000E+00  0.00000000000E+00  0.22369097854E+04  0.22369097854E+04  0.25500000920E-02 0.  1.
       -2   -1    0    0    0  501  0.00000000000E+00  0.00000000000E+00 -0.95616798027E+03  0.95616798027E+03  0.25500000920E-02 0. -1.
    10030    2    1    2    0    0  0.00000000000E+00  0.00000000000E+00  0.12807418052E+04  0.31930777657E+04  0.29249694095E+04 0.  0.
        1    1    3    3  502    0  0.44417232199E+03 -0.12588337866E+04 -0.11809132316E+02  0.13349498154E+04  0.50400001928E-02 0. -1.
       -1    1    3    3    0  502 -0.44417232199E+03  0.12588337866E+04  0.12925509375E+04  0.18581279504E+04  0.50400001928E-02 0.  1.
</event>
<event>
 5   0  0.9251510E-06  0.3045591E+04  0.7818609E-02  0.8230831E-01
        2   -1    0    0  501    0  0.00000000000E+00  0.00000000000E+00  0.23437244144E+04  0.23437244144E+04  0.25500000920E-02 0. -1.
       -2   -1    0    0    0  501  0.00000000000E+00  0.00000000000E+00 -0.98941102514E+03  0.98941102515E+03  0.25500000920E-02 0.  1.
    10030    2    1    2    0    0  0.00000000000E+00  0.00000000000E+00  0.13543133893E+04  0.33331354396E+04  0.30455914208E+04 0.  0.
        2    1    3    3  502    0  0.14950650237E+04  0.26226555783E+03  0.54354803679E+03  0.16122800986E+04  0.25500000920E-02 0.  1.
       -2    1    3    3    0  502 -0.14950650237E+04 -0.26226555783E+03  0.81076535250E+03  0.17208553410E+04  0.25500000920E-02 0. -1.
</event>
<event>
 5   0  0.3486236E-06  0.3050395E+04  0.7818609E-02  0.8229485E-01
        1   -1    0    0  501    0  0.00000000000E+00  0.00000000000E+00  0.21397048112E+04  0.21397048112E+04  0.50400001928E-02 0. -1.
       -1   -1    0    0    0  501  0.00000000000E+00  0.00000000000E+00 -0.10871718069E+04  0.10871718069E+04  0.50400001928E-02 0.  1.
    10030    2    1    2    0    0  0.00000000000E+00  0.00000000000E+00  0.10525330043E+04  0.32268766181E+04  0.30503945619E+04 0.  0.
        5    1    3    3  502    0  0.96811874143E+03  0.11780523593E+04  0.49049601059E+03  0.16017707967E+04  0.46999998093E+01 0.  1.
       -5    1    3    3    0  502 -0.96811874143E+03 -0.11780523593E+04  0.56203699374E+03  0.16251058215E+04  0.46999998093E+01 0. -1.
</event>
<event>
 5   0  0.9505359E-06  0.2906269E+04  0.7818609E-02  0.8271015E-01
        2   -1    0    0  501    0  0.00000000000E+00  0.00000000000E+00  0.17082400225E+04  0.17082400225E+04  0.25500000920E-02 0. -1.
       -2   -1    0    0    0  501  0.00000000000E+00  0.00000000000E+00 -0.12361259597E+04  0.12361259597E+04  0.25500000920E-02 0.  1.
    10030    2    1    2    0    0  0.00000000000E+00  0.00000000000E+00  0.47211406276E+03  0.29443659822E+04  0.29062689739E+04 0.  0.
        4    1    3    3  502    0  0.14350436622E+04  0.90923636685E+02  0.23591947703E+02  0.14381152989E+04  0.12699999809E+01 0.  1.
       -4    1    3    3    0  502 -0.14350436622E+04 -0.90923636685E+02  0.44852211506E+03  0.15062506832E+04  0.12699999809E+01 0. -1.
</event>
<event>
 5   0  0.9360689E-06  0.2890119E+04  0.7818609E-02  0.8275824E-01
       -2   -1    0    0    0  501  0.00000000000E+00  0.00000000000E+00  0.12577454529E+04  0.12577454529E+04  0.25500000920E-02 0. -1.
        2   -1    0    0  501    0  0.00000000000E+00  0.00000000000E+00 -0.16602693662E+04  0.16602693662E+04  0.25500000920E-02 0.  1.
    10030    2    1    2    0    0  0.00000000000E+00  0.00000000000E+00 -0.40252391328E+03  0.29180148191E+04  0.28901185068E+04 0.  0.
        5    1    3    3  502    0  0.12551240604E+04  0.50325809477E+03 -0.71565879026E+03  0.15299655915E+04  0.46999998093E+01 0.  1.
       -5    1    3    3    0  502 -0.12551240604E+04 -0.50325809477E+03  0.31313487698E+03  0.13880492276E+04  0.46999998093E+01 0. -1.
</event>
<event>
 5   0  0.3746518E-06  0.2902735E+04  0.7818609E-02  0.8272064E-01
        1   -1    0    0  501    0  0.00000000000E+00  0.00000000000E+00  0.15029428023E+04  0.15029428023E+04  0.50400001928E-02 0. -1.
       -1   -1    0    0    0  501  0.00000000000E+00  0.00000000000E+00 -0.14015617741E+04  0.14015617741E+04  0.50400001928E-02 0.  1.
    10030    2    1    2    0    0  0.00000000000E+00  0.00000000000E+00  0.10138102817E+03  0.29045045764E+04  0.29027346971E+04 0.  0.
        4    1    3    3  502    0 -0.13758438506E+04  0.34049498467E+03 -0.26188182240E+03  0.14413420266E+04  0.12699999809E+01 0. -1.
       -4    1    3    3    0  502  0.13758438506E+04 -0.34049498467E+03  0.36326285058E+03  0.14631625499E+04  0.12699999809E+01 0.  1.
</event>
<event>
 5   0  0.9646321E-06  0.2456825E+04  0.7818609E-02  0.8418530E-01
        2   -1    0    0  501    0  0.00000000000E+00  0.00000000000E+00  0.24713869456E+04  0.24713869456E+04  0.25500000920E-02 0. -1.
       -2   -1    0    0    0  501  0.00000000000E+00  0.00000000000E+00 -0.61058745783E+03  0.61058745784E+03  0.25500000920E-02 0.  1.
    10030    2    1    2    0    0  0.00000000000E+00  0.00000000000E+00  0.18607994877E+04  0.30819744034E+04  0.24568254903E+04 0.  0.
        3    1    3    3  502    0  0.11766304908E+03 -0.16856492339E+03 -0.58885694848E+03  0.62370765787E+03  0.10100000352E+00 0.  1.
       -3    1    3    3    0  502 -0.11766304908E+03  0.16856492339E+03  0.24496564362E+04  0.24582667455E+04  0.10100000352E+00 0. -1.
</event>
<event>
 5   0  0.3486236E-06  0.2885591E+04  0.7818609E-02  0.8277178E-01
       -1   -1    0    0    0  501  0.00000000000E+00  0.00000000000E+00  0.21787564917E+04  0.21787564917E+04  0.50400001928E-02 0.  1.
        1   -1    0    0  501    0  0.00000000000E+00  0.00000000000E+00 -0.95543430638E+03  0.95543430640E+03  0.50400001928E-02 0. -1.
    10030    2    1    2    0    0  0.00000000000E+00  0.00000000000E+00  0.12233221853E+04  0.31341907981E+04  0.28855908910E+04 0.  0.
        5    1    3    3  502    0  0.12152567629E+03 -0.13436692523E+04  0.11670036511E+04  0.17838540191E+04  0.46999998093E+01 0.  1.
       -5    1    3    3    0  502 -0.12152567629E+03  0.13436692523E+04  0.56318534259E+02  0.13503367791E+04  0.46999998093E+01 0. -1.
</event>
<event>
 5   0  0.3474078E-06  0.2980632E+04  0.7818609E-02  0.8249283E-01
       -1   -1    0    0    0  501  0.00000000000E+00  0.00000000000E+00  0.13213466664E+04  0.13213466664E+04  0.50400001928E-02 0. -1.
        1   -1    0    0  501    0  0.00000000000E+00  0.00000000000E+00 -0.16808920373E+04  0.16808920373E+04  0.50400001928E-02 0.  1.
    10030    2    1    2    0    0  0.00000000000E+00  0.00000000000E+00 -0.35954537088E+03  0.30022387037E+04  0.29806315372E+04 0.  0.
        3    1    3    3  502    0  0.14972229580E+03  0.14665016261E+04 -0.40044370764E+03  0.15275467124E+04  0.10100000352E+00 0.  1.
       -3    1    3    3    0  502 -0.14972229580E+03 -0.14665016261E+04  0.40898336756E+02  0.14746919914E+04  0.10100000352E+00 0. -1.
</event>
<event>
 5   0  0.3474078E-06  0.3025108E+04  0.7818609E-02  0.8236597E-01
        1   -1    0    0  501    0  0.00000000000E+00  0.00000000000E+00  0.15104726176E+04  0.15104726177E+04  0.50400001928E-02 0. -1.
       -1   -1    0    0    0  501  0.00000000000E+00  0.00000000000E+00 -0.15146379163E+04  0.15146379163E+04  0.50400001928E-02 0.  1.
    10030    2    1    2    0    0  0.00000000000E+00  0.00000000000E+00 -0.41652986924E+01  0.30251105340E+04  0.30251076664E+04 0.  0.
        3    1    3    3  502    0  0.70749418047E+03  0.12885388827E+04 -0.35836745289E+03  0.15130458384E+04  0.10100000352E+00 0.  1.
       -3    1    3    3    0  502 -0.70749418047E+03 -0.12885388827E+04  0.35420215420E+03  0.15120646956E+04  0.10100000352E+00 0. -1.
</event>
<event>
 5   0  0.3564340E-06  0.2857279E+04  0.7818609E-02  0.8285703E-01
        1   -1    0    0  501    0  0.00000000000E+00  0.00000000000E+00  0.20436063066E+04  0.20436063066E+04  0.50400001928E-02 0. -1.
       -1   -1    0    0    0  501  0.00000000000E+00  0.00000000000E+00 -0.99872965903E+03  0.99872965904E+03  0.50400001928E-02 0.  1.
    10030    2    1    2    0    0  0.00000000000E+00  0.00000000000E+00  0.10448766476E+04  0.30423359657E+04  0.28572785862E+04 0.  0.
        1    1    3    3  502    0 -0.12604032080E+04  0.61234816868E+03  0.81871096957E+03  0.16229214947E+04  0.50400001928E-02 0. -1.
       -1    1    3    3    0  502  0.12604032080E+04 -0.61234816868E+03  0.22616567804E+03  0.14194144709E+04  0.50400001928E-02 0.  1.
</event>
<event>
 5   0  0.9646321E-06  0.2902843E+04  0.7818609E-02  0.8272032E-01
        2   -1    0    0  501    0  0.00000000000E+00  0.00000000000E+00  0.22146316119E+04  0.22146316119E+04  0.25500000920E-02 0. -1.
       -2   -1    0    0    0  501  0.00000000000E+00  0.00000000000E+00 -0.95122983117E+03  0.95122983118E+03  0.25500000920E-02 0.  1.
    10030    2    1    2    0    0  0.00000000000E+00  0.00000000000E+00  0.12634017807E+04  0.31658614431E+04  0.29028425064E+04 0.  0.
        3    1    3    3  502    0  0.14640665681E+03  0.87286260619E+03 -0.62287668715E+03  0.10822658712E+04  0.10100000352E+00 0.  1.
       -3    1    3    3    0  502 -0.14640665681E+03 -0.87286260619E+03  0.18862784679E+04  0.20835955719E+04  0.10100000352E+00 0. -1.
</event>
<event>
 5   0  0.3188375E-06  0.2394672E+04  0.7818609E-02  0.8441501E-01
        3   -1    0    0  501    0  0.00000000000E+00  0.00000000000E+00  0.74508099954E+03  0.74508100638E+03  0.10100000352E+00 0. -1.
       -3   -1    0    0    0  501  0.00000000000E+00  0.00000000000E+00 -0.19241034676E+04  0.19241034702E+04  0.10100000352E+00 0.  1.
    10030    2    1    2    0    0  0.00000000000E+00  0.00000000000E+00 -0.11790224680E+04  0.26691844766E+04  0.23946715412E+04 0.  0.
        4    1    3    3  502    0 -0.14275294957E+03 -0.26783403828E+03 -0.18805153569E+04  0.19048498884E+04  0.12699999809E+01 0.  1.
       -4    1    3    3    0  502  0.14275294957E+03  0.26783403828E+03  0.70149288891E+03  0.76433458823E+03  0.12699999809E+01 0. -1.
</event>
<event>
 5   0  0.9646321E-06  0.2908945E+04  0.7818609E-02  0.8270221E-01
       -2   -1    0    0    0  501  0.00000000000E+00  0.00000000000E+00  0.14559214667E+04  0.14559214667E+04  0.25500000920E-02 0. -1.
        2   -1    0    0  501    0  0.00000000000E+00  0.00000000000E+00 -0.14530245111E+04  0.14530245111E+04  0.25500000920E-02 0.  1.
    10030    2    1    2    0    0  0.00000000000E+00  0.00000000000E+00  0.28969555910E+01  0.29089459778E+04  0.29089445353E+04 0.  0.
        3    1    3    3  502    0  0.27756618724E+03 -0.54837627026E+03  0.13196790223E+04  0.14557857858E+04  0.10100000352E+00 0. -1.
       -3    1    3    3    0  502 -0.27756618724E+03  0.54837627026E+03 -0.13167820667E+04  0.14531601920E+04  0.10100000352E+00 0.  1.
</event>
<event>
 5   0  0.9360689E-06  0.2894820E+04  0.7818609E-02  0.8274420E-01
        2   -1    0    0  501    0  0.00000000000E+00  0.00000000000E+00  0.15902850368E+04  0.15902850368E+04  0.25500000920E-02 0. -1.
       -2   -1    0    0    0  501  0.00000000000E+00  0.00000000000E+00 -0.13173710896E+04  0.13173710896E+04  0.25500000920E-02 0.  1.
    10030    2    1    2    0    0  0.00000000000E+00  0.00000000000E+00  0.27291394721E+03  0.29076561263E+04  0.28948198780E+04 0.  0.
        5    1    3    3  502    0 -0.47152691174E+03 -0.12040648250E+04 -0.51670622224E+03  0.13925218639E+04  0.46999998093E+01 0.  1.
       -5    1    3    3    0  502  0.47152691174E+03  0.12040648250E+04  0.78962016944E+03  0.15151342624E+04  0.46999998093E+01 0. -1.
</event>
<event>
 5   0  0.3649705E-06  0.2927831E+04  0.7818609E-02  0.8264645E-01
        1   -1    0    0  501    0  0.00000000000E+00  0.00000000000E+00  0.70678951195E+03  0.70678951197E+03  0.50400001928E-02 0. -1.
       -1   -1    0    0    0  501  0.00000000000E+00  0.00000000000E+00 -0.30320881314E+04  0.30320881314E+04  0.50400001928E-02 0.  1.
    10030    2    1    2    0    0  0.00000000000E+00  0.00000000000E+00 -0.23252986194E+04  0.37388776433E+04  0.29278306581E+04 0.  0.
        2    1    3    3  502    0  0.27901853770E+02 -0.48490317356E+03 -0.29261937753E+04  0.29662298649E+04  0.25500000920E-02 0.  1.
       -2    1    3    3    0  502 -0.27901853770E+02  0.48490317356E+03  0.60089515584E+03  0.77264777842E+03  0.25500000920E-02 0. -1.
</event>
<event>
 5   0  0.3746518E-06  0.2917218E+04  0.7818609E-02  0.8267773E-01
        1   -1    0    0  501    0  0.00000000000E+00  0.00000000000E+00  0.22157823136E+04  0.22157823136E+04  0.50400001928E-02 0. -1.
       -1   -1    0    0    0  501  0.00000000000E+00  0.00000000000E+00 -0.96017554227E+03  0.96017554229E+03  0.50400001928E-02 0.  1.
    10030    2    1    2    0    0  0.00000000000E+00  0.00000000000E+00  0.12556067713E+04  0.31759578559E+04  0.29172178421E+04 0.  0.
        4    1    3    3  502    0 -0.10333095085E+04 -0.28926002055E+02 -0.49253273314E+03  0.11450569243E+04  0.12699999809E+01 0.  1.
       -4    1    3    3    0  502  0.10333095085E+04  0.28926002055E+02  0.17481395045E+04  0.20309009316E+04  0.12699999809E+01 0. -1.
</event>
<event>
 5   0  0.9251510E-06  0.2971671E+04  0.7818609E-02  0.8251867E-01
        2   -1    0    0  501    0  0.00000000000E+00  0.00000000000E+00  0.93175220305E+03  0.93175220305E+03  0.25500000920E-02 0. -1.
       -2   -1    0    0    0  501  0.00000000000E+00  0.00000000000E+00 -0.23694145804E+04  0.23694145804E+04  0.25500000920E-02 0.  1.
    10030    2    1    2    0    0  0.00000000000E+00  0.00000000000E+00 -0.14376623773E+04  0.33011667834E+04  0.29716710822E+04 0.  0.
        2    1    3    3  502    0  0.11103176317E+04  0.60730673049E+03  0.14600111038E+03  0.12739478139E+04  0.25500000920E-02 0. -1.
       -2    1    3    3    0  502 -0.11103176317E+04 -0.60730673049E+03 -0.15836634877E+04  0.20272189695E+04  0.25500000920E-02 0.  1.
</event>
<event>
 5   0  0.9646321E-06  0.2940764E+04  0.7818609E-02  0.8260851E-01
        2   -1    0    0  501    0  0.00000000000E+00  0.00000000000E+00  0.17161482821E+04  0.17161482821E+04  0.25500000920E-02 0.  1.
       -2   -1    0    0    0  501  0.00000000000E+00  0.00000000000E+00 -0.12598114307E+04  0.12598114307E+04  0.25500000920E-02 0. -1.
    10030    2    1    2    0    0  0.00000000000E+00  0.00000000000E+00  0.45633685144E+03  0.29759597128E+04  0.29407639977E+04 0.  0.
        3    1    3    3  502    0 -0.14859671443E+03  0.11481769800E+04  0.11454559949E+04  0.16286377152E+04  0.10100000352E+00 0.  1.
       -3    1    3    3    0  502  0.14859671443E+03 -0.11481769800E+04 -0.68911914344E+03  0.13473219975E+04  0.10100000352E+00 0. -1.
</event>
<event>
 5   0  0.3564340E-06  0.2762782E+04  0.7818609E-02  0.8314917E-01
       -1   -1    0    0    0  501  0.00000000000E+00  0.00000000000E+00  0.88553102146E+03  0.88553102147E+03  0.50400001928E-02 0. -1.
        1   -1    0    0  501    0  0.00000000000E+00  0.00000000000E+00 -0.21549115905E+04  0.21549115905E+04  0.50400001928E-02 0.  1.
    10030    2    1    2    0    0  0.00000000000E+00  0.00000000000E+00 -0.12693805691E+04  0.30404426120E+04  0.27627819762E+04 0.  0.
        1    1    3    3  502    0  0.16967300712E+03 -0.44867712849E+03  0.79093180588E+03  0.92502606263E+03  0.50400001928E-02 0. -1.
       -1    1    3    3    0  502 -0.16967300712E+03  0.44867712849E+03 -0.20603123749E+04  0.21154165494E+04  0.50400001928E-02 0.  1.
</event>
<event>
 5   0  0.9360689E-06  0.2893652E+04  0.7818609E-02  0.8274769E-01
        2   -1    0    0  501    0  0.00000000000E+00  0.00000000000E+00  0.23683892245E+04  0.23683892245E+04  0.25500000920E-02 0.  1.
       -2   -1    0    0    0  501  0.00000000000E+00  0.00000000000E+00 -0.88385213054E+03  0.88385213054E+03  0.25500000920E-02 0. -1.
    10030    2    1    2    0    0  0.00000000000E+00  0.00000000000E+00  0.14845370939E+04  0.32522413550E+04  0.28936522680E+04 0.  0.
        5    1    3    3  502    0 -0.78012450965E+03 -0.82706016070E+03  0.17479507577E+04  0.20851802563E+04  0.46999998093E+01 0.  1.
       -5    1    3    3    0  502  0.78012450965E+03  0.82706016070E+03 -0.26341366372E+03  0.11670610987E+04  0.46999998093E+01 0. -1.
</event>
<event>
 5   0  0.3746518E-06  0.2463005E+04  0.7818609E-02  0.8416285E-01
       -1   -1    0    0    0  501  0.00000000000E+00  0.00000000000E+00  0.69826849536E+03  0.69826849538E+03  0.50400001928E-02 0.  1.
        1   -1    0    0  501    0  0.00000000000E+00  0.00000000000E+00 -0.21719423427E+04  0.21719423427E+04  0.50400001928E-02 0. -1.
    10030    2    1    2    0    0  0.00000000000E+00  0.00000000000E+00 -0.14736738473E+04  0.28702108380E+04  0.24630054094E+04 0.  0.
        4    1    3    3  502    0  0.93110389571E+03  0.79710139547E+03 -0.59761940528E+03  0.13636259259E+04  0.12699999809E+01 0. -1.
       -4    1    3    3    0  502 -0.93110389571E+03 -0.79710139547E+03 -0.87605444202E+03  0.15065849122E+04  0.12699999809E+01 0.  1.
</event>
<event>
 5   0  0.3486236E-06  0.2858888E+04  0.7818609E-02  0.8285216E-01
       -1   -1    0    0    0  501  0.00000000000E+00  0.00000000000E+00  0.11683986110E+04  0.11683986111E+04  0.50400001928E-02 0.  1.
        1   -1    0    0  501    0  0.00000000000E+00  0.00000000000E+00 -0.17488125933E+04  0.17488125933E+04  0.50400001928E-02 0. -1.
    10030    2    1    2    0    0  0.00000000000E+00  0.00000000000E+00 -0.58041398227E+03  0.29172112044E+04  0.28588880391E+04 0.  0.
        5    1    3    3  502    0  0.31290656645E+02 -0.87606723417E+03  0.86190406326E+03  0.12293793590E+04  0.46999998093E+01 0.  1.
       -5    1    3    3    0  502 -0.31290656645E+02  0.87606723417E+03 -0.14423180455E+04  0.16878318454E+04  0.46999998093E+01 0. -1.
</event>
<event>
 5   0  0.9251510E-06  0.2469769E+04  0.7818609E-02  0.8413835E-01
        2   -1    0    0  501    0  0.00000000000E+00  0.00000000000E+00  0.88924549301E+03  0.88924549302E+03  0.25500000920E-02 0.  1.
       -2   -1    0    0    0  501  0.00000000000E+00  0.00000000000E+00 -0.17148688480E+04  0.17148688480E+04  0.25500000920E-02 0. -1.
    10030    2    1    2    0    0  0.00000000000E+00  0.00000000000E+00 -0.82562335502E+03  0.26041143411E+04  0.24697687294E+04 0.  0.
        2    1    3    3  502    0  0.79513112460E+02  0.70512065182E+02 -0.17100381193E+04  0.17133372861E+04  0.25500000920E-02 0. -1.
       -2    1    3    3    0  502 -0.79513112460E+02 -0.70512065182E+02  0.88441476428E+03  0.89077705498E+03  0.25500000920E-02 0.  1.
</event>
<event>
 5   0  0.3564340E-06  0.2522930E+04  0.7818609E-02  0.8394862E-01
       -1   -1    0    0    0  501  0.00000000000E+00  0.00000000000E+00  0.11589754849E+04  0.11589754849E+04  0.50400001928E-02 0.  1.
        1   -1    0    0  501    0  0.00000000000E+00  0.00000000000E+00 -0.13730180034E+04  0.13730180034E+04  0.50400001928E-02 0. -1.
    10030    2    1    2    0    0  0.00000000000E+00  0.00000000000E+00 -0.21404251854E+03  0.25319934883E+04  0.25229302062E+04 0.  0.
        1    1    3    3  502    0 -0.20451794233E+03  0.93845335133E+03  0.71370128767E+03  0.11966168181E+04  0.50400001928E-02 0.  1.
       -1    1    3    3    0  502  0.20451794233E+03 -0.93845335133E+03 -0.92774380621E+03  0.13353766702E+04  0.50400001928E-02 0. -1.
</event>
<event>
 5   0  0.3649705E-06  0.2605259E+04  0.7818609E-02  0.8366417E-01
        1   -1    0    0  501    0  0.00000000000E+00  0.00000000000E+00  0.12569718347E+04  0.12569718347E+04  0.50400001928E-02 0.  1.
       -1   -1    0    0    0  501  0.00000000000E+00  0.00000000000E+00 -0.13499452647E+04  0.13499452647E+04  0.50400001928E-02 0. -1.
    10030    2    1    2    0    0  0.00000000000E+00  0.00000000000E+00 -0.92973429935E+02  0.26069170994E+04  0.26052586637E+04 0.  0.
        2    1    3    3  502    0  0.11394606469E+03  0.43255820929E+03 -0.12706840257E+04  0.13471184816E+04  0.25500000920E-02 0. -1.
       -2    1    3    3    0  502 -0.11394606469E+03 -0.43255820929E+03  0.11777105958E+04  0.12597986179E+04  0.25500000920E-02 0.  1.
</event>
<event>
 5   0  0.9360689E-06  0.2876035E+04  0.7818609E-02  0.8280044E-01
       -2   -1    0    0    0  501  0.00000000000E+00  0.00000000000E+00  0.93222029814E+03  0.93222029814E+03  0.25500000920E-02 0.  1.
        2   -1    0    0  501    0  0.00000000000E+00  0.00000000000E+00 -0.22182469131E+04  0.22182469131E+04  0.25500000920E-02 0. -1.
    10030    2    1    2    0    0  0.00000000000E+00  0.00000000000E+00 -0.12860266149E+04  0.31504672112E+04  0.28760353257E+04 0.  0.
        5    1    3    3  502    0  0.12915821435E+03  0.72343310570E+01  0.92582521283E+03  0.93483078394E+03  0.46999998093E+01 0.  1.
       -5    1    3    3    0  502 -0.12915821435E+03 -0.72343310570E+01 -0.22118518277E+04  0.22156364273E+04  0.46999998093E+01 0. -1.
</event>
<event>
 5   0  0.9505359E-06  0.2821249E+04  0.7818609E-02  0.8296702E-01
        2   -1    0    0  501    0  0.00000000000E+00  0.00000000000E+00  0.17837609782E+04  0.17837609782E+04  0.25500000920E-02 0. -1.
       -2   -1    0    0    0  501  0.00000000000E+00  0.00000000000E+00 -0.11155426013E+04  0.11155426013E+04  0.25500000920E-02 0.  1.
    10030    2    1    2    0    0  0.00000000000E+00  0.00000000000E+00  0.66821837692E+03  0.28993035795E+04  0.28212489161E+04 0.  0.
        4    1    3    3  502    0  0.79913886384E+03 -0.11286772632E+04  0.61987530699E+03  0.15155138724E+04  0.12699999809E+01 0. -1.
       -4    1    3    3    0  502 -0.79913886384E+03  0.11286772632E+04  0.48343069929E+02  0.13837897071E+04  0.12699999809E+01 0.  1.
</event>
<event>
 5   0  0.3649705E-06  0.2935966E+04  0.7818609E-02  0.8262256E-01
       -1   -1    0    0    0  501  0.00000000000E+00  0.00000000000E+00  0.22960537883E+04  0.22960537883E+04  0.50400001928E-02 0. -1.
        1   -1    0    0  501    0  0.00000000000E+00  0.00000000000E+00 -0.93855548860E+03  0.93855548861E+03  0.50400001928E-02 0.  1.
    10030    2    1    2    0    0  0.00000000000E+00  0.00000000000E+00  0.13574982997E+04  0.32346092769E+04  0.29359658616E+04 0.  0.
        2    1    3    3  502    0  0.45101346987E+03 -0.66744012621E+03  0.20308076514E+04  0.21847354964E+04  0.25500000920E-02 0. -1.
       -2    1    3    3    0  502 -0.45101346987E+03  0.66744012621E+03 -0.67330935168E+03  0.10498737806E+04  0.25500000920E-02 0.  1.
</event>
<event>
 5   0  0.3474078E-06  0.2874850E+04  0.7818609E-02  0.8280400E-01
       -1   -1    0    0    0  501  0.00000000000E+00  0.00000000000E+00  0.11243552754E+04  0.11243552754E+04  0.50400001928E-02 0. -1.
        1   -1    0    0  501    0  0.00000000000E+00  0.00000000000E+00 -0.18376672675E+04  0.18376672675E+04  0.50400001928E-02 0.  1.
    10030    2    1    2    0    0  0.00000000000E+00  0.00000000000E+00 -0.71331199204E+03  0.29620225429E+04  0.28748501781E+04 0.  0.
        3    1    3    3  502    0  0.38733832195E+03  0.10882102435E+04  0.52483185822E+03  0.12687320439E+04  0.10100000352E+00 0. -1.
       -3    1    3    3    0  502 -0.38733832195E+03 -0.10882102435E+04 -0.12381438503E+04  0.16932904990E+04  0.10100000352E+00 0.  1.
</event>
<event>
 5   0  0.3649705E-06  0.2543312E+04  0.7818609E-02  0.8387716E-01
        1   -1    0    0  501    0  0.00000000000E+00  0.00000000000E+00  0.15177716917E+04  0.15177716917E+04  0.50400001928E-02 0. -1.
       -1   -1    0    0    0  501  0.00000000000E+00  0.00000000000E+00 -0.10654490196E+04  0.10654490196E+04  0.50400001928E-02 0.  1.
    10030    2    1    2    0    0  0.00000000000E+00  0.00000000000E+00  0.45232267211E+03  0.25832207113E+04  0.25433115113E+04 0.  0.
        2    1    3    3  502    0 -0.64909121798E+03 -0.61482495059E+03  0.11446631020E+04  0.14524402728E+04  0.25500000920E-02 0. -1.
       -2    1    3    3    0  502  0.64909121798E+03  0.61482495059E+03 -0.69234042987E+03  0.11307804384E+04  0.25500000920E-02 0.  1.
</event>
<event>
 5   0  0.9646321E-06  0.2897823E+04  0.7818609E-02  0.8273526E-01
       -2   -1    0    0    0  501  0.00000000000E+00  0.00000000000E+00  0.17258086318E+04  0.17258086318E+04  0.25500000920E-02 0. -1.
        2   -1    0    0  501    0  0.00000000000E+00  0.00000000000E+00 -0.12164410078E+04  0.12164410078E+04  0.25500000920E-02 0.  1.
    10030    2    1    2    0    0  0.00000000000E+00  0.00000000000E+00  0.50936762401E+03  0.29422496396E+04  0.28978229010E+04 0.  0.
        3    1    3    3  502    0  0.18898976136E+03  0.42182669966E+03 -0.11395729773E+04  0.12297485415E+04  0.10100000352E+00 0.  1.
       -3    1    3    3    0  502 -0.18898976136E+03 -0.42182669966E+03  0.16489406013E+04  0.17125010982E+04  0.10100000352E+00 0. -1.
</event>
<event>
 5   0  0.3486236E-06  0.2866259E+04  0.7818609E-02  0.8282988E-01
        1   -1    0    0  501    0  0.00000000000E+00  0.00000000000E+00  0.13116443927E+04  0.13116443927E+04  0.50400001928E-02 0. -1.
       -1   -1    0    0    0  501  0.00000000000E+00  0.00000000000E+00 -0.15658665822E+04  0.15658665822E+04  0.50400001928E-02 0.  1.
    10030    2    1    2    0    0  0.00000000000E+00  0.00000000000E+00 -0.25422218952E+03  0.28775109749E+04  0.28662589710E+04 0.  0.
        5    1    3    3  502    0  0.12579702463E+04  0.56200986331E+03 -0.52298612295E+03  0.14737302338E+04  0.46999998093E+01 0.  1.
       -5    1    3    3    0  502 -0.12579702463E+04 -0.56200986331E+03  0.26876393343E+03  0.14037807411E+04  0.46999998093E+01 0. -1.
</event>
<event>
 5   0  0.3746518E-06  0.2926391E+04  0.7818609E-02  0.8265068E-01
       -1   -1    0    0    0  501  0.00000000000E+00  0.00000000000E+00  0.17305487752E+04  0.17305487752E+04  0.50400001928E-02 0. -1.
        1   -1    0    0  501    0  0.00000000000E+00  0.00000000000E+00 -0.12371457679E+04  0.12371457680E+04  0.50400001928E-02 0.  1.
    10030    2    1    2    0    0  0.00000000000E+00  0.00000000000E+00  0.49340300725E+03  0.29676945432E+04  0.29263910152E+04 0.  0.
        4    1    3    3  502    0 -0.13934557605E+04  0.38890753419E+03  0.24586301257E+02  0.14469188387E+04  0.12699999809E+01 0.  1.
       -4    1    3    3    0  502  0.13934557605E+04 -0.38890753419E+03  0.46881670600E+03  0.15207757045E+04  0.12699999809E+01 0. -1.
</event>
<event>
 5   0  0.3474078E-06  0.2900728E+04  0.7818609E-02  0.8272661E-01
        1   -1    0    0  501    0  0.00000000000E+00  0.00000000000E+00  0.18849900384E+04  0.18849900384E+04  0.50400001928E-02 0. -1.
       -1   -1    0    0    0  501  0.00000000000E+00  0.00000000000E+00 -0.11159507931E+04  0.11159507931E+04  0.50400001928E-02 0.  1.
    10030    2    1    2    0    0  0.00000000000E+00  0.00000000000E+00  0.76903924526E+03  0.30009408315E+04  0.29007282730E+04 0.  0.
        3    1    3    3  502    0  0.11391388060E+04  0.70551766127E+03 -0.18978345644E+03  0.13532960357E+04  0.10100000352E+00 0.  1.
       -3    1    3    3    0  502 -0.11391388060E+04 -0.70551766127E+03  0.95882270170E+03  0.16476447958E+04  0.10100000352E+00 0. -1.
</event>
<event>
 5   0  0.1001573E-05  0.3118526E+04  0.7818609E-02  0.8210672E-01
        2   -1    0    0  501    0  0.00000000000E+00  0.00000000000E+00  0.22693618125E+04  0.22693618125E+04  0.25500000920E-02 0.  1.
       -2   -1    0    0    0  501  0.00000000000E+00  0.00000000000E+00 -0.10713591191E+04  0.10713591191E+04  0.25500000920E-02 0. -1.
    10030    2    1    2    0    0  0.00000000000E+00  0.00000000000E+00  0.11980026933E+04  0.33407209316E+04  0.31185262368E+04 0.  0.
        1    1    3    3  502    0 -0.46462601342E+03 -0.11468584569E+04  0.16153571775E+04  0.20348318023E+04  0.50400001928E-02 0.  1.
       -1    1    3    3    0  502  0.46462601342E+03  0.11468584569E+04 -0.41735448418E+03  0.13058891293E+04  0.50400001928E-02 0. -1.
</event>
<event>
 5   0  0.3564340E-06  0.2905840E+04  0.7818609E-02  0.8271142E-01
        1   -1    0    0  501    0  0.00000000000E+00  0.00000000000E+00  0.16682239791E+04  0.16682239791E+04  0.50400001928E-02 0.  1.
       -1   -1    0    0    0  501  0.00000000000E+00  0.00000000000E+00 -0.12654038693E+04  0.12654038693E+04  0.50400001928E-02 0. -1.
    10030    2    1    2    0    0  0.00000000000E+00  0.00000000000E+00  0.40282010978E+03  0.29336278484E+04  0.29058403797E+04 0.  0.
        1    1    3    3  502    0 -0.24401473341E+03 -0.77440916966E+03  0.14178070602E+04  0.16338389187E+04  0.50400001928E-02 0.  1.
       -1    1    3    3    0  502  0.24401473341E+03  0.77440916966E+03 -0.10149869504E+04  0.12997889297E+04  0.50400001928E-02 0. -1.
</event>
<event>
 5   0  0.9646321E-06  0.2893848E+04  0.7818609E-02  0.8274710E-01
        2   -1    0    0  501    0  0.00000000000E+00  0.00000000000E+00  0.27515665917E+04  0.27515665918E+04  0.25500000920E-02 0. -1.
       -2   -1    0    0    0  501  0.00000000000E+00  0.00000000000E+00 -0.76087190663E+03  0.76087190663E+03  0.25500000920E-02 0.  1.
    10030    2    1    2    0    0  0.00000000000E+00  0.00000000000E+00  0.19906946851E+04  0.35124384984E+04  0.28938484541E+04 0.  0.
        3    1    3    3  502    0 -0.10356076060E+04 -0.97535354710E+03  0.13160008038E+04  0.19379514393E+04  0.10100000352E+00 0.  1.
       -3    1    3    3    0  502  0.10356076060E+04  0.97535354710E+03  0.67469388134E+03  0.15744870591E+04  0.10100000352E+00 0. -1.
</event>
<event>
 5   0  0.9646321E-06  0.2850906E+04  0.7818609E-02  0.8287636E-01
        2   -1    0    0  501    0  0.00000000000E+00  0.00000000000E+00  0.20942829029E+04  0.20942829029E+04  0.25500000920E-02 0. -1.
       -2   -1    0    0    0  501  0.00000000000E+00  0.00000000000E+00 -0.97022072023E+03  0.97022072023E+03  0.25500000920E-02 0.  1.
    10030    2    1    2    0    0  0.00000000000E+00  0.00000000000E+00  0.11240621827E+04  0.30645036231E+04  0.28509062885E+04 0.  0.
        3    1    3    3  502    0  0.30906483360E+03 -0.90992001421E+03  0.16937368293E+04  0.19473623085E+04  0.10100000352E+00 0. -1.
       -3    1    3    3    0  502 -0.30906483360E+03  0.90992001421E+03 -0.56967464660E+03  0.11171413146E+04  0.10100000352E+00 0.  1.
</event>
<event>
 5   0  0.9505359E-06  0.2947419E+04  0.7818609E-02  0.8258907E-01
       -2   -1    0    0    0  501  0.00000000000E+00  0.00000000000E+00  0.16982212000E+04  0.16982212000E+04  0.25500000920E-02 0.  1.
        2   -1    0    0  501    0  0.00000000000E+00  0.00000000000E+00 -0.12788791439E+04  0.12788791439E+04  0.25500000920E-02 0. -1.
    10030    2    1    2    0    0  0.00000000000E+00  0.00000000000E+00  0.41934205616E+03  0.29771003439E+04  0.29474189892E+04 0.  0.
        4    1    3    3  502    0 -0.12554690872E+04 -0.16366454731E+03  0.97147387884E+03  0.15958545745E+04  0.12699999809E+01 0.  1.
       -4    1    3    3    0  502  0.12554690872E+04  0.16366454731E+03 -0.55213182269E+03  0.13812457694E+04  0.12699999809E+01 0. -1.
</event>
<event>
 5   0  0.3474078E-06  0.3039408E+04  0.7818609E-02  0.8232566E-01
       -1   -1    0    0    0  501  0.00000000000E+00  0.00000000000E+00  0.19997646270E+04  0.19997646270E+04  0.50400001928E-02 0. -1.
        1   -1    0    0  501    0  0.00000000000E+00  0.00000000000E+00 -0.11548863321E+04  0.11548863321E+04  0.50400001928E-02 0.  1.
    10030    2    1    2    0    0  0.00000000000E+00  0.00000000000E+00  0.84487829493E+03  0.31546509592E+04  0.30394083867E+04 0.  0.
        3    1    3    3  502    0 -0.40424011964E+03  0.14499766878E+03 -0.10905942418E+04  0.11721050331E+04  0.10100000352E+00 0.  1.
       -3    1    3    3    0  502  0.40424011964E+03 -0.14499766878E+03  0.19354725367E+04  0.19825459260E+04  0.10100000352E+00 0. -1.
</event>
<event>
 5   0  0.9505359E-06  0.2872994E+04  0.7818609E-02  0.8280958E-01
       -2   -1    0    0    0  501  0.00000000000E+00  0.00000000000E+00  0.15708039870E+04  0.15708039870E+04  0.25500000920E-02 0. -1.
        2   -1    0    0  501    0  0.00000000000E+00  0.00000000000E+00 -0.13136734119E+04  0.13136734119E+04  0.25500000920E-02 0.  1.
    10030    2    1    2    0    0  0.00000000000E+00  0.00000000000E+00  0.25713057509E+03  0.28844773989E+04  0.28729938621E+04 0.  0.
        4    1    3    3  502    0 -0.37800760371E+02 -0.88183864152E+03  0.12664326510E+04  0.15436714545E+04  0.12699999809E+01 0. -1.
       -4    1    3    3    0  502  0.37800760371E+02  0.88183864152E+03 -0.10093020759E+04  0.13408059444E+04  0.12699999809E+01 0.  1.
</event>
<event>
 5   0  0.3486236E-06  0.2898736E+04  0.7818609E-02  0.8273254E-01
       -1   -1    0    0    0  501  0.00000000000E+00  0.00000000000E+00  0.15333889963E+04  0.15333889964E+04  0.50400001928E-02 0.  1.
        1   -1    0    0  501    0  0.00000000000E+00  0.00000000000E+00 -0.13699508581E+04  0.13699508581E+04  0.50400001928E-02 0. -1.
    10030    2    1    2    0    0  0.00000000000E+00  0.00000000000E+00  0.16343813825E+03  0.29033398545E+04  0.28987359806E+04 0.  0.
        5    1    3    3  502    0  0.71201921216E+00  0.11038466990E+03 -0.13657267496E+04  0.13701886465E+04  0.46999998093E+01 0. -1.
       -5    1    3    3    0  502 -0.71201921216E+00 -0.11038466990E+03  0.15291648879E+04  0.15331512080E+04  0.46999998093E+01 0.  1.
</event>
<event>
 5   0  0.1001573E-05  0.2875215E+04  0.7818609E-02  0.8280290E-01
        2   -1    0    0  501    0  0.00000000000E+00  0.00000000000E+00  0.13857260482E+04  0.13857260482E+04  0.25500000920E-02 0. -1.
       -2   -1    0    0    0  501  0.00000000000E+00  0.00000000000E+00 -0.14914311583E+04  0.14914311583E+04  0.25500000920E-02 0.  1.
    10030    2    1    2    0    0  0.00000000000E+00  0.00000000000E+00 -0.10570511007E+03  0.28771572065E+04  0.28752147782E+04 0.  0.
        1    1    3    3  502    0 -0.11738899397E+04  0.82809895414E+03  0.14937737385E+01  0.14365819502E+04  0.50400001928E-02 0.  1.
       -1    1    3    3    0  502  0.11738899397E+04 -0.82809895414E+03 -0.10719888381E+03  0.14405752563E+04  0.50400001928E-02 0. -1.
</event>
<event>
 5   0  0.3649705E-06  0.2934715E+04  0.7818609E-02  0.8262623E-01
       -1   -1    0    0    0  501  0.00000000000E+00  0.00000000000E+00  0.10465555398E+04  0.10465555398E+04  0.50400001928E-02 0.  1.
        1   -1    0    0  501    0  0.00000000000E+00  0.00000000000E+00 -0.20573572434E+04  0.20573572434E+04  0.50400001928E-02 0. -1.
    10030    2    1    2    0    0  0.00000000000E+00  0.00000000000E+00 -0.10108017036E+04  0.31039127833E+04  0.29347154006E+04 0.  0.
        2    1    3    3  502    0 -0.19675525437E+03 -0.95924380903E+03 -0.16612365622E+04  0.19283589476E+04  0.25500000920E-02 0. -1.
       -2    1    3    3    0  502  0.19675525437E+03  0.95924380903E+03  0.65043485860E+03  0.11755538357E+04  0.25500000920E-02 0.  1.
</event>
<event>
 5   0  0.9360689E-06  0.3257611E+04  0.7818609E-02  0.8173766E-01
        2   -1    0    0  501    0  0.00000000000E+00  0.00000000000E+00  0.24615635075E+04  0.24615635075E+04  0.25500000920E-02 0. -1.
       -2   -1    0    0    0  501  0.00000000000E+00  0.00000000000E+00 -0.10777732908E+04  0.10777732908E+04  0.25500000920E-02 0.  1.
    10030    2    1    2    0    0  0.00000000000E+00  0.00000000000E+00  0.13837902167E+04  0.35393367984E+04  0.32576110278E+04 0.  0.
        5    1    3    3  502    0  0.11312745599E+04  0.58040377362E+03 -0.41414957576E+03  0.13372332001E+04  0.46999998093E+01 0.  1.
       -5    1    3    3    0  502 -0.11312745599E+04 -0.58040377362E+03  0.17979397925E+04  0.22021035983E+04  0.46999998093E+01 0. -1.
</event>
<event>
 5   0  0.3474078E-06  0.2881797E+04  0.7818609E-02  0.8278314E-01
        1   -1    0    0  501    0  0.00000000000E+00  0.00000000000E+00  0.17838144418E+04  0.17838144418E+04  0.50400001928E-02 0.  1.
       -1   -1    0    0    0  501  0.00000000000E+00  0.00000000000E+00 -0.11639038073E+04  0.11639038073E+04  0.50400001928E-02 0. -1.
    10030    2    1    2    0    0  0.00000000000E+00  0.00000000000E+00  0.61991063451E+03  0.29477182492E+04  0.28817969536E+04 0.  0.
        3    1    3    3  502    0 -0.10425060421E+04  0.31319641158E+03  0.12756260760E+04  0.16769414826E+04  0.10100000352E+00 0.  1.
       -3    1    3    3    0  502  0.10425060421E+04 -0.31319641158E+03 -0.65571544147E+03  0.12707767666E+04  0.10100000352E+00 0. -1.
</event>
<event>
 5   0  0.3474078E-06  0.2925155E+04  0.7818609E-02  0.8265432E-01
        1   -1    0    0  501    0  0.00000000000E+00  0.00000000000E+00  0.19321811842E+04  0.19321811842E+04  0.50400001928E-02 0. -1.
       -1   -1    0    0    0  501  0.00000000000E+00  0.00000000000E+00 -0.11071080873E+04  0.11071080873E+04  0.50400001928E-02 0.  1.
    10030    2    1    2    0    0  0.00000000000E+00  0.00000000000E+00  0.82507309684E+03  0.30392892715E+04  0.29251553225E+04 0.  0.
        3    1    3    3  502    0 -0.90914326597E+03 -0.10987621498E+04  0.74971939205E+03  0.16111793559E+04  0.10100000352E+00 0. -1.
       -3    1    3    3    0  502  0.90914326597E+03  0.10987621498E+04  0.75353704795E+02  0.14281099156E+04  0.10100000352E+00 0.  1.
</event>
<event>
 5   0  0.3188375E-06  0.2721123E+04  0.7818609E-02  0.8328184E-01
        3   -1    0    0  501    0  0.00000000000E+00  0.00000000000E+00  0.11195840516E+04  0.11195840562E+04  0.10100000352E+00 0.  1.
       -3   -1    0    0    0  501  0.00000000000E+00  0.00000000000E+00 -0.16534062864E+04  0.16534062895E+04  0.10100000352E+00 0. -1.
    10030    2    1    2    0    0  0.00000000000E+00  0.00000000000E+00 -0.53382223482E+03  0.27729903457E+04  0.27211227975E+04 0.  0.
        1    1    3    3  502    0  0.21675741339E+03 -0.89922042704E+03 -0.12837003043E+04  0.15822350091E+04  0.50400001928E-02 0. -1.
       -1    1    3    3    0  502 -0.21675741339E+03  0.89922042704E+03  0.74987806946E+03  0.11907553366E+04  0.50400001928E-02 0.  1.
</event>
<event>
 5   0  0.3474078E-06  0.2882858E+04  0.7818609E-02  0.8277996E-01
        1   -1    0    0  501    0  0.00000000000E+00  0.00000000000E+00  0.17908996750E+04  0.17908996750E+04  0.50400001928E-02 0.  1.
       -1   -1    0    0    0  501  0.00000000000E+00  0.00000000000E+00 -0.11601528850E+04  0.11601528850E+04  0.50400001928E-02 0. -1.
    10030    2    1    2    0    0  0.00000000000E+00  0.00000000000E+00  0.63074678992E+03  0.29510525600E+04  0.28828579047E+04 0.  0.
        3    1    3    3  502    0 -0.71751718712E+03  0.35299000501E+03  0.15430277722E+04  0.17379204739E+04  0.10100000352E+00 0.  1.
       -3    1    3    3    0  502  0.71751718712E+03 -0.35299000501E+03 -0.91228098232E+03  0.12131320861E+04  0.10100000352E+00 0. -1.
</event>
<event>
 5   0  0.3649705E-06  0.2840543E+04  0.7818609E-02  0.8290791E-01
        1   -1    0    0  501    0  0.00000000000E+00  0.00000000000E+00  0.11474827685E+04  0.11474827685E+04  0.50400001928E-02 0.  1.
       -1   -1    0    0    0  501  0.00000000000E+00  0.00000000000E+00 -0.17579101120E+04  0.17579101120E+04  0.50400001928E-02 0. -1.
    10030    2    1    2    0    0  0.00000000000E+00  0.00000000000E+00 -0.61042734350E+03  0.29053928804E+04  0.28405433015E+04 0.  0.
        2    1    3    3  502    0  0.97360912082E+02 -0.74798582563E+02  0.11420447150E+04  0.11486253115E+04  0.25500000920E-02 0.  1.
       -2    1    3    3    0  502 -0.97360912082E+02  0.74798582563E+02 -0.17524720585E+04  0.17567675689E+04  0.25500000920E-02 0. -1.
</event>
<event>
 5   0  0.3486236E-06  0.2080465E+04  0.7818609E-02  0.8569898E-01
       -1   -1    0    0    0  501  0.00000000000E+00  0.00000000000E+00  0.10868950802E+04  0.10868950802E+04  0.50400001928E-02 0.  1.
        1   -1    0    0  501    0  0.00000000000E+00  0.00000000000E+00 -0.99557295042E+03  0.99557295043E+03  0.50400001928E-02 0. -1.
    10030    2    1    2    0    0  0.00000000000E+00  0.00000000000E+00  0.91322129731E+02  0.20824680306E+04  0.20804646998E+04 0.  0.
        5    1    3    3  502    0 -0.19340026507E+03 -0.93501125711E+03 -0.36754576384E+03  0.10231137239E+04  0.46999998093E+01 0.  1.
       -5    1    3    3    0  502  0.19340026507E+03  0.93501125711E+03  0.45886789357E+03  0.10593543067E+04  0.46999998093E+01 0. -1.
</event>
<event>
 5   0  0.9360689E-06  0.2872580E+04  0.7818609E-02  0.8281083E-01
        2   -1    0    0  501    0  0.00000000000E+00  0.00000000000E+00  0.15879812802E+04  0.15879812802E+04  0.25500000920E-02 0.  1.
       -2   -1    0    0    0  501  0.00000000000E+00  0.00000000000E+00 -0.12990885602E+04  0.12990885602E+04  0.25500000920E-02 0. -1.
    10030    2    1    2    0    0  0.00000000000E+00  0.00000000000E+00  0.28889271993E+03  0.28870698404E+04  0.28725795481E+04 0.  0.
        5    1    3    3  502    0 -0.80444942422E+03 -0.10740881282E+04  0.65898788322E+03  0.14950221749E+04  0.46999998093E+01 0.  1.
       -5    1    3    3    0  502  0.80444942422E+03  0.10740881282E+04 -0.37009516328E+03  0.13920476655E+04  0.46999998093E+01 0. -1.
</event>
<event>
 5   0  0.3486236E-06  0.2924351E+04  0.7818609E-02  0.8265669E-01
       -1   -1    0    0    0  501  0.00000000000E+00  0.00000000000E+00  0.15342362018E+04  0.15342362019E+04  0.50400001928E-02 0. -1.
        1   -1    0    0  501    0  0.00000000000E+00  0.00000000000E+00 -0.13934992571E+04  0.13934992571E+04  0.50400001928E-02 0.  1.
    10030    2    1    2    0    0  0.00000000000E+00  0.00000000000E+00  0.14073694479E+03  0.29277354589E+04  0.29243508732E+04 0.  0.
        5    1    3    3  502    0 -0.11777196735E+04  0.22578255946E+03 -0.76722011393E+03  0.14236046455E+04  0.46999998093E+01 0.  1.
       -5    1    3    3    0  502  0.11777196735E+04 -0.22578255946E+03  0.90795705872E+03  0.15041308134E+04  0.46999998093E+01 0. -1.
</event>
<event>
 5   0  0.1001573E-05  0.2852811E+04  0.7818609E-02  0.8287058E-01
       -2   -1    0    0    0  501  0.00000000000E+00  0.00000000000E+00  0.10473904038E+04  0.10473904038E+04  0.25500000920E-02 0. -1.
        2   -1    0    0  501    0  0.00000000000E+00  0.00000000000E+00 -0.19425732109E+04  0.19425732109E+04  0.25500000920E-02 0.  1.
    10030    2    1    2    0    0  0.00000000000E+00  0.00000000000E+00 -0.89518280714E+03  0.29899636147E+04  0.28528109225E+04 0.  0.
        1    1    3    3  502    0  0.18269617570E+03 -0.61786188302E+03 -0.17813694682E+04  0.18943094735E+04  0.50400001928E-02 0.  1.
       -1    1    3    3    0  502 -0.18269617570E+03  0.61786188302E+03  0.88618666103E+03  0.10956541413E+04  0.50400001928E-02 0. -1.
</event>
<event>
 5   0  0.3564340E-06  0.2882655E+04  0.7818609E-02  0.8278057E-01
        1   -1    0    0  501    0  0.00000000000E+00  0.00000000000E+00  0.13779478406E+04  0.13779478406E+04  0.50400001928E-02 0.  1.
       -1   -1    0    0    0  501  0.00000000000E+00  0.00000000000E+00 -0.15076221673E+04  0.15076221673E+04  0.50400001928E-02 0. -1.
    10030    2    1    2    0    0  0.00000000000E+00  0.00000000000E+00 -0.12967432665E+03  0.28855700079E+04  0.28826548249E+04 0.  0.
        1    1    3    3  502    0 -0.10335072371E+03 -0.13533796690E+04  0.42053132484E+03  0.14209730806E+04  0.50400001928E-02 0.  1.
       -1    1    3    3    0  502  0.10335072371E+03  0.13533796690E+04 -0.55020565149E+03  0.14645969273E+04  0.50400001928E-02 0. -1.
</event>
<event>
 5   0  0.9505359E-06  0.2904003E+04  0.7818609E-02  0.8271687E-01
        2   -1    0    0  501    0  0.00000000000E+00  0.00000000000E+00  0.19515093295E+04  0.19515093295E+04  0.25500000920E-02 0.  1.
       -2   -1    0    0    0  501  0.00000000000E+00  0.00000000000E+00 -0.10803477391E+04  0.10803477391E+04  0.25500000920E-02 0. -1.
    10030    2    1    2    0    0  0.00000000000E+00  0.00000000000E+00  0.87116159035E+03  0.30318570686E+04  0.29040032314E+04 0.  0.
        4    1    3    3  502    0  0.90080696595E+02  0.29718960876E+03 -0.10452712888E+04  0.10904264650E+04  0.12699999809E+01 0. -1.
       -4    1    3    3    0  502 -0.90080696595E+02 -0.29718960876E+03  0.19164328791E+04  0.19414306036E+04  0.12699999809E+01 0.  1.
</event>
<event>
 5   0  0.9646321E-06  0.2974281E+04  0.7818609E-02  0.8251114E-01
       -2   -1    0    0    0  501  0.00000000000E+00  0.00000000000E+00  0.10404720006E+04  0.10404720006E+04  0.25500000920E-02 0. -1.
        2   -1    0    0  501    0  0.00000000000E+00  0.00000000000E+00 -0.21255607073E+04  0.21255607073E+04  0.25500000920E-02 0.  1.
    10030    2    1    2    0    0  0.00000000000E+00  0.00000000000E+00 -0.10850887067E+04  0.31660327079E+04  0.29742806871E+04 0.  0.
        3    1    3    3  502    0 -0.48339254694E+03  0.96306535771E+03  0.54843263205E+03  0.12091077701E+04  0.10100000352E+00 0. -1.
       -3    1    3    3    0  502  0.48339254694E+03 -0.96306535771E+03 -0.16335213388E+04  0.19569249378E+04  0.10100000352E+00 0.  1.
</event>
<event>
 5   0  0.3474078E-06  0.2801654E+04  0.7818609E-02  0.8302755E-01
        1   -1    0    0  501    0  0.00000000000E+00  0.00000000000E+00  0.11353568636E+04  0.11353568636E+04  0.50400001928E-02 0.  1.
       -1   -1    0    0    0  501  0.00000000000E+00  0.00000000000E+00 -0.17283701270E+04  0.17283701270E+04  0.50400001928E-02 0. -1.
    10030    2    1    2    0    0  0.00000000000E+00  0.00000000000E+00 -0.59301326345E+03  0.28637269906E+04  0.28016544302E+04 0.  0.
        3    1    3    3  502    0 -0.13174155893E+04 -0.10950831708E+03 -0.77017512895E+03  0.15299495567E+04  0.10100000352E+00 0. -1.
       -3    1    3    3    0  502  0.13174155893E+04  0.10950831708E+03  0.17716186550E+03  0.13337774340E+04  0.10100000352E+00 0.  1.
</event>
<event>
 5   0  0.3486236E-06  0.2900613E+04  0.7818609E-02  0.8272695E-01
       -1   -1    0    0    0  501  0.00000000000E+00  0.00000000000E+00  0.74711760642E+03  0.74711760644E+03  0.50400001928E-02 0. -1.
        1   -1    0    0  501    0  0.00000000000E+00  0.00000000000E+00 -0.28153384342E+04  0.28153384342E+04  0.50400001928E-02 0.  1.
    10030    2    1    2    0    0  0.00000000000E+00  0.00000000000E+00 -0.20682208278E+04  0.35624560406E+04  0.29006129781E+04 0.  0.
        5    1    3    3  502    0  0.77556455075E+03 -0.11645529926E+04 -0.56533607020E+03  0.15090762099E+04  0.46999998093E+01 0.  1.
       -5    1    3    3    0  502 -0.77556455075E+03  0.11645529926E+04 -0.15028847576E+04  0.20533798308E+04  0.46999998093E+01 0. -1.
</event>
<event>
 5   0  0.3188375E-06  0.2883720E+04  0.7818609E-02  0.8277738E-01
        3   -1    0    0  501    0  0.00000000000E+00  0.00000000000E+00  0.10981584984E+04  0.10981585030E+04  0.10100000352E+00 0. -1.
       -3   -1    0    0    0  501  0.00000000000E+00  0.00000000000E+00 -0.18931329576E+04  0.18931329603E+04  0.10100000352E+00 0.  1.
    10030    2    1    2    0    0  0.00000000000E+00  0.00000000000E+00 -0.79497445927E+03  0.29912914634E+04  0.28837198595E+04 0.  0.
        5    1    3    3  502    0  0.51694777627E+03  0.10105671789E+04  0.52475450534E+03  0.12505480428E+04  0.46999998093E+01 0. -1.
       -5    1    3    3    0  502 -0.51694777627E+03 -0.10105671789E+04 -0.13197289646E+04  0.17407434206E+04  0.46999998093E+01 0.  1.
</event>
<event>
 5   0  0.3746518E-06  0.2894408E+04  0.7818609E-02  0.8274543E-01
       -1   -1    0    0    0  501  0.00000000000E+00  0.00000000000E+00  0.10408184662E+04  0.10408184662E+04  0.50400001928E-02 0. -1.
        1   -1    0    0  501    0  0.00000000000E+00  0.00000000000E+00 -0.20122617064E+04  0.20122617064E+04  0.50400001928E-02 0.  1.
    10030    2    1    2    0    0  0.00000000000E+00  0.00000000000E+00 -0.97144324023E+03  0.30530801726E+04  0.28944078101E+04 0.  0.
        4    1    3    3  502    0 -0.66768378523E+03  0.66613828977E+03  0.67211158567E+03  0.11581353352E+04  0.12699999809E+01 0. -1.
       -4    1    3    3    0  502  0.66768378523E+03 -0.66613828977E+03 -0.16435548259E+04  0.18949448374E+04  0.12699999809E+01 0.  1.
</event>
<event>
 5   0  0.9646321E-06  0.2484631E+04  0.7818609E-02  0.8408481E-01
        2   -1    0    0  501    0  0.00000000000E+00  0.00000000000E+00  0.12669283289E+04  0.12669283289E+04  0.25500000920E-02 0. -1.
       -2   -1    0    0    0  501  0.00000000000E+00  0.00000000000E+00 -0.12181807664E+04  0.12181807664E+04  0.25500000920E-02 0.  1.
    10030    2    1    2    0    0  0.00000000000E+00  0.00000000000E+00  0.48747562479E+02  0.24851090954E+04  0.24846309366E+04 0.  0.
        3    1    3    3  502    0  0.91325660188E+03 -0.43486905482E+03  0.74576080437E+03  0.12567051775E+04  0.10100000352E+00 0. -1.
       -3    1    3    3    0  502 -0.91325660188E+03  0.43486905482E+03 -0.69701324189E+03  0.12284039178E+04  0.10100000352E+00 0.  1.
</event>
<event>
 5   0  0.9251510E-06  0.2904994E+04  0.7818609E-02  0.8271393E-01
        2   -1    0    0  501    0  0.00000000000E+00  0.00000000000E+00  0.21725137327E+04  0.21725137327E+04  0.25500000920E-02 0. -1.
       -2   -1    0    0    0  501  0.00000000000E+00  0.00000000000E+00 -0.97110922544E+03  0.97110922544E+03  0.25500000920E-02 0.  1.
    10030    2    1    2    0    0  0.00000000000E+00  0.00000000000E+00  0.12014045073E+04  0.31436229581E+04  0.29049944084E+04 0.  0.
        2    1    3    3  502    0 -0.57852689127E+03  0.17169686125E+03 -0.82902896993E+03  0.10254083133E+04  0.25500000920E-02 0.  1.
       -2    1    3    3    0  502  0.57852689127E+03 -0.17169686125E+03  0.20304334772E+04  0.21182146448E+04  0.25500000920E-02 0. -1.
</event>
<event>
 5   0  0.9646321E-06  0.2885402E+04  0.7818609E-02  0.8277234E-01
        2   -1    0    0  501    0  0.00000000000E+00  0.00000000000E+00  0.15897546902E+04  0.15897546902E+04  0.25500000920E-02 0. -1.
       -2   -1    0    0    0  501  0.00000000000E+00  0.00000000000E+00 -0.13092497658E+04  0.13092497658E+04  0.25500000920E-02 0.  1.
    10030    2    1    2    0    0  0.00000000000E+00  0.00000000000E+00  0.28050492432E+03  0.28990044560E+04  0.28854018478E+04 0.  0.
        3    1    3    3  502    0 -0.71651568146E+02  0.11903835264E+04 -0.67551061132E+03  0.13705697660E+04  0.10100000352E+00 0.  1.
       -3    1    3    3    0  502  0.71651568146E+02 -0.11903835264E+04  0.95601553564E+03  0.15284346900E+04  0.10100000352E+00 0. -1.
</event>
<event>
 5   0  0.9251510E-06  0.2814569E+04  0.7818609E-02  0.8298760E-01
       -2   -1    0    0    0  501  0.00000000000E+00  0.00000000000E+00  0.93909441860E+03  0.93909441860E+03  0.25500000920E-02 0.  1.
        2   -1    0    0  501    0  0.00000000000E+00  0.00000000000E+00 -0.21088925977E+04  0.21088925977E+04  0.25500000920E-02 0. -1.
    10030    2    1    2    0    0  0.00000000000E+00  0.00000000000E+00 -0.11697981791E+04  0.30479870163E+04  0.28145687186E+04 0.  0.
        2    1    3    3  502    0  0.10352592080E+04  0.27115224907E+02  0.44698947051E+03  0.11279611917E+04  0.25500000920E-02 0.  1.
       -2    1    3    3    0  502 -0.10352592080E+04 -0.27115224907E+02 -0.16167876496E+04  0.19200258246E+04  0.25500000920E-02 0. -1.
</event>
<event>
 5   0  0.9646321E-06  0.2939963E+04  0.7818609E-02  0.8261086E-01
       -2   -1    0    0    0  501  0.00000000000E+00  0.00000000000E+00  0.68824756602E+03  0.68824756603E+03  0.25500000920E-02 0. -1.
        2   -1    0    0  501    0  0.00000000000E+00  0.00000000000E+00 -0.31396343248E+04  0.31396343248E+04  0.25500000920E-02 0.  1.
    10030    2    1    2    0    0  0.00000000000E+00  0.00000000000E+00 -0.24513867588E+04  0.38278818908E+04  0.29399630489E+04 0.  0.
        3    1    3    3  502    0  0.12102040926E+04 -0.36934447669E+03 -0.21998913424E+04  0.25378201703E+04  0.10100000352E+00 0.  1.
       -3    1    3    3    0  502 -0.12102040926E+04  0.36934447669E+03 -0.25149541643E+03  0.12900617206E+04  0.10100000352E+00 0. -1.
</event>
<event>
 5   0  0.9360689E-06  0.2572997E+04  0.7818609E-02  0.8377432E-01
        2   -1    0    0  501    0  0.00000000000E+00  0.00000000000E+00  0.20385557209E+04  0.20385557209E+04  0.25500000920E-02 0.  1.
       -2   -1    0    0    0  501  0.00000000000E+00  0.00000000000E+00 -0.81188788734E+03  0.81188788735E+03  0.25500000920E-02 0. -1.
    10030    2    1    2    0    0  0.00000000000E+00  0.00000000000E+00  0.12266678336E+04  0.28504436083E+04  0.25729972386E+04 0.  0.
        5    1    3    3  502    0  0.97137756529E+03 -0.20866457679E+03  0.15187376714E+04  0.18148557751E+04  0.46999998093E+01 0.  1.
       -5    1    3    3    0  502 -0.97137756529E+03  0.20866457679E+03 -0.29206983784E+03  0.10355878331E+04  0.46999998093E+01 0. -1.
</event>
<event>
 5   0  0.9505359E-06  0.2907111E+04  0.7818609E-02  0.8270765E-01
       -2   -1    0    0    0  501  0.00000000000E+00  0.00000000000E+00  0.28596181355E+04  0.28596181355E+04  0.25500000920E-02 0. -1.
        2   -1    0    0  501    0  0.00000000000E+00  0.00000000000E+00 -0.73884838672E+03  0.73884838672E+03  0.25500000920E-02 0.  1.
    10030    2    1    2    0    0  0.00000000000E+00  0.00000000000E+00  0.21207697488E+04  0.35984665223E+04  0.29071114503E+04 0.  0.
        4    1    3    3  502    0  0.20333114731E+02 -0.93680950926E+03  0.24358626974E+04  0.26098762778E+04  0.12699999809E+01 0. -1.
       -4    1    3    3    0  502 -0.20333114731E+02  0.93680950926E+03 -0.31509294858E+03  0.98859024441E+03  0.12699999809E+01 0.  1.
</event>
<event>
 5   0  0.9505359E-06  0.2155915E+04  0.7818609E-02  0.8537004E-01
       -2   -1    0    0    0  501  0.00000000000E+00  0.00000000000E+00  0.10183812212E+04  0.10183812212E+04  0.25500000920E-02 0.  1.
        2   -1    0    0  501    0  0.00000000000E+00  0.00000000000E+00 -0.11410194649E+04  0.11410194649E+04  0.25500000920E-02 0. -1.
    10030    2    1    2    0    0  0.00000000000E+00  0.00000000000E+00 -0.12263824370E+03  0.21594006862E+04  0.21559153936E+04 0.  0.
        4    1    3    3  502    0  0.27419829076E+03  0.98861570838E+03 -0.39267936519E+03  0.10985191934E+04  0.12699999809E+01 0. -1.
       -4    1    3    3    0  502 -0.27419829076E+03 -0.98861570838E+03  0.27004112148E+03  0.10608814928E+04  0.12699999809E+01 0.  1.
</event>
<event>
 5   0  0.3564340E-06  0.2716608E+04  0.7818609E-02  0.8329636E-01
       -1   -1    0    0    0  501  0.00000000000E+00  0.00000000000E+00  0.12250187877E+04  0.12250187877E+04  0.50400001928E-02 0.  1.
        1   -1    0    0  501    0  0.00000000000E+00  0.00000000000E+00 -0.15060914143E+04  0.15060914143E+04  0.50400001928E-02 0. -1.
    10030    2    1    2    0    0  0.00000000000E+00  0.00000000000E+00 -0.28107262659E+03  0.27311102020E+04  0.27166083844E+04 0.  0.
        1    1    3    3  502    0 -0.50602434384E+03 -0.64866552236E+03  0.94604905324E+03  0.12537290009E+04  0.50400001928E-02 0.  1.
       -1    1    3    3    0  502  0.50602434384E+03  0.64866552236E+03 -0.12271216798E+04  0.14773812012E+04  0.50400001928E-02 0. -1.
</event>
<event>
 5   0  0.9251510E-06  0.2906404E+04  0.7818609E-02  0.8270975E-01
       -2   -1    0    0    0  501  0.00000000000E+00  0.00000000000E+00  0.15401553064E+04  0.15401553064E+04  0.25500000920E-02 0. -1.
        2   -1    0    0  501    0  0.00000000000E+00  0.00000000000E+00 -0.13711579369E+04  0.13711579369E+04  0.25500000920E-02 0.  1.
    10030    2    1    2    0    0  0.00000000000E+00  0.00000000000E+00  0.16899736951E+03  0.29113132434E+04  0.29064040824E+04 0.  0.
        2    1    3    3  502    0  0.13270295382E+04 -0.56291283433E+03 -0.99980570024E+02  0.14449478775E+04  0.25500000920E-02 0. -1.
       -2    1    3    3    0  502 -0.13270295382E+04  0.56291283433E+03  0.26897793954E+03  0.14663653659E+04  0.25500000920E-02 0.  1.
</event>
<event>
 5   0  0.3486236E-06  0.2878209E+04  0.7818609E-02  0.8279391E-01
        1   -1    0    0  501    0  0.00000000000E+00  0.00000000000E+00  0.19331439584E+04  0.19331439584E+04  0.50400001928E-02 0.  1.
       -1   -1    0    0    0  501  0.00000000000E+00  0.00000000000E+00 -0.10713227931E+04  0.10713227931E+04  0.50400001928E-02 0. -1.
    10030    2    1    2    0    0  0.00000000000E+00  0.00000000000E+00  0.86182116526E+03  0.30044667515E+04  0.28782085991E+04 0.  0.
        5    1    3    3  502    0  0.60081277590E+03 -0.33478173212E+03  0.17504608947E+04  0.18807419371E+04  0.46999998093E+01 0.  1.
       -5    1    3    3    0  502 -0.60081277590E+03  0.33478173212E+03 -0.88863972946E+03  0.11237248145E+04  0.46999998093E+01 0. -1.
</event>
<event>
 5   0  0.3564340E-06  0.2884118E+04  0.7818609E-02  0.8277619E-01
        1   -1    0    0  501    0  0.00000000000E+00  0.00000000000E+00  0.14696819666E+04  0.14696819666E+04  0.50400001928E-02 0. -1.
       -1   -1    0    0    0  501  0.00000000000E+00  0.00000000000E+00 -0.14149552530E+04  0.14149552530E+04  0.50400001928E-02 0.  1.
    10030    2    1    2    0    0  0.00000000000E+00  0.00000000000E+00  0.54726713590E+02  0.28846372195E+04  0.28841180411E+04 0.  0.
        1    1    3    3  502    0 -0.14010898043E+04  0.52887726367E+02 -0.30986861151E+03  0.14359207178E+04  0.50400001928E-02 0.  1.
       -1    1    3    3    0  502  0.14010898043E+04 -0.52887726367E+02  0.36459532510E+03  0.14487165018E+04  0.50400001928E-02 0. -1.
</event>
<event>
 5   0  0.3486236E-06  0.2986917E+04  0.7818609E-02  0.8247477E-01
       -1   -1    0    0    0  501  0.00000000000E+00  0.00000000000E+00  0.97614874716E+03  0.97614874717E+03  0.50400001928E-02 0. -1.
        1   -1    0    0  501    0  0.00000000000E+00  0.00000000000E+00 -0.22849165833E+04  0.22849165833E+04  0.50400001928E-02 0.  1.
    10030    2    1    2    0    0  0.00000000000E+00  0.00000000000E+00 -0.13087678361E+04  0.32610653305E+04  0.29869171131E+04 0.  0.
        5    1    3    3  502    0  0.10343787843E+04 -0.18812011596E+03 -0.18124295183E+04  0.20952926994E+04  0.46999998093E+01 0.  1.
       -5    1    3    3    0  502 -0.10343787843E+04  0.18812011596E+03  0.50366168213E+03  0.11657726311E+04  0.46999998093E+01 0. -1.
</event>
<event>
 5   0  0.1001573E-05  0.2902139E+04  0.7818609E-02  0.8272241E-01
        2   -1    0    0  501    0  0.00000000000E+00  0.00000000000E+00  0.13201499948E+04  0.13201499948E+04  0.25500000920E-02 0. -1.
       -2   -1    0    0    0  501  0.00000000000E+00  0.00000000000E+00 -0.15949718950E+04  0.15949718950E+04  0.25500000920E-02 0.  1.
    10030    2    1    2    0    0  0.00000000000E+00  0.00000000000E+00 -0.27482190023E+03  0.29151218898E+04  0.29021386175E+04 0.  0.
        1    1    3    3  502    0 -0.14128948719E+04 -0.65675576416E+02 -0.46292387897E+03  0.14882485405E+04  0.50400001928E-02 0. -1.
       -1    1    3    3    0  502  0.14128948719E+04  0.65675576416E+02  0.18810197874E+03  0.14268733493E+04  0.50400001928E-02 0.  1.
</event>
<event>
 5   0  0.9646321E-06  0.2813043E+04  0.7818609E-02  0.8299231E-01
        2   -1    0    0  501    0  0.00000000000E+00  0.00000000000E+00  0.88264083918E+03  0.88264083919E+03  0.25500000920E-02 0. -1.
       -2   -1    0    0    0  501  0.00000000000E+00  0.00000000000E+00 -0.22413444864E+04  0.22413444864E+04  0.25500000920E-02 0.  1.
    10030    2    1    2    0    0  0.00000000000E+00  0.00000000000E+00 -0.13587036472E+04  0.31239853256E+04  0.28130426079E+04 0.  0.
        3    1    3    3  502    0  0.78359881543E+00  0.80170611197E+03 -0.19627630027E+04  0.21201820485E+04  0.10100000352E+00 0.  1.
       -3    1    3    3    0  502 -0.78359881543E+00 -0.80170611197E+03  0.60405935544E+03  0.10038032771E+04  0.10100000352E+00 0. -1.
</event>
<event>
 5   0  0.9360689E-06  0.2879167E+04  0.7818609E-02  0.8279103E-01
        2   -1    0    0  501    0  0.00000000000E+00  0.00000000000E+00  0.14044259136E+04  0.14044259136E+04  0.25500000920E-02 0.  1.
       -2   -1    0    0    0  501  0.00000000000E+00  0.00000000000E+00 -0.14756216967E+04  0.14756216967E+04  0.25500000920E-02 0. -1.
    10030    2    1    2    0    0  0.00000000000E+00  0.00000000000E+00 -0.71195783115E+02  0.28800476103E+04  0.28791674835E+04 0.  0.
        5    1    3    3  502    0 -0.10890789991E+04 -0.23031733629E+03  0.87750101801E+03  0.14174516811E+04  0.46999998093E+01 0.  1.
       -5    1    3    3    0  502  0.10890789991E+04  0.23031733629E+03 -0.94869680112E+03  0.14625959292E+04  0.46999998093E+01 0. -1.
</event>
<event>
 5   0  0.3486236E-06  0.2938132E+04  0.7818609E-02  0.8261622E-01
        1   -1    0    0  501    0  0.00000000000E+00  0.00000000000E+00  0.19641901138E+04  0.19641901138E+04  0.50400001928E-02 0. -1.
       -1   -1    0    0    0  501  0.00000000000E+00  0.00000000000E+00 -0.10987504981E+04  0.10987504981E+04  0.50400001928E-02 0.  1.
    10030    2    1    2    0    0  0.00000000000E+00  0.00000000000E+00  0.86543961570E+03  0.30629406119E+04  0.29381319684E+04 0.  0.
        5    1    3    3  502    0 -0.12905563602E+04 -0.52718003497E+03 -0.50295971587E+02  0.13949932914E+04  0.46999998093E+01 0.  1.
       -5    1    3    3    0  502  0.12905563602E+04  0.52718003497E+03  0.91573558728E+03  0.16679473205E+04  0.46999998093E+01 0. -1.
</event>
<event>
 5   0  0.9646321E-06  0.2900334E+04  0.7818609E-02  0.8272778E-01
        2   -1    0    0  501    0  0.00000000000E+00  0.00000000000E+00  0.15399523473E+04  0.15399523473E+04  0.25500000920E-02 0. -1.
       -2   -1    0    0    0  501  0.00000000000E+00  0.00000000000E+00 -0.13656164902E+04  0.13656164902E+04  0.25500000920E-02 0.  1.
    10030    2    1    2    0    0  0.00000000000E+00  0.00000000000E+00  0.17433585707E+03  0.29055688376E+04  0.29003339943E+04 0.  0.
        3    1    3    3  502    0  0.84390063439E+03 -0.22893962436E+03 -0.10718137069E+04  0.13832448319E+04  0.10100000352E+00 0.  1.
       -3    1    3    3    0  502 -0.84390063439E+03  0.22893962436E+03  0.12461495640E+04  0.15223240057E+04  0.10100000352E+00 0. -1.
</event>
<event>
 5   0  0.9505359E-06  0.2883088E+04  0.7818609E-02  0.8277927E-01
       -2   -1    0    0    0  501  0.00000000000E+00  0.00000000000E+00  0.22242941367E+04  0.22242941367E+04  0.25500000920E-02 0.  1.
        2   -1    0    0  501    0  0.00000000000E+00  0.00000000000E+00 -0.93425113652E+03  0.93425113652E+03  0.25500000920E-02 0. -1.
    10030    2    1    2    0    0  0.00000000000E+00  0.00000000000E+00  0.12900430002E+04  0.31585452732E+04  0.28830881535E+04 0.  0.
        4    1    3    3  502    0  0.63139455519E+03 -0.12947019856E+04  0.58367703047E+03  0.15542177468E+04  0.12699999809E+01 0.  1.
       -4    1    3    3    0  502 -0.63139455519E+03  0.12947019856E+04  0.70636596972E+03  0.16043275264E+04  0.12699999809E+01 0. -1.
</event>
<event>
 5   0  0.9360689E-06  0.2894378E+04  0.7818609E-02  0.8274552E-01
        2   -1    0    0  501    0  0.00000000000E+00  0.00000000000E+00  0.20410652689E+04  0.20410652689E+04  0.25500000920E-02 0. -1.
       -2   -1    0    0    0  501  0.00000000000E+00  0.00000000000E+00 -0.10261093698E+04  0.10261093698E+04  0.25500000920E-02 0.  1.
    10030    2    1    2    0    0  0.00000000000E+00  0.00000000000E+00  0.10149558991E+04  0.30671746386E+04  0.28943781347E+04 0.  0.
        5    1    3    3  502    0 -0.90162025890E+03  0.10017088231E+04 -0.51251159249E+02  0.13486987910E+04  0.46999998093E+01 0.  1.
       -5    1    3    3    0  502  0.90162025890E+03 -0.10017088231E+04  0.10662070584E+04  0.17184758476E+04  0.46999998093E+01 0. -1.
</event>
<event>
 5   0  0.3486236E-06  0.2885188E+04  0.7818609E-02  0.8277298E-01
       -1   -1    0    0    0  501  0.00000000000E+00  0.00000000000E+00  0.10157808458E+04  0.10157808458E+04  0.50400001928E-02 0.  1.
        1   -1    0    0  501    0  0.00000000000E+00  0.00000000000E+00 -0.20487461319E+04  0.20487461319E+04  0.50400001928E-02 0. -1.
    10030    2    1    2    0    0  0.00000000000E+00  0.00000000000E+00 -0.10329652861E+04  0.30645269776E+04  0.28851877434E+04 0.  0.
        5    1    3    3  502    0 -0.42011202100E+03 -0.10074208217E+04 -0.15183319904E+04  0.18699585410E+04  0.46999998093E+01 0. -1.
       -5    1    3    3    0  502  0.42011202100E+03  0.10074208217E+04  0.48536670425E+03  0.11945684366E+04  0.46999998093E+01 0.  1.
</event>
<event>
 5   0  0.9646321E-06  0.2729999E+04  0.7818609E-02  0.8325337E-01
        2   -1    0    0  501    0  0.00000000000E+00  0.00000000000E+00  0.25731411217E+04  0.25731411218E+04  0.25500000920E-02 0.  1.
       -2   -1    0    0    0  501  0.00000000000E+00  0.00000000000E+00 -0.72410467489E+03  0.72410467489E+03  0.25500000920E-02 0. -1.
    10030    2    1    2    0    0  0.00000000000E+00  0.00000000000E+00  0.18490364469E+04  0.32972457966E+04  0.27299989124E+04 0.  0.
        3    1    3    3  502    0 -0.67939730334E+03 -0.17642426708E+03  0.23384586387E+04  0.24415353843E+04  0.10100000352E+00 0.  1.
       -3    1    3    3    0  502  0.67939730334E+03  0.17642426708E+03 -0.48942219179E+03  0.85571041236E+03  0.10100000352E+00 0. -1.
</event>
<event>
 5   0  0.1001573E-05  0.2839392E+04  0.7818609E-02  0.8291142E-01
        2   -1    0    0  501    0  0.00000000000E+00  0.00000000000E+00  0.17187374931E+04  0.17187374931E+04  0.25500000920E-02 0. -1.
       -2   -1    0    0    0  501  0.00000000000E+00  0.00000000000E+00 -0.11726844710E+04  0.11726844710E+04  0.25500000920E-02 0.  1.
    10030    2    1    2    0    0  0.00000000000E+00  0.00000000000E+00  0.54605302202E+03  0.28914219641E+04  0.28393920250E+04 0.  0.
        1    1    3    3  502    0  0.13524954495E+04 -0.38121036849E+03  0.47914974769E+03  0.14846379245E+04  0.50400001928E-02 0. -1.
       -1    1    3    3    0  502 -0.13524954495E+04  0.38121036849E+03  0.66903274335E+02  0.14067840396E+04  0.50400001928E-02 0.  1.
</event>
<event>
 5   0  0.9505359E-06  0.2916176E+04  0.7818609E-02  0.8268081E-01
       -2   -1    0    0    0  501  0.00000000000E+00  0.00000000000E+00  0.79344399941E+03  0.79344399941E+03  0.25500000920E-02 0.  1.
        2   -1    0    0  501    0  0.00000000000E+00  0.00000000000E+00 -0.26794837119E+04  0.26794837119E+04  0.25500000920E-02 0. -1.
    10030    2    1    2    0    0  0.00000000000E+00  0.00000000000E+00 -0.18860397125E+04  0.34729277113E+04  0.29161757648E+04 0.  0.
        4    1    3    3  502    0  0.90051278015E+02  0.11849030237E+04  0.63228243157E+02  0.11900016100E+04  0.12699999809E+01 0.  1.
       -4    1    3    3    0  502 -0.90051278015E+02 -0.11849030237E+04 -0.19492679557E+04  0.22829261013E+04  0.12699999809E+01 0. -1.
</event>
<event>
 5   0  0.1001573E-05  0.2786501E+04  0.7818609E-02  0.8307472E-01
       -2   -1    0    0    0  501  0.00000000000E+00  0.00000000000E+00  0.15868464703E+04  0.15868464703E+04  0.25500000920E-02 0.  1.
        2   -1    0    0  501    0  0.00000000000E+00  0.00000000000E+00 -0.12232731176E+04  0.12232731176E+04  0.25500000920E-02 0. -1.
    10030    2    1    2    0    0  0.00000000000E+00  0.00000000000E+00  0.36357335269E+03  0.28101195880E+04  0.27865007655E+04 0.  0.
        1    1    3    3  502    0  0.52059982925E+03  0.74760925571E+03 -0.88128441507E+03  0.12675196258E+04  0.50400001928E-02 0. -1.
       -1    1    3    3    0  502 -0.52059982925E+03 -0.74760925571E+03  0.12448577678E+04  0.15425999622E+04  0.50400001928E-02 0.  1.
</event>
<event>
 5   0  0.9646321E-06  0.2911599E+04  0.7818609E-02  0.8269435E-01
        2   -1    0    0  501    0  0.00000000000E+00  0.00000000000E+00  0.12404247804E+04  0.12404247804E+04  0.25500000920E-02 0.  1.
       -2   -1    0    0    0  501  0.00000000000E+00  0.00000000000E+00 -0.17085699563E+04  0.17085699563E+04  0.25500000920E-02 0. -1.
    10030    2    1    2    0    0  0.00000000000E+00  0.00000000000E+00 -0.46814517592E+03  0.29489947366E+04  0.29115992257E+04 0.  0.
        3    1    3    3  502    0 -0.81889809681E+03 -0.12697594804E+03  0.97822784217E+03  0.12820478563E+04  0.10100000352E+00 0.  1.
       -3    1    3    3    0  502  0.81889809681E+03  0.12697594804E+03 -0.14463730181E+04  0.16669468804E+04  0.10100000352E+00 0. -1.
</event>
<event>
 5   0  0.9251510E-06  0.2714879E+04  0.7818609E-02  0.8330193E-01
       -2   -1    0    0    0  501  0.00000000000E+00  0.00000000000E+00  0.89451785202E+03  0.89451785203E+03  0.25500000920E-02 0. -1.
        2   -1    0    0  501    0  0.00000000000E+00  0.00000000000E+00 -0.20599273223E+04  0.20599273223E+04  0.25500000920E-02 0.  1.
    10030    2    1    2    0    0  0.00000000000E+00  0.00000000000E+00 -0.11654094703E+04  0.29544451744E+04  0.27148788288E+04 0.  0.
        2    1    3    3  502    0  0.81069154231E+02 -0.18584916607E+03  0.87794535791E+03  0.90105503260E+03  0.25500000920E-02 0. -1.
       -2    1    3    3    0  502 -0.81069154231E+02  0.18584916607E+03 -0.20433548282E+04  0.20533901418E+04  0.25500000920E-02 0.  1.
</event>
<event>
 5   0  0.1001573E-05  0.2917983E+04  0.7818609E-02  0.8267547E-01
        2   -1    0    0  501    0  0.00000000000E+00  0.00000000000E+00  0.20478797101E+04  0.20478797101E+04  0.25500000920E-02 0. -1.
       -2   -1    0    0    0  501  0.00000000000E+00  0.00000000000E+00 -0.10394439370E+04  0.10394439370E+04  0.25500000920E-02 0.  1.
    10030    2    1    2    0    0  0.00000000000E+00  0.00000000000E+00  0.10084357731E+04  0.30873236471E+04  0.29179829666E+04 0.  0.
        1    1    3    3  502    0 -0.69471087313E+02 -0.95399295478E+03  0.16698459039E+04  0.19243996811E+04  0.50400001928E-02 0. -1.
       -1    1    3    3    0  502  0.69471087313E+02  0.95399295478E+03 -0.66141013074E+03  0.11629239661E+04  0.50400001928E-02 0.  1.
</event>
<event>
 5   0  0.9251510E-06  0.2833539E+04  0.7818609E-02  0.8292931E-01
        2   -1    0    0  501    0  0.00000000000E+00  0.00000000000E+00  0.14480295248E+04  0.14480295248E+04  0.25500000920E-02 0. -1.
       -2   -1    0    0    0  501  0.00000000000E+00  0.00000000000E+00 -0.13861842133E+04  0.13861842133E+04  0.25500000920E-02 0.  1.
    10030    2    1    2    0    0  0.00000000000E+00  0.00000000000E+00  0.61845311520E+02  0.28342137381E+04  0.28335388953E+04 0.  0.
        2    1    3    3  502    0 -0.70907857976E+03  0.10013492673E+04 -0.67758415551E+03  0.14016465586E+04  0.25500000920E-02 0.  1.
       -2    1    3    3    0  502  0.70907857976E+03 -0.10013492673E+04  0.73942946703E+03  0.14325671796E+04  0.25500000920E-02 0. -1.
</event>
<event>
 5   0  0.3564340E-06  0.2928846E+04  0.7818609E-02  0.8264346E-01
        1   -1    0    0  501    0  0.00000000000E+00  0.00000000000E+00  0.15086327936E+04  0.15086327936E+04  0.50400001928E-02 0.  1.
       -1   -1    0    0    0  501  0.00000000000E+00  0.00000000000E+00 -0.14215090105E+04  0.14215090105E+04  0.50400001928E-02 0. -1.
    10030    2    1    2    0    0  0.00000000000E+00  0.00000000000E+00  0.87123783094E+02  0.29301418041E+04  0.29288462641E+04 0.  0.
        1    1    3    3  502    0  0.31877164700E+03  0.10905808016E+04  0.96785002134E+03  0.14925533530E+04  0.50400001928E-02 0.  1.
       -1    1    3    3    0  502 -0.31877164700E+03 -0.10905808016E+04 -0.88072623825E+03  0.14375884510E+04  0.50400001928E-02 0. -1.
</event>
<event>
 5   0  0.3649705E-06  0.2803235E+04  0.7818609E-02  0.8302265E-01
        1   -1    0    0  501    0  0.00000000000E+00  0.00000000000E+00  0.74113815412E+03  0.74113815414E+03  0.50400001928E-02 0.  1.
       -1   -1    0    0    0  501  0.00000000000E+00  0.00000000000E+00 -0.26506953638E+04  0.26506953638E+04  0.50400001928E-02 0. -1.
    10030    2    1    2    0    0  0.00000000000E+00  0.00000000000E+00 -0.19095572097E+04  0.33918335179E+04  0.28032348950E+04 0.  0.
        2    1    3    3  502    0 -0.38457504693E+02  0.10894653144E+04 -0.20207335874E+04  0.22960352528E+04  0.25500000920E-02 0. -1.
       -2    1    3    3    0  502  0.38457504693E+02 -0.10894653144E+04  0.11117637768E+03  0.10957982652E+04  0.25500000920E-02 0.  1.
</event>
<event>
 5   0  0.3746518E-06  0.2911479E+04  0.7818609E-02  0.8269470E-01
        1   -1    0    0  501    0  0.00000000000E+00  0.00000000000E+00  0.16746689522E+04  0.16746689523E+04  0.50400001928E-02 0.  1.
       -1   -1    0    0    0  501  0.00000000000E+00  0.00000000000E+00 -0.12654304517E+04  0.12654304517E+04  0.50400001928E-02 0. -1.
    10030    2    1    2    0    0  0.00000000000E+00  0.00000000000E+00  0.40923850058E+03  0.29400994039E+04  0.29114787230E+04 0.  0.
        4    1    3    3  502    0 -0.14186636693E+04 -0.17876950113E+03  0.48045330741E+03  0.15084436133E+04  0.12699999809E+01 0.  1.
       -4    1    3    3    0  502  0.14186636693E+04  0.17876950113E+03 -0.71214806834E+02  0.14316557906E+04  0.12699999809E+01 0. -1.
</event>
<event>
 5   0  0.3486236E-06  0.2920331E+04  0.7818609E-02  0.8266854E-01
        1   -1    0    0  501    0  0.00000000000E+00  0.00000000000E+00  0.14060665323E+04  0.14060665323E+04  0.50400001928E-02 0. -1.
       -1   -1    0    0    0  501  0.00000000000E+00  0.00000000000E+00 -0.15163459533E+04  0.15163459533E+04  0.50400001928E-02 0.  1.
    10030    2    1    2    0    0  0.00000000000E+00  0.00000000000E+00 -0.11027942096E+03  0.29224124856E+04  0.29203310062E+04 0.  0.
        5    1    3    3  502    0  0.23838683856E+03  0.65021536326E+03 -0.13415336351E+04  0.15097492797E+04  0.46999998093E+01 0.  1.
       -5    1    3    3    0  502 -0.23838683856E+03 -0.65021536326E+03  0.12312542142E+04  0.14126632059E+04  0.46999998093E+01 0. -1.
</event>
<event>
 5   0  0.9646321E-06  0.2817673E+04  0.7818609E-02  0.8297802E-01
        2   -1    0    0  501    0  0.00000000000E+00  0.00000000000E+00  0.14139590250E+04  0.14139590250E+04  0.25500000920E-02 0.  1.
       -2   -1    0    0    0  501  0.00000000000E+00  0.00000000000E+00 -0.14037328811E+04  0.14037328811E+04  0.25500000920E-02 0. -1.
    10030    2    1    2    0    0  0.00000000000E+00  0.00000000000E+00  0.10226143878E+02  0.28176919061E+04  0.28176733494E+04 0.  0.
        3    1    3    3  502    0 -0.71776441650E+03  0.12009778451E+04 -0.16007646521E+03  0.14082464368E+04  0.10100000352E+00 0. -1.
       -3    1    3    3    0  502  0.71776441650E+03 -0.12009778451E+04  0.17030260909E+03  0.14094454693E+04  0.10100000352E+00 0.  1.
</event>
<event>
 5   0  0.9646321E-06  0.2935808E+04  0.7818609E-02  0.8262302E-01
       -2   -1    0    0    0  501  0.00000000000E+00  0.00000000000E+00  0.16538761831E+04  0.16538761831E+04  0.25500000920E-02 0.  1.
        2   -1    0    0  501    0  0.00000000000E+00  0.00000000000E+00 -0.13028441052E+04  0.13028441052E+04  0.25500000920E-02 0. -1.
    10030    2    1    2    0    0  0.00000000000E+00  0.00000000000E+00  0.35103207793E+03  0.29567202883E+04  0.29358084651E+04 0.  0.
        3    1    3    3  502    0 -0.74089847713E+03  0.50084430179E+03  0.13478380611E+04  0.16175422768E+04  0.10100000352E+00 0.  1.
       -3    1    3    3    0  502  0.74089847713E+03 -0.50084430179E+03 -0.99680598321E+03  0.13391780115E+04  0.10100000352E+00 0. -1.
</event>
<event>
 5   0  0.3474078E-06  0.2918756E+04  0.7818609E-02  0.8267319E-01
       -1   -1    0    0    0  501  0.00000000000E+00  0.00000000000E+00  0.15428550968E+04  0.15428550968E+04  0.50400001928E-02 0.  1.
        1   -1    0    0  501    0  0.00000000000E+00  0.00000000000E+00 -0.13804179192E+04  0.13804179192E+04  0.50400001928E-02 0. -1.
    10030    2    1    2    0    0  0.00000000000E+00  0.00000000000E+00  0.16243717759E+03  0.29232730159E+04  0.29187564628E+04 0.  0.
        3    1    3    3  502    0  0.84451624866E+03  0.26875075744E+03  0.12424739122E+04  0.15261638498E+04  0.10100000352E+00 0.  1.
       -3    1    3    3    0  502 -0.84451624866E+03 -0.26875075744E+03 -0.10800367346E+04  0.13971091661E+04  0.10100000352E+00 0. -1.
</event>
<event>
 5   0  0.3746518E-06  0.2929385E+04  0.7818609E-02  0.8264188E-01
        1   -1    0    0  501    0  0.00000000000E+00  0.00000000000E+00  0.15399733241E+04  0.15399733241E+04  0.50400001928E-02 0. -1.
       -1   -1    0    0    0  501  0.00000000000E+00  0.00000000000E+00 -0.13930918077E+04  0.13930918078E+04  0.50400001928E-02 0.  1.
    10030    2    1    2    0    0  0.00000000000E+00  0.00000000000E+00  0.14688151632E+03  0.29330651318E+04  0.29293850699E+04 0.  0.
        4    1    3    3  502    0  0.45831985975E+03 -0.97758151359E+03 -0.91755001116E+03  0.14169059056E+04  0.12699999809E+01 0.  1.
       -4    1    3    3    0  502 -0.45831985975E+03  0.97758151359E+03  0.10644315275E+04  0.15161592262E+04  0.12699999809E+01 0. -1.
</event>
<event>
 5   0  0.3486236E-06  0.2933409E+04  0.7818609E-02  0.8263006E-01
       -1   -1    0    0    0  501  0.00000000000E+00  0.00000000000E+00  0.66982541853E+03  0.66982541855E+03  0.50400001928E-02 0. -1.
        1   -1    0    0  501    0  0.00000000000E+00  0.00000000000E+00 -0.32116153696E+04  0.32116153696E+04  0.50400001928E-02 0.  1.
    10030    2    1    2    0    0  0.00000000000E+00  0.00000000000E+00 -0.25417899511E+04  0.38814407882E+04  0.29334086720E+04 0.  0.
        5    1    3    3  502    0 -0.56966888712E+03  0.38741142760E+03  0.44240628420E+03  0.81875250564E+03  0.46999998093E+01 0. -1.
       -5    1    3    3    0  502  0.56966888712E+03 -0.38741142760E+03 -0.29841962353E+04  0.30626882826E+04  0.46999998093E+01 0.  1.
</event>
<event>
 5   0  0.9505359E-06  0.2879688E+04  0.7818609E-02  0.8278947E-01
       -2   -1    0    0    0  501  0.00000000000E+00  0.00000000000E+00  0.71749660749E+03  0.71749660749E+03  0.25500000920E-02 0.  1.
        2   -1    0    0  501    0  0.00000000000E+00  0.00000000000E+00 -0.28894222585E+04  0.28894222585E+04  0.25500000920E-02 0. -1.
    10030    2    1    2    0    0  0.00000000000E+00  0.00000000000E+00 -0.21719256510E+04  0.36069188659E+04  0.28796879470E+04 0.  0.
        4    1    3    3  502    0  0.12564774272E+04  0.70310472880E+03 -0.10764839551E+04  0.17977516801E+04  0.12699999809E+01 0. -1.
       -4    1    3    3    0  502 -0.12564774272E+04 -0.70310472880E+03 -0.10954416958E+04  0.18091671859E+04  0.12699999809E+01 0.  1.
</event>
<event>
 5   0  0.9505359E-06  0.2952883E+04  0.7818609E-02  0.8257315E-01
       -2   -1    0    0    0  501  0.00000000000E+00  0.00000000000E+00  0.19486347323E+04  0.19486347323E+04  0.25500000920E-02 0.  1.
        2   -1    0    0  501    0  0.00000000000E+00  0.00000000000E+00 -0.11186701859E+04  0.11186701859E+04  0.25500000920E-02 0. -1.
    10030    2    1    2    0    0  0.00000000000E+00  0.00000000000E+00  0.82996454642E+03  0.30673049181E+04  0.29528830509E+04 0.  0.
        4    1    3    3  502    0  0.57145160608E+03 -0.56552033862E+03  0.17013161130E+04  0.18817141974E+04  0.12699999809E+01 0.  1.
       -4    1    3    3    0  502 -0.57145160608E+03  0.56552033862E+03 -0.87135156661E+03  0.11855907207E+04  0.12699999809E+01 0. -1.
</event>
<event>
 5   0  0.9646321E-06  0.2958155E+04  0.7818609E-02  0.8255782E-01
        2   -1    0    0  501    0  0.00000000000E+00  0.00000000000E+00  0.19478315703E+04  0.19478315703E+04  0.25500000920E-02 0. -1.
       -2   -1    0    0    0  501  0.00000000000E+00  0.00000000000E+00 -0.11231308319E+04  0.11231308319E+04  0.25500000920E-02 0.  1.
    10030    2    1    2    0    0  0.00000000000E+00  0.00000000000E+00  0.82470073838E+03  0.30709624022E+04  0.29581546220E+04 0.  0.
        3    1    3    3  502    0  0.47724995920E+03  0.31025515333E+03 -0.10048625234E+04  0.11548915468E+04  0.10100000352E+00 0.  1.
       -3    1    3    3    0  502 -0.47724995920E+03 -0.31025515333E+03  0.18295632618E+04  0.19160708554E+04  0.10100000352E+00 0. -1.
</event>
<event>
 5   0  0.3564340E-06  0.2904761E+04  0.7818609E-02  0.8271462E-01
       -1   -1    0    0    0  501  0.00000000000E+00  0.00000000000E+00  0.14024145718E+04  0.14024145718E+04  0.50400001928E-02 0. -1.
        1   -1    0    0  501    0  0.00000000000E+00  0.00000000000E+00 -0.15041261689E+04  0.15041261689E+04  0.50400001928E-02 0.  1.
    10030    2    1    2    0    0  0.00000000000E+00  0.00000000000E+00 -0.10171159712E+03  0.29065407407E+04  0.29047605458E+04 0.  0.
        1    1    3    3  502    0 -0.39920233570E+03 -0.98173773568E+03 -0.10445590642E+04  0.14880440602E+04  0.50400001928E-02 0.  1.
       -1    1    3    3    0  502  0.39920233570E+03  0.98173773568E+03  0.94284746705E+03  0.14184966805E+04  0.50400001928E-02 0. -1.
</event>
<event>
 5   0  0.9505359E-06  0.2586258E+04  0.7818609E-02  0.8372884E-01
       -2   -1    0    0    0  501  0.00000000000E+00  0.00000000000E+00  0.71207988506E+03  0.71207988506E+03  0.25500000920E-02 0. -1.
        2   -1    0    0  501    0  0.00000000000E+00  0.00000000000E+00 -0.23483067074E+04  0.23483067075E+04  0.25500000920E-02 0.  1.
    10030    2    1    2    0    0  0.00000000000E+00  0.00000000000E+00 -0.16362268224E+04  0.30603865925E+04  0.25862575048E+04 0.  0.
        4    1    3    3  502    0 -0.27848513178E+03 -0.11952481463E+04 -0.13002492024E+04  0.17879657998E+04  0.12699999809E+01 0.  1.
       -4    1    3    3    0  502  0.27848513178E+03  0.11952481463E+04 -0.33597761997E+03  0.12724207928E+04  0.12699999809E+01 0. -1.
</event>
<event>
 5   0  0.3746518E-06  0.2761357E+04  0.7818609E-02  0.8315367E-01
       -1   -1    0    0    0  501  0.00000000000E+00  0.00000000000E+00  0.12553196887E+04  0.12553196887E+04  0.50400001928E-02 0. -1.
        1   -1    0    0  501    0  0.00000000000E+00  0.00000000000E+00 -0.15185563384E+04  0.15185563384E+04  0.50400001928E-02 0.  1.
    10030    2    1    2    0    0  0.00000000000E+00  0.00000000000E+00 -0.26323664968E+03  0.27738760271E+04  0.27613573981E+04 0.  0.
        4    1    3    3  502    0  0.11962873505E+04  0.56076561283E+03  0.27108631512E+03  0.13487219508E+04  0.12699999809E+01 0. -1.
       -4    1    3    3    0  502 -0.11962873505E+04 -0.56076561283E+03 -0.53432296480E+03  0.14251540763E+04  0.12699999809E+01 0.  1.
</event>
<event>
 5   0  0.1001573E-05  0.2897004E+04  0.7818609E-02  0.8273769E-01
        2   -1    0    0  501    0  0.00000000000E+00  0.00000000000E+00  0.96630768637E+03  0.96630768638E+03  0.25500000920E-02 0. -1.
       -2   -1    0    0    0  501  0.00000000000E+00  0.00000000000E+00 -0.21713149748E+04  0.21713149748E+04  0.25500000920E-02 0.  1.
    10030    2    1    2    0    0  0.00000000000E+00  0.00000000000E+00 -0.12050072884E+04  0.31376226611E+04  0.28970042110E+04 0.  0.
        1    1    3    3  502    0  0.97002967329E+02 -0.16297562306E+02  0.96268639622E+03  0.96769844667E+03  0.50400001928E-02 0. -1.
       -1    1    3    3    0  502 -0.97002967329E+02  0.16297562306E+02 -0.21676936846E+04  0.21699242145E+04  0.50400001928E-02 0.  1.
</event>
<event>
 5   0  0.9360689E-06  0.2879244E+04  0.7818609E-02  0.8279080E-01
       -2   -1    0    0    0  501  0.00000000000E+00  0.00000000000E+00  0.16533500578E+04  0.16533500578E+04  0.25500000920E-02 0. -1.
        2   -1    0    0  501    0  0.00000000000E+00  0.00000000000E+00 -0.12535224095E+04  0.12535224095E+04  0.25500000920E-02 0.  1.
    10030    2    1    2    0    0  0.00000000000E+00  0.00000000000E+00  0.39982764828E+03  0.29068724673E+04  0.28792438926E+04 0.  0.
        5    1    3    3  502    0  0.65822173568E+03  0.10558575150E+04 -0.53118850430E+03  0.13528762924E+04  0.46999998093E+01 0.  1.
       -5    1    3    3    0  502 -0.65822173568E+03 -0.10558575150E+04  0.93101615258E+03  0.15539961749E+04  0.46999998093E+01 0. -1.
</event>
<event>
 5   0  0.3564340E-06  0.2801697E+04  0.7818609E-02  0.8302742E-01
        1   -1    0    0  501    0  0.00000000000E+00  0.00000000000E+00  0.18028002748E+04  0.18028002748E+04  0.50400001928E-02 0. -1.
       -1   -1    0    0    0  501  0.00000000000E+00  0.00000000000E+00 -0.10885155455E+04  0.10885155455E+04  0.50400001928E-02 0.  1.
    10030    2    1    2    0    0  0.00000000000E+00  0.00000000000E+00  0.71428472935E+03  0.28913158203E+04  0.28016967178E+04 0.  0.
        1    1    3    3  502    0 -0.10400778118E+04 -0.45892846174E+03  0.12018598189E+04  0.16543410204E+04  0.50400001928E-02 0. -1.
       -1    1    3    3    0  502  0.10400778118E+04  0.45892846174E+03 -0.48757508954E+03  0.12369747999E+04  0.50400001928E-02 0.  1.
</event>
<event>
 5   0  0.3564340E-06  0.2870007E+04  0.7818609E-02  0.8281858E-01
        1   -1    0    0  501    0  0.00000000000E+00  0.00000000000E+00  0.11572012362E+04  0.11572012362E+04  0.50400001928E-02 0. -1.
       -1   -1    0    0    0  501  0.00000000000E+00  0.00000000000E+00 -0.17794961091E+04  0.17794961091E+04  0.50400001928E-02 0.  1.
    10030    2    1    2    0    0  0.00000000000E+00  0.00000000000E+00 -0.62229487288E+03  0.29366973453E+04  0.28700070364E+04 0.  0.
        1    1    3    3  502    0  0.11643046980E+04  0.59800019247E+03 -0.91305561191E+03  0.15958947993E+04  0.50400001928E-02 0.  1.
       -1    1    3    3    0  502 -0.11643046980E+04 -0.59800019247E+03  0.29076073903E+03  0.13408025460E+04  0.50400001928E-02 0. -1.
</event>
<event>
 5   0  0.3746518E-06  0.2889345E+04  0.7818609E-02  0.8276055E-01
        1   -1    0    0  501    0  0.00000000000E+00  0.00000000000E+00  0.96010556623E+03  0.96010556625E+03  0.50400001928E-02 0.  1.
       -1   -1    0    0    0  501  0.00000000000E+00  0.00000000000E+00 -0.21738011146E+04  0.21738011146E+04  0.50400001928E-02 0. -1.
    10030    2    1    2    0    0  0.00000000000E+00  0.00000000000E+00 -0.12136955484E+04  0.31339066809E+04  0.28893449431E+04 0.  0.
        4    1    3    3  502    0  0.59015931000E+03 -0.12236040590E+04 -0.73735130166E+02  0.13604901274E+04  0.12699999809E+01 0. -1.
       -4    1    3    3    0  502 -0.59015931000E+03  0.12236040590E+04 -0.11399604182E+04  0.17734165535E+04  0.12699999809E+01 0.  1.
</event>
<event>
 5   0  0.9505359E-06  0.2861051E+04  0.7818609E-02  0.8284561E-01
       -2   -1    0    0    0  501  0.00000000000E+00  0.00000000000E+00  0.13573927439E+04  0.13573927439E+04  0.25500000920E-02 0. -1.
        2   -1    0    0  501    0  0.00000000000E+00  0.00000000000E+00 -0.15075982296E+04  0.15075982296E+04  0.25500000920E-02 0.  1.
    10030    2    1    2    0    0  0.00000000000E+00  0.00000000000E+00 -0.15020548566E+03  0.28649909735E+04  0.28610507843E+04 0.  0.
        4    1    3    3  502    0 -0.65710215143E+03  0.18472824413E+03 -0.13340109114E+04  0.14984974095E+04  0.12699999809E+01 0.  1.
       -4    1    3    3    0  502  0.65710215143E+03 -0.18472824413E+03  0.11838054257E+04  0.13664935640E+04  0.12699999809E+01 0. -1.
</event>
<event>
 5   0  0.3564340E-06  0.2891544E+04  0.7818609E-02  0.8275398E-01
        1   -1    0    0  501    0  0.00000000000E+00  0.00000000000E+00  0.15814030059E+04  0.15814030059E+04  0.50400001928E-02 0.  1.
       -1   -1    0    0    0  501  0.00000000000E+00  0.00000000000E+00 -0.13217730998E+04  0.13217730998E+04  0.50400001928E-02 0. -1.
    10030    2    1    2    0    0  0.00000000000E+00  0.00000000000E+00  0.25962990617E+03  0.29031761057E+04  0.28915435001E+04 0.  0.
        1    1    3    3  502    0 -0.11695354663E+03  0.75599734790E+03  0.13615534444E+04  0.15617419455E+04  0.50400001928E-02 0.  1.
       -1    1    3    3    0  502  0.11695354663E+03 -0.75599734790E+03 -0.11019235383E+04  0.13414341603E+04  0.50400001928E-02 0. -1.
</event>
<event>
 5   0  0.1001573E-05  0.3041238E+04  0.7818609E-02  0.8232052E-01
        2   -1    0    0  501    0  0.00000000000E+00  0.00000000000E+00  0.12460162211E+04  0.12460162211E+04  0.25500000920E-02 0.  1.
       -2   -1    0    0    0  501  0.00000000000E+00  0.00000000000E+00 -0.18557403617E+04  0.18557403617E+04  0.25500000920E-02 0. -1.
    10030    2    1    2    0    0  0.00000000000E+00  0.00000000000E+00 -0.60972414062E+03  0.31017565827E+04  0.30412382956E+04 0.  0.
        1    1    3    3  502    0  0.67657108442E+03  0.62246957628E+03  0.93046527934E+03  0.13080452751E+04  0.50400001928E-02 0.  1.
       -1    1    3    3    0  502 -0.67657108442E+03 -0.62246957628E+03 -0.15401894200E+04  0.17937113076E+04  0.50400001928E-02 0. -1.
</event>
<event>
 5   0  0.3188375E-06  0.2901663E+04  0.7818609E-02  0.8272383E-01
       -3   -1    0    0    0  501  0.00000000000E+00  0.00000000000E+00  0.14932929888E+04  0.14932929922E+04  0.10100000352E+00 0.  1.
        3   -1    0    0  501    0  0.00000000000E+00  0.00000000000E+00 -0.14095770974E+04  0.14095771010E+04  0.10100000352E+00 0. -1.
    10030    2    1    2    0    0  0.00000000000E+00  0.00000000000E+00  0.83715891412E+02  0.29028700931E+04  0.29016627005E+04 0.  0.
        3    1    3    3  502    0 -0.97182709748E+03 -0.95734457159E+03 -0.45226564604E+03  0.14371850128E+04  0.10100000352E+00 0.  1.
       -3    1    3    3    0  502  0.97182709748E+03  0.95734457159E+03  0.53598153745E+03  0.14656850804E+04  0.10100000352E+00 0. -1.
</event>
<event>
 5   0  0.3486236E-06  0.2915363E+04  0.7818609E-02  0.8268321E-01
       -1   -1    0    0    0  501  0.00000000000E+00  0.00000000000E+00  0.14045852000E+04  0.14045852000E+04  0.50400001928E-02 0. -1.
        1   -1    0    0  501    0  0.00000000000E+00  0.00000000000E+00 -0.15127852756E+04  0.15127852756E+04  0.50400001928E-02 0.  1.
    10030    2    1    2    0    0  0.00000000000E+00  0.00000000000E+00 -0.10820007562E+03  0.29173704756E+04  0.29153633111E+04 0.  0.
        5    1    3    3  502    0 -0.87790014003E+03  0.74444004595E+03 -0.94909495804E+03  0.14918790056E+04  0.46999998093E+01 0.  1.
       -5    1    3    3    0  502  0.87790014003E+03 -0.74444004595E+03  0.84089488241E+03  0.14254914700E+04  0.46999998093E+01 0. -1.
</event>
<event>
 5   0  0.9646321E-06  0.2887058E+04  0.7818609E-02  0.8276739E-01
        2   -1    0    0  501    0  0.00000000000E+00  0.00000000000E+00  0.30575053167E+04  0.30575053167E+04  0.25500000920E-02 0. -1.
       -2   -1    0    0    0  501  0.00000000000E+00  0.00000000000E+00 -0.68152798301E+03  0.68152798301E+03  0.25500000920E-02 0.  1.
    10030    2    1    2    0    0  0.00000000000E+00  0.00000000000E+00  0.23759773337E+04  0.37390332997E+04  0.28870576243E+04 0.  0.
        3    1    3    3  502    0 -0.79245556334E+03  0.11454179659E+04  0.69686108594E+03  0.15574284959E+04  0.10100000352E+00 0.  1.
       -3    1    3    3    0  502  0.79245556334E+03 -0.11454179659E+04  0.16791162477E+04  0.21816048038E+04  0.10100000352E+00 0. -1.
</event>
<event>
 5   0  0.3564340E-06  0.2855137E+04  0.7818609E-02  0.8286352E-01
       -1   -1    0    0    0  501  0.00000000000E+00  0.00000000000E+00  0.27825440671E+04  0.27825440671E+04  0.50400001928E-02 0.  1.
        1   -1    0    0  501    0  0.00000000000E+00  0.00000000000E+00 -0.73240586093E+03  0.73240586095E+03  0.50400001928E-02 0. -1.
    10030    2    1    2    0    0  0.00000000000E+00  0.00000000000E+00  0.20501382061E+04  0.35149499280E+04  0.28551368325E+04 0.  0.
        1    1    3    3  502    0 -0.67657125708E+03  0.12569750839E+04  0.10431857165E+04  0.17680417038E+04  0.50400001928E-02 0. -1.
       -1    1    3    3    0  502  0.67657125708E+03 -0.12569750839E+04  0.10069524897E+04  0.17469082242E+04  0.50400001928E-02 0.  1.
</event>
<event>
 5   0  0.3486236E-06  0.2907163E+04  0.7818609E-02  0.8270749E-01
        1   -1    0    0  501    0  0.00000000000E+00  0.00000000000E+00  0.18048634446E+04  0.18048634446E+04  0.50400001928E-02 0. -1.
       -1   -1    0    0    0  501  0.00000000000E+00  0.00000000000E+00 -0.11706698784E+04  0.11706698784E+04  0.50400001928E-02 0.  1.
    10030    2    1    2    0    0  0.00000000000E+00  0.00000000000E+00  0.63419356613E+03  0.29755333230E+04  0.29071630634E+04 0.  0.
        5    1    3    3  502    0  0.12926060161E+04 -0.65690570591E+03  0.21210879266E+03  0.14653899307E+04  0.46999998093E+01 0.  1.
       -5    1    3    3    0  502 -0.12926060161E+04  0.65690570591E+03  0.42208477347E+03  0.15101433923E+04  0.46999998093E+01 0. -1.
</event>
<event>
 5   0  0.9360689E-06  0.2805668E+04  0.7818609E-02  0.8301511E-01
        2   -1    0    0  501    0  0.00000000000E+00  0.00000000000E+00  0.29482193517E+04  0.29482193517E+04  0.25500000920E-02 0.  1.
       -2   -1    0    0    0  501  0.00000000000E+00  0.00000000000E+00 -0.66750245599E+03  0.66750245599E+03  0.25500000920E-02 0. -1.
    10030    2    1    2    0    0  0.00000000000E+00  0.00000000000E+00  0.22807168958E+04  0.36157218077E+04  0.28056683040E+04 0.  0.
        5    1    3    3  502    0  0.24623056682E+03  0.29411403060E+03 -0.59859715730E+03  0.71096638582E+03  0.46999998093E+01 0. -1.
       -5    1    3    3    0  502 -0.24623056682E+03 -0.29411403060E+03  0.28793140531E+04  0.29047554219E+04  0.46999998093E+01 0.  1.
</event>
<event>
 5   0  0.3564340E-06  0.2868628E+04  0.7818609E-02  0.8282273E-01
        1   -1    0    0  501    0  0.00000000000E+00  0.00000000000E+00  0.20716951234E+04  0.20716951234E+04  0.50400001928E-02 0. -1.
       -1   -1    0    0    0  501  0.00000000000E+00  0.00000000000E+00 -0.99303031090E+03  0.99303031092E+03  0.50400001928E-02 0.  1.
    10030    2    1    2    0    0  0.00000000000E+00  0.00000000000E+00  0.10786648125E+04  0.30647254343E+04  0.28686275830E+04 0.  0.
        1    1    3    3  502    0 -0.66997437551E+03 -0.14965119793E+03  0.18847846796E+04  0.20059098767E+04  0.50400001928E-02 0. -1.
       -1    1    3    3    0  502  0.66997437551E+03  0.14965119793E+03 -0.80611986712E+03  0.10588155576E+04  0.50400001928E-02 0.  1.
</event>
<event>
 5   0  0.3486236E-06  0.2124834E+04  0.7818609E-02  0.8550382E-01
       -1   -1    0    0    0  501  0.00000000000E+00  0.00000000000E+00  0.17748206693E+04  0.17748206693E+04  0.50400001928E-02 0.  1.
        1   -1    0    0  501    0  0.00000000000E+00  0.00000000000E+00 -0.63596822112E+03  0.63596822114E+03  0.50400001928E-02 0. -1.
    10030    2    1    2    0    0  0.00000000000E+00  0.00000000000E+00  0.11388524482E+04  0.24107888904E+04  0.21248336818E+04 0.  0.
        5    1    3    3  502    0 -0.57129579571E+03 -0.29786136192E+02 -0.44628467683E+03  0.72557439514E+03  0.46999998093E+01 0. -1.
       -5    1    3    3    0  502  0.57129579571E+03  0.29786136192E+02  0.15851371250E+04  0.16852144953E+04  0.46999998093E+01 0.  1.
</event>
<event>
 5   0  0.3474078E-06  0.2890071E+04  0.7818609E-02  0.8275838E-01
        1   -1    0    0  501    0  0.00000000000E+00  0.00000000000E+00  0.14073561305E+04  0.14073561305E+04  0.50400001928E-02 0.  1.
       -1   -1    0    0    0  501  0.00000000000E+00  0.00000000000E+00 -0.14837239908E+04  0.14837239909E+04  0.50400001928E-02 0. -1.
    10030    2    1    2    0    0  0.00000000000E+00  0.00000000000E+00 -0.76367860356E+02  0.28910801213E+04  0.28900713171E+04 0.  0.
        3    1    3    3  502    0  0.66561582502E+03  0.11484571405E+04  0.53309317485E+03  0.14304497801E+04  0.10100000352E+00 0.  1.
       -3    1    3    3    0  502 -0.66561582502E+03 -0.11484571405E+04 -0.60946103521E+03  0.14606303412E+04  0.10100000352E+00 0. -1.
</event>
<event>
 5   0  0.9505359E-06  0.2911342E+04  0.7818609E-02  0.8269511E-01
       -2   -1    0    0    0  501  0.00000000000E+00  0.00000000000E+00  0.16089943709E+04  0.16089943709E+04  0.25500000920E-02 0. -1.
        2   -1    0    0  501    0  0.00000000000E+00  0.00000000000E+00 -0.13169580760E+04  0.13169580760E+04  0.25500000920E-02 0.  1.
    10030    2    1    2    0    0  0.00000000000E+00  0.00000000000E+00  0.29203629492E+03  0.29259524468E+04  0.29113420485E+04 0.  0.
        4    1    3    3  502    0 -0.29968091360E+03 -0.14130021229E+04  0.32745910293E+03  0.14810856580E+04  0.12699999809E+01 0. -1.
       -4    1    3    3    0  502  0.29968091360E+03  0.14130021229E+04 -0.35422808014E+02  0.14448667888E+04  0.12699999809E+01 0.  1.
</event>
<event>
 5   0  0.3649705E-06  0.2909550E+04  0.7818609E-02  0.8270042E-01
       -1   -1    0    0    0  501  0.00000000000E+00  0.00000000000E+00  0.12010444243E+04  0.12010444243E+04  0.50400001928E-02 0.  1.
        1   -1    0    0  501    0  0.00000000000E+00  0.00000000000E+00 -0.17621085683E+04  0.17621085683E+04  0.50400001928E-02 0. -1.
    10030    2    1    2    0    0  0.00000000000E+00  0.00000000000E+00 -0.56106414404E+03  0.29631529926E+04  0.29095502546E+04 0.  0.
        2    1    3    3  502    0 -0.58596793914E+03 -0.38122558748E+03  0.10187774833E+04  0.12355561237E+04  0.25500000920E-02 0.  1.
       -2    1    3    3    0  502  0.58596793914E+03  0.38122558748E+03 -0.15798416273E+04  0.17275968690E+04  0.25500000920E-02 0. -1.
</event>
<event>
 5   0  0.3188375E-06  0.2801994E+04  0.7818609E-02  0.8302650E-01
        3   -1    0    0  501    0  0.00000000000E+00  0.00000000000E+00  0.20177134369E+04  0.20177134395E+04  0.10100000352E+00 0.  1.
       -3   -1    0    0    0  501  0.00000000000E+00  0.00000000000E+00 -0.97278059137E+03  0.97278059661E+03  0.10100000352E+00 0. -1.
    10030    2    1    2    0    0  0.00000000000E+00  0.00000000000E+00  0.10449328456E+04  0.29904940361E+04  0.28019939201E+04 0.  0.
        1    1    3    3  502    0  0.54504853399E+03 -0.46659911764E+03  0.18067472797E+04  0.19439980385E+04  0.50400001928E-02 0.  1.
       -1    1    3    3    0  502 -0.54504853399E+03  0.46659911764E+03 -0.76181443409E+03  0.10464959976E+04  0.50400001928E-02 0. -1.
</event>
<event>
 5   0  0.1001573E-05  0.2922280E+04  0.7818609E-02  0.8266279E-01
        2   -1    0    0  501    0  0.00000000000E+00  0.00000000000E+00  0.26853197205E+04  0.26853197205E+04  0.25500000920E-02 0. -1.
       -2   -1    0    0    0  501  0.00000000000E+00  0.00000000000E+00 -0.79503766775E+03  0.79503766776E+03  0.25500000920E-02 0.  1.
    10030    2    1    2    0    0  0.00000000000E+00  0.00000000000E+00  0.18902820528E+04  0.34803573883E+04  0.29222801562E+04 0.  0.
        1    1    3    3  502    0  0.12322665245E+04  0.74202062235E+03  0.12507711530E+04  0.19061751936E+04  0.50400001928E-02 0.  1.
       -1    1    3    3    0  502 -0.12322665245E+04 -0.74202062235E+03  0.63951089974E+03  0.15741821947E+04  0.50400001928E-02 0. -1.
</event>
<event>
 5   0  0.9505359E-06  0.2895917E+04  0.7818609E-02  0.8274093E-01
       -2   -1    0    0    0  501  0.00000000000E+00  0.00000000000E+00  0.15858494611E+04  0.15858494611E+04  0.25500000920E-02 0. -1.
        2   -1    0    0  501    0  0.00000000000E+00  0.00000000000E+00 -0.13220574573E+04  0.13220574573E+04  0.25500000920E-02 0.  1.
    10030    2    1    2    0    0  0.00000000000E+00  0.00000000000E+00  0.26379200381E+03  0.29079069184E+04  0.28959171992E+04 0.  0.
        4    1    3    3  502    0 -0.34796090338E+03 -0.11725891590E+04 -0.64625783481E+03  0.13833629054E+04  0.12699999809E+01 0.  1.
       -4    1    3    3    0  502  0.34796090338E+03  0.11725891590E+04  0.91004983862E+03  0.15245440130E+04  0.12699999809E+01 0. -1.
</event>
<event>
 5   0  0.9505359E-06  0.2940557E+04  0.7818609E-02  0.8260912E-01
        2   -1    0    0  501    0  0.00000000000E+00  0.00000000000E+00  0.17387426585E+04  0.17387426585E+04  0.25500000920E-02 0. -1.
       -2   -1    0    0    0  501  0.00000000000E+00  0.00000000000E+00 -0.12432656418E+04  0.12432656418E+04  0.25500000920E-02 0.  1.
    10030    2    1    2    0    0  0.00000000000E+00  0.00000000000E+00  0.49547701673E+03  0.29820083003E+04  0.29405570950E+04 0.  0.
        4    1    3    3  502    0 -0.56597704934E+03 -0.13569738911E+04  0.24465709388E+03  0.14904921563E+04  0.12699999809E+01 0. -1.
       -4    1    3    3    0  502  0.56597704934E+03  0.13569738911E+04  0.25081992285E+03  0.14915161441E+04  0.12699999809E+01 0.  1.
</event>
<event>
 5   0  0.9251510E-06  0.2898646E+04  0.7818609E-02  0.8273280E-01
       -2   -1    0    0    0  501  0.00000000000E+00  0.00000000000E+00  0.13788997682E+04  0.13788997682E+04  0.25500000920E-02 0. -1.
        2   -1    0    0  501    0  0.00000000000E+00  0.00000000000E+00 -0.15233432586E+04  0.15233432586E+04  0.25500000920E-02 0.  1.
    10030    2    1    2    0    0  0.00000000000E+00  0.00000000000E+00 -0.14444349038E+03  0.29022430268E+04  0.28986463504E+04 0.  0.
        2    1    3    3  502    0  0.37043502526E+03  0.13578615842E+04 -0.41837818776E+03  0.14683495830E+04  0.25500000920E-02 0.  1.
       -2    1    3    3    0  502 -0.37043502526E+03 -0.13578615842E+04  0.27393469737E+03  0.14338934438E+04  0.25500000920E-02 0. -1.
</event>
<event>
 5   0  0.9646321E-06  0.2875358E+04  0.7818609E-02  0.8280247E-01
        2   -1    0    0  501    0  0.00000000000E+00  0.00000000000E+00  0.12764051172E+04  0.12764051172E+04  0.25500000920E-02 0. -1.
       -2   -1    0    0    0  501  0.00000000000E+00  0.00000000000E+00 -0.16193295977E+04  0.16193295977E+04  0.25500000920E-02 0.  1.
    10030    2    1    2    0    0  0.00000000000E+00  0.00000000000E+00 -0.34292448044E+03  0.28957347149E+04  0.28753577759E+04 0.  0.
        3    1    3    3  502    0 -0.23940313625E+03 -0.53433903443E+03  0.11508884930E+04  0.12912692976E+04  0.10100000352E+00 0. -1.
       -3    1    3    3    0  502  0.23940313625E+03  0.53433903443E+03 -0.14938129735E+04  0.16044654173E+04  0.10100000352E+00 0.  1.
</event>
<event>
 5   0  0.3474078E-06  0.2090559E+04  0.7818609E-02  0.8565414E-01
       -1   -1    0    0    0  501  0.00000000000E+00  0.00000000000E+00  0.11733964790E+04  0.11733964790E+04  0.50400001928E-02 0.  1.
        1   -1    0    0  501    0  0.00000000000E+00  0.00000000000E+00 -0.93115115960E+03  0.93115115961E+03  0.50400001928E-02 0. -1.
    10030    2    1    2    0    0  0.00000000000E+00  0.00000000000E+00  0.24224531943E+03  0.21045476386E+04  0.20905592478E+04 0.  0.
        3    1    3    3  502    0 -0.25568126061E+03  0.16691211634E+03 -0.88525488652E+03  0.93643407986E+03  0.10100000352E+00 0. -1.
       -3    1    3    3    0  502  0.25568126061E+03 -0.16691211634E+03  0.11275002059E+04  0.11681135588E+04  0.10100000352E+00 0.  1.
</event>
<event>
 5   0  0.3746518E-06  0.2751212E+04  0.7818609E-02  0.8318577E-01
       -1   -1    0    0    0  501  0.00000000000E+00  0.00000000000E+00  0.15516272385E+04  0.15516272385E+04  0.50400001928E-02 0. -1.
        1   -1    0    0  501    0  0.00000000000E+00  0.00000000000E+00 -0.12195528496E+04  0.12195528496E+04  0.50400001928E-02 0.  1.
    10030    2    1    2    0    0  0.00000000000E+00  0.00000000000E+00  0.33207438886E+03  0.27711800881E+04  0.27512116751E+04 0.  0.
        4    1    3    3  502    0  0.60093594090E+03  0.82864288049E+03  0.10916831018E+04  0.14965114888E+04  0.12699999809E+01 0. -1.
       -4    1    3    3    0  502 -0.60093594090E+03 -0.82864288049E+03 -0.75960871291E+03  0.12746685993E+04  0.12699999809E+01 0.  1.
</event>
<event>
 5   0  0.9646321E-06  0.2793563E+04  0.7818609E-02  0.8305269E-01
       -2   -1    0    0    0  501  0.00000000000E+00  0.00000000000E+00  0.13108672396E+04  0.13108672396E+04  0.25500000920E-02 0.  1.
        2   -1    0    0  501    0  0.00000000000E+00  0.00000000000E+00 -0.14883270116E+04  0.14883270116E+04  0.25500000920E-02 0. -1.
    10030    2    1    2    0    0  0.00000000000E+00  0.00000000000E+00 -0.17745977197E+03  0.27991942513E+04  0.27935634028E+04 0.  0.
        3    1    3    3  502    0 -0.10149875752E+03 -0.83854733823E+03  0.10259581339E+04  0.13289295463E+04  0.10100000352E+00 0.  1.
       -3    1    3    3    0  502  0.10149875752E+03  0.83854733823E+03 -0.12034179059E+04  0.14702647050E+04  0.10100000352E+00 0. -1.
</event>
<event>
 5   0  0.9251510E-06  0.2928748E+04  0.7818609E-02  0.8264375E-01
       -2   -1    0    0    0  501  0.00000000000E+00  0.00000000000E+00  0.17152041428E+04  0.17152041428E+04  0.25500000920E-02 0.  1.
        2   -1    0    0  501    0  0.00000000000E+00  0.00000000000E+00 -0.12502248909E+04  0.12502248909E+04  0.25500000920E-02 0. -1.
    10030    2    1    2    0    0  0.00000000000E+00  0.00000000000E+00  0.46497925193E+03  0.29654290337E+04  0.29287477954E+04 0.  0.
        2    1    3    3  502    0  0.61463880635E+03  0.71345928298E+03  0.13679562958E+04  0.16607556828E+04  0.25500000920E-02 0.  1.
       -2    1    3    3    0  502 -0.61463880635E+03 -0.71345928298E+03 -0.90297704386E+03  0.13046733509E+04  0.25500000920E-02 0. -1.
</event>
<event>
 5   0  0.3564340E-06  0.2873741E+04  0.7818609E-02  0.8280733E-01
        1   -1    0    0  501    0  0.00000000000E+00  0.00000000000E+00  0.21924268502E+04  0.21924268502E+04  0.50400001928E-02 0. -1.
       -1   -1    0    0    0  501  0.00000000000E+00  0.00000000000E+00 -0.94169505445E+03  0.94169505446E+03  0.50400001928E-02 0.  1.
    10030    2    1    2    0    0  0.00000000000E+00  0.00000000000E+00  0.12507317957E+04  0.31341219046E+04  0.28737414790E+04 0.  0.
        1    1    3    3  502    0  0.44285567750E+03 -0.10149073541E+04  0.16239945815E+04  0.19655829897E+04  0.50400001928E-02 0. -1.
       -1    1    3    3    0  502 -0.44285567750E+03  0.10149073541E+04 -0.37326278578E+03  0.11685389150E+04  0.50400001928E-02 0.  1.
</event>
<event>
 5   0  0.1001573E-05  0.2840151E+04  0.7818609E-02  0.8290910E-01
        2   -1    0    0  501    0  0.00000000000E+00  0.00000000000E+00  0.20412417597E+04  0.20412417597E+04  0.25500000920E-02 0.  1.
       -2   -1    0    0    0  501  0.00000000000E+00  0.00000000000E+00 -0.98793537515E+03  0.98793537515E+03  0.25500000920E-02 0. -1.
    10030    2    1    2    0    0  0.00000000000E+00  0.00000000000E+00  0.10533063846E+04  0.30291771349E+04  0.28401513648E+04 0.  0.
        1    1    3    3  502    0  0.10537810363E+04 -0.74106405407E+03  0.11639003211E+04  0.17361723308E+04  0.50400001928E-02 0.  1.
       -1    1    3    3    0  502 -0.10537810363E+04  0.74106405407E+03 -0.11059393647E+03  0.12930048041E+04  0.50400001928E-02 0. -1.
</event>
<event>
 5   0  0.3649705E-06  0.2914824E+04  0.7818609E-02  0.8268481E-01
        1   -1    0    0  501    0  0.00000000000E+00  0.00000000000E+00  0.12526247078E+04  0.12526247078E+04  0.50400001928E-02 0.  1.
       -1   -1    0    0    0  501  0.00000000000E+00  0.00000000000E+00 -0.16956791749E+04  0.16956791749E+04  0.50400001928E-02 0. -1.
    10030    2    1    2    0    0  0.00000000000E+00  0.00000000000E+00 -0.44305446710E+03  0.29483038827E+04  0.29148239268E+04 0.  0.
        2    1    3    3  502    0 -0.13917323516E+04 -0.19337922584E+03 -0.61292813809E+03  0.15329694602E+04  0.25500000920E-02 0. -1.
       -2    1    3    3    0  502  0.13917323516E+04  0.19337922584E+03  0.16987367099E+03  0.14153344225E+04  0.25500000920E-02 0.  1.
</event>
<event>
 5   0  0.9360689E-06  0.2716001E+04  0.7818609E-02  0.8329832E-01
        2   -1    0    0  501    0  0.00000000000E+00  0.00000000000E+00  0.14660639527E+04  0.14660639527E+04  0.25500000920E-02 0. -1.
       -2   -1    0    0    0  501  0.00000000000E+00  0.00000000000E+00 -0.12579028230E+04  0.12579028230E+04  0.25500000920E-02 0.  1.
    10030    2    1    2    0    0  0.00000000000E+00  0.00000000000E+00  0.20816112972E+03  0.27239667758E+04  0.27160014616E+04 0.  0.
        5    1    3    3  502    0  0.88673084237E+03  0.49580531478E+03 -0.79968893959E+03  0.12929187860E+04  0.46999998093E+01 0.  1.
       -5    1    3    3    0  502 -0.88673084237E+03 -0.49580531478E+03  0.10078500693E+04  0.14310479898E+04  0.46999998093E+01 0. -1.
</event>
<event>
 5   0  0.3649705E-06  0.2928719E+04  0.7818609E-02  0.8264384E-01
        1   -1    0    0  501    0  0.00000000000E+00  0.00000000000E+00  0.14953866170E+04  0.14953866170E+04  0.50400001928E-02 0.  1.
       -1   -1    0    0    0  501  0.00000000000E+00  0.00000000000E+00 -0.14339756929E+04  0.14339756929E+04  0.50400001928E-02 0. -1.
    10030    2    1    2    0    0  0.00000000000E+00  0.00000000000E+00  0.61410924117E+02  0.29293623098E+04  0.29287185322E+04 0.  0.
        2    1    3    3  502    0  0.47751734440E+03  0.13806022176E+04  0.13203302572E+03  0.14668053781E+04  0.25500000920E-02 0. -1.
       -2    1    3    3    0  502 -0.47751734440E+03 -0.13806022176E+04 -0.70622101600E+02  0.14625569317E+04  0.25500000920E-02 0.  1.
</event>
<event>
 5   0  0.3474078E-06  0.2933641E+04  0.7818609E-02  0.8262938E-01
        1   -1    0    0  501    0  0.00000000000E+00  0.00000000000E+00  0.21030152487E+04  0.21030152487E+04  0.50400001928E-02 0. -1.
       -1   -1    0    0    0  501  0.00000000000E+00  0.00000000000E+00 -0.10230842856E+04  0.10230842856E+04  0.50400001928E-02 0.  1.
    10030    2    1    2    0    0  0.00000000000E+00  0.00000000000E+00  0.10799309632E+04  0.31260995343E+04  0.29336406415E+04 0.  0.
        3    1    3    3  502    0 -0.32885765090E+03 -0.25844732622E+03  0.20381228080E+04  0.20805977424E+04  0.10100000352E+00 0. -1.
       -3    1    3    3    0  502  0.32885765090E+03  0.25844732622E+03 -0.95819184489E+03  0.10455017919E+04  0.10100000352E+00 0.  1.
</event>
<event>
 5   0  0.3486236E-06  0.2902272E+04  0.7818609E-02  0.8272202E-01
        1   -1    0    0  501    0  0.00000000000E+00  0.00000000000E+00  0.15878107061E+04  0.15878107061E+04  0.50400001928E-02 0.  1.
       -1   -1    0    0    0  501  0.00000000000E+00  0.00000000000E+00 -0.13262261562E+04  0.13262261562E+04  0.50400001928E-02 0. -1.
    10030    2    1    2    0    0  0.00000000000E+00  0.00000000000E+00  0.26158454988E+03  0.29140368624E+04  0.29022722750E+04 0.  0.
        5    1    3    3  502    0  0.35257435261E+03 -0.67051251720E+03  0.13735000593E+04  0.15685726674E+04  0.46999998093E+01 0.  1.
       -5    1    3    3    0  502 -0.35257435261E+03  0.67051251720E+03 -0.11119155095E+04  0.13454641950E+04  0.46999998093E+01 0. -1.
</event>
<event>
 5   0  0.1001573E-05  0.2998203E+04  0.7818609E-02  0.8244244E-01
       -2   -1    0    0    0  501  0.00000000000E+00  0.00000000000E+00  0.13066847486E+04  0.13066847486E+04  0.25500000920E-02 0. -1.
        2   -1    0    0  501    0  0.00000000000E+00  0.00000000000E+00 -0.17198525588E+04  0.17198525588E+04  0.25500000920E-02 0.  1.
    10030    2    1    2    0    0  0.00000000000E+00  0.00000000000E+00 -0.41316781020E+03  0.30265373074E+04  0.29982028674E+04 0.  0.
        1    1    3    3  502    0  0.10757573522E+04 -0.49848321314E+03  0.71945457479E+03  0.13868504893E+04  0.50400001928E-02 0. -1.
       -1    1    3    3    0  502 -0.10757573522E+04  0.49848321314E+03 -0.11326223850E+04  0.16396868181E+04  0.50400001928E-02 0.  1.
</event>
<event>
 5   0  0.3474078E-06  0.2895955E+04  0.7818609E-02  0.8274082E-01
       -1   -1    0    0    0  501  0.00000000000E+00  0.00000000000E+00  0.19323546954E+04  0.19323546954E+04  0.50400001928E-02 0. -1.
        1   -1    0    0  501    0  0.00000000000E+00  0.00000000000E+00 -0.10850177807E+04  0.10850177807E+04  0.50400001928E-02 0.  1.
    10030    2    1    2    0    0  0.00000000000E+00  0.00000000000E+00  0.84733691471E+03  0.30173724760E+04  0.28959552504E+04 0.  0.
        3    1    3    3  502    0  0.12151476121E+04 -0.56622228346E+03  0.99382963214E+03  0.16687985922E+04  0.10100000352E+00 0.  1.
       -3    1    3    3    0  502 -0.12151476121E+04  0.56622228346E+03 -0.14649271743E+03  0.13485738838E+04  0.10100000352E+00 0. -1.
</event>
<event>
 5   0  0.9251510E-06  0.2946983E+04  0.7818609E-02  0.8259034E-01
        2   -1    0    0  501    0  0.00000000000E+00  0.00000000000E+00  0.14702659122E+04  0.14702659122E+04  0.25500000920E-02 0. -1.
       -2   -1    0    0    0  501  0.00000000000E+00  0.00000000000E+00 -0.14767243107E+04  0.14767243107E+04  0.25500000920E-02 0.  1.
    10030    2    1    2    0    0  0.00000000000E+00  0.00000000000E+00 -0.64583984927E+01  0.29469902228E+04  0.29469831460E+04 0.  0.
        2    1    3    3  502    0  0.62661399927E+03  0.13169797500E+04 -0.21322172635E+03  0.14739553150E+04  0.25500000920E-02 0. -1.
       -2    1    3    3    0  502 -0.62661399927E+03 -0.13169797500E+04  0.20676332786E+03  0.14730349079E+04  0.25500000920E-02 0.  1.
</event>
<event>
 5   0  0.3746518E-06  0.2915502E+04  0.7818609E-02  0.8268280E-01
       -1   -1    0    0    0  501  0.00000000000E+00  0.00000000000E+00  0.85950775343E+03  0.85950775344E+03  0.50400001928E-02 0. -1.
        1   -1    0    0  501    0  0.00000000000E+00  0.00000000000E+00 -0.24723889087E+04  0.24723889087E+04  0.50400001928E-02 0.  1.
    10030    2    1    2    0    0  0.00000000000E+00  0.00000000000E+00 -0.16128811553E+04  0.33318966621E+04  0.29155016286E+04 0.  0.
        4    1    3    3  502    0  0.71947178289E+03  0.82818988607E+03 -0.19034878968E+04  0.21969992990E+04  0.12699999809E+01 0.  1.
       -4    1    3    3    0  502 -0.71947178289E+03 -0.82818988607E+03  0.29060674151E+03  0.11348973631E+04  0.12699999809E+01 0. -1.
</event>
<event>
 5   0  0.3486236E-06  0.2831903E+04  0.7818609E-02  0.8293432E-01
        1   -1    0    0  501    0  0.00000000000E+00  0.00000000000E+00  0.16314032443E+04  0.16314032443E+04  0.50400001928E-02 0. -1.
       -1   -1    0    0    0  501  0.00000000000E+00  0.00000000000E+00 -0.12289531391E+04  0.12289531391E+04  0.50400001928E-02 0.  1.
    10030    2    1    2    0    0  0.00000000000E+00  0.00000000000E+00  0.40245010522E+03  0.28603563835E+04  0.28319026384E+04 0.  0.
        5    1    3    3  502    0 -0.50367539296E+03 -0.24784067880E+03  0.15142022609E+04  0.16149131495E+04  0.46999998093E+01 0. -1.
       -5    1    3    3    0  502  0.50367539296E+03  0.24784067880E+03 -0.11117521556E+04  0.12454432340E+04  0.46999998093E+01 0.  1.
</event>
<event>
 5   0  0.9360689E-06  0.2943667E+04  0.7818609E-02  0.8260003E-01
       -2   -1    0    0    0  501  0.00000000000E+00  0.00000000000E+00  0.14161167112E+04  0.14161167112E+04  0.25500000920E-02 0. -1.
        2   -1    0    0  501    0  0.00000000000E+00  0.00000000000E+00 -0.15297422894E+04  0.15297422894E+04  0.25500000920E-02 0.  1.
    10030    2    1    2    0    0  0.00000000000E+00  0.00000000000E+00 -0.11362557819E+03  0.29458590005E+04  0.29436668424E+04 0.  0.
        5    1    3    3  502    0  0.13515725391E+04 -0.39937416265E+03  0.36779492105E+03  0.14565518337E+04  0.46999998093E+01 0. -1.
       -5    1    3    3    0  502 -0.13515725391E+04  0.39937416265E+03 -0.48142049924E+03  0.14893071669E+04  0.46999998093E+01 0.  1.
</event>
<event>
 5   0  0.3486236E-06  0.2897134E+04  0.7818609E-02  0.8273731E-01
        1   -1    0    0  501    0  0.00000000000E+00  0.00000000000E+00  0.11483732858E+04  0.11483732858E+04  0.50400001928E-02 0. -1.
       -1   -1    0    0    0  501  0.00000000000E+00  0.00000000000E+00 -0.18272339272E+04  0.18272339272E+04  0.50400001928E-02 0.  1.
    10030    2    1    2    0    0  0.00000000000E+00  0.00000000000E+00 -0.67886064143E+03  0.29756072130E+04  0.28971341902E+04 0.  0.
        5    1    3    3  502    0 -0.32628785357E+03  0.42254707019E+02 -0.17883414482E+04  0.18183609237E+04  0.46999998093E+01 0.  1.
       -5    1    3    3    0  502  0.32628785357E+03 -0.42254707019E+02  0.11094808067E+04  0.11572462893E+04  0.46999998093E+01 0. -1.
</event>
<event>
 5   0  0.3649705E-06  0.2892512E+04  0.7818609E-02  0.8275109E-01
       -1   -1    0    0    0  501  0.00000000000E+00  0.00000000000E+00  0.11567285909E+04  0.11567285909E+04  0.50400001928E-02 0.  1.
        1   -1    0    0  501    0  0.00000000000E+00  0.00000000000E+00 -0.18082518629E+04  0.18082518629E+04  0.50400001928E-02 0. -1.
    10030    2    1    2    0    0  0.00000000000E+00  0.00000000000E+00 -0.65152327197E+03  0.29649804538E+04  0.28925121465E+04 0.  0.
        2    1    3    3  502    0 -0.84115016994E+03 -0.11744231677E+04 -0.25435102980E+03  0.14667984972E+04  0.25500000920E-02 0.  1.
       -2    1    3    3    0  502  0.84115016994E+03  0.11744231677E+04 -0.39717224217E+03  0.14981819566E+04  0.25500000920E-02 0. -1.
</event>
<event>
 5   0  0.1001573E-05  0.2697139E+04  0.7818609E-02  0.8335934E-01
        2   -1    0    0  501    0  0.00000000000E+00  0.00000000000E+00  0.15163463400E+04  0.15163463400E+04  0.25500000920E-02 0.  1.
       -2   -1    0    0    0  501  0.00000000000E+00  0.00000000000E+00 -0.11993566016E+04  0.11993566016E+04  0.25500000920E-02 0. -1.
    10030    2    1    2    0    0  0.00000000000E+00  0.00000000000E+00  0.31698973837E+03  0.27157029416E+04  0.26971392202E+04 0.  0.
        1    1    3    3  502    0 -0.99273992764E+02 -0.29243502684E+03  0.14802624979E+04  0.15121344627E+04  0.50400001928E-02 0.  1.
       -1    1    3    3    0  502  0.99273992764E+02  0.29243502684E+03 -0.11632727595E+04  0.12035684790E+04  0.50400001928E-02 0. -1.
</event>
<event>
 5   0  0.3746518E-06  0.2886386E+04  0.7818609E-02  0.8276940E-01
       -1   -1    0    0    0  501  0.00000000000E+00  0.00000000000E+00  0.18234883950E+04  0.18234883950E+04  0.50400001928E-02 0.  1.
        1   -1    0    0  501    0  0.00000000000E+00  0.00000000000E+00 -0.11422096189E+04  0.11422096189E+04  0.50400001928E-02 0. -1.
    10030    2    1    2    0    0  0.00000000000E+00  0.00000000000E+00  0.68127877609E+03  0.29656980139E+04  0.28863859650E+04 0.  0.
        4    1    3    3  502    0  0.11984531592E+04  0.76674446617E+03  0.91876549625E+02  0.14257033228E+04  0.12699999809E+01 0.  1.
       -4    1    3    3    0  502 -0.11984531592E+04 -0.76674446617E+03  0.58940222647E+03  0.15399946911E+04  0.12699999809E+01 0. -1.
</event>
<event>
 5   0  0.1001573E-05  0.2899783E+04  0.7818609E-02  0.8272942E-01
       -2   -1    0    0    0  501  0.00000000000E+00  0.00000000000E+00  0.25569089767E+04  0.25569089767E+04  0.25500000920E-02 0.  1.
        2   -1    0    0  501    0  0.00000000000E+00  0.00000000000E+00 -0.82215906972E+03  0.82215906972E+03  0.25500000920E-02 0. -1.
    10030    2    1    2    0    0  0.00000000000E+00  0.00000000000E+00  0.17347499070E+04  0.33790680464E+04  0.28997833751E+04 0.  0.
        1    1    3    3  502    0  0.14206040572E+03 -0.98332666933E+03 -0.36312927767E+03  0.10578163214E+04  0.50400001928E-02 0. -1.
       -1    1    3    3    0  502 -0.14206040572E+03  0.98332666933E+03  0.20978791846E+04  0.23212517250E+04  0.50400001928E-02 0.  1.
</event>
<event>
 5   0  0.1001573E-05  0.2908331E+04  0.7818609E-02  0.8270403E-01
       -2   -1    0    0    0  501  0.00000000000E+00  0.00000000000E+00  0.19619452473E+04  0.19619452473E+04  0.25500000920E-02 0. -1.
        2   -1    0    0  501    0  0.00000000000E+00  0.00000000000E+00 -0.10778067727E+04  0.10778067727E+04  0.25500000920E-02 0.  1.
    10030    2    1    2    0    0  0.00000000000E+00  0.00000000000E+00  0.88413847453E+03  0.30397520200E+04  0.29083313946E+04 0.  0.
        1    1    3    3  502    0  0.14212553128E+04  0.20020798858E+03  0.19796036171E+03  0.14488748075E+04  0.50400001928E-02 0. -1.
       -1    1    3    3    0  502 -0.14212553128E+04 -0.20020798858E+03  0.68617811282E+03  0.15908772125E+04  0.50400001928E-02 0.  1.
</event>
<event>
 5   0  0.3746518E-06  0.2899688E+04  0.7818609E-02  0.8272970E-01
       -1   -1    0    0    0  501  0.00000000000E+00  0.00000000000E+00  0.16392465190E+04  0.16392465190E+04  0.50400001928E-02 0. -1.
        1   -1    0    0  501    0  0.00000000000E+00  0.00000000000E+00 -0.12823255944E+04  0.12823255944E+04  0.50400001928E-02 0.  1.
    10030    2    1    2    0    0  0.00000000000E+00  0.00000000000E+00  0.35692092465E+03  0.29215721134E+04  0.28996880983E+04 0.  0.
        4    1    3    3  502    0 -0.28201120888E+03  0.12514363665E+04  0.85914990517E+03  0.15439441291E+04  0.12699999809E+01 0. -1.
       -4    1    3    3    0  502  0.28201120888E+03 -0.12514363665E+04 -0.50222898052E+03  0.13776279843E+04  0.12699999809E+01 0.  1.
</event>
<event>
 5   0  0.3474078E-06  0.2903672E+04  0.7818609E-02  0.8271786E-01
        1   -1    0    0  501    0  0.00000000000E+00  0.00000000000E+00  0.21830028051E+04  0.21830028051E+04  0.50400001928E-02 0.  1.
       -1   -1    0    0    0  501  0.00000000000E+00  0.00000000000E+00 -0.96556336376E+03  0.96556336377E+03  0.50400001928E-02 0. -1.
    10030    2    1    2    0    0  0.00000000000E+00  0.00000000000E+00  0.12174394414E+04  0.31485661689E+04  0.29036718352E+04 0.  0.
        3    1    3    3  502    0  0.31431037094E+03  0.14826227480E+03 -0.91979707758E+03  0.98325957179E+03  0.10100000352E+00 0. -1.
       -3    1    3    3    0  502 -0.31431037094E+03 -0.14826227480E+03  0.21372365189E+04  0.21653065971E+04  0.10100000352E+00 0.  1.
</event>
<event>
 5   0  0.9505359E-06  0.2908625E+04  0.7818609E-02  0.8270316E-01
       -2   -1    0    0    0  501  0.00000000000E+00  0.00000000000E+00  0.20421423386E+04  0.20421423386E+04  0.25500000920E-02 0. -1.
        2   -1    0    0  501    0  0.00000000000E+00  0.00000000000E+00 -0.10356890315E+04  0.10356890315E+04  0.25500000920E-02 0.  1.
    10030    2    1    2    0    0  0.00000000000E+00  0.00000000000E+00  0.10064533071E+04  0.30778313702E+04  0.29086247066E+04 0.  0.
        4    1    3    3  502    0  0.81204052018E+03 -0.77903379201E+03 -0.47162646548E+03  0.12201379395E+04  0.12699999809E+01 0.  1.
       -4    1    3    3    0  502 -0.81204052018E+03  0.77903379201E+03  0.14780797726E+04  0.18576934307E+04  0.12699999809E+01 0. -1.
</event>
<event>
 5   0  0.3746518E-06  0.2871794E+04  0.7818609E-02  0.8281319E-01
       -1   -1    0    0    0  501  0.00000000000E+00  0.00000000000E+00  0.13282717763E+04  0.13282717763E+04  0.50400001928E-02 0. -1.
        1   -1    0    0  501    0  0.00000000000E+00  0.00000000000E+00 -0.15522426663E+04  0.15522426663E+04  0.50400001928E-02 0.  1.
    10030    2    1    2    0    0  0.00000000000E+00  0.00000000000E+00 -0.22397088997E+03  0.28805144426E+04  0.28717939506E+04 0.  0.
        4    1    3    3  502    0 -0.72639186874E+03  0.33727513914E+03 -0.13074093491E+04  0.15332059501E+04  0.12699999809E+01 0.  1.
       -4    1    3    3    0  502  0.72639186874E+03 -0.33727513914E+03  0.10834384591E+04  0.13473084925E+04  0.12699999809E+01 0. -1.
</event>
<event>
 5   0  0.3564340E-06  0.2902391E+04  0.7818609E-02  0.8272166E-01
       -1   -1    0    0    0  501  0.00000000000E+00  0.00000000000E+00  0.11213644906E+04  0.11213644906E+04  0.50400001928E-02 0.  1.
        1   -1    0    0  501    0  0.00000000000E+00  0.00000000000E+00 -0.18780414879E+04  0.18780414879E+04  0.50400001928E-02 0. -1.
    10030    2    1    2    0    0  0.00000000000E+00  0.00000000000E+00 -0.75667699729E+03  0.29994059786E+04  0.29023914529E+04 0.  0.
        1    1    3    3  502    0  0.75282391248E+03 -0.43634964313E+03 -0.15785476618E+04  0.18024864978E+04  0.50400001928E-02 0. -1.
       -1    1    3    3    0  502 -0.75282391248E+03  0.43634964313E+03  0.82187066447E+03  0.11969194808E+04  0.50400001928E-02 0.  1.
</event>
<event>
 5   0  0.3486236E-06  0.2893555E+04  0.7818609E-02  0.8274798E-01
       -1   -1    0    0    0  501  0.00000000000E+00  0.00000000000E+00  0.12303940420E+04  0.12303940420E+04  0.50400001928E-02 0. -1.
        1   -1    0    0  501    0  0.00000000000E+00  0.00000000000E+00 -0.17012147304E+04  0.17012147304E+04  0.50400001928E-02 0.  1.
    10030    2    1    2    0    0  0.00000000000E+00  0.00000000000E+00 -0.47082068843E+03  0.29316087724E+04  0.28935545396E+04 0.  0.
        5    1    3    3  502    0  0.21822662265E+03  0.22307122109E+02  0.12134393144E+04  0.12331169962E+04  0.46999998093E+01 0. -1.
       -5    1    3    3    0  502 -0.21822662265E+03 -0.22307122109E+02 -0.16842600029E+04  0.16984917762E+04  0.46999998093E+01 0.  1.
</event>
<event>
 5   0  0.9505359E-06  0.2359085E+04  0.7818609E-02  0.8454982E-01
       -2   -1    0    0    0  501  0.00000000000E+00  0.00000000000E+00  0.17839695158E+04  0.17839695158E+04  0.25500000920E-02 0. -1.
        2   -1    0    0  501    0  0.00000000000E+00  0.00000000000E+00 -0.77990174329E+03  0.77990174329E+03  0.25500000920E-02 0.  1.
    10030    2    1    2    0    0  0.00000000000E+00  0.00000000000E+00  0.10040677726E+04  0.25638712591E+04  0.23590853612E+04 0.  0.
        4    1    3    3  502    0 -0.24201450947E+03 -0.28740085655E+03 -0.71312608628E+03  0.80605254355E+03  0.12699999809E+01 0.  1.
       -4    1    3    3    0  502  0.24201450947E+03  0.28740085655E+03  0.17171938588E+04  0.17578187156E+04  0.12699999809E+01 0. -1.
</event>
<event>
 5   0  0.9251510E-06  0.2929426E+04  0.7818609E-02  0.8264176E-01
       -2   -1    0    0    0  501  0.00000000000E+00  0.00000000000E+00  0.10342493600E+04  0.10342493600E+04  0.25500000920E-02 0.  1.
        2   -1    0    0  501    0  0.00000000000E+00  0.00000000000E+00 -0.20743394768E+04  0.20743394768E+04  0.25500000920E-02 0. -1.
    10030    2    1    2    0    0  0.00000000000E+00  0.00000000000E+00 -0.10400901169E+04  0.31085888368E+04  0.29294260710E+04 0.  0.
        2    1    3    3  502    0 -0.89519468774E+03 -0.47174429122E+03  0.60371656673E+03  0.11782995791E+04  0.25500000920E-02 0.  1.
       -2    1    3    3    0  502  0.89519468774E+03  0.47174429122E+03 -0.16438066836E+04  0.19302892577E+04  0.25500000920E-02 0. -1.
</event>
<event>
 5   0  0.3486236E-06  0.2945252E+04  0.7818609E-02  0.8259540E-01
        1   -1    0    0  501    0  0.00000000000E+00  0.00000000000E+00  0.28187253874E+04  0.28187253874E+04  0.50400001928E-02 0. -1.
       -1   -1    0    0    0  501  0.00000000000E+00  0.00000000000E+00 -0.76936443695E+03  0.76936443696E+03  0.50400001928E-02 0.  1.
    10030    2    1    2    0    0  0.00000000000E+00  0.00000000000E+00  0.20493609504E+04  0.35880898243E+04  0.29452518199E+04 0.  0.
        5    1    3    3  502    0  0.36764250147E+03  0.89919181390E+03  0.23729938602E+04  0.25641429129E+04  0.46999998093E+01 0. -1.
       -5    1    3    3    0  502 -0.36764250147E+03 -0.89919181390E+03 -0.32363290983E+03  0.10239469114E+04  0.46999998093E+01 0.  1.
</event>
<event>
 5   0  0.3564340E-06  0.2852036E+04  0.7818609E-02  0.8287293E-01
        1   -1    0    0  501    0  0.00000000000E+00  0.00000000000E+00  0.14961808718E+04  0.14961808718E+04  0.50400001928E-02 0. -1.
       -1   -1    0    0    0  501  0.00000000000E+00  0.00000000000E+00 -0.13591449619E+04  0.13591449619E+04  0.50400001928E-02 0.  1.
    10030    2    1    2    0    0  0.00000000000E+00  0.00000000000E+00  0.13703590990E+03  0.28553258337E+04  0.28520355495E+04 0.  0.
        1    1    3    3  502    0 -0.95500992977E+03  0.93654704376E+03  0.56341846114E+03  0.14514147214E+04  0.50400001928E-02 0.  1.
       -1    1    3    3    0  502  0.95500992977E+03 -0.93654704376E+03 -0.42638255124E+03  0.14039111123E+04  0.50400001928E-02 0. -1.
</event>
<event>
 5   0  0.9646321E-06  0.2771807E+04  0.7818609E-02  0.8312075E-01
        2   -1    0    0  501    0  0.00000000000E+00  0.00000000000E+00  0.12695775110E+04  0.12695775110E+04  0.25500000920E-02 0. -1.
       -2   -1    0    0    0  501  0.00000000000E+00  0.00000000000E+00 -0.15128878334E+04  0.15128878334E+04  0.25500000920E-02 0.  1.
    10030    2    1    2    0    0  0.00000000000E+00  0.00000000000E+00 -0.24331032238E+03  0.27824653445E+04  0.27718068981E+04 0.  0.
        3    1    3    3  502    0 -0.42778125156E+03  0.13163894684E+04 -0.19156726166E+03  0.13973460766E+04  0.10100000352E+00 0.  1.
       -3    1    3    3    0  502  0.42778125156E+03 -0.13163894684E+04 -0.51743060722E+02  0.13851192679E+04  0.10100000352E+00 0. -1.
</event>
<event>
 5   0  0.9505359E-06  0.2885068E+04  0.7818609E-02  0.8277334E-01
       -2   -1    0    0    0  501  0.00000000000E+00  0.00000000000E+00  0.12036515693E+04  0.12036515693E+04  0.25500000920E-02 0. -1.
        2   -1    0    0  501    0  0.00000000000E+00  0.00000000000E+00 -0.17288260641E+04  0.17288260641E+04  0.25500000920E-02 0.  1.
    10030    2    1    2    0    0  0.00000000000E+00  0.00000000000E+00 -0.52517449480E+03  0.29324776335E+04  0.28850679058E+04 0.  0.
        4    1    3    3  502    0 -0.13039695342E+04 -0.47160237868E+03 -0.66681228602E+03  0.15386310758E+04  0.12699999809E+01 0.  1.
       -4    1    3    3    0  502  0.13039695342E+04  0.47160237868E+03  0.14163779122E+03  0.13938465577E+04  0.12699999809E+01 0. -1.
</event>
<event>
 5   0  0.9505359E-06  0.2913897E+04  0.7818609E-02  0.8268755E-01
       -2   -1    0    0    0  501  0.00000000000E+00  0.00000000000E+00  0.88703278668E+03  0.88703278668E+03  0.25500000920E-02 0.  1.
        2   -1    0    0  501    0  0.00000000000E+00  0.00000000000E+00 -0.23930334926E+04  0.23930334926E+04  0.25500000920E-02 0. -1.
    10030    2    1    2    0    0  0.00000000000E+00  0.00000000000E+00 -0.15060007059E+04  0.32800662793E+04  0.29138971619E+04 0.  0.
        4    1    3    3  502    0 -0.18575058291E+03 -0.12274196589E+04  0.10548672198E+03  0.12458697201E+04  0.12699999809E+01 0.  1.
       -4    1    3    3    0  502  0.18575058291E+03  0.12274196589E+04 -0.16114874279E+04  0.20341965592E+04  0.12699999809E+01 0. -1.
</event>
<event>
 5   0  0.3474078E-06  0.2657616E+04  0.7818609E-02  0.8348890E-01
        1   -1    0    0  501    0  0.00000000000E+00  0.00000000000E+00  0.15345118287E+04  0.15345118287E+04  0.50400001928E-02 0.  1.
       -1   -1    0    0    0  501  0.00000000000E+00  0.00000000000E+00 -0.11506789761E+04  0.11506789762E+04  0.50400001928E-02 0. -1.
    10030    2    1    2    0    0  0.00000000000E+00  0.00000000000E+00  0.38383285258E+03  0.26851908049E+04  0.26576158488E+04 0.  0.
        3    1    3    3  502    0 -0.10157515929E+04 -0.81571314760E+03  0.45653316444E+03  0.13804208699E+04  0.10100000352E+00 0.  1.
       -3    1    3    3    0  502  0.10157515929E+04  0.81571314760E+03 -0.72700311856E+02  0.13047699350E+04  0.10100000352E+00 0. -1.
</event>
<event>
 5   0  0.3474078E-06  0.2889666E+04  0.7818609E-02  0.8275959E-01
       -1   -1    0    0    0  501  0.00000000000E+00  0.00000000000E+00  0.11136607743E+04  0.11136607744E+04  0.50400001928E-02 0.  1.
        1   -1    0    0  501    0  0.00000000000E+00  0.00000000000E+00 -0.18744869673E+04  0.18744869673E+04  0.50400001928E-02 0. -1.
    10030    2    1    2    0    0  0.00000000000E+00  0.00000000000E+00 -0.76082619292E+03  0.29881477416E+04  0.28896661451E+04 0.  0.
        3    1    3    3  502    0 -0.17596185330E+03  0.87461678170E+03  0.79481645447E+03  0.11948432094E+04  0.10100000352E+00 0.  1.
       -3    1    3    3    0  502  0.17596185330E+03 -0.87461678170E+03 -0.15556426474E+04  0.17933045322E+04  0.10100000352E+00 0. -1.
</event>
<event>
 5   0  0.3564340E-06  0.2906316E+04  0.7818609E-02  0.8271001E-01
        1   -1    0    0  501    0  0.00000000000E+00  0.00000000000E+00  0.17231786303E+04  0.17231786303E+04  0.50400001928E-02 0. -1.
       -1   -1    0    0    0  501  0.00000000000E+00  0.00000000000E+00 -0.12254492115E+04  0.12254492115E+04  0.50400001928E-02 0.  1.
    10030    2    1    2    0    0  0.00000000000E+00  0.00000000000E+00  0.49772941882E+03  0.29486278418E+04  0.29063158078E+04 0.  0.
        1    1    3    3  502    0  0.10340233953E+03  0.20894377994E+02 -0.12215592173E+04  0.12261058439E+04  0.50400001928E-02 0.  1.
       -1    1    3    3    0  502 -0.10340233953E+03 -0.20894377994E+02  0.17192886362E+04  0.17225219979E+04  0.50400001928E-02 0. -1.
</event>
<event>
 5   0  0.3649705E-06  0.2929417E+04  0.7818609E-02  0.8264179E-01
       -1   -1    0    0    0  501  0.00000000000E+00  0.00000000000E+00  0.72440231270E+03  0.72440231272E+03  0.50400001928E-02 0. -1.
        1   -1    0    0  501    0  0.00000000000E+00  0.00000000000E+00 -0.29615733809E+04  0.29615733809E+04  0.50400001928E-02 0.  1.
    10030    2    1    2    0    0  0.00000000000E+00  0.00000000000E+00 -0.22371710682E+04  0.36859756937E+04  0.29294167381E+04 0.  0.
        2    1    3    3  502    0  0.33881446137E+03 -0.49565714679E+03  0.56245496029E+03  0.82269485762E+03  0.25500000920E-02 0. -1.
       -2    1    3    3    0  502 -0.33881446137E+03  0.49565714679E+03 -0.27996260285E+04  0.28632808360E+04  0.25500000920E-02 0.  1.
</event>
<event>
 5   0  0.9646321E-06  0.2920807E+04  0.7818609E-02  0.8266714E-01
       -2   -1    0    0    0  501  0.00000000000E+00  0.00000000000E+00  0.85680486406E+03  0.85680486407E+03  0.25500000920E-02 0. -1.
        2   -1    0    0  501    0  0.00000000000E+00  0.00000000000E+00 -0.24892225411E+04  0.24892225411E+04  0.25500000920E-02 0.  1.
    10030    2    1    2    0    0  0.00000000000E+00  0.00000000000E+00 -0.16324176770E+04  0.33460274052E+04  0.29208067248E+04 0.  0.
        3    1    3    3  502    0  0.10399706787E+03  0.45755210116E+03  0.76809958838E+03  0.90008127592E+03  0.10100000352E+00 0. -1.
       -3    1    3    3    0  502 -0.10399706787E+03 -0.45755210116E+03 -0.24005172654E+04  0.24459461292E+04  0.10100000352E+00 0.  1.
</event>
<event>
 5   0  0.9646321E-06  0.2849418E+04  0.7818609E-02  0.8288088E-01
        2   -1    0    0  501    0  0.00000000000E+00  0.00000000000E+00  0.12836810616E+04  0.12836810616E+04  0.25500000920E-02 0.  1.
       -2   -1    0    0    0  501  0.00000000000E+00  0.00000000000E+00 -0.15812310027E+04  0.15812310027E+04  0.25500000920E-02 0. -1.
    10030    2    1    2    0    0  0.00000000000E+00  0.00000000000E+00 -0.29754994107E+03  0.28649120643E+04  0.28494183913E+04 0.  0.
        3    1    3    3  502    0  0.11654028100E+04  0.62890857123E+03  0.37954065132E+03  0.13775851396E+04  0.10100000352E+00 0.  1.
       -3    1    3    3    0  502 -0.11654028100E+04 -0.62890857123E+03 -0.67709059239E+03  0.14873269248E+04  0.10100000352E+00 0. -1.
</event>
<event>
 5   0  0.3474078E-06  0.2752068E+04  0.7818609E-02  0.8318306E-01
       -1   -1    0    0    0  501  0.00000000000E+00  0.00000000000E+00  0.12726251620E+04  0.12726251621E+04  0.50400001928E-02 0.  1.
        1   -1    0    0  501    0  0.00000000000E+00  0.00000000000E+00 -0.14878453328E+04  0.14878453328E+04  0.50400001928E-02 0. -1.
    10030    2    1    2    0    0  0.00000000000E+00  0.00000000000E+00 -0.21522017077E+03  0.27604704949E+04  0.27520678827E+04 0.  0.
        3    1    3    3  502    0  0.46558459754E+03  0.10200397227E+04  0.69245883924E+03  0.13178578480E+04  0.10100000352E+00 0.  1.
       -3    1    3    3    0  502 -0.46558459754E+03 -0.10200397227E+04 -0.90767901000E+03  0.14426126468E+04  0.10100000352E+00 0. -1.
</event>
<event>
 5   0  0.9251510E-06  0.2908006E+04  0.7818609E-02  0.8270499E-01
       -2   -1    0    0    0  501  0.00000000000E+00  0.00000000000E+00  0.12513866931E+04  0.12513866931E+04  0.25500000920E-02 0.  1.
        2   -1    0    0  501    0  0.00000000000E+00  0.00000000000E+00 -0.16894254024E+04  0.16894254024E+04  0.25500000920E-02 0. -1.
    10030    2    1    2    0    0  0.00000000000E+00  0.00000000000E+00 -0.43803870931E+03  0.29408120956E+04  0.29080058237E+04 0.  0.
        2    1    3    3  502    0 -0.21310122883E+03 -0.43705143266E+03 -0.16047694583E+04  0.16768157629E+04  0.25500000920E-02 0. -1.
       -2    1    3    3    0  502  0.21310122883E+03  0.43705143266E+03  0.11667307489E+04  0.12639963327E+04  0.25500000920E-02 0.  1.
</event>
<event>
 5   0  0.1001573E-05  0.2880068E+04  0.7818609E-02  0.8278833E-01
       -2   -1    0    0    0  501  0.00000000000E+00  0.00000000000E+00  0.20916650383E+04  0.20916650383E+04  0.25500000920E-02 0. -1.
        2   -1    0    0  501    0  0.00000000000E+00  0.00000000000E+00 -0.99141002816E+03  0.99141002816E+03  0.25500000920E-02 0.  1.
    10030    2    1    2    0    0  0.00000000000E+00  0.00000000000E+00  0.11002550101E+04  0.30830750665E+04  0.28800678426E+04 0.  0.
        1    1    3    3  502    0  0.38837758545E+03  0.57122959891E+03 -0.80248573635E+03  0.10588313183E+04  0.50400001928E-02 0.  1.
       -1    1    3    3    0  502 -0.38837758545E+03 -0.57122959891E+03  0.19027407465E+04  0.20242437482E+04  0.50400001928E-02 0. -1.
</event>
<event>
 5   0  0.9505359E-06  0.2849290E+04  0.7818609E-02  0.8288127E-01
        2   -1    0    0  501    0  0.00000000000E+00  0.00000000000E+00  0.19697878899E+04  0.19697878899E+04  0.25500000920E-02 0.  1.
       -2   -1    0    0    0  501  0.00000000000E+00  0.00000000000E+00 -0.10303716691E+04  0.10303716691E+04  0.25500000920E-02 0. -1.
    10030    2    1    2    0    0  0.00000000000E+00  0.00000000000E+00  0.93941622082E+03  0.30001595590E+04  0.28492901824E+04 0.  0.
        4    1    3    3  502    0  0.10178530332E+03 -0.49716191046E+03  0.18713902992E+04  0.19389774310E+04  0.12699999809E+01 0.  1.
       -4    1    3    3    0  502 -0.10178530332E+03  0.49716191046E+03 -0.93197407836E+03  0.10611821280E+04  0.12699999809E+01 0. -1.
</event>
<event>
 5   0  0.3486236E-06  0.2886050E+04  0.7818609E-02  0.8277040E-01
        1   -1    0    0  501    0  0.00000000000E+00  0.00000000000E+00  0.11311093860E+04  0.11311093860E+04  0.50400001928E-02 0.  1.
       -1   -1    0    0    0  501  0.00000000000E+00  0.00000000000E+00 -0.18409542869E+04  0.18409542869E+04  0.50400001928E-02 0. -1.
    10030    2    1    2    0    0  0.00000000000E+00  0.00000000000E+00 -0.70984490094E+03  0.29720636729E+04  0.28860496691E+04 0.  0.
        5    1    3    3  502    0  0.93698188541E+03  0.55367665086E+03 -0.13306880129E+04  0.17190827685E+04  0.46999998093E+01 0. -1.
       -5    1    3    3    0  502 -0.93698188541E+03 -0.55367665086E+03  0.62084311193E+03  0.12529809045E+04  0.46999998093E+01 0.  1.
</event>
<event>
 5   0  0.1001573E-05  0.2810419E+04  0.7818609E-02  0.8300041E-01
       -2   -1    0    0    0  501  0.00000000000E+00  0.00000000000E+00  0.91019236241E+03  0.91019236242E+03  0.25500000920E-02 0. -1.
        2   -1    0    0  501    0  0.00000000000E+00  0.00000000000E+00 -0.21694465832E+04  0.21694465832E+04  0.25500000920E-02 0.  1.
    10030    2    1    2    0    0  0.00000000000E+00  0.00000000000E+00 -0.12592542208E+04  0.30796389456E+04  0.28104189799E+04 0.  0.
        1    1    3    3  502    0  0.68484205643E+03 -0.91271970076E+03 -0.15282765687E+04  0.19072742762E+04  0.50400001928E-02 0. -1.
       -1    1    3    3    0  502 -0.68484205643E+03  0.91271970076E+03  0.26902234786E+03  0.11723646694E+04  0.50400001928E-02 0.  1.
</event>
<event>
 5   0  0.9646321E-06  0.2931921E+04  0.7818609E-02  0.8263443E-01
        2   -1    0    0  501    0  0.00000000000E+00  0.00000000000E+00  0.14013726036E+04  0.14013726036E+04  0.25500000920E-02 0. -1.
       -2   -1    0    0    0  501  0.00000000000E+00  0.00000000000E+00 -0.15335248807E+04  0.15335248807E+04  0.25500000920E-02 0.  1.
    10030    2    1    2    0    0  0.00000000000E+00  0.00000000000E+00 -0.13215227715E+03  0.29348974843E+04  0.29319207047E+04 0.  0.
        3    1    3    3  502    0 -0.14133750169E+04 -0.34192478532E+03 -0.25200175510E+03  0.14758205826E+04  0.10100000352E+00 0.  1.
       -3    1    3    3    0  502  0.14133750169E+04  0.34192478532E+03  0.11984947795E+03  0.14590769016E+04  0.10100000352E+00 0. -1.
</event>
<event>
 5   0  0.3746518E-06  0.2759571E+04  0.7818609E-02  0.8315931E-01
        1   -1    0    0  501    0  0.00000000000E+00  0.00000000000E+00  0.16382699519E+04  0.16382699519E+04  0.50400001928E-02 0.  1.
       -1   -1    0    0    0  501  0.00000000000E+00  0.00000000000E+00 -0.11620841879E+04  0.11620841879E+04  0.50400001928E-02 0. -1.
    10030    2    1    2    0    0  0.00000000000E+00  0.00000000000E+00  0.47618576399E+03  0.28003541398E+04  0.27595706960E+04 0.  0.
        4    1    3    3  502    0 -0.11000966623E+04  0.50930693835E+03 -0.43058387379E+03  0.12864720398E+04  0.12699999809E+01 0. -1.
       -4    1    3    3    0  502  0.11000966623E+04 -0.50930693835E+03  0.90676963778E+03  0.15138821000E+04  0.12699999809E+01 0.  1.
</event>
<event>
 5   0  0.9360689E-06  0.2843537E+04  0.7818609E-02  0.8289878E-01
       -2   -1    0    0    0  501  0.00000000000E+00  0.00000000000E+00  0.10846385797E+04  0.10846385797E+04  0.25500000920E-02 0. -1.
        2   -1    0    0  501    0  0.00000000000E+00  0.00000000000E+00 -0.18636864839E+04  0.18636864839E+04  0.25500000920E-02 0.  1.
    10030    2    1    2    0    0  0.00000000000E+00  0.00000000000E+00 -0.77904790421E+03  0.29483250636E+04  0.28435374173E+04 0.  0.
        5    1    3    3  502    0 -0.28708949597E+03 -0.45267703231E+03  0.97584301288E+03  0.11133860741E+04  0.46999998093E+01 0. -1.
       -5    1    3    3    0  502  0.28708949597E+03  0.45267703231E+03 -0.17548909171E+04  0.18349389895E+04  0.46999998093E+01 0.  1.
</event>
<event>
 5   0  0.9251510E-06  0.2889487E+04  0.7818609E-02  0.8276012E-01
        2   -1    0    0  501    0  0.00000000000E+00  0.00000000000E+00  0.22309489197E+04  0.22309489197E+04  0.25500000920E-02 0.  1.
       -2   -1    0    0    0  501  0.00000000000E+00  0.00000000000E+00 -0.93560333727E+03  0.93560333728E+03  0.25500000920E-02 0. -1.
    10030    2    1    2    0    0  0.00000000000E+00  0.00000000000E+00  0.12953455824E+04  0.31665522570E+04  0.28894866357E+04 0.  0.
        2    1    3    3  502    0 -0.43130949014E+03 -0.26566306469E+03 -0.83509113485E+03  0.97671999250E+03  0.25500000920E-02 0. -1.
       -2    1    3    3    0  502  0.43130949014E+03  0.26566306469E+03  0.21304367173E+04  0.21898322645E+04  0.25500000920E-02 0.  1.
</event>
<event>
 5   0  0.9251510E-06  0.2713288E+04  0.7818609E-02  0.8330706E-01
       -2   -1    0    0    0  501  0.00000000000E+00  0.00000000000E+00  0.10524149617E+04  0.10524149617E+04  0.25500000920E-02 0.  1.
        2   -1    0    0  501    0  0.00000000000E+00  0.00000000000E+00 -0.17488182878E+04  0.17488182878E+04  0.25500000920E-02 0. -1.
    10030    2    1    2    0    0  0.00000000000E+00  0.00000000000E+00 -0.69640332607E+03  0.28012332495E+04  0.27132876968E+04 0.  0.
        2    1    3    3  502    0 -0.22499129663E+03  0.87854262941E+03  0.69347395399E+03  0.11416498413E+04  0.25500000920E-02 0.  1.
       -2    1    3    3    0  502  0.22499129663E+03 -0.87854262941E+03 -0.13898772801E+04  0.16595834082E+04  0.25500000920E-02 0. -1.
</event>
<event>
 5   0  0.3474078E-06  0.2875895E+04  0.7818609E-02  0.8280086E-01
        1   -1    0    0  501    0  0.00000000000E+00  0.00000000000E+00  0.10328300087E+04  0.10328300088E+04  0.50400001928E-02 0. -1.
       -1   -1    0    0    0  501  0.00000000000E+00  0.00000000000E+00 -0.20019687865E+04  0.20019687865E+04  0.50400001928E-02 0.  1.
    10030    2    1    2    0    0  0.00000000000E+00  0.00000000000E+00 -0.96913877777E+03  0.30347987953E+04  0.28758952966E+04 0.  0.
        3    1    3    3  502    0 -0.93795147143E+03  0.63945763557E+03 -0.14159670644E+04  0.18148338128E+04  0.10100000352E+00 0.  1.
       -3    1    3    3    0  502  0.93795147143E+03 -0.63945763557E+03  0.44682828666E+03  0.12199649824E+04  0.10100000352E+00 0. -1.
</event>
<event>
 5   0  0.3649705E-06  0.2884913E+04  0.7818609E-02  0.8277380E-01
        1   -1    0    0  501    0  0.00000000000E+00  0.00000000000E+00  0.19613421390E+04  0.19613421391E+04  0.50400001928E-02 0.  1.
       -1   -1    0    0    0  501  0.00000000000E+00  0.00000000000E+00 -0.10608455456E+04  0.10608455456E+04  0.50400001928E-02 0. -1.
    10030    2    1    2    0    0  0.00000000000E+00  0.00000000000E+00  0.90049659347E+03  0.30221876846E+04  0.28849132199E+04 0.  0.
        2    1    3    3  502    0 -0.19429232446E+03 -0.29219277491E+03  0.19159502217E+04  0.19478170800E+04  0.25500000920E-02 0.  1.
       -2    1    3    3    0  502  0.19429232446E+03  0.29219277491E+03 -0.10154536282E+04  0.10743706047E+04  0.25500000920E-02 0. -1.
</event>
<event>
 5   0  0.1001573E-05  0.2897768E+04  0.7818609E-02  0.8273542E-01
       -2   -1    0    0    0  501  0.00000000000E+00  0.00000000000E+00  0.13503583186E+04  0.13503583186E+04  0.25500000920E-02 0.  1.
        2   -1    0    0  501    0  0.00000000000E+00  0.00000000000E+00 -0.15545985305E+04  0.15545985305E+04  0.25500000920E-02 0. -1.
    10030    2    1    2    0    0  0.00000000000E+00  0.00000000000E+00 -0.20424021194E+03  0.29049568491E+04  0.28977681466E+04 0.  0.
        1    1    3    3  502    0 -0.63002800729E+03  0.11636000816E+04 -0.69380852771E+03  0.14940785498E+04  0.50400001928E-02 0. -1.
       -1    1    3    3    0  502  0.63002800729E+03 -0.11636000816E+04  0.48956831577E+03  0.14108782994E+04  0.50400001928E-02 0.  1.
</event>
<event>
 5   0  0.3649705E-06  0.2889872E+04  0.7818609E-02  0.8275897E-01
        1   -1    0    0  501    0  0.00000000000E+00  0.00000000000E+00  0.14490329754E+04  0.14490329754E+04  0.50400001928E-02 0.  1.
       -1   -1    0    0    0  501  0.00000000000E+00  0.00000000000E+00 -0.14408501296E+04  0.14408501296E+04  0.50400001928E-02 0. -1.
    10030    2    1    2    0    0  0.00000000000E+00  0.00000000000E+00  0.81828458266E+01  0.28898831050E+04  0.28898715199E+04 0.  0.
        2    1    3    3  502    0 -0.78004602603E+03  0.96545506005E+03  0.74386737721E+03  0.14470362644E+04  0.25500000920E-02 0.  1.
       -2    1    3    3    0  502  0.78004602603E+03 -0.96545506005E+03 -0.73568453138E+03  0.14428468406E+04  0.25500000920E-02 0. -1.
</event>
<event>
 5   0  0.3486236E-06  0.2774412E+04  0.7818609E-02  0.8311257E-01
       -1   -1    0    0    0  501  0.00000000000E+00  0.00000000000E+00  0.15378612786E+04  0.15378612786E+04  0.50400001928E-02 0. -1.
        1   -1    0    0  501    0  0.00000000000E+00  0.00000000000E+00 -0.12513097691E+04  0.12513097691E+04  0.50400001928E-02 0.  1.
    10030    2    1    2    0    0  0.00000000000E+00  0.00000000000E+00  0.28655150947E+03  0.27891710477E+04  0.27744122559E+04 0.  0.
        5    1    3    3  502    0  0.81427048896E+03 -0.27519626569E+03 -0.95134573567E+03  0.12821272217E+04  0.46999998093E+01 0.  1.
       -5    1    3    3    0  502 -0.81427048896E+03  0.27519626569E+03  0.12378972451E+04  0.15070438260E+04  0.46999998093E+01 0. -1.
</event>
<event>
 5   0  0.9360689E-06  0.2954254E+04  0.7818609E-02  0.8256916E-01
       -2   -1    0    0    0  501  0.00000000000E+00  0.00000000000E+00  0.18509169911E+04  0.18509169911E+04  0.25500000920E-02 0. -1.
        2   -1    0    0  501    0  0.00000000000E+00  0.00000000000E+00 -0.11788229815E+04  0.11788229815E+04  0.25500000920E-02 0.  1.
    10030    2    1    2    0    0  0.00000000000E+00  0.00000000000E+00  0.67209400961E+03  0.30297399726E+04  0.29542535341E+04 0.  0.
        5    1    3    3  502    0  0.37950430567E+03  0.13813080282E+04 -0.33501880247E+02  0.14328921288E+04  0.46999998093E+01 0.  1.
       -5    1    3    3    0  502 -0.37950430567E+03 -0.13813080282E+04  0.70559588986E+03  0.15968478439E+04  0.46999998093E+01 0. -1.
</event>
<event>
 5   0  0.3649705E-06  0.3286197E+04  0.7818609E-02  0.8166416E-01
        1   -1    0    0  501    0  0.00000000000E+00  0.00000000000E+00  0.90405871505E+03  0.90405871507E+03  0.50400001928E-02 0.  1.
       -1   -1    0    0    0  501  0.00000000000E+00  0.00000000000E+00 -0.29862803703E+04  0.29862803703E+04  0.50400001928E-02 0. -1.
    10030    2    1    2    0    0  0.00000000000E+00  0.00000000000E+00 -0.20822216552E+04  0.38903390854E+04  0.32861970692E+04 0.  0.
        2    1    3    3  502    0 -0.65502063356E+03 -0.12555960589E+04 -0.20274719326E+04  0.24730984475E+04  0.25500000920E-02 0. -1.
       -2    1    3    3    0  502  0.65502063356E+03  0.12555960589E+04 -0.54749722656E+02  0.14172406379E+04  0.25500000920E-02 0.  1.
</event>
<event>
 5   0  0.3474078E-06  0.2808196E+04  0.7818609E-02  0.8300728E-01
        1   -1    0    0  501    0  0.00000000000E+00  0.00000000000E+00  0.11363713508E+04  0.11363713508E+04  0.50400001928E-02 0.  1.
       -1   -1    0    0    0  501  0.00000000000E+00  0.00000000000E+00 -0.17349001714E+04  0.17349001714E+04  0.50400001928E-02 0. -1.
    10030    2    1    2    0    0  0.00000000000E+00  0.00000000000E+00 -0.59852882065E+03  0.28712715222E+04  0.28081957562E+04 0.  0.
        3    1    3    3  502    0  0.50362415453E+03  0.12433876715E+04 -0.72311211814E+03  0.15239886273E+04  0.10100000352E+00 0. -1.
       -3    1    3    3    0  502 -0.50362415453E+03 -0.12433876715E+04  0.12458329749E+03  0.13472828949E+04  0.10100000352E+00 0.  1.
</event>
<event>
 5   0  0.3486236E-06  0.2917844E+04  0.7818609E-02  0.8267588E-01
        1   -1    0    0  501    0  0.00000000000E+00  0.00000000000E+00  0.65412367272E+03  0.65412367274E+03  0.50400001928E-02 0.  1.
       -1   -1    0    0    0  501  0.00000000000E+00  0.00000000000E+00 -0.32539000170E+04  0.32539000170E+04  0.50400001928E-02 0. -1.
    10030    2    1    2    0    0  0.00000000000E+00  0.00000000000E+00 -0.25997763443E+04  0.39080236897E+04  0.29178437448E+04 0.  0.
        5    1    3    3  502    0  0.10118761100E+04 -0.32907209392E+03 -0.26367273266E+04  0.28433316356E+04  0.46999998093E+01 0. -1.
       -5    1    3    3    0  502 -0.10118761100E+04  0.32907209392E+03  0.36950982334E+02  0.10646920541E+04  0.46999998093E+01 0.  1.
</event>
<event>
 5   0  0.9251510E-06  0.2923609E+04  0.7818609E-02  0.8265888E-01
        2   -1    0    0  501    0  0.00000000000E+00  0.00000000000E+00  0.14349402451E+04  0.14349402451E+04  0.25500000920E-02 0. -1.
       -2   -1    0    0    0  501  0.00000000000E+00  0.00000000000E+00 -0.14891717498E+04  0.14891717498E+04  0.25500000920E-02 0.  1.
    10030    2    1    2    0    0  0.00000000000E+00  0.00000000000E+00 -0.54231504712E+02  0.29241119948E+04  0.29236090543E+04 0.  0.
        2    1    3    3  502    0 -0.41018233331E+03  0.12293109841E+04 -0.70355852414E+03  0.14746015187E+04  0.25500000920E-02 0.  1.
       -2    1    3    3    0  502  0.41018233331E+03 -0.12293109841E+04  0.64932701942E+03  0.14495104761E+04  0.25500000920E-02 0. -1.
</event>
<event>
 5   0  0.1001573E-05  0.2880609E+04  0.7818609E-02  0.8278670E-01
        2   -1    0    0  501    0  0.00000000000E+00  0.00000000000E+00  0.16926593707E+04  0.16926593707E+04  0.25500000920E-02 0.  1.
       -2   -1    0    0    0  501  0.00000000000E+00  0.00000000000E+00 -0.12255727466E+04  0.12255727466E+04  0.25500000920E-02 0. -1.
    10030    2    1    2    0    0  0.00000000000E+00  0.00000000000E+00  0.46708662413E+03  0.29182321173E+04  0.28806090981E+04 0.  0.
        1    1    3    3  502    0  0.12717617209E+03  0.90037949992E+03  0.13651009977E+04  0.16402310071E+04  0.50400001928E-02 0.  1.
       -1    1    3    3    0  502 -0.12717617209E+03 -0.90037949992E+03 -0.89801437358E+03  0.12780011103E+04  0.50400001928E-02 0. -1.
</event>
<event>
 5   0  0.3474078E-06  0.3098319E+04  0.7818609E-02  0.8216199E-01
        1   -1    0    0  501    0  0.00000000000E+00  0.00000000000E+00  0.16876717292E+04  0.16876717292E+04  0.50400001928E-02 0. -1.
       -1   -1    0    0    0  501  0.00000000000E+00  0.00000000000E+00 -0.14220157419E+04  0.14220157419E+04  0.50400001928E-02 0.  1.
    10030    2    1    2    0    0  0.00000000000E+00  0.00000000000E+00  0.26565598723E+03  0.31096874711E+04  0.30983193935E+04 0.  0.
        3    1    3    3  502    0 -0.12103687114E+04 -0.83166462517E+03 -0.36217250470E+03  0.15125565773E+04  0.10100000352E+00 0.  1.
       -3    1    3    3    0  502  0.12103687114E+04  0.83166462517E+03  0.62782849194E+03  0.15971308938E+04  0.10100000352E+00 0. -1.
</event>
<event>
 5   0  0.1001573E-05  0.2905505E+04  0.7818609E-02  0.8271241E-01
        2   -1    0    0  501    0  0.00000000000E+00  0.00000000000E+00  0.17406413961E+04  0.17406413961E+04  0.25500000920E-02 0.  1.
       -2   -1    0    0    0  501  0.00000000000E+00  0.00000000000E+00 -0.12124785997E+04  0.12124785997E+04  0.25500000920E-02 0. -1.
    10030    2    1    2    0    0  0.00000000000E+00  0.00000000000E+00  0.52816279643E+03  0.29531199958E+04  0.29055054242E+04 0.  0.
        1    1    3    3  502    0 -0.79808203855E+03 -0.12014763339E+04  0.44015460721E+03  0.15080505295E+04  0.50400001928E-02 0.  1.
       -1    1    3    3    0  502  0.79808203855E+03  0.12014763339E+04  0.88008189220E+02  0.14450694663E+04  0.50400001928E-02 0. -1.
</event>
<event>
 5   0  0.1001573E-05  0.2886713E+04  0.7818609E-02  0.8276842E-01
        2   -1    0    0  501    0  0.00000000000E+00  0.00000000000E+00  0.19801107113E+04  0.19801107113E+04  0.25500000920E-02 0. -1.
       -2   -1    0    0    0  501  0.00000000000E+00  0.00000000000E+00 -0.10521021200E+04  0.10521021200E+04  0.25500000920E-02 0.  1.
    10030    2    1    2    0    0  0.00000000000E+00  0.00000000000E+00  0.92800859137E+03  0.30322128313E+04  0.28867134788E+04 0.  0.
        1    1    3    3  502    0 -0.99162253395E+02 -0.13753999175E+04  0.16231121171E+02  0.13790654571E+04  0.50400001928E-02 0. -1.
       -1    1    3    3    0  502  0.99162253395E+02  0.13753999175E+04  0.91177747019E+03  0.16531473742E+04  0.50400001928E-02 0.  1.
</event>
<event>
 5   0  0.9360689E-06  0.2771452E+04  0.7818609E-02  0.8312187E-01
       -2   -1    0    0    0  501  0.00000000000E+00  0.00000000000E+00  0.10053045632E+04  0.10053045632E+04  0.25500000920E-02 0. -1.
        2   -1    0    0  501    0  0.00000000000E+00  0.00000000000E+00 -0.19101037468E+04  0.19101037468E+04  0.25500000920E-02 0.  1.
    10030    2    1    2    0    0  0.00000000000E+00  0.00000000000E+00 -0.90479918355E+03  0.29154083100E+04  0.27714516145E+04 0.  0.
        5    1    3    3  502    0  0.18840137309E+03 -0.40492533045E+03 -0.18323120038E+04  0.18859610202E+04  0.46999998093E+01 0.  1.
       -5    1    3    3    0  502 -0.18840137309E+03  0.40492533045E+03  0.92751282025E+03  0.10294472897E+04  0.46999998093E+01 0. -1.
</event>
<event>
 5   0  0.9646321E-06  0.2685443E+04  0.7818609E-02  0.8339744E-01
       -2   -1    0    0    0  501  0.00000000000E+00  0.00000000000E+00  0.87041035836E+03  0.87041035837E+03  0.25500000920E-02 0. -1.
        2   -1    0    0  501    0  0.00000000000E+00  0.00000000000E+00 -0.20713230833E+04  0.20713230833E+04  0.25500000920E-02 0.  1.
    10030    2    1    2    0    0  0.00000000000E+00  0.00000000000E+00 -0.12009127249E+04  0.29417334416E+04  0.26854430303E+04 0.  0.
        3    1    3    3  502    0 -0.90695055461E+03 -0.15278441773E+03 -0.16720818669E+04  0.19083396361E+04  0.10100000352E+00 0. -1.
       -3    1    3    3    0  502  0.90695055461E+03  0.15278441773E+03  0.47116914200E+03  0.10333938056E+04  0.10100000352E+00 0.  1.
</event>
<event>
 5   0  0.3564340E-06  0.2860319E+04  0.7818609E-02  0.8284783E-01
       -1   -1    0    0    0  501  0.00000000000E+00  0.00000000000E+00  0.15092931778E+04  0.15092931778E+04  0.50400001928E-02 0. -1.
        1   -1    0    0  501    0  0.00000000000E+00  0.00000000000E+00 -0.13551747701E+04  0.13551747701E+04  0.50400001928E-02 0.  1.
    10030    2    1    2    0    0  0.00000000000E+00  0.00000000000E+00  0.15411840771E+03  0.28644679479E+04  0.28603188880E+04 0.  0.
        1    1    3    3  502    0 -0.39326983069E+03 -0.12422889940E+04  0.66733163884E+03  0.14639926983E+04  0.50400001928E-02 0. -1.
       -1    1    3    3    0  502  0.39326983069E+03  0.12422889940E+04 -0.51321323113E+03  0.14004752497E+04  0.50400001928E-02 0.  1.
</event>
<event>
 5   0  0.3564340E-06  0.2883914E+04  0.7818609E-02  0.8277680E-01
        1   -1    0    0  501    0  0.00000000000E+00  0.00000000000E+00  0.25682059529E+04  0.25682059529E+04  0.50400001928E-02 0.  1.
       -1   -1    0    0    0  501  0.00000000000E+00  0.00000000000E+00 -0.80960799946E+03  0.80960799947E+03  0.50400001928E-02 0. -1.
    10030    2    1    2    0    0  0.00000000000E+00  0.00000000000E+00  0.17585979534E+04  0.33778139524E+04  0.28839140651E+04 0.  0.
        1    1    3    3  502    0  0.11415971166E+04 -0.88090188724E+03  0.88260604378E+03  0.16906287410E+04  0.50400001928E-02 0. -1.
       -1    1    3    3    0  502 -0.11415971166E+04  0.88090188724E+03  0.87599190964E+03  0.16871852113E+04  0.50400001928E-02 0.  1.
</event>
<event>
 5   0  0.3564340E-06  0.2879793E+04  0.7818609E-02  0.8278915E-01
       -1   -1    0    0    0  501  0.00000000000E+00  0.00000000000E+00  0.14529665614E+04  0.14529665614E+04  0.50400001928E-02 0. -1.
        1   -1    0    0  501    0  0.00000000000E+00  0.00000000000E+00 -0.14269444486E+04  0.14269444486E+04  0.50400001928E-02 0.  1.
    10030    2    1    2    0    0  0.00000000000E+00  0.00000000000E+00  0.26022112792E+02  0.28799110100E+04  0.28797934432E+04 0.  0.
        1    1    3    3  502    0  0.11964663949E+04  0.29121313328E+03 -0.73332072137E+03  0.14332118488E+04  0.50400001928E-02 0.  1.
       -1    1    3    3    0  502 -0.11964663949E+04 -0.29121313328E+03  0.75934283417E+03  0.14466991612E+04  0.50400001928E-02 0. -1.
</event>
<event>
 5   0  0.9360689E-06  0.3030347E+04  0.7818609E-02  0.8235118E-01
        2   -1    0    0  501    0  0.00000000000E+00  0.00000000000E+00  0.25840448192E+04  0.25840448192E+04  0.25500000920E-02 0.  1.
       -2   -1    0    0    0  501  0.00000000000E+00  0.00000000000E+00 -0.88843286567E+03  0.88843286568E+03  0.25500000920E-02 0. -1.
    10030    2    1    2    0    0  0.00000000000E+00  0.00000000000E+00  0.16956119535E+04  0.34724776849E+04  0.30303467417E+04 0.  0.
        5    1    3    3  502    0  0.74895749645E+02  0.94448301754E+03 -0.50710795209E+03  0.10746339418E+04  0.46999998093E+01 0. -1.
       -5    1    3    3    0  502 -0.74895749645E+02 -0.94448301754E+03  0.22027199056E+04  0.23978437431E+04  0.46999998093E+01 0.  1.
</event>
<event>
 5   0  0.1001573E-05  0.2854358E+04  0.7818609E-02  0.8286588E-01
       -2   -1    0    0    0  501  0.00000000000E+00  0.00000000000E+00  0.13853518320E+04  0.13853518320E+04  0.25500000920E-02 0.  1.
        2   -1    0    0  501    0  0.00000000000E+00  0.00000000000E+00 -0.14702691127E+04  0.14702691127E+04  0.25500000920E-02 0. -1.
    10030    2    1    2    0    0  0.00000000000E+00  0.00000000000E+00 -0.84917280774E+02  0.28556209447E+04  0.28543580776E+04 0.  0.
        1    1    3    3  502    0  0.78662390476E+03  0.96984143938E+03 -0.73375670643E+03  0.14483675256E+04  0.50400001928E-02 0. -1.
       -1    1    3    3    0  502 -0.78662390476E+03 -0.96984143938E+03  0.64883942565E+03  0.14072534190E+04  0.50400001928E-02 0.  1.
</event>
<event>
 5   0  0.3486236E-06  0.2882973E+04  0.7818609E-02  0.8277962E-01
       -1   -1    0    0    0  501  0.00000000000E+00  0.00000000000E+00  0.11806320617E+04  0.11806320617E+04  0.50400001928E-02 0. -1.
        1   -1    0    0  501    0  0.00000000000E+00  0.00000000000E+00 -0.17599753706E+04  0.17599753706E+04  0.50400001928E-02 0.  1.
    10030    2    1    2    0    0  0.00000000000E+00  0.00000000000E+00 -0.57934330895E+03  0.29406074323E+04  0.28829730144E+04 0.  0.
        5    1    3    3  502    0  0.24679871286E+03  0.13624764026E+04 -0.69844481187E+03  0.15508380952E+04  0.46999998093E+01 0.  1.
       -5    1    3    3    0  502 -0.24679871286E+03 -0.13624764026E+04  0.11910150292E+03  0.13897693371E+04  0.46999998093E+01 0. -1.
</event>
<event>
 5   0  0.3474078E-06  0.2916602E+04  0.7818609E-02  0.8267955E-01
        1   -1    0    0  501    0  0.00000000000E+00  0.00000000000E+00  0.21524084603E+04  0.21524084603E+04  0.50400001928E-02 0. -1.
       -1   -1    0    0    0  501  0.00000000000E+00  0.00000000000E+00 -0.98802875009E+03  0.98802875011E+03  0.50400001928E-02 0.  1.
    10030    2    1    2    0    0  0.00000000000E+00  0.00000000000E+00  0.11643797102E+04  0.31404372104E+04  0.29166017491E+04 0.  0.
        3    1    3    3  502    0  0.58863445447E+03  0.21835628001E+03  0.19994384178E+04  0.20956917671E+04  0.10100000352E+00 0. -1.
       -3    1    3    3    0  502 -0.58863445447E+03 -0.21835628001E+03 -0.83505870757E+03  0.10447454433E+04  0.10100000352E+00 0.  1.
</event>
<event>
 5   0  0.1001573E-05  0.2860206E+04  0.7818609E-02  0.8284817E-01
        2   -1    0    0  501    0  0.00000000000E+00  0.00000000000E+00  0.23647645831E+04  0.23647645831E+04  0.25500000920E-02 0. -1.
       -2   -1    0    0    0  501  0.00000000000E+00  0.00000000000E+00 -0.86486160527E+03  0.86486160528E+03  0.25500000920E-02 0.  1.
    10030    2    1    2    0    0  0.00000000000E+00  0.00000000000E+00  0.14999029778E+04  0.32296261884E+04  0.28602056524E+04 0.  0.
        1    1    3    3  502    0 -0.35557935761E+03 -0.84447480591E+03  0.19897758579E+04  0.21906123213E+04  0.50400001928E-02 0. -1.
       -1    1    3    3    0  502  0.35557935761E+03  0.84447480591E+03 -0.48987288008E+03  0.10390138671E+04  0.50400001928E-02 0.  1.
</event>
<event>
 5   0  0.3474078E-06  0.2821733E+04  0.7818609E-02  0.8296553E-01
        1   -1    0    0  501    0  0.00000000000E+00  0.00000000000E+00  0.20119023381E+04  0.20119023381E+04  0.50400001928E-02 0.  1.
       -1   -1    0    0    0  501  0.00000000000E+00  0.00000000000E+00 -0.98938379887E+03  0.98938379889E+03  0.50400001928E-02 0. -1.
    10030    2    1    2    0    0  0.00000000000E+00  0.00000000000E+00  0.10225185392E+04  0.30012861370E+04  0.28217325020E+04 0.  0.
        3    1    3    3  502    0 -0.13559567598E+03 -0.48561716521E+01 -0.98242824090E+03  0.99175351195E+03  0.10100000352E+00 0. -1.
       -3    1    3    3    0  502  0.13559567598E+03  0.48561716521E+01  0.20049467801E+04  0.20095326250E+04  0.10100000352E+00 0.  1.
</event>
<event>
 5   0  0.3649705E-06  0.2898920E+04  0.7818609E-02  0.8273199E-01
       -1   -1    0    0    0  501  0.00000000000E+00  0.00000000000E+00  0.11754450880E+04  0.11754450880E+04  0.50400001928E-02 0.  1.
        1   -1    0    0  501    0  0.00000000000E+00  0.00000000000E+00 -0.17873517909E+04  0.17873517909E+04  0.50400001928E-02 0. -1.
    10030    2    1    2    0    0  0.00000000000E+00  0.00000000000E+00 -0.61190670289E+03  0.29627968789E+04  0.28989197182E+04 0.  0.
        2    1    3    3  502    0 -0.10582187988E+03  0.13796683245E+04  0.13512415644E+03  0.13903026625E+04  0.25500000920E-02 0.  1.
       -2    1    3    3    0  502  0.10582187988E+03 -0.13796683245E+04 -0.74703085934E+03  0.15724942164E+04  0.25500000920E-02 0. -1.
</event>
<event>
 5   0  0.3746518E-06  0.2874018E+04  0.7818609E-02  0.8280650E-01
        1   -1    0    0  501    0  0.00000000000E+00  0.00000000000E+00  0.26364092276E+04  0.26364092276E+04  0.50400001928E-02 0. -1.
       -1   -1    0    0    0  501  0.00000000000E+00  0.00000000000E+00 -0.78326020833E+03  0.78326020835E+03  0.50400001928E-02 0.  1.
    10030    2    1    2    0    0  0.00000000000E+00  0.00000000000E+00  0.18531490193E+04  0.34196694360E+04  0.28740177041E+04 0.  0.
        4    1    3    3  502    0 -0.55150331970E+03 -0.26699314116E+00 -0.65232411447E+03  0.85421563211E+03  0.12699999809E+01 0.  1.
       -4    1    3    3    0  502  0.55150331970E+03  0.26699314116E+00  0.25054731338E+04  0.25654538039E+04  0.12699999809E+01 0. -1.
</event>
<event>
 5   0  0.3746518E-06  0.2932060E+04  0.7818609E-02  0.8263402E-01
        1   -1    0    0  501    0  0.00000000000E+00  0.00000000000E+00  0.10410711296E+04  0.10410711296E+04  0.50400001928E-02 0.  1.
       -1   -1    0    0    0  501  0.00000000000E+00  0.00000000000E+00 -0.20644538787E+04  0.20644538787E+04  0.50400001928E-02 0. -1.
    10030    2    1    2    0    0  0.00000000000E+00  0.00000000000E+00 -0.10233827491E+04  0.31055250083E+04  0.29320595707E+04 0.  0.
        4    1    3    3  502    0  0.47327929235E+03 -0.12332352269E+04 -0.11852209985E+04  0.17747148621E+04  0.12699999809E+01 0. -1.
       -4    1    3    3    0  502 -0.47327929235E+03  0.12332352269E+04  0.16183824941E+03  0.13308101463E+04  0.12699999809E+01 0.  1.
</event>
<event>
 5   0  0.3564340E-06  0.3020440E+04  0.7818609E-02  0.8237918E-01
       -1   -1    0    0    0  501  0.00000000000E+00  0.00000000000E+00  0.91499915178E+03  0.91499915179E+03  0.50400001928E-02 0.  1.
        1   -1    0    0  501    0  0.00000000000E+00  0.00000000000E+00 -0.24926407850E+04  0.24926407850E+04  0.50400001928E-02 0. -1.
    10030    2    1    2    0    0  0.00000000000E+00  0.00000000000E+00 -0.15776416333E+04  0.34076399368E+04  0.30204398382E+04 0.  0.
        1    1    3    3  502    0  0.14367553712E+04 -0.11819822005E+03 -0.12965421253E+04  0.19388806818E+04  0.50400001928E-02 0.  1.
       -1    1    3    3    0  502 -0.14367553712E+04  0.11819822005E+03 -0.28109950800E+03  0.14687592550E+04  0.50400001928E-02 0. -1.
</event>
<event>
 5   0  0.3474078E-06  0.2883178E+04  0.7818609E-02  0.8277900E-01
       -1   -1    0    0    0  501  0.00000000000E+00  0.00000000000E+00  0.96192566537E+03  0.96192566538E+03  0.50400001928E-02 0.  1.
        1   -1    0    0  501    0  0.00000000000E+00  0.00000000000E+00 -0.21604353780E+04  0.21604353780E+04  0.50400001928E-02 0. -1.
    10030    2    1    2    0    0  0.00000000000E+00  0.00000000000E+00 -0.11985097126E+04  0.31223610434E+04  0.28831775793E+04 0.  0.
        3    1    3    3  502    0 -0.94376504128E+03 -0.10102907638E+04 -0.10415453447E+04  0.17309525111E+04  0.10100000352E+00 0.  1.
       -3    1    3    3    0  502  0.94376504128E+03  0.10102907638E+04 -0.15696436796E+03  0.13914085322E+04  0.10100000352E+00 0. -1.
</event>
<event>
 5   0  0.3746518E-06  0.2836610E+04  0.7818609E-02  0.8291992E-01
       -1   -1    0    0    0  501  0.00000000000E+00  0.00000000000E+00  0.12965564966E+04  0.12965564966E+04  0.50400001928E-02 0.  1.
        1   -1    0    0  501    0  0.00000000000E+00  0.00000000000E+00 -0.15514860123E+04  0.15514860124E+04  0.50400001928E-02 0. -1.
    10030    2    1    2    0    0  0.00000000000E+00  0.00000000000E+00 -0.25492951574E+03  0.28480425090E+04  0.28366101380E+04 0.  0.
        4    1    3    3  502    0  0.99364972361E+03 -0.28649857721E+03 -0.11020293612E+04  0.15112549533E+04  0.12699999809E+01 0. -1.
       -4    1    3    3    0  502 -0.99364972361E+03  0.28649857721E+03  0.84709984545E+03  0.13367875557E+04  0.12699999809E+01 0.  1.
</event>
<event>
 5   0  0.9646321E-06  0.2891303E+04  0.7818609E-02  0.8275470E-01
       -2   -1    0    0    0  501  0.00000000000E+00  0.00000000000E+00  0.13452143064E+04  0.13452143064E+04  0.25500000920E-02 0. -1.
        2   -1    0    0  501    0  0.00000000000E+00  0.00000000000E+00 -0.15535875388E+04  0.15535875388E+04  0.25500000920E-02 0.  1.
    10030    2    1    2    0    0  0.00000000000E+00  0.00000000000E+00 -0.20837323238E+03  0.28988018453E+04  0.28913029475E+04 0.  0.
        3    1    3    3  502    0  0.14276145268E+04  0.76106600722E+02  0.11092222251E+03  0.14339383535E+04  0.10100000352E+00 0. -1.
       -3    1    3    3    0  502 -0.14276145268E+04 -0.76106600722E+02 -0.31929545489E+03  0.14648634918E+04  0.10100000352E+00 0.  1.
</event>
<event>
 5   0  0.3649705E-06  0.2195377E+04  0.7818609E-02  0.8520355E-01
        1   -1    0    0  501    0  0.00000000000E+00  0.00000000000E+00  0.77230652986E+03  0.77230652988E+03  0.50400001928E-02 0. -1.
       -1   -1    0    0    0  501  0.00000000000E+00  0.00000000000E+00 -0.15601583543E+04  0.15601583543E+04  0.50400001928E-02 0.  1.
    10030    2    1    2    0    0  0.00000000000E+00  0.00000000000E+00 -0.78785182440E+03  0.23324648842E+04  0.21953774023E+04 0.  0.
        2    1    3    3  502    0  0.37725565576E+03 -0.43264649334E+02  0.70030177739E+03  0.79662804314E+03  0.25500000920E-02 0. -1.
       -2    1    3    3    0  502 -0.37725565576E+03  0.43264649334E+02 -0.14881536018E+04  0.15358368410E+04  0.25500000920E-02 0.  1.
</event>
<event>
 5   0  0.3474078E-06  0.2897449E+04  0.7818609E-02  0.8273637E-01
       -1   -1    0    0    0  501  0.00000000000E+00  0.00000000000E+00  0.17778429720E+04  0.17778429720E+04  0.50400001928E-02 0.  1.
        1   -1    0    0  501    0  0.00000000000E+00  0.00000000000E+00 -0.11805335568E+04  0.11805335568E+04  0.50400001928E-02 0. -1.
    10030    2    1    2    0    0  0.00000000000E+00  0.00000000000E+00  0.59730941514E+03  0.29583765288E+04  0.28974494213E+04 0.  0.
        3    1    3    3  502    0 -0.10445523556E+04  0.41255939347E+03  0.12330532893E+04  0.16678475054E+04  0.10100000352E+00 0.  1.
       -3    1    3    3    0  502  0.10445523556E+04 -0.41255939347E+03 -0.63574387414E+03  0.12905290235E+04  0.10100000352E+00 0. -1.
</event>
<event>
 5   0  0.3649705E-06  0.2930429E+04  0.7818609E-02  0.8263881E-01
        1   -1    0    0  501    0  0.00000000000E+00  0.00000000000E+00  0.16011858627E+04  0.16011858627E+04  0.50400001928E-02 0.  1.
       -1   -1    0    0    0  501  0.00000000000E+00  0.00000000000E+00 -0.13407895198E+04  0.13407895198E+04  0.50400001928E-02 0. -1.
    10030    2    1    2    0    0  0.00000000000E+00  0.00000000000E+00  0.26039634291E+03  0.29419753825E+04  0.29304287904E+04 0.  0.
        2    1    3    3  502    0 -0.13639726220E+04  0.26616580170E+03 -0.33594553794E+03  0.14297289785E+04  0.25500000920E-02 0. -1.
       -2    1    3    3    0  502  0.13639726220E+04 -0.26616580170E+03  0.59634188086E+03  0.15122464040E+04  0.25500000920E-02 0.  1.
</event>
<event>
 5   0  0.1001573E-05  0.2897915E+04  0.7818609E-02  0.8273498E-01
        2   -1    0    0  501    0  0.00000000000E+00  0.00000000000E+00  0.16344145846E+04  0.16344145846E+04  0.25500000920E-02 0.  1.
       -2   -1    0    0    0  501  0.00000000000E+00  0.00000000000E+00 -0.12845442532E+04  0.12845442532E+04  0.25500000920E-02 0. -1.
    10030    2    1    2    0    0  0.00000000000E+00  0.00000000000E+00  0.34987033139E+03  0.29189588379E+04  0.28979150175E+04 0.  0.
        1    1    3    3  502    0  0.31741514465E+03  0.90234509782E+03  0.12711852509E+04  0.15908774283E+04  0.50400001928E-02 0.  1.
       -1    1    3    3    0  502 -0.31741514465E+03 -0.90234509782E+03 -0.92131491951E+03  0.13280814096E+04  0.50400001928E-02 0. -1.
</event>
<event>
 5   0  0.3564340E-06  0.2917048E+04  0.7818609E-02  0.8267823E-01
        1   -1    0    0  501    0  0.00000000000E+00  0.00000000000E+00  0.28782241321E+04  0.28782241321E+04  0.50400001928E-02 0. -1.
       -1   -1    0    0    0  501  0.00000000000E+00  0.00000000000E+00 -0.73909864630E+03  0.73909864632E+03  0.50400001928E-02 0.  1.
    10030    2    1    2    0    0  0.00000000000E+00  0.00000000000E+00  0.21391254858E+04  0.36173227784E+04  0.29170475209E+04 0.  0.
        1    1    3    3  502    0  0.10262518900E+04  0.77917683290E+03  0.22215219163E+03  0.13075400854E+04  0.50400001928E-02 0.  1.
       -1    1    3    3    0  502 -0.10262518900E+04 -0.77917683290E+03  0.19169732941E+04  0.23097826930E+04  0.50400001928E-02 0. -1.
</event>
<event>
 5   0  0.9251510E-06  0.2908475E+04  0.7818609E-02  0.8270360E-01
        2   -1    0    0  501    0  0.00000000000E+00  0.00000000000E+00  0.19736409256E+04  0.19736409256E+04  0.25500000920E-02 0.  1.
       -2   -1    0    0    0  501  0.00000000000E+00  0.00000000000E+00 -0.10715257598E+04  0.10715257598E+04  0.25500000920E-02 0. -1.
    10030    2    1    2    0    0  0.00000000000E+00  0.00000000000E+00  0.90211516577E+03  0.30451666853E+04  0.29084752653E+04 0.  0.
        2    1    3    3  502    0 -0.14308267712E+04 -0.19667746287E+03  0.62892340094E+03  0.15752751880E+04  0.25500000920E-02 0.  1.
       -2    1    3    3    0  502  0.14308267712E+04  0.19667746287E+03  0.27319176484E+03  0.14698914974E+04  0.25500000920E-02 0. -1.
</event>
<event>
 5   0  0.3486236E-06  0.2882601E+04  0.7818609E-02  0.8278073E-01
        1   -1    0    0  501    0  0.00000000000E+00  0.00000000000E+00  0.18379983387E+04  0.18379983387E+04  0.50400001928E-02 0. -1.
       -1   -1    0    0    0  501  0.00000000000E+00  0.00000000000E+00 -0.11302228189E+04  0.11302228189E+04  0.50400001928E-02 0.  1.
    10030    2    1    2    0    0  0.00000000000E+00  0.00000000000E+00  0.70777551977E+03  0.29682211576E+04  0.28826013693E+04 0.  0.
        5    1    3    3  502    0 -0.72551387189E+03 -0.85860303536E+03  0.12827659713E+04  0.17056025850E+04  0.46999998093E+01 0. -1.
       -5    1    3    3    0  502  0.72551387189E+03  0.85860303536E+03 -0.57499045157E+03  0.12626185727E+04  0.46999998093E+01 0.  1.
</event>
<event>
 5   0  0.3564340E-06  0.2614530E+04  0.7818609E-02  0.8363282E-01
        1   -1    0    0  501    0  0.00000000000E+00  0.00000000000E+00  0.16768099305E+04  0.16768099305E+04  0.50400001928E-02 0. -1.
       -1   -1    0    0    0  501  0.00000000000E+00  0.00000000000E+00 -0.10191624772E+04  0.10191624772E+04  0.50400001928E-02 0.  1.
    10030    2    1    2    0    0  0.00000000000E+00  0.00000000000E+00  0.65764745334E+03  0.26959724078E+04  0.26145299865E+04 0.  0.
        1    1    3    3  502    0  0.55528469843E+03 -0.26043303307E+03 -0.86159646269E+03  0.10575986600E+04  0.50400001928E-02 0.  1.
       -1    1    3    3    0  502 -0.55528469843E+03  0.26043303307E+03  0.15192439160E+04  0.16383737478E+04  0.50400001928E-02 0. -1.
</event>
<event>
 5   0  0.3474078E-06  0.2864876E+04  0.7818609E-02  0.8283405E-01
       -1   -1    0    0    0  501  0.00000000000E+00  0.00000000000E+00  0.21061425049E+04  0.21061425049E+04  0.50400001928E-02 0. -1.
        1   -1    0    0  501    0  0.00000000000E+00  0.00000000000E+00 -0.97423545384E+03  0.97423545385E+03  0.50400001928E-02 0.  1.
    10030    2    1    2    0    0  0.00000000000E+00  0.00000000000E+00  0.11319070510E+04  0.30803779587E+04  0.28648760525E+04 0.  0.
        3    1    3    3  502    0  0.53825764012E+03 -0.11334800448E+04  0.13088536949E+04  0.18131729934E+04  0.10100000352E+00 0. -1.
       -3    1    3    3    0  502 -0.53825764012E+03  0.11334800448E+04 -0.17694664385E+03  0.12672049653E+04  0.10100000352E+00 0.  1.
</event>
<event>
 5   0  0.9646321E-06  0.2883824E+04  0.7818609E-02  0.8277706E-01
        2   -1    0    0  501    0  0.00000000000E+00  0.00000000000E+00  0.22428159095E+04  0.22428159095E+04  0.25500000920E-02 0.  1.
       -2   -1    0    0    0  501  0.00000000000E+00  0.00000000000E+00 -0.92700917126E+03  0.92700917126E+03  0.25500000920E-02 0. -1.
    10030    2    1    2    0    0  0.00000000000E+00  0.00000000000E+00  0.13158067382E+04  0.31698250808E+04  0.28838244867E+04 0.  0.
        3    1    3    3  502    0 -0.91333149109E+03 -0.97894842357E+03  0.12463429769E+04  0.18291761137E+04  0.10100000352E+00 0.  1.
       -3    1    3    3    0  502  0.91333149109E+03  0.97894842357E+03  0.69463761373E+02  0.13406489671E+04  0.10100000352E+00 0. -1.
</event>
<event>
 5   0  0.9505359E-06  0.2942275E+04  0.7818609E-02  0.8260409E-01
        2   -1    0    0  501    0  0.00000000000E+00  0.00000000000E+00  0.22771225940E+04  0.22771225940E+04  0.25500000920E-02 0.  1.
       -2   -1    0    0    0  501  0.00000000000E+00  0.00000000000E+00 -0.95042986784E+03  0.95042986785E+03  0.25500000920E-02 0. -1.
    10030    2    1    2    0    0  0.00000000000E+00  0.00000000000E+00  0.13266927261E+04  0.32275524618E+04  0.29422748519E+04 0.  0.
        4    1    3    3  502    0 -0.88927632342E+03  0.42246889595E+03 -0.53578064664E+03  0.11208723664E+04  0.12699999809E+01 0. -1.
       -4    1    3    3    0  502  0.88927632342E+03 -0.42246889595E+03  0.18624733728E+04  0.21066800955E+04  0.12699999809E+01 0.  1.
</event>
<event>
 5   0  0.3564340E-06  0.2929075E+04  0.7818609E-02  0.8264279E-01
        1   -1    0    0  501    0  0.00000000000E+00  0.00000000000E+00  0.97696566982E+03  0.97696566983E+03  0.50400001928E-02 0. -1.
       -1   -1    0    0    0  501  0.00000000000E+00  0.00000000000E+00 -0.21954408782E+04  0.21954408782E+04  0.50400001928E-02 0.  1.
    10030    2    1    2    0    0  0.00000000000E+00  0.00000000000E+00 -0.12184752084E+04  0.31724065480E+04  0.29290751906E+04 0.  0.
        1    1    3    3  502    0  0.14738777717E+03  0.10955592254E+04 -0.16497205836E+04  0.19858376512E+04  0.50400001928E-02 0.  1.
       -1    1    3    3    0  502 -0.14738777717E+03 -0.10955592254E+04  0.43124537522E+03  0.11865688968E+04  0.50400001928E-02 0. -1.
</event>
<event>
 5   0  0.3486236E-06  0.2903711E+04  0.7818609E-02  0.8271774E-01
        1   -1    0    0  501    0  0.00000000000E+00  0.00000000000E+00  0.24375993475E+04  0.24375993475E+04  0.50400001928E-02 0. -1.
       -1   -1    0    0    0  501  0.00000000000E+00  0.00000000000E+00 -0.86473791149E+03  0.86473791151E+03  0.50400001928E-02 0.  1.
    10030    2    1    2    0    0  0.00000000000E+00  0.00000000000E+00  0.15728614361E+04  0.33023372591E+04  0.29037111212E+04 0.  0.
        5    1    3    3  502    0  0.39888531135E+03 -0.12909511268E+04  0.13905811876E+04  0.19389178509E+04  0.46999998093E+01 0. -1.
       -5    1    3    3    0  502 -0.39888531135E+03  0.12909511268E+04  0.18228024850E+03  0.13634194081E+04  0.46999998093E+01 0.  1.
</event>
<event>
 5   0  0.9646321E-06  0.2882898E+04  0.7818609E-02  0.8277984E-01
       -2   -1    0    0    0  501  0.00000000000E+00  0.00000000000E+00  0.17208709709E+04  0.17208709709E+04  0.25500000920E-02 0. -1.
        2   -1    0    0  501    0  0.00000000000E+00  0.00000000000E+00 -0.12073975656E+04  0.12073975656E+04  0.25500000920E-02 0.  1.
    10030    2    1    2    0    0  0.00000000000E+00  0.00000000000E+00  0.51347340531E+03  0.29282685366E+04  0.28828981398E+04 0.  0.
        3    1    3    3  502    0 -0.78354852947E+03  0.25283364284E+03 -0.94505848559E+03  0.12533988593E+04  0.10100000352E+00 0.  1.
       -3    1    3    3    0  502  0.78354852947E+03 -0.25283364284E+03  0.14585318909E+04  0.16748696773E+04  0.10100000352E+00 0. -1.
</event>
<event>
 5   0  0.3746518E-06  0.2874976E+04  0.7818609E-02  0.8280362E-01
        1   -1    0    0  501    0  0.00000000000E+00  0.00000000000E+00  0.99336298402E+03  0.99336298403E+03  0.50400001928E-02 0.  1.
       -1   -1    0    0    0  501  0.00000000000E+00  0.00000000000E+00 -0.20801772260E+04  0.20801772260E+04  0.50400001928E-02 0. -1.
    10030    2    1    2    0    0  0.00000000000E+00  0.00000000000E+00 -0.10868142420E+04  0.30735402100E+04  0.28749755175E+04 0.  0.
        4    1    3    3  502    0  0.11689526961E+04 -0.51514416951E+03  0.16132227644E+03  0.12875754000E+04  0.12699999809E+01 0.  1.
       -4    1    3    3    0  502 -0.11689526961E+04  0.51514416951E+03 -0.12481365184E+04  0.17859648100E+04  0.12699999809E+01 0. -1.
</event>
<event>
 5   0  0.9646321E-06  0.2904008E+04  0.7818609E-02  0.8271686E-01
       -2   -1    0    0    0  501  0.00000000000E+00  0.00000000000E+00  0.13230797960E+04  0.13230797960E+04  0.25500000920E-02 0. -1.
        2   -1    0    0  501    0  0.00000000000E+00  0.00000000000E+00 -0.15934905882E+04  0.15934905882E+04  0.25500000920E-02 0.  1.
    10030    2    1    2    0    0  0.00000000000E+00  0.00000000000E+00 -0.27041079225E+03  0.29165703842E+04  0.29040077151E+04 0.  0.
        3    1    3    3  502    0 -0.64676483737E+03  0.20314532570E+03  0.11543829531E+04  0.13387205798E+04  0.10100000352E+00 0. -1.
       -3    1    3    3    0  502  0.64676483737E+03 -0.20314532570E+03 -0.14247937453E+04  0.15778498044E+04  0.10100000352E+00 0.  1.
</event>
<event>
 5   0  0.3486236E-06  0.2768403E+04  0.7818609E-02  0.8313146E-01
        1   -1    0    0  501    0  0.00000000000E+00  0.00000000000E+00  0.13330963307E+04  0.13330963307E+04  0.50400001928E-02 0. -1.
       -1   -1    0    0    0  501  0.00000000000E+00  0.00000000000E+00 -0.14372655201E+04  0.14372655201E+04  0.50400001928E-02 0.  1.
    10030    2    1    2    0    0  0.00000000000E+00  0.00000000000E+00 -0.10416918936E+03  0.27703618508E+04  0.27684027099E+04 0.  0.
        5    1    3    3  502    0  0.66391561871E+02 -0.65470511511E+03  0.11665393483E+04  0.13393590887E+04  0.46999998093E+01 0. -1.
       -5    1    3    3    0  502 -0.66391561871E+02  0.65470511511E+03 -0.12707085377E+04  0.14310027621E+04  0.46999998093E+01 0.  1.
</event>
<event>
 5   0  0.3649705E-06  0.2874498E+04  0.7818609E-02  0.8280506E-01
        1   -1    0    0  501    0  0.00000000000E+00  0.00000000000E+00  0.18167349612E+04  0.18167349612E+04  0.50400001928E-02 0. -1.
       -1   -1    0    0    0  501  0.00000000000E+00  0.00000000000E+00 -0.11370315961E+04  0.11370315961E+04  0.50400001928E-02 0.  1.
    10030    2    1    2    0    0  0.00000000000E+00  0.00000000000E+00  0.67970336510E+03  0.29537665574E+04  0.28744982538E+04 0.  0.
        2    1    3    3  502    0  0.79983126859E+03  0.78343582394E+03 -0.58621263108E+03  0.12637828125E+04  0.25500000920E-02 0.  1.
       -2    1    3    3    0  502 -0.79983126859E+03 -0.78343582394E+03  0.12659159962E+04  0.16899837448E+04  0.25500000920E-02 0. -1.
</event>
<event>
 5   0  0.9360689E-06  0.2924777E+04  0.7818609E-02  0.8265543E-01
       -2   -1    0    0    0  501  0.00000000000E+00  0.00000000000E+00  0.10055052016E+04  0.10055052017E+04  0.25500000920E-02 0. -1.
        2   -1    0    0  501    0  0.00000000000E+00  0.00000000000E+00 -0.21268719945E+04  0.21268719945E+04  0.25500000920E-02 0.  1.
    10030    2    1    2    0    0  0.00000000000E+00  0.00000000000E+00 -0.11213667928E+04  0.31323771961E+04  0.29247774983E+04 0.  0.
        5    1    3    3  502    0 -0.70563980421E+02 -0.10653471800E+04  0.50955428096E+03  0.11830517928E+04  0.46999998093E+01 0.  1.
       -5    1    3    3    0  502  0.70563980421E+02  0.10653471800E+04 -0.16309210738E+04  0.19493254033E+04  0.46999998093E+01 0. -1.
</event>
<event>
 5   0  0.3564340E-06  0.2900544E+04  0.7818609E-02  0.8272716E-01
        1   -1    0    0  501    0  0.00000000000E+00  0.00000000000E+00  0.11952827794E+04  0.11952827794E+04  0.50400001928E-02 0. -1.
       -1   -1    0    0    0  501  0.00000000000E+00  0.00000000000E+00 -0.17596575295E+04  0.17596575295E+04  0.50400001928E-02 0.  1.
    10030    2    1    2    0    0  0.00000000000E+00  0.00000000000E+00 -0.56437475010E+03  0.29549403089E+04  0.29005436336E+04 0.  0.
        1    1    3    3  502    0 -0.60187557235E+03 -0.11764378913E+04  0.32653667921E+03  0.13612077430E+04  0.50400001928E-02 0. -1.
       -1    1    3    3    0  502  0.60187557235E+03  0.11764378913E+04 -0.89091142931E+03  0.15937325659E+04  0.50400001928E-02 0.  1.
</event>
<event>
 5   0  0.3564340E-06  0.2820921E+04  0.7818609E-02  0.8296803E-01
       -1   -1    0    0    0  501  0.00000000000E+00  0.00000000000E+00  0.16318083238E+04  0.16318083238E+04  0.50400001928E-02 0. -1.
        1   -1    0    0  501    0  0.00000000000E+00  0.00000000000E+00 -0.12191371667E+04  0.12191371668E+04  0.50400001928E-02 0.  1.
    10030    2    1    2    0    0  0.00000000000E+00  0.00000000000E+00  0.41267115706E+03  0.28509454906E+04  0.28209205424E+04 0.  0.
        1    1    3    3  502    0 -0.96052705329E+03 -0.72183478400E+03  0.95294102366E+03  0.15335430447E+04  0.50400001928E-02 0. -1.
       -1    1    3    3    0  502  0.96052705329E+03  0.72183478400E+03 -0.54026986660E+03  0.13174024458E+04  0.50400001928E-02 0.  1.
</event>
<event>
 5   0  0.9646321E-06  0.2651920E+04  0.7818609E-02  0.8350776E-01
        2   -1    0    0  501    0  0.00000000000E+00  0.00000000000E+00  0.18255619774E+04  0.18255619774E+04  0.25500000920E-02 0.  1.
       -2   -1    0    0    0  501  0.00000000000E+00  0.00000000000E+00 -0.96308426690E+03  0.96308426690E+03  0.25500000920E-02 0. -1.
    10030    2    1    2    0    0  0.00000000000E+00  0.00000000000E+00  0.86247771047E+03  0.27886462443E+04  0.26519200732E+04 0.  0.
        3    1    3    3  502    0 -0.81218727054E+03 -0.61096153506E+03  0.13267607718E+04  0.16712918104E+04  0.10100000352E+00 0.  1.
       -3    1    3    3    0  502  0.81218727054E+03  0.61096153506E+03 -0.46428306129E+03  0.11173544339E+04  0.10100000352E+00 0. -1.
</event>
<event>
 5   0  0.3746518E-06  0.2918411E+04  0.7818609E-02  0.8267421E-01
       -1   -1    0    0    0  501  0.00000000000E+00  0.00000000000E+00  0.79919883568E+03  0.79919883570E+03  0.50400001928E-02 0. -1.
        1   -1    0    0  501    0  0.00000000000E+00  0.00000000000E+00 -0.26642698284E+04  0.26642698285E+04  0.50400001928E-02 0.  1.
    10030    2    1    2    0    0  0.00000000000E+00  0.00000000000E+00 -0.18650709928E+04  0.34634686641E+04  0.29184114479E+04 0.  0.
        4    1    3    3  502    0 -0.14046794912E+03  0.16819587670E+03 -0.26446301407E+04  0.26536938956E+04  0.12699999809E+01 0.  1.
       -4    1    3    3    0  502  0.14046794912E+03 -0.16819587670E+03  0.77955914795E+03  0.80977476851E+03  0.12699999809E+01 0. -1.
</event>
<event>
 5   0  0.3564340E-06  0.2953451E+04  0.7818609E-02  0.8257150E-01
       -1   -1    0    0    0  501  0.00000000000E+00  0.00000000000E+00  0.85497081223E+03  0.85497081225E+03  0.50400001928E-02 0. -1.
        1   -1    0    0  501    0  0.00000000000E+00  0.00000000000E+00 -0.25506344135E+04  0.25506344135E+04  0.50400001928E-02 0.  1.
    10030    2    1    2    0    0  0.00000000000E+00  0.00000000000E+00 -0.16956636013E+04  0.34056052258E+04  0.29534508469E+04 0.  0.
        1    1    3    3  502    0 -0.43301848929E+03 -0.50263887660E+03  0.67345096146E+03  0.94535022603E+03  0.50400001928E-02 0. -1.
       -1    1    3    3    0  502  0.43301848929E+03  0.50263887660E+03 -0.23691145627E+04  0.24602549997E+04  0.50400001928E-02 0.  1.
</event>
<event>
 5   0  0.9360689E-06  0.2901331E+04  0.7818609E-02  0.8272481E-01
        2   -1    0    0  501    0  0.00000000000E+00  0.00000000000E+00  0.14855858455E+04  0.14855858455E+04  0.25500000920E-02 0.  1.
       -2   -1    0    0    0  501  0.00000000000E+00  0.00000000000E+00 -0.14165663539E+04  0.14165663539E+04  0.25500000920E-02 0. -1.
    10030    2    1    2    0    0  0.00000000000E+00  0.00000000000E+00  0.69019491589E+02  0.29021521993E+04  0.29013313664E+04 0.  0.
        5    1    3    3  502    0  0.12337216516E+04  0.10486218115E+03 -0.72157687218E+03  0.14330947154E+04  0.46999998093E+01 0. -1.
       -5    1    3    3    0  502 -0.12337216516E+04 -0.10486218115E+03  0.79059636376E+03  0.14690574840E+04  0.46999998093E+01 0.  1.
</event>
<event>
 5   0  0.3486236E-06  0.2823641E+04  0.7818609E-02  0.8295966E-01
       -1   -1    0    0    0  501  0.00000000000E+00  0.00000000000E+00  0.12151413146E+04  0.12151413146E+04  0.50400001928E-02 0. -1.
        1   -1    0    0  501    0  0.00000000000E+00  0.00000000000E+00 -0.16403338504E+04  0.16403338504E+04  0.50400001928E-02 0.  1.
    10030    2    1    2    0    0  0.00000000000E+00  0.00000000000E+00 -0.42519253581E+03  0.28554751650E+04  0.28236412176E+04 0.  0.
        5    1    3    3  502    0  0.13730000166E+03  0.42663381962E+02 -0.16329032166E+04  0.16392273971E+04  0.46999998093E+01 0.  1.
       -5    1    3    3    0  502 -0.13730000166E+03 -0.42663381962E+02  0.12077106808E+04  0.12162477680E+04  0.46999998093E+01 0. -1.
</event>
<event>
 5   0  0.9646321E-06  0.2856921E+04  0.7818609E-02  0.8285811E-01
       -2   -1    0    0    0  501  0.00000000000E+00  0.00000000000E+00  0.88320187567E+03  0.88320187567E+03  0.25500000920E-02 0.  1.
        2   -1    0    0  501    0  0.00000000000E+00  0.00000000000E+00 -0.23103432992E+04  0.23103432992E+04  0.25500000920E-02 0. -1.
    10030    2    1    2    0    0  0.00000000000E+00  0.00000000000E+00 -0.14271414235E+04  0.31935451749E+04  0.28569210947E+04 0.  0.
        3    1    3    3  502    0 -0.97896566180E+03 -0.43538948656E+03  0.34250232543E+03  0.11248313763E+04  0.10100000352E+00 0.  1.
       -3    1    3    3    0  502  0.97896566180E+03  0.43538948656E+03 -0.17696437490E+04  0.20687137986E+04  0.10100000352E+00 0. -1.
</event>
<event>
 5   0  0.3649705E-06  0.2877440E+04  0.7818609E-02  0.8279622E-01
       -1   -1    0    0    0  501  0.00000000000E+00  0.00000000000E+00  0.15868651727E+04  0.15868651727E+04  0.50400001928E-02 0. -1.
        1   -1    0    0  501    0  0.00000000000E+00  0.00000000000E+00 -0.13044048866E+04  0.13044048866E+04  0.50400001928E-02 0.  1.
    10030    2    1    2    0    0  0.00000000000E+00  0.00000000000E+00  0.28246028607E+03  0.28912700593E+04  0.28774396158E+04 0.  0.
        2    1    3    3  502    0 -0.11686693137E+04 -0.35928486274E+03 -0.62072935418E+03  0.13711960139E+04  0.25500000920E-02 0.  1.
       -2    1    3    3    0  502  0.11686693137E+04  0.35928486274E+03  0.90318964026E+03  0.15200740454E+04  0.25500000920E-02 0. -1.
</event>
<event>
 5   0  0.3746518E-06  0.2811853E+04  0.7818609E-02  0.8299598E-01
        1   -1    0    0  501    0  0.00000000000E+00  0.00000000000E+00  0.68404472199E+03  0.68404472201E+03  0.50400001928E-02 0.  1.
       -1   -1    0    0    0  501  0.00000000000E+00  0.00000000000E+00 -0.28896205639E+04  0.28896205640E+04  0.50400001928E-02 0. -1.
    10030    2    1    2    0    0  0.00000000000E+00  0.00000000000E+00 -0.22055758420E+04  0.35736652860E+04  0.28118532646E+04 0.  0.
        4    1    3    3  502    0  0.44409637906E+03 -0.21244082188E+03 -0.27764980722E+04  0.28198042228E+04  0.12699999809E+01 0. -1.
       -4    1    3    3    0  502 -0.44409637906E+03  0.21244082188E+03  0.57092223027E+03  0.75386106321E+03  0.12699999809E+01 0.  1.
</event>
<event>
 5   0  0.3564340E-06  0.2931156E+04  0.7818609E-02  0.8263667E-01
       -1   -1    0    0    0  501  0.00000000000E+00  0.00000000000E+00  0.16141602937E+04  0.16141602937E+04  0.50400001928E-02 0.  1.
        1   -1    0    0  501    0  0.00000000000E+00  0.00000000000E+00 -0.13306729813E+04  0.13306729813E+04  0.50400001928E-02 0. -1.
    10030    2    1    2    0    0  0.00000000000E+00  0.00000000000E+00  0.28348731238E+03  0.29448332750E+04  0.29311564204E+04 0.  0.
        1    1    3    3  502    0  0.53014413703E+03  0.13536483647E+04 -0.44872318522E+02  0.14544518646E+04  0.50400001928E-02 0. -1.
       -1    1    3    3    0  502 -0.53014413703E+03 -0.13536483647E+04  0.32835963091E+03  0.14903814104E+04  0.50400001928E-02 0.  1.
</event>
<event>
 5   0  0.3746518E-06  0.3598013E+04  0.7818609E-02  0.8090947E-01
       -1   -1    0    0    0  501  0.00000000000E+00  0.00000000000E+00  0.22940569692E+04  0.22940569692E+04  0.50400001928E-02 0.  1.
        1   -1    0    0  501    0  0.00000000000E+00  0.00000000000E+00 -0.14107867635E+04  0.14107867635E+04  0.50400001928E-02 0. -1.
    10030    2    1    2    0    0  0.00000000000E+00  0.00000000000E+00  0.88327020573E+03  0.37048437327E+04  0.35980134557E+04 0.  0.
        4    1    3    3  502    0 -0.17856721956E+04 -0.11213264150E+03  0.24838016232E+03  0.18063480388E+04  0.12699999809E+01 0. -1.
       -4    1    3    3    0  502  0.17856721956E+04  0.11213264150E+03  0.63489004341E+03  0.18984956939E+04  0.12699999809E+01 0.  1.
</event>
<event>
 5   0  0.9251510E-06  0.2910455E+04  0.7818609E-02  0.8269774E-01
       -2   -1    0    0    0  501  0.00000000000E+00  0.00000000000E+00  0.91564102111E+03  0.91564102112E+03  0.25500000920E-02 0.  1.
        2   -1    0    0  501    0  0.00000000000E+00  0.00000000000E+00 -0.23127917577E+04  0.23127917577E+04  0.25500000920E-02 0. -1.
    10030    2    1    2    0    0  0.00000000000E+00  0.00000000000E+00 -0.13971507366E+04  0.32284327788E+04  0.29104549518E+04 0.  0.
        2    1    3    3  502    0  0.49555496561E+03  0.33541426761E+03  0.77285265156E+03  0.97743474252E+03  0.25500000920E-02 0.  1.
       -2    1    3    3    0  502 -0.49555496561E+03 -0.33541426761E+03 -0.21700033882E+04  0.22509980363E+04  0.25500000920E-02 0. -1.
</event>
<event>
 5   0  0.1001573E-05  0.2907555E+04  0.7818609E-02  0.8270633E-01
        2   -1    0    0  501    0  0.00000000000E+00  0.00000000000E+00  0.13386940528E+04  0.13386940528E+04  0.25500000920E-02 0.  1.
       -2   -1    0    0    0  501  0.00000000000E+00  0.00000000000E+00 -0.15787546306E+04  0.15787546306E+04  0.25500000920E-02 0. -1.
    10030    2    1    2    0    0  0.00000000000E+00  0.00000000000E+00 -0.24006057782E+03  0.29174486835E+04  0.29075552857E+04 0.  0.
        1    1    3    3  502    0  0.92094550082E+03  0.10020466288E+04 -0.63287739699E+03  0.15009236694E+04  0.50400001928E-02 0. -1.
       -1    1    3    3    0  502 -0.92094550082E+03 -0.10020466288E+04  0.39281681918E+03  0.14165250140E+04  0.50400001928E-02 0.  1.
</event>
<event>
 5   0  0.9646321E-06  0.2851524E+04  0.7818609E-02  0.8287448E-01
        2   -1    0    0  501    0  0.00000000000E+00  0.00000000000E+00  0.12074031902E+04  0.12074031902E+04  0.25500000920E-02 0.  1.
       -2   -1    0    0    0  501  0.00000000000E+00  0.00000000000E+00 -0.16836112342E+04  0.16836112343E+04  0.25500000920E-02 0. -1.
    10030    2    1    2    0    0  0.00000000000E+00  0.00000000000E+00 -0.47620804405E+03  0.28910144245E+04  0.28515242067E+04 0.  0.
        3    1    3    3  502    0 -0.10275711997E+04  0.72506179879E+03  0.44289784090E+03  0.13333325505E+04  0.10100000352E+00 0.  1.
       -3    1    3    3    0  502  0.10275711997E+04 -0.72506179879E+03 -0.91910588495E+03  0.15576818740E+04  0.10100000352E+00 0. -1.
</event>
<event>
 5   0  0.1001573E-05  0.2891163E+04  0.7818609E-02  0.8275512E-01
       -2   -1    0    0    0  501  0.00000000000E+00  0.00000000000E+00  0.11363771519E+04  0.11363771519E+04  0.25500000920E-02 0.  1.
        2   -1    0    0  501    0  0.00000000000E+00  0.00000000000E+00 -0.18389194191E+04  0.18389194191E+04  0.25500000920E-02 0. -1.
    10030    2    1    2    0    0  0.00000000000E+00  0.00000000000E+00 -0.70254226716E+03  0.29752965710E+04  0.28911630961E+04 0.  0.
        1    1    3    3  502    0 -0.87814906348E+03  0.11206899159E+04 -0.93760838104E+02  0.14268436355E+04  0.50400001928E-02 0.  1.
       -1    1    3    3    0  502  0.87814906348E+03 -0.11206899159E+04 -0.60878142906E+03  0.15484529356E+04  0.50400001928E-02 0. -1.
</event>
<event>
 5   0  0.9505359E-06  0.2874450E+04  0.7818609E-02  0.8280520E-01
        2   -1    0    0  501    0  0.00000000000E+00  0.00000000000E+00  0.23799131516E+04  0.23799131516E+04  0.25500000920E-02 0.  1.
       -2   -1    0    0    0  501  0.00000000000E+00  0.00000000000E+00 -0.86793741589E+03  0.86793741589E+03  0.25500000920E-02 0. -1.
    10030    2    1    2    0    0  0.00000000000E+00  0.00000000000E+00  0.15119757357E+04  0.32478505675E+04  0.28744499793E+04 0.  0.
        4    1    3    3  502    0 -0.95756855060E+02 -0.23098037869E+03  0.23551474806E+04  0.23683839593E+04  0.12699999809E+01 0.  1.
       -4    1    3    3    0  502  0.95756855060E+02  0.23098037869E+03 -0.84317174487E+03  0.87946660817E+03  0.12699999809E+01 0. -1.
</event>
<event>
 5   0  0.3474078E-06  0.2871116E+04  0.7818609E-02  0.8281524E-01
       -1   -1    0    0    0  501  0.00000000000E+00  0.00000000000E+00  0.13521896839E+04  0.13521896839E+04  0.50400001928E-02 0. -1.
        1   -1    0    0  501    0  0.00000000000E+00  0.00000000000E+00 -0.15240660403E+04  0.15240660403E+04  0.50400001928E-02 0.  1.
    10030    2    1    2    0    0  0.00000000000E+00  0.00000000000E+00 -0.17187635639E+03  0.28762557242E+04  0.28711157254E+04 0.  0.
        3    1    3    3  502    0  0.57853693668E+03  0.79139191014E+03  0.96466243254E+03  0.13753471422E+04  0.10100000352E+00 0. -1.
       -3    1    3    3    0  502 -0.57853693668E+03 -0.79139191014E+03 -0.11365387889E+04  0.15009085820E+04  0.10100000352E+00 0.  1.
</event>
<event>
 5   0  0.3564340E-06  0.2818732E+04  0.7818609E-02  0.8297476E-01
        1   -1    0    0  501    0  0.00000000000E+00  0.00000000000E+00  0.19034574560E+04  0.19034574560E+04  0.50400001928E-02 0.  1.
       -1   -1    0    0    0  501  0.00000000000E+00  0.00000000000E+00 -0.10435290106E+04  0.10435290106E+04  0.50400001928E-02 0. -1.
    10030    2    1    2    0    0  0.00000000000E+00  0.00000000000E+00  0.85992844540E+03  0.29469864667E+04  0.28187323930E+04 0.  0.
        1    1    3    3  502    0  0.47006517929E+03  0.11890933496E+04 -0.18980587251E+03  0.12926447834E+04  0.50400001928E-02 0. -1.
       -1    1    3    3    0  502 -0.47006517929E+03 -0.11890933496E+04  0.10497343179E+04  0.16543416833E+04  0.50400001928E-02 0.  1.
</event>
<event>
 5   0  0.3486236E-06  0.2844476E+04  0.7818609E-02  0.8289592E-01
       -1   -1    0    0    0  501  0.00000000000E+00  0.00000000000E+00  0.10548442064E+04  0.10548442064E+04  0.50400001928E-02 0. -1.
        1   -1    0    0  501    0  0.00000000000E+00  0.00000000000E+00 -0.19175925710E+04  0.19175925710E+04  0.50400001928E-02 0.  1.
    10030    2    1    2    0    0  0.00000000000E+00  0.00000000000E+00 -0.86274836458E+03  0.29724367774E+04  0.28444763411E+04 0.  0.
        5    1    3    3  502    0 -0.12480255750E+04 -0.65089342147E+03 -0.64427763328E+03  0.15480135144E+04  0.46999998093E+01 0.  1.
       -5    1    3    3    0  502  0.12480255750E+04  0.65089342147E+03 -0.21847073130E+03  0.14244232631E+04  0.46999998093E+01 0. -1.
</event>
<event>
 5   0  0.3564340E-06  0.2923765E+04  0.7818609E-02  0.8265842E-01
       -1   -1    0    0    0  501  0.00000000000E+00  0.00000000000E+00  0.23308551657E+04  0.23308551657E+04  0.50400001928E-02 0.  1.
        1   -1    0    0  501    0  0.00000000000E+00  0.00000000000E+00 -0.91687414120E+03  0.91687414122E+03  0.50400001928E-02 0. -1.
    10030    2    1    2    0    0  0.00000000000E+00  0.00000000000E+00  0.14139810245E+04  0.32477293069E+04  0.29237652631E+04 0.  0.
        1    1    3    3  502    0  0.53053110066E+03 -0.88689857378E+03 -0.44152278162E+03  0.11238303678E+04  0.50400001928E-02 0. -1.
       -1    1    3    3    0  502 -0.53053110066E+03  0.88689857378E+03  0.18555038061E+04  0.21238989391E+04  0.50400001928E-02 0.  1.
</event>
<event>
 5   0  0.3746518E-06  0.2858738E+04  0.7818609E-02  0.8285261E-01
       -1   -1    0    0    0  501  0.00000000000E+00  0.00000000000E+00  0.20513642784E+04  0.20513642784E+04  0.50400001928E-02 0.  1.
        1   -1    0    0  501    0  0.00000000000E+00  0.00000000000E+00 -0.99596946189E+03  0.99596946190E+03  0.50400001928E-02 0. -1.
    10030    2    1    2    0    0  0.00000000000E+00  0.00000000000E+00  0.10553948165E+04  0.30473337403E+04  0.28587383067E+04 0.  0.
        4    1    3    3  502    0  0.54787441680E+02 -0.11200377992E+04 -0.41712161912E+03  0.11964440620E+04  0.12699999809E+01 0. -1.
       -4    1    3    3    0  502 -0.54787441680E+02  0.11200377992E+04  0.14725164356E+04  0.18508896784E+04  0.12699999809E+01 0.  1.
</event>
<event>
 5   0  0.3474078E-06  0.2877248E+04  0.7818609E-02  0.8279679E-01
        1   -1    0    0  501    0  0.00000000000E+00  0.00000000000E+00  0.90573189909E+03  0.90573189911E+03  0.50400001928E-02 0. -1.
       -1   -1    0    0    0  501  0.00000000000E+00  0.00000000000E+00 -0.22850464819E+04  0.22850464819E+04  0.50400001928E-02 0.  1.
    10030    2    1    2    0    0  0.00000000000E+00  0.00000000000E+00 -0.13793145828E+04  0.31907783810E+04  0.28772483310E+04 0.  0.
        3    1    3    3  502    0  0.88353448798E+03  0.88016906013E+03  0.10564317139E+03  0.12515954841E+04  0.10100000352E+00 0. -1.
       -3    1    3    3    0  502 -0.88353448798E+03 -0.88016906013E+03 -0.14849577542E+04  0.19391828970E+04  0.10100000352E+00 0.  1.
</event>
<event>
 5   0  0.9505359E-06  0.2915312E+04  0.7818609E-02  0.8268336E-01
       -2   -1    0    0    0  501  0.00000000000E+00  0.00000000000E+00  0.11550265711E+04  0.11550265711E+04  0.25500000920E-02 0.  1.
        2   -1    0    0  501    0  0.00000000000E+00  0.00000000000E+00 -0.18395780914E+04  0.18395780914E+04  0.25500000920E-02 0. -1.
    10030    2    1    2    0    0  0.00000000000E+00  0.00000000000E+00 -0.68455152033E+03  0.29946046625E+04  0.29153123848E+04 0.  0.
        4    1    3    3  502    0 -0.79372174720E+03  0.12079127204E+04 -0.53639348670E+03  0.15416766644E+04  0.12699999809E+01 0. -1.
       -4    1    3    3    0  502  0.79372174720E+03 -0.12079127204E+04 -0.14815803364E+03  0.14529279982E+04  0.12699999809E+01 0.  1.
</event>
<event>
 5   0  0.3649705E-06  0.2964034E+04  0.7818609E-02  0.8254076E-01
       -1   -1    0    0    0  501  0.00000000000E+00  0.00000000000E+00  0.10351387784E+04  0.10351387784E+04  0.50400001928E-02 0. -1.
        1   -1    0    0  501    0  0.00000000000E+00  0.00000000000E+00 -0.21218169644E+04  0.21218169644E+04  0.50400001928E-02 0.  1.
    10030    2    1    2    0    0  0.00000000000E+00  0.00000000000E+00 -0.10866781860E+04  0.31569557428E+04  0.29640344266E+04 0.  0.
        2    1    3    3  502    0 -0.12138003629E+04 -0.47933886644E+03 -0.12914050746E+04  0.18359749826E+04  0.25500000920E-02 0. -1.
       -2    1    3    3    0  502  0.12138003629E+04  0.47933886644E+03  0.20472688865E+03  0.13209807602E+04  0.25500000920E-02 0.  1.
</event>
<event>
 5   0  0.3474078E-06  0.3000831E+04  0.7818609E-02  0.8243494E-01
        1   -1    0    0  501    0  0.00000000000E+00  0.00000000000E+00  0.24332074341E+04  0.24332074341E+04  0.50400001928E-02 0.  1.
       -1   -1    0    0    0  501  0.00000000000E+00  0.00000000000E+00 -0.92521756934E+03  0.92521756935E+03  0.50400001928E-02 0. -1.
    10030    2    1    2    0    0  0.00000000000E+00  0.00000000000E+00  0.15079898647E+04  0.33584250034E+04  0.30008307302E+04 0.  0.
        3    1    3    3  502    0  0.86598227468E+03 -0.62372118390E+03 -0.42633583319E+03  0.11492239417E+04  0.10100000352E+00 0. -1.
       -3    1    3    3    0  502 -0.86598227468E+03  0.62372118390E+03  0.19343256979E+04  0.22092010617E+04  0.10100000352E+00 0.  1.
</event>
<event>
 5   0  0.9360689E-06  0.3008146E+04  0.7818609E-02  0.8241409E-01
       -2   -1    0    0    0  501  0.00000000000E+00  0.00000000000E+00  0.16648120281E+04  0.16648120281E+04  0.25500000920E-02 0.  1.
        2   -1    0    0  501    0  0.00000000000E+00  0.00000000000E+00 -0.13588534560E+04  0.13588534560E+04  0.25500000920E-02 0. -1.
    10030    2    1    2    0    0  0.00000000000E+00  0.00000000000E+00  0.30595857209E+03  0.30236654841E+04  0.30081459924E+04 0.  0.
        5    1    3    3  502    0  0.80319158744E+03 -0.10957049992E+04  0.80169822457E+03  0.15774752945E+04  0.46999998093E+01 0.  1.
       -5    1    3    3    0  502 -0.80319158744E+03  0.10957049992E+04 -0.49573965248E+03  0.14461901896E+04  0.46999998093E+01 0. -1.
</event>
<event>
 5   0  0.3649705E-06  0.2914188E+04  0.7818609E-02  0.8268669E-01
        1   -1    0    0  501    0  0.00000000000E+00  0.00000000000E+00  0.13869957102E+04  0.13869957102E+04  0.50400001928E-02 0. -1.
       -1   -1    0    0    0  501  0.00000000000E+00  0.00000000000E+00 -0.15307351451E+04  0.15307351451E+04  0.50400001928E-02 0.  1.
    10030    2    1    2    0    0  0.00000000000E+00  0.00000000000E+00 -0.14373943489E+03  0.29177308553E+04  0.29141881063E+04 0.  0.
        2    1    3    3  502    0 -0.13371693861E+04  0.12685733122E+03  0.49362513836E+03  0.14310068228E+04  0.25500000920E-02 0. -1.
       -2    1    3    3    0  502  0.13371693861E+04 -0.12685733122E+03 -0.63736457325E+03  0.14867240325E+04  0.25500000920E-02 0.  1.
</event>
<event>
 5   0  0.3486236E-06  0.2997779E+04  0.7818609E-02  0.8244365E-01
       -1   -1    0    0    0  501  0.00000000000E+00  0.00000000000E+00  0.98665812151E+03  0.98665812152E+03  0.50400001928E-02 0.  1.
        1   -1    0    0  501    0  0.00000000000E+00  0.00000000000E+00 -0.22770502265E+04  0.22770502265E+04  0.50400001928E-02 0. -1.
    10030    2    1    2    0    0  0.00000000000E+00  0.00000000000E+00 -0.12903921050E+04  0.32637083480E+04  0.29977792441E+04 0.  0.
        5    1    3    3  502    0 -0.67702251260E+03 -0.12986486421E+04 -0.29783103784E+03  0.14945143677E+04  0.46999998093E+01 0.  1.
       -5    1    3    3    0  502  0.67702251260E+03  0.12986486421E+04 -0.99256106715E+03  0.17691939803E+04  0.46999998093E+01 0. -1.
</event>
<event>
 5   0  0.3486236E-06  0.2839009E+04  0.7818609E-02  0.8291259E-01
       -1   -1    0    0    0  501  0.00000000000E+00  0.00000000000E+00  0.11140077096E+04  0.11140077096E+04  0.50400001928E-02 0. -1.
        1   -1    0    0  501    0  0.00000000000E+00  0.00000000000E+00 -0.18087777343E+04  0.18087777343E+04  0.50400001928E-02 0.  1.
    10030    2    1    2    0    0  0.00000000000E+00  0.00000000000E+00 -0.69477002470E+03  0.29227854438E+04  0.28390085177E+04 0.  0.
        5    1    3    3  502    0  0.45891706168E+03 -0.26974286348E+03 -0.17021206380E+04  0.17834244694E+04  0.46999998093E+01 0.  1.
       -5    1    3    3    0  502 -0.45891706168E+03  0.26974286348E+03  0.10073506133E+04  0.11393609744E+04  0.46999998093E+01 0. -1.
</event>
<event>
 5   0  0.9251510E-06  0.2859049E+04  0.7818609E-02  0.8285167E-01
        2   -1    0    0  501    0  0.00000000000E+00  0.00000000000E+00  0.90626843714E+03  0.90626843714E+03  0.25500000920E-02 0. -1.
       -2   -1    0    0    0  501  0.00000000000E+00  0.00000000000E+00 -0.22548947397E+04  0.22548947397E+04  0.25500000920E-02 0.  1.
    10030    2    1    2    0    0  0.00000000000E+00  0.00000000000E+00 -0.13486263025E+04  0.31611631768E+04  0.28590487450E+04 0.  0.
        2    1    3    3  502    0 -0.11909479391E+04 -0.47874853671E+03  0.21453330195E+02  0.12837513000E+04  0.25500000920E-02 0. -1.
       -2    1    3    3    0  502  0.11909479391E+04  0.47874853671E+03 -0.13700796327E+04  0.18774118768E+04  0.25500000920E-02 0.  1.
</event>
<event>
 5   0  0.9251510E-06  0.2837013E+04  0.7818609E-02  0.8291868E-01
        2   -1    0    0  501    0  0.00000000000E+00  0.00000000000E+00  0.11824973526E+04  0.11824973526E+04  0.25500000920E-02 0. -1.
       -2   -1    0    0    0  501  0.00000000000E+00  0.00000000000E+00 -0.17016202023E+04  0.17016202023E+04  0.25500000920E-02 0.  1.
    10030    2    1    2    0    0  0.00000000000E+00  0.00000000000E+00 -0.51912284969E+03  0.28841175550E+04  0.28370134892E+04 0.  0.
        2    1    3    3  502    0  0.25914135901E+03  0.13774519399E+04 -0.37687194702E+02  0.14021228247E+04  0.25500000920E-02 0.  1.
       -2    1    3    3    0  502 -0.25914135901E+03 -0.13774519399E+04 -0.48143565498E+03  0.14819947303E+04  0.25500000920E-02 0. -1.
</event>
<event>
 5   0  0.9360689E-06  0.2876170E+04  0.7818609E-02  0.8280003E-01
        2   -1    0    0  501    0  0.00000000000E+00  0.00000000000E+00  0.18741754595E+04  0.18741754595E+04  0.25500000920E-02 0. -1.
       -2   -1    0    0    0  501  0.00000000000E+00  0.00000000000E+00 -0.11034659969E+04  0.11034659969E+04  0.25500000920E-02 0.  1.
    10030    2    1    2    0    0  0.00000000000E+00  0.00000000000E+00  0.77070946258E+03  0.29776414565E+04  0.28761702953E+04 0.  0.
        5    1    3    3  502    0  0.74227847096E+03 -0.93282217079E+03  0.12180521408E+04  0.17043496233E+04  0.46999998093E+01 0. -1.
       -5    1    3    3    0  502 -0.74227847096E+03  0.93282217079E+03 -0.44734267818E+03  0.12732918332E+04  0.46999998093E+01 0.  1.
</event>
<event>
 5   0  0.9505359E-06  0.2964378E+04  0.7818609E-02  0.8253977E-01
        2   -1    0    0  501    0  0.00000000000E+00  0.00000000000E+00  0.17725217584E+04  0.17725217584E+04  0.25500000920E-02 0. -1.
       -2   -1    0    0    0  501  0.00000000000E+00  0.00000000000E+00 -0.12394118750E+04  0.12394118750E+04  0.25500000920E-02 0.  1.
    10030    2    1    2    0    0  0.00000000000E+00  0.00000000000E+00  0.53310988341E+03  0.30119336333E+04  0.29643781918E+04 0.  0.
        4    1    3    3  502    0 -0.78204964508E+03 -0.64904531979E+03 -0.82965131421E+03  0.13119391718E+04  0.12699999809E+01 0.  1.
       -4    1    3    3    0  502  0.78204964508E+03  0.64904531979E+03  0.13627611976E+04  0.16999944615E+04  0.12699999809E+01 0. -1.
</event>
<event>
 5   0  0.3564340E-06  0.2907560E+04  0.7818609E-02  0.8270632E-01
       -1   -1    0    0    0  501  0.00000000000E+00  0.00000000000E+00  0.88819395882E+03  0.88819395884E+03  0.50400001928E-02 0.  1.
        1   -1    0    0  501    0  0.00000000000E+00  0.00000000000E+00 -0.23795206470E+04  0.23795206470E+04  0.50400001928E-02 0. -1.
    10030    2    1    2    0    0  0.00000000000E+00  0.00000000000E+00 -0.14913266881E+04  0.32677146058E+04  0.29075597078E+04 0.  0.
        1    1    3    3  502    0  0.70079241183E+03  0.11517532504E+04 -0.13569385930E+04  0.19128324285E+04  0.50400001928E-02 0. -1.
       -1    1    3    3    0  502 -0.70079241183E+03 -0.11517532504E+04 -0.13438809518E+03  0.13548821773E+04  0.50400001928E-02 0.  1.
</event>
<event>
 5   0  0.9505359E-06  0.2921293E+04  0.7818609E-02  0.8266570E-01
        2   -1    0    0  501    0  0.00000000000E+00  0.00000000000E+00  0.16325251271E+04  0.16325251271E+04  0.25500000920E-02 0. -1.
       -2   -1    0    0    0  501  0.00000000000E+00  0.00000000000E+00 -0.13068637517E+04  0.13068637517E+04  0.25500000920E-02 0.  1.
    10030    2    1    2    0    0  0.00000000000E+00  0.00000000000E+00  0.32566137539E+03  0.29393888789E+04  0.29212928045E+04 0.  0.
        4    1    3    3  502    0  0.14014428054E+03 -0.65777779849E+03  0.14674635753E+04  0.16142375938E+04  0.12699999809E+01 0. -1.
       -4    1    3    3    0  502 -0.14014428054E+03  0.65777779849E+03 -0.11418021999E+04  0.13251512850E+04  0.12699999809E+01 0.  1.
</event>
<event>
 5   0  0.3746518E-06  0.2891741E+04  0.7818609E-02  0.8275339E-01
       -1   -1    0    0    0  501  0.00000000000E+00  0.00000000000E+00  0.18117138523E+04  0.18117138523E+04  0.50400001928E-02 0.  1.
        1   -1    0    0  501    0  0.00000000000E+00  0.00000000000E+00 -0.11539023460E+04  0.11539023460E+04  0.50400001928E-02 0. -1.
    10030    2    1    2    0    0  0.00000000000E+00  0.00000000000E+00  0.65781150636E+03  0.29656161983E+04  0.28917405585E+04 0.  0.
        4    1    3    3  502    0 -0.10425291699E+04  0.68147581087E+03  0.10820113768E+04  0.16498565342E+04  0.12699999809E+01 0.  1.
       -4    1    3    3    0  502  0.10425291699E+04 -0.68147581087E+03 -0.42419987044E+03  0.13157596642E+04  0.12699999809E+01 0. -1.
</event>
<event>
 5   0  0.1001573E-05  0.2903680E+04  0.7818609E-02  0.8271783E-01
        2   -1    0    0  501    0  0.00000000000E+00  0.00000000000E+00  0.15570249275E+04  0.15570249275E+04  0.25500000920E-02 0.  1.
       -2   -1    0    0    0  501  0.00000000000E+00  0.00000000000E+00 -0.13537607197E+04  0.13537607197E+04  0.25500000920E-02 0. -1.
    10030    2    1    2    0    0  0.00000000000E+00  0.00000000000E+00  0.20326420782E+03  0.29107856471E+04  0.29036798628E+04 0.  0.
        1    1    3    3  502    0 -0.91715747624E+03  0.19744087583E+03 -0.10090858922E+04  0.13778298420E+04  0.50400001928E-02 0. -1.
       -1    1    3    3    0  502  0.91715747624E+03 -0.19744087583E+03  0.12123501000E+04  0.15329558052E+04  0.50400001928E-02 0.  1.
</event>
<event>
 5   0  0.3474078E-06  0.2956370E+04  0.7818609E-02  0.8256301E-01
       -1   -1    0    0    0  501  0.00000000000E+00  0.00000000000E+00  0.13153679303E+04  0.13153679303E+04  0.50400001928E-02 0.  1.
        1   -1    0    0  501    0  0.00000000000E+00  0.00000000000E+00 -0.16611553246E+04  0.16611553246E+04  0.50400001928E-02 0. -1.
    10030    2    1    2    0    0  0.00000000000E+00  0.00000000000E+00 -0.34578739428E+03  0.29765232549E+04  0.29563696936E+04 0.  0.
        3    1    3    3  502    0  0.78759253132E+03 -0.64669830889E+03  0.90515756240E+03  0.13630227148E+04  0.10100000352E+00 0.  1.
       -3    1    3    3    0  502 -0.78759253132E+03  0.64669830889E+03 -0.12509449567E+04  0.16135005401E+04  0.10100000352E+00 0. -1.
</event>
<event>
 5   0  0.9646321E-06  0.2949473E+04  0.7818609E-02  0.8258308E-01
       -2   -1    0    0    0  501  0.00000000000E+00  0.00000000000E+00  0.29824537160E+04  0.29824537160E+04  0.25500000920E-02 0. -1.
        2   -1    0    0  501    0  0.00000000000E+00  0.00000000000E+00 -0.72921413159E+03  0.72921413160E+03  0.25500000920E-02 0.  1.
    10030    2    1    2    0    0  0.00000000000E+00  0.00000000000E+00  0.22532395844E+04  0.37116678476E+04  0.29494727641E+04 0.  0.
        3    1    3    3  502    0  0.78272969685E+02 -0.85844613216E+03 -0.37917060669E+03  0.94171480757E+03  0.10100000352E+00 0.  1.
       -3    1    3    3    0  502 -0.78272969685E+02  0.85844613216E+03  0.26324101911E+04  0.27699530400E+04  0.10100000352E+00 0. -1.
</event>
<event>
 5   0  0.3486236E-06  0.2928100E+04  0.7818609E-02  0.8264566E-01
       -1   -1    0    0    0  501  0.00000000000E+00  0.00000000000E+00  0.10938736073E+04  0.10938736074E+04  0.50400001928E-02 0. -1.
        1   -1    0    0  501    0  0.00000000000E+00  0.00000000000E+00 -0.19594973365E+04  0.19594973365E+04  0.50400001928E-02 0.  1.
    10030    2    1    2    0    0  0.00000000000E+00  0.00000000000E+00 -0.86562372914E+03  0.30533709439E+04  0.29281000120E+04 0.  0.
        5    1    3    3  502    0 -0.75152958854E+03  0.93115668988E+03  0.44682359717E+03  0.12773108160E+04  0.46999998093E+01 0. -1.
       -5    1    3    3    0  502  0.75152958854E+03 -0.93115668988E+03 -0.13124473263E+04  0.17760601279E+04  0.46999998093E+01 0.  1.
</event>
<event>
 5   0  0.1001573E-05  0.2918149E+04  0.7818609E-02  0.8267498E-01
       -2   -1    0    0    0  501  0.00000000000E+00  0.00000000000E+00  0.11198080991E+04  0.11198080991E+04  0.25500000920E-02 0. -1.
        2   -1    0    0  501    0  0.00000000000E+00  0.00000000000E+00 -0.19011281630E+04  0.19011281630E+04  0.25500000920E-02 0.  1.
    10030    2    1    2    0    0  0.00000000000E+00  0.00000000000E+00 -0.78132006392E+03  0.30209362622E+04  0.29181492179E+04 0.  0.
        1    1    3    3  502    0 -0.83440038959E+02 -0.42676191477E+01  0.11173297265E+04  0.11204490932E+04  0.50400001928E-02 0. -1.
       -1    1    3    3    0  502  0.83440038959E+02  0.42676191477E+01 -0.18986497904E+04  0.19004871690E+04  0.50400001928E-02 0.  1.
</event>
<event>
 5   0  0.9646321E-06  0.2895124E+04  0.7818609E-02  0.8274330E-01
       -2   -1    0    0    0  501  0.00000000000E+00  0.00000000000E+00  0.22408463513E+04  0.22408463513E+04  0.25500000920E-02 0. -1.
        2   -1    0    0  501    0  0.00000000000E+00  0.00000000000E+00 -0.93510932557E+03  0.93510932557E+03  0.25500000920E-02 0.  1.
    10030    2    1    2    0    0  0.00000000000E+00  0.00000000000E+00  0.13057370258E+04  0.31759556769E+04  0.28951243982E+04 0.  0.
        3    1    3    3  502    0 -0.85476500037E+03  0.51026779345E+03  0.18057329545E+04  0.20619573080E+04  0.10100000352E+00 0. -1.
       -3    1    3    3    0  502  0.85476500037E+03 -0.51026779345E+03 -0.49999592875E+03  0.11139983689E+04  0.10100000352E+00 0.  1.
</event>
<event>
 5   0  0.3486236E-06  0.2612106E+04  0.7818609E-02  0.8364101E-01
       -1   -1    0    0    0  501  0.00000000000E+00  0.00000000000E+00  0.11564227383E+04  0.11564227383E+04  0.50400001928E-02 0.  1.
        1   -1    0    0  501    0  0.00000000000E+00  0.00000000000E+00 -0.14750443917E+04  0.14750443917E+04  0.50400001928E-02 0. -1.
    10030    2    1    2    0    0  0.00000000000E+00  0.00000000000E+00 -0.31862165340E+03  0.26314671301E+04  0.26121063337E+04 0.  0.
        5    1    3    3  502    0  0.33034840108E+03 -0.63446030573E+02  0.11120244199E+04  0.11617985477E+04  0.46999998093E+01 0.  1.
       -5    1    3    3    0  502 -0.33034840108E+03  0.63446030573E+02 -0.14306460733E+04  0.14696685824E+04  0.46999998093E+01 0. -1.
</event>
<event>
 5   0  0.3746518E-06  0.3146774E+04  0.7818609E-02  0.8203017E-01
       -1   -1    0    0    0  501  0.00000000000E+00  0.00000000000E+00  0.10643924151E+04  0.10643924152E+04  0.50400001928E-02 0. -1.
        1   -1    0    0  501    0  0.00000000000E+00  0.00000000000E+00 -0.23257841924E+04  0.23257841924E+04  0.50400001928E-02 0.  1.
    10030    2    1    2    0    0  0.00000000000E+00  0.00000000000E+00 -0.12613917772E+04  0.33901766076E+04  0.31467742554E+04 0.  0.
        4    1    3    3  502    0 -0.11453599387E+04 -0.42450749667E+03  0.43772306646E+03  0.12975589003E+04  0.12699999809E+01 0. -1.
       -4    1    3    3    0  502  0.11453599387E+04  0.42450749667E+03 -0.16991148437E+04  0.20926177073E+04  0.12699999809E+01 0.  1.
</event>
<event>
 5   0  0.3649705E-06  0.2922073E+04  0.7818609E-02  0.8266340E-01
       -1   -1    0    0    0  501  0.00000000000E+00  0.00000000000E+00  0.10216374140E+04  0.10216374140E+04  0.50400001928E-02 0. -1.
        1   -1    0    0  501    0  0.00000000000E+00  0.00000000000E+00 -0.20894174180E+04  0.20894174180E+04  0.50400001928E-02 0.  1.
    10030    2    1    2    0    0  0.00000000000E+00  0.00000000000E+00 -0.10677800040E+04  0.31110548321E+04  0.29220725575E+04 0.  0.
        2    1    3    3  502    0 -0.67731069219E+02  0.76983969274E+03 -0.18539941066E+04  0.20086151442E+04  0.25500000920E-02 0.  1.
       -2    1    3    3    0  502  0.67731069219E+02 -0.76983969274E+03  0.78621410260E+03  0.11024396879E+04  0.25500000920E-02 0. -1.
</event>
<event>
 5   0  0.9505359E-06  0.2828650E+04  0.7818609E-02  0.8294429E-01
        2   -1    0    0  501    0  0.00000000000E+00  0.00000000000E+00  0.10908851284E+04  0.10908851284E+04  0.25500000920E-02 0.  1.
       -2   -1    0    0    0  501  0.00000000000E+00  0.00000000000E+00 -0.18336619702E+04  0.18336619702E+04  0.25500000920E-02 0. -1.
    10030    2    1    2    0    0  0.00000000000E+00  0.00000000000E+00 -0.74277684179E+03  0.29245470986E+04  0.28286495532E+04 0.  0.
        4    1    3    3  502    0 -0.22828222670E+02  0.26927154685E+03 -0.18067205547E+04  0.18268193861E+04  0.12699999809E+01 0. -1.
       -4    1    3    3    0  502  0.22828222670E+02 -0.26927154685E+03  0.10639437129E+04  0.10977277125E+04  0.12699999809E+01 0.  1.
</event>
<event>
 5   0  0.1001573E-05  0.2864520E+04  0.7818609E-02  0.8283513E-01
        2   -1    0    0  501    0  0.00000000000E+00  0.00000000000E+00  0.11440715656E+04  0.11440715656E+04  0.25500000920E-02 0.  1.
       -2   -1    0    0    0  501  0.00000000000E+00  0.00000000000E+00 -0.17930427603E+04  0.17930427603E+04  0.25500000920E-02 0. -1.
    10030    2    1    2    0    0  0.00000000000E+00  0.00000000000E+00 -0.64897119476E+03  0.29371143259E+04  0.28645203703E+04 0.  0.
        1    1    3    3  502    0  0.64153786332E+03  0.91951133178E+02  0.98512334327E+03  0.11791920295E+04  0.50400001928E-02 0.  1.
       -1    1    3    3    0  502 -0.64153786332E+03 -0.91951133178E+02 -0.16340945380E+04  0.17579222964E+04  0.50400001928E-02 0. -1.
</event>
<event>
 5   0  0.3564340E-06  0.2767639E+04  0.7818609E-02  0.8313386E-01
       -1   -1    0    0    0  501  0.00000000000E+00  0.00000000000E+00  0.96493331013E+03  0.96493331014E+03  0.50400001928E-02 0. -1.
        1   -1    0    0  501    0  0.00000000000E+00  0.00000000000E+00 -0.19845474022E+04  0.19845474022E+04  0.50400001928E-02 0.  1.
    10030    2    1    2    0    0  0.00000000000E+00  0.00000000000E+00 -0.10196140921E+04  0.29494807124E+04  0.27676386281E+04 0.  0.
        1    1    3    3  502    0  0.64958574828E+03  0.44056697186E+02  0.79150891008E+03  0.10248848675E+04  0.50400001928E-02 0. -1.
       -1    1    3    3    0  502 -0.64958574828E+03 -0.44056697186E+02 -0.18111230022E+04  0.19245958448E+04  0.50400001928E-02 0.  1.
</event>
<event>
 5   0  0.9360689E-06  0.2831878E+04  0.7818609E-02  0.8293439E-01
        2   -1    0    0  501    0  0.00000000000E+00  0.00000000000E+00  0.18272311905E+04  0.18272311905E+04  0.25500000920E-02 0. -1.
       -2   -1    0    0    0  501  0.00000000000E+00  0.00000000000E+00 -0.10972246432E+04  0.10972246432E+04  0.25500000920E-02 0.  1.
    10030    2    1    2    0    0  0.00000000000E+00  0.00000000000E+00  0.73000654733E+03  0.29244558337E+04  0.28318778865E+04 0.  0.
        5    1    3    3  502    0 -0.86970060998E+03  0.44567638926E+03  0.14231236611E+04  0.17263573326E+04  0.46999998093E+01 0. -1.
       -5    1    3    3    0  502  0.86970060998E+03 -0.44567638926E+03 -0.69311711375E+03  0.11980985011E+04  0.46999998093E+01 0.  1.
</event>
<event>
 5   0  0.3746518E-06  0.2812253E+04  0.7818609E-02  0.8299474E-01
       -1   -1    0    0    0  501  0.00000000000E+00  0.00000000000E+00  0.16855218196E+04  0.16855218196E+04  0.50400001928E-02 0. -1.
        1   -1    0    0  501    0  0.00000000000E+00  0.00000000000E+00 -0.11730443964E+04  0.11730443964E+04  0.50400001928E-02 0.  1.
    10030    2    1    2    0    0  0.00000000000E+00  0.00000000000E+00  0.51247742323E+03  0.28585662161E+04  0.28122531362E+04 0.  0.
        4    1    3    3  502    0  0.12390182844E+04 -0.47591381397E+03  0.72813629899E+03  0.15138838629E+04  0.12699999809E+01 0. -1.
       -4    1    3    3    0  502 -0.12390182844E+04  0.47591381397E+03 -0.21565887576E+03  0.13446823532E+04  0.12699999809E+01 0.  1.
</event>
<event>
 5   0  0.3474078E-06  0.2839731E+04  0.7818609E-02  0.8291039E-01
       -1   -1    0    0    0  501  0.00000000000E+00  0.00000000000E+00  0.24025048158E+04  0.24025048158E+04  0.50400001928E-02 0.  1.
        1   -1    0    0  501    0  0.00000000000E+00  0.00000000000E+00 -0.83913149523E+03  0.83913149524E+03  0.50400001928E-02 0. -1.
    10030    2    1    2    0    0  0.00000000000E+00  0.00000000000E+00  0.15633733206E+04  0.32416363110E+04  0.28397305917E+04 0.  0.
        3    1    3    3  502    0  0.75302190791E+03  0.56825989769E+03  0.19930297621E+04  0.22050235709E+04  0.10100000352E+00 0.  1.
       -3    1    3    3    0  502 -0.75302190791E+03 -0.56825989769E+03 -0.42965644156E+03  0.10366127402E+04  0.10100000352E+00 0. -1.
</event>
<event>
 5   0  0.3649705E-06  0.2918266E+04  0.7818609E-02  0.8267464E-01
       -1   -1    0    0    0  501  0.00000000000E+00  0.00000000000E+00  0.13134229756E+04  0.13134229756E+04  0.50400001928E-02 0.  1.
        1   -1    0    0  501    0  0.00000000000E+00  0.00000000000E+00 -0.16210075366E+04  0.16210075366E+04  0.50400001928E-02 0. -1.
    10030    2    1    2    0    0  0.00000000000E+00  0.00000000000E+00 -0.30758456096E+03  0.29344305122E+04  0.29182656097E+04 0.  0.
        2    1    3    3  502    0  0.20853815463E+03 -0.46607087374E+03  0.12206582013E+04  0.13231465019E+04  0.25500000920E-02 0.  1.
       -2    1    3    3    0  502 -0.20853815463E+03  0.46607087374E+03 -0.15282427622E+04  0.16112840102E+04  0.25500000920E-02 0. -1.
</event>
<event>
 5   0  0.9505359E-06  0.3129232E+04  0.7818609E-02  0.8207761E-01
        2   -1    0    0  501    0  0.00000000000E+00  0.00000000000E+00  0.11261803606E+04  0.11261803606E+04  0.25500000920E-02 0. -1.
       -2   -1    0    0    0  501  0.00000000000E+00  0.00000000000E+00 -0.21737403841E+04  0.21737403841E+04  0.25500000920E-02 0.  1.
    10030    2    1    2    0    0  0.00000000000E+00  0.00000000000E+00 -0.10475600236E+04  0.32999207447E+04  0.31292323209E+04 0.  0.
        4    1    3    3  502    0 -0.91708172109E+03 -0.87338864470E+03 -0.14926869732E+04  0.19575399411E+04  0.12699999809E+01 0.  1.
       -4    1    3    3    0  502  0.91708172109E+03  0.87338864470E+03  0.44512694966E+03  0.13423808037E+04  0.12699999809E+01 0. -1.
</event>
<event>
 5   0  0.3564340E-06  0.2919937E+04  0.7818609E-02  0.8266970E-01
       -1   -1    0    0    0  501  0.00000000000E+00  0.00000000000E+00  0.12707077111E+04  0.12707077111E+04  0.50400001928E-02 0. -1.
        1   -1    0    0  501    0  0.00000000000E+00  0.00000000000E+00 -0.16774180422E+04  0.16774180422E+04  0.50400001928E-02 0.  1.
    10030    2    1    2    0    0  0.00000000000E+00  0.00000000000E+00 -0.40671033116E+03  0.29481257533E+04  0.29199370137E+04 0.  0.
        1    1    3    3  502    0 -0.64995522665E+03  0.66776073078E+03 -0.13381099478E+04  0.16306086050E+04  0.50400001928E-02 0.  1.
       -1    1    3    3    0  502  0.64995522665E+03 -0.66776073078E+03  0.93139961665E+03  0.13175171483E+04  0.50400001928E-02 0. -1.
</event>
<event>
 5   0  0.3474078E-06  0.2902452E+04  0.7818609E-02  0.8272148E-01
        1   -1    0    0  501    0  0.00000000000E+00  0.00000000000E+00  0.15326438442E+04  0.15326438442E+04  0.50400001928E-02 0. -1.
       -1   -1    0    0    0  501  0.00000000000E+00  0.00000000000E+00 -0.13741332855E+04  0.13741332855E+04  0.50400001928E-02 0.  1.
    10030    2    1    2    0    0  0.00000000000E+00  0.00000000000E+00  0.15851055868E+03  0.29067771298E+04  0.29024520125E+04 0.  0.
        3    1    3    3  502    0 -0.79051794090E+03 -0.77253309955E+03  0.10210453083E+04  0.15047456717E+04  0.10100000352E+00 0. -1.
       -3    1    3    3    0  502  0.79051794090E+03  0.77253309955E+03 -0.86253474963E+03  0.14020314580E+04  0.10100000352E+00 0.  1.
</event>
<event>
 5   0  0.9251510E-06  0.2725775E+04  0.7818609E-02  0.8326690E-01
        2   -1    0    0  501    0  0.00000000000E+00  0.00000000000E+00  0.22383427085E+04  0.22383427085E+04  0.25500000920E-02 0.  1.
       -2   -1    0    0    0  501  0.00000000000E+00  0.00000000000E+00 -0.82983821023E+03  0.82983821024E+03  0.25500000920E-02 0. -1.
    10030    2    1    2    0    0  0.00000000000E+00  0.00000000000E+00  0.14085044983E+04  0.30681809188E+04  0.27257749776E+04 0.  0.
        2    1    3    3  502    0  0.10144911473E+04  0.91006273665E+03  0.69584135370E+03  0.15302292842E+04  0.25500000920E-02 0. -1.
       -2    1    3    3    0  502 -0.10144911473E+04 -0.91006273665E+03  0.71266314458E+03  0.15379516346E+04  0.25500000920E-02 0.  1.
</event>
<event>
 5   0  0.9505359E-06  0.2745923E+04  0.7818609E-02  0.8320257E-01
        2   -1    0    0  501    0  0.00000000000E+00  0.00000000000E+00  0.16564149046E+04  0.16564149046E+04  0.25500000920E-02 0. -1.
       -2   -1    0    0    0  501  0.00000000000E+00  0.00000000000E+00 -0.11380137257E+04  0.11380137257E+04  0.25500000920E-02 0.  1.
    10030    2    1    2    0    0  0.00000000000E+00  0.00000000000E+00  0.51840117891E+03  0.27944286303E+04  0.27459227206E+04 0.  0.
        4    1    3    3  502    0  0.11994590873E+04  0.33824810162E+02 -0.41979996134E+03  0.12712512892E+04  0.12699999809E+01 0.  1.
       -4    1    3    3    0  502 -0.11994590873E+04 -0.33824810162E+02  0.93820114025E+03  0.15231773411E+04  0.12699999809E+01 0. -1.
</event>
<event>
 5   0  0.3486236E-06  0.2892981E+04  0.7818609E-02  0.8274969E-01
        1   -1    0    0  501    0  0.00000000000E+00  0.00000000000E+00  0.60317406216E+03  0.60317406218E+03  0.50400001928E-02 0. -1.
       -1   -1    0    0    0  501  0.00000000000E+00  0.00000000000E+00 -0.34688737463E+04  0.34688737463E+04  0.50400001928E-02 0.  1.
    10030    2    1    2    0    0  0.00000000000E+00  0.00000000000E+00 -0.28656996841E+04  0.40720478085E+04  0.28929809324E+04 0.  0.
        5    1    3    3  502    0 -0.61277529629E+03 -0.11018107891E+04 -0.24309606336E+04  0.27384434029E+04  0.46999998093E+01 0.  1.
       -5    1    3    3    0  502  0.61277529629E+03  0.11018107891E+04 -0.43473905055E+03  0.13336044056E+04  0.46999998093E+01 0. -1.
</event>
<event>
 5   0  0.9505359E-06  0.2921956E+04  0.7818609E-02  0.8266375E-01
       -2   -1    0    0    0  501  0.00000000000E+00  0.00000000000E+00  0.17949097703E+04  0.17949097703E+04  0.25500000920E-02 0.  1.
        2   -1    0    0  501    0  0.00000000000E+00  0.00000000000E+00 -0.11891718556E+04  0.11891718556E+04  0.25500000920E-02 0. -1.
    10030    2    1    2    0    0  0.00000000000E+00  0.00000000000E+00  0.60573791478E+03  0.29840816259E+04  0.29219556343E+04 0.  0.
        4    1    3    3  502    0 -0.98966397189E+03  0.77950168645E+03 -0.45272461169E+03  0.13386630806E+04  0.12699999809E+01 0. -1.
       -4    1    3    3    0  502  0.98966397189E+03 -0.77950168645E+03  0.10584625265E+04  0.16454185453E+04  0.12699999809E+01 0.  1.
</event>
<event>
 5   0  0.3649705E-06  0.2817404E+04  0.7818609E-02  0.8297885E-01
        1   -1    0    0  501    0  0.00000000000E+00  0.00000000000E+00  0.17965559416E+04  0.17965559416E+04  0.50400001928E-02 0.  1.
       -1   -1    0    0    0  501  0.00000000000E+00  0.00000000000E+00 -0.11045811552E+04  0.11045811552E+04  0.50400001928E-02 0. -1.
    10030    2    1    2    0    0  0.00000000000E+00  0.00000000000E+00  0.69197478635E+03  0.29011370968E+04  0.28174043638E+04 0.  0.
        2    1    3    3  502    0  0.37965265984E+03  0.32115680610E+02 -0.10505170383E+04  0.11174764458E+04  0.25500000920E-02 0. -1.
       -2    1    3    3    0  502 -0.37965265984E+03 -0.32115680610E+02  0.17424918246E+04  0.17836606510E+04  0.25500000920E-02 0.  1.
</event>
<event>
 5   0  0.9360689E-06  0.2773423E+04  0.7818609E-02  0.8311567E-01
       -2   -1    0    0    0  501  0.00000000000E+00  0.00000000000E+00  0.12079965392E+04  0.12079965392E+04  0.25500000920E-02 0. -1.
        2   -1    0    0  501    0  0.00000000000E+00  0.00000000000E+00 -0.15918665358E+04  0.15918665358E+04  0.25500000920E-02 0.  1.
    10030    2    1    2    0    0  0.00000000000E+00  0.00000000000E+00 -0.38386999661E+03  0.27998630750E+04  0.27734233475E+04 0.  0.
        5    1    3    3  502    0 -0.47051371094E+03 -0.84097240177E+03  0.81473187086E+03  0.12619143569E+04  0.46999998093E+01 0. -1.
       -5    1    3    3    0  502  0.47051371094E+03  0.84097240177E+03 -0.11986018675E+04  0.15379487181E+04  0.46999998093E+01 0.  1.
</event>
<event>
 5   0  0.3746518E-06  0.2878682E+04  0.7818609E-02  0.8279249E-01
        1   -1    0    0  501    0  0.00000000000E+00  0.00000000000E+00  0.15732337867E+04  0.15732337868E+04  0.50400001928E-02 0. -1.
       -1   -1    0    0    0  501  0.00000000000E+00  0.00000000000E+00 -0.13168435346E+04  0.13168435346E+04  0.50400001928E-02 0.  1.
    10030    2    1    2    0    0  0.00000000000E+00  0.00000000000E+00  0.25639025219E+03  0.28900773213E+04  0.28786821571E+04 0.  0.
        4    1    3    3  502    0 -0.24833667299E+03 -0.65259409152E+03 -0.11354177153E+04  0.13329385405E+04  0.12699999809E+01 0.  1.
       -4    1    3    3    0  502  0.24833667299E+03  0.65259409152E+03  0.13918079675E+04  0.15571387809E+04  0.12699999809E+01 0. -1.
</event>
<event>
 5   0  0.9646321E-06  0.2907772E+04  0.7818609E-02  0.8270569E-01
        2   -1    0    0  501    0  0.00000000000E+00  0.00000000000E+00  0.16057882606E+04  0.16057882606E+04  0.25500000920E-02 0. -1.
       -2   -1    0    0    0  501  0.00000000000E+00  0.00000000000E+00 -0.13163532372E+04  0.13163532372E+04  0.25500000920E-02 0.  1.
    10030    2    1    2    0    0  0.00000000000E+00  0.00000000000E+00  0.28943502339E+03  0.29221414979E+04  0.29077720511E+04 0.  0.
        3    1    3    3  502    0 -0.43092554967E+03  0.43314711849E+03 -0.11810712039E+04  0.13297527795E+04  0.10100000352E+00 0.  1.
       -3    1    3    3    0  502  0.43092554967E+03 -0.43314711849E+03  0.14705062273E+04  0.15923887184E+04  0.10100000352E+00 0. -1.
</event>
<event>
 5   0  0.3188375E-06  0.2778069E+04  0.7818609E-02  0.8310110E-01
       -4   -1    0    0    0  501  0.00000000000E+00  0.00000000000E+00  0.15109725079E+04  0.15109730416E+04  0.12699999809E+01 0. -1.
        4   -1    0    0  501    0  0.00000000000E+00  0.00000000000E+00 -0.12769357359E+04  0.12769363674E+04  0.12699999809E+01 0.  1.
    10030    2    1    2    0    0  0.00000000000E+00  0.00000000000E+00  0.23403677196E+03  0.27879094090E+04  0.27780686929E+04 0.  0.
        1    1    3    3  502    0 -0.10623747466E+04 -0.64160974409E+03  0.74301745440E+03  0.14465054799E+04  0.50400001928E-02 0. -1.
       -1    1    3    3    0  502  0.10623747466E+04  0.64160974409E+03 -0.50898068244E+03  0.13414039291E+04  0.50400001928E-02 0.  1.
</event>
<event>
 5   0  0.9251510E-06  0.2854771E+04  0.7818609E-02  0.8286463E-01
       -2   -1    0    0    0  501  0.00000000000E+00  0.00000000000E+00  0.10027537873E+04  0.10027537873E+04  0.25500000920E-02 0.  1.
        2   -1    0    0  501    0  0.00000000000E+00  0.00000000000E+00 -0.20318344728E+04  0.20318344728E+04  0.25500000920E-02 0. -1.
    10030    2    1    2    0    0  0.00000000000E+00  0.00000000000E+00 -0.10290806855E+04  0.30345882600E+04  0.28547712431E+04 0.  0.
        2    1    3    3  502    0 -0.69632709517E+03  0.70210655148E+03  0.57966893744E+03  0.11462290827E+04  0.25500000920E-02 0.  1.
       -2    1    3    3    0  502  0.69632709517E+03 -0.70210655148E+03 -0.16087496229E+04  0.18883591773E+04  0.25500000920E-02 0. -1.
</event>
<event>
 5   0  0.3188375E-06  0.2865433E+04  0.7818609E-02  0.8283237E-01
       -3   -1    0    0    0  501  0.00000000000E+00  0.00000000000E+00  0.14295516025E+04  0.14295516061E+04  0.10100000352E+00 0.  1.
        3   -1    0    0  501    0  0.00000000000E+00  0.00000000000E+00 -0.14358885212E+04  0.14358885248E+04  0.10100000352E+00 0. -1.
    10030    2    1    2    0    0  0.00000000000E+00  0.00000000000E+00 -0.63369187061E+01  0.28654401308E+04  0.28654331238E+04 0.  0.
        1    1    3    3  502    0 -0.12717005662E+04 -0.54839891565E+03  0.36386519680E+03  0.14319083708E+04  0.50400001928E-02 0.  1.
       -1    1    3    3    0  502  0.12717005662E+04  0.54839891565E+03 -0.37020211550E+03  0.14335317601E+04  0.50400001928E-02 0. -1.
</event>
<event>
 5   0  0.9505359E-06  0.2934241E+04  0.7818609E-02  0.8262762E-01
       -2   -1    0    0    0  501  0.00000000000E+00  0.00000000000E+00  0.13217937985E+04  0.13217937985E+04  0.25500000920E-02 0. -1.
        2   -1    0    0  501    0  0.00000000000E+00  0.00000000000E+00 -0.16284257212E+04  0.16284257212E+04  0.25500000920E-02 0.  1.
    10030    2    1    2    0    0  0.00000000000E+00  0.00000000000E+00 -0.30663192269E+03  0.29502195198E+04  0.29342413123E+04 0.  0.
        4    1    3    3  502    0 -0.29102235129E+03 -0.35472730984E+03  0.12477988282E+04  0.13294844873E+04  0.12699999809E+01 0. -1.
       -4    1    3    3    0  502  0.29102235129E+03  0.35472730984E+03 -0.15544307509E+04  0.16207350325E+04  0.12699999809E+01 0.  1.
</event>
<event>
 5   0  0.9360689E-06  0.3004836E+04  0.7818609E-02  0.8242351E-01
       -2   -1    0    0    0  501  0.00000000000E+00  0.00000000000E+00  0.18058429875E+04  0.18058429875E+04  0.25500000920E-02 0.  1.
        2   -1    0    0  501    0  0.00000000000E+00  0.00000000000E+00 -0.12499755396E+04  0.12499755396E+04  0.25500000920E-02 0. -1.
    10030    2    1    2    0    0  0.00000000000E+00  0.00000000000E+00  0.55586744789E+03  0.30558185271E+04  0.30048358110E+04 0.  0.
        5    1    3    3  502    0  0.23751994747E+03  0.10050648895E+03  0.17831547245E+04  0.18017158881E+04  0.46999998093E+01 0.  1.
       -5    1    3    3    0  502 -0.23751994747E+03 -0.10050648895E+03 -0.12272872766E+04  0.12541026390E+04  0.46999998093E+01 0. -1.
</event>
<event>
 5   0  0.3746518E-06  0.2887913E+04  0.7818609E-02  0.8276483E-01
        1   -1    0    0  501    0  0.00000000000E+00  0.00000000000E+00  0.17412404892E+04  0.17412404893E+04  0.50400001928E-02 0.  1.
       -1   -1    0    0    0  501  0.00000000000E+00  0.00000000000E+00 -0.11974282657E+04  0.11974282657E+04  0.50400001928E-02 0. -1.
    10030    2    1    2    0    0  0.00000000000E+00  0.00000000000E+00  0.54381222351E+03  0.29386687550E+04  0.28879131422E+04 0.  0.
        4    1    3    3  502    0  0.63101188672E+03 -0.50297362736E+03 -0.94657399635E+03  0.12438498360E+04  0.12699999809E+01 0. -1.
       -4    1    3    3    0  502 -0.63101188672E+03  0.50297362736E+03  0.14903862199E+04  0.16948189190E+04  0.12699999809E+01 0.  1.
</event>
<event>
 5   0  0.3649705E-06  0.2932633E+04  0.7818609E-02  0.8263234E-01
        1   -1    0    0  501    0  0.00000000000E+00  0.00000000000E+00  0.23851021988E+04  0.23851021988E+04  0.50400001928E-02 0.  1.
       -1   -1    0    0    0  501  0.00000000000E+00  0.00000000000E+00 -0.90146400825E+03  0.90146400827E+03  0.50400001928E-02 0. -1.
    10030    2    1    2    0    0  0.00000000000E+00  0.00000000000E+00  0.14836381905E+04  0.32865662070E+04  0.29326328023E+04 0.  0.
        2    1    3    3  502    0  0.60083267618E+03 -0.12215956219E+04  0.13128786981E+03  0.13676740375E+04  0.25500000920E-02 0. -1.
       -2    1    3    3    0  502 -0.60083267618E+03  0.12215956219E+04  0.13523503207E+04  0.19188921695E+04  0.25500000920E-02 0.  1.
</event>
<event>
 5   0  0.9360689E-06  0.2879103E+04  0.7818609E-02  0.8279122E-01
       -2   -1    0    0    0  501  0.00000000000E+00  0.00000000000E+00  0.10774697541E+04  0.10774697541E+04  0.25500000920E-02 0.  1.
        2   -1    0    0  501    0  0.00000000000E+00  0.00000000000E+00 -0.19233100039E+04  0.19233100039E+04  0.25500000920E-02 0. -1.
    10030    2    1    2    0    0  0.00000000000E+00  0.00000000000E+00 -0.84584024987E+03  0.30007797580E+04  0.28791028859E+04 0.  0.
        5    1    3    3  502    0 -0.55174321640E+03 -0.62444439831E+03  0.80054412641E+03  0.11555277460E+04  0.46999998093E+01 0.  1.
       -5    1    3    3    0  502  0.55174321640E+03  0.62444439831E+03 -0.16463843763E+04  0.18452520120E+04  0.46999998093E+01 0. -1.
</event>
<event>
 5   0  0.3474078E-06  0.2892954E+04  0.7818609E-02  0.8274977E-01
        1   -1    0    0  501    0  0.00000000000E+00  0.00000000000E+00  0.12219138292E+04  0.12219138292E+04  0.50400001928E-02 0. -1.
       -1   -1    0    0    0  501  0.00000000000E+00  0.00000000000E+00 -0.17123102359E+04  0.17123102359E+04  0.50400001928E-02 0.  1.
    10030    2    1    2    0    0  0.00000000000E+00  0.00000000000E+00 -0.49039640676E+03  0.29342240651E+04  0.28929538932E+04 0.  0.
        3    1    3    3  502    0 -0.10960707538E+04 -0.90981734453E+03 -0.50009359875E+03  0.15097126599E+04  0.10100000352E+00 0. -1.
       -3    1    3    3    0  502  0.10960707538E+04  0.90981734453E+03  0.96971919861E+01  0.14245114052E+04  0.10100000352E+00 0.  1.
</event>
<event>
 5   0  0.1001573E-05  0.2864818E+04  0.7818609E-02  0.8283423E-01
        2   -1    0    0  501    0  0.00000000000E+00  0.00000000000E+00  0.12765944174E+04  0.12765944174E+04  0.25500000920E-02 0.  1.
       -2   -1    0    0    0  501  0.00000000000E+00  0.00000000000E+00 -0.16072418285E+04  0.16072418285E+04  0.25500000920E-02 0. -1.
    10030    2    1    2    0    0  0.00000000000E+00  0.00000000000E+00 -0.33064741114E+03  0.28838362459E+04  0.28648182809E+04 0.  0.
        1    1    3    3  502    0  0.43081409198E+01  0.17924958115E+03  0.12652533266E+04  0.12778947347E+04  0.50400001928E-02 0.  1.
       -1    1    3    3    0  502 -0.43081409198E+01 -0.17924958115E+03 -0.15959007378E+04  0.16059415112E+04  0.50400001928E-02 0. -1.
</event>
<event>
 5   0  0.3564340E-06  0.2742872E+04  0.7818609E-02  0.8321227E-01
       -1   -1    0    0    0  501  0.00000000000E+00  0.00000000000E+00  0.10342623754E+04  0.10342623755E+04  0.50400001928E-02 0.  1.
        1   -1    0    0  501    0  0.00000000000E+00  0.00000000000E+00 -0.18185293090E+04  0.18185293090E+04  0.50400001928E-02 0. -1.
    10030    2    1    2    0    0  0.00000000000E+00  0.00000000000E+00 -0.78426693359E+03  0.28527916845E+04  0.27428718111E+04 0.  0.
        1    1    3    3  502    0  0.52267224011E+03  0.90822178249E+03 -0.13123400650E+04  0.16793717644E+04  0.50400001928E-02 0. -1.
       -1    1    3    3    0  502 -0.52267224011E+03 -0.90822178249E+03  0.52807313142E+03  0.11734199201E+04  0.50400001928E-02 0.  1.
</event>
<event>
 5   0  0.1001573E-05  0.2880159E+04  0.7818609E-02  0.8278805E-01
        2   -1    0    0  501    0  0.00000000000E+00  0.00000000000E+00  0.26078142122E+04  0.26078142122E+04  0.25500000920E-02 0. -1.
       -2   -1    0    0    0  501  0.00000000000E+00  0.00000000000E+00 -0.79523650801E+03  0.79523650802E+03  0.25500000920E-02 0.  1.
    10030    2    1    2    0    0  0.00000000000E+00  0.00000000000E+00  0.18125777042E+04  0.34030507202E+04  0.28801590704E+04 0.  0.
        1    1    3    3  502    0 -0.34448443496E+03 -0.76054235296E+03 -0.48007461019E+03  0.96310218977E+03  0.50400001928E-02 0.  1.
       -1    1    3    3    0  502  0.34448443496E+03  0.76054235296E+03  0.22926523144E+04  0.24399485304E+04  0.50400001928E-02 0. -1.
</event>
<event>
 5   0  0.1001573E-05  0.2815942E+04  0.7818609E-02  0.8298336E-01
        2   -1    0    0  501    0  0.00000000000E+00  0.00000000000E+00  0.12852470149E+04  0.12852470149E+04  0.25500000920E-02 0. -1.
       -2   -1    0    0    0  501  0.00000000000E+00  0.00000000000E+00 -0.15424133143E+04  0.15424133143E+04  0.25500000920E-02 0.  1.
    10030    2    1    2    0    0  0.00000000000E+00  0.00000000000E+00 -0.25716629941E+03  0.28276603292E+04  0.28159418374E+04 0.  0.
        1    1    3    3  502    0 -0.13187426014E+04 -0.46284743228E+03 -0.29979875937E+03  0.14294016547E+04  0.50400001928E-02 0. -1.
       -1    1    3    3    0  502  0.13187426014E+04  0.46284743228E+03  0.42632459954E+02  0.13982586745E+04  0.50400001928E-02 0.  1.
</event>
<event>
 5   0  0.9360689E-06  0.2827152E+04  0.7818609E-02  0.8294888E-01
       -2   -1    0    0    0  501  0.00000000000E+00  0.00000000000E+00  0.12865214356E+04  0.12865214356E+04  0.25500000920E-02 0.  1.
        2   -1    0    0  501    0  0.00000000000E+00  0.00000000000E+00 -0.15531786977E+04  0.15531786977E+04  0.25500000920E-02 0. -1.
    10030    2    1    2    0    0  0.00000000000E+00  0.00000000000E+00 -0.26665726214E+03  0.28397001333E+04  0.28271524104E+04 0.  0.
        5    1    3    3  502    0 -0.12232774330E+04 -0.34530021342E+03  0.48791111857E+03  0.13615135934E+04  0.46999998093E+01 0.  1.
       -5    1    3    3    0  502  0.12232774330E+04  0.34530021342E+03 -0.75456838071E+03  0.14781865398E+04  0.46999998093E+01 0. -1.
</event>
<event>
 5   0  0.9646321E-06  0.2900124E+04  0.7818609E-02  0.8272841E-01
        2   -1    0    0  501    0  0.00000000000E+00  0.00000000000E+00  0.13360585520E+04  0.13360585520E+04  0.25500000920E-02 0.  1.
       -2   -1    0    0    0  501  0.00000000000E+00  0.00000000000E+00 -0.15737928364E+04  0.15737928364E+04  0.25500000920E-02 0. -1.
    10030    2    1    2    0    0  0.00000000000E+00  0.00000000000E+00 -0.23773428439E+03  0.29098513885E+04  0.29001237065E+04 0.  0.
        3    1    3    3  502    0  0.81056342007E+03 -0.45211372845E+02  0.10866713126E+04  0.13564334403E+04  0.10100000352E+00 0.  1.
       -3    1    3    3    0  502 -0.81056342007E+03  0.45211372845E+02 -0.13244055970E+04  0.15534179482E+04  0.10100000352E+00 0. -1.
</event>
<event>
 5   0  0.3649705E-06  0.2881659E+04  0.7818609E-02  0.8278355E-01
        1   -1    0    0  501    0  0.00000000000E+00  0.00000000000E+00  0.17161279275E+04  0.17161279275E+04  0.50400001928E-02 0. -1.
       -1   -1    0    0    0  501  0.00000000000E+00  0.00000000000E+00 -0.12096940219E+04  0.12096940219E+04  0.50400001928E-02 0.  1.
    10030    2    1    2    0    0  0.00000000000E+00  0.00000000000E+00  0.50643390567E+03  0.29258219494E+04  0.28816590324E+04 0.  0.
        2    1    3    3  502    0 -0.53190890434E+03 -0.11305848354E+04 -0.47530336907E+03  0.13368105495E+04  0.25500000920E-02 0.  1.
       -2    1    3    3    0  502  0.53190890434E+03  0.11305848354E+04  0.98173727473E+03  0.15890113999E+04  0.25500000920E-02 0. -1.
</event>
<event>
 5   0  0.3474078E-06  0.2877216E+04  0.7818609E-02  0.8279689E-01
        1   -1    0    0  501    0  0.00000000000E+00  0.00000000000E+00  0.27498185068E+04  0.27498185068E+04  0.50400001928E-02 0. -1.
       -1   -1    0    0    0  501  0.00000000000E+00  0.00000000000E+00 -0.75262867948E+03  0.75262867950E+03  0.50400001928E-02 0.  1.
    10030    2    1    2    0    0  0.00000000000E+00  0.00000000000E+00  0.19971898273E+04  0.35024471863E+04  0.28772155092E+04 0.  0.
        3    1    3    3  502    0  0.10822074016E+04  0.85801355974E+03  0.50828842425E+03  0.14716376120E+04  0.10100000352E+00 0.  1.
       -3    1    3    3    0  502 -0.10822074016E+04 -0.85801355974E+03  0.14889014031E+04  0.20308095743E+04  0.10100000352E+00 0. -1.
</event>
<event>
 5   0  0.3188375E-06  0.2890953E+04  0.7818609E-02  0.8275574E-01
        3   -1    0    0  501    0  0.00000000000E+00  0.00000000000E+00  0.12531037774E+04  0.12531037814E+04  0.10100000352E+00 0. -1.
       -3   -1    0    0    0  501  0.00000000000E+00  0.00000000000E+00 -0.16673819388E+04  0.16673819419E+04  0.10100000352E+00 0.  1.
    10030    2    1    2    0    0  0.00000000000E+00  0.00000000000E+00 -0.41427816148E+03  0.29204857233E+04  0.28909532105E+04 0.  0.
        3    1    3    3  502    0 -0.93146640617E+03  0.45514128884E+03 -0.12247121265E+04  0.16045881283E+04  0.10100000352E+00 0.  1.
       -3    1    3    3    0  502  0.93146640617E+03 -0.45514128884E+03  0.81043396502E+03  0.13158975950E+04  0.10100000352E+00 0. -1.
</event>
<event>
 5   0  0.3649705E-06  0.2904169E+04  0.7818609E-02  0.8271638E-01
       -1   -1    0    0    0  501  0.00000000000E+00  0.00000000000E+00  0.74726388897E+03  0.74726388899E+03  0.50400001928E-02 0.  1.
        1   -1    0    0  501    0  0.00000000000E+00  0.00000000000E+00 -0.28216927579E+04  0.28216927579E+04  0.50400001928E-02 0. -1.
    10030    2    1    2    0    0  0.00000000000E+00  0.00000000000E+00 -0.20744288690E+04  0.35689566469E+04  0.29041687994E+04 0.  0.
        2    1    3    3  502    0  0.55566356412E+03  0.37656847564E+03  0.54516085324E+03  0.86473473924E+03  0.25500000920E-02 0.  1.
       -2    1    3    3    0  502 -0.55566356412E+03 -0.37656847564E+03 -0.26195897222E+04  0.27042219077E+04  0.25500000920E-02 0. -1.
</event>
<event>
 5   0  0.3564340E-06  0.2904448E+04  0.7818609E-02  0.8271555E-01
       -1   -1    0    0    0  501  0.00000000000E+00  0.00000000000E+00  0.14298194238E+04  0.14298194238E+04  0.50400001928E-02 0. -1.
        1   -1    0    0  501    0  0.00000000000E+00  0.00000000000E+00 -0.14749791395E+04  0.14749791395E+04  0.50400001928E-02 0.  1.
    10030    2    1    2    0    0  0.00000000000E+00  0.00000000000E+00 -0.45159715641E+02  0.29047985633E+04  0.29044475023E+04 0.  0.
        1    1    3    3  502    0 -0.56101683705E+01 -0.11874995512E+04 -0.85860383816E+03  0.14653966047E+04  0.50400001928E-02 0.  1.
       -1    1    3    3    0  502  0.56101683705E+01  0.11874995512E+04  0.81344412252E+03  0.14394019586E+04  0.50400001928E-02 0. -1.
</event>
<event>
 5   0  0.9505359E-06  0.2903625E+04  0.7818609E-02  0.8271800E-01
       -2   -1    0    0    0  501  0.00000000000E+00  0.00000000000E+00  0.13124519052E+04  0.13124519052E+04  0.25500000920E-02 0. -1.
        2   -1    0    0  501    0  0.00000000000E+00  0.00000000000E+00 -0.16059708974E+04  0.16059708974E+04  0.25500000920E-02 0.  1.
    10030    2    1    2    0    0  0.00000000000E+00  0.00000000000E+00 -0.29351899229E+03  0.29184228026E+04  0.29036250199E+04 0.  0.
        4    1    3    3  502    0  0.11648976935E+04  0.51369851634E+03  0.55456812561E+03  0.13886757076E+04  0.12699999809E+01 0. -1.
       -4    1    3    3    0  502 -0.11648976935E+04 -0.51369851634E+03 -0.84808711790E+03  0.15297470950E+04  0.12699999809E+01 0.  1.
</event>
<event>
 5   0  0.3474078E-06  0.2887438E+04  0.7818609E-02  0.8276625E-01
        1   -1    0    0  501    0  0.00000000000E+00  0.00000000000E+00  0.16204275864E+04  0.16204275864E+04  0.50400001928E-02 0. -1.
       -1   -1    0    0    0  501  0.00000000000E+00  0.00000000000E+00 -0.12862806726E+04  0.12862806726E+04  0.50400001928E-02 0.  1.
    10030    2    1    2    0    0  0.00000000000E+00  0.00000000000E+00  0.33414691377E+03  0.29067082590E+04  0.28874380933E+04 0.  0.
        3    1    3    3  502    0 -0.10298977582E+04  0.36423281701E+02  0.11849140703E+04  0.15703621913E+04  0.10100000352E+00 0. -1.
       -3    1    3    3    0  502  0.10298977582E+04 -0.36423281701E+02 -0.85076715650E+03  0.13363460677E+04  0.10100000352E+00 0.  1.
</event>
<event>
 5   0  0.9251510E-06  0.2656285E+04  0.7818609E-02  0.8349330E-01
       -2   -1    0    0    0  501  0.00000000000E+00  0.00000000000E+00  0.11014287561E+04  0.11014287561E+04  0.25500000920E-02 0. -1.
        2   -1    0    0  501    0  0.00000000000E+00  0.00000000000E+00 -0.16015215128E+04  0.16015215128E+04  0.25500000920E-02 0.  1.
    10030    2    1    2    0    0  0.00000000000E+00  0.00000000000E+00 -0.50009275671E+03  0.27029502689E+04  0.26562845087E+04 0.  0.
        2    1    3    3  502    0  0.99213612374E+03  0.10310215230E+03 -0.11423773928E+04  0.15165718741E+04  0.25500000920E-02 0.  1.
       -2    1    3    3    0  502 -0.99213612374E+03 -0.10310215230E+03  0.64228463611E+03  0.11863783948E+04  0.25500000920E-02 0. -1.
</event>
<event>
 5   0  0.3486236E-06  0.2883697E+04  0.7818609E-02  0.8277745E-01
       -1   -1    0    0    0  501  0.00000000000E+00  0.00000000000E+00  0.13948310032E+04  0.13948310032E+04  0.50400001928E-02 0.  1.
        1   -1    0    0  501    0  0.00000000000E+00  0.00000000000E+00 -0.14904509117E+04  0.14904509118E+04  0.50400001928E-02 0. -1.
    10030    2    1    2    0    0  0.00000000000E+00  0.00000000000E+00 -0.95619908505E+02  0.28852819150E+04  0.28836970302E+04 0.  0.
        5    1    3    3  502    0 -0.11487127223E+04 -0.38055615396E+03 -0.83216754948E+03  0.14686350211E+04  0.46999998093E+01 0. -1.
       -5    1    3    3    0  502  0.11487127223E+04  0.38055615396E+03  0.73654764097E+03  0.14166468939E+04  0.46999998093E+01 0.  1.
</event>
<event>
 5   0  0.9505359E-06  0.2831931E+04  0.7818609E-02  0.8293423E-01
       -2   -1    0    0    0  501  0.00000000000E+00  0.00000000000E+00  0.94216938456E+03  0.94216938456E+03  0.25500000920E-02 0.  1.
        2   -1    0    0  501    0  0.00000000000E+00  0.00000000000E+00 -0.21280235876E+04  0.21280235876E+04  0.25500000920E-02 0. -1.
    10030    2    1    2    0    0  0.00000000000E+00  0.00000000000E+00 -0.11858542030E+04  0.30701929721E+04  0.28319312660E+04 0.  0.
        4    1    3    3  502    0 -0.87045670252E+03 -0.21373198432E+03 -0.17813183917E+04  0.19941095902E+04  0.12699999809E+01 0. -1.
       -4    1    3    3    0  502  0.87045670252E+03  0.21373198432E+03  0.59546418867E+03  0.10760833820E+04  0.12699999809E+01 0.  1.
</event>
<event>
 5   0  0.1001573E-05  0.2907661E+04  0.7818609E-02  0.8270602E-01
       -2   -1    0    0    0  501  0.00000000000E+00  0.00000000000E+00  0.10719710115E+04  0.10719710115E+04  0.25500000920E-02 0. -1.
        2   -1    0    0  501    0  0.00000000000E+00  0.00000000000E+00 -0.19717172844E+04  0.19717172845E+04  0.25500000920E-02 0.  1.
    10030    2    1    2    0    0  0.00000000000E+00  0.00000000000E+00 -0.89974627298E+03  0.30436882959E+04  0.29076614464E+04 0.  0.
        1    1    3    3  502    0  0.99152884540E+03  0.59232970848E+03  0.47440641987E+03  0.12486173898E+04  0.50400001928E-02 0. -1.
       -1    1    3    3    0  502 -0.99152884540E+03 -0.59232970848E+03 -0.13741526929E+04  0.17950709061E+04  0.50400001928E-02 0.  1.
</event>
<event>
 5   0  0.1001573E-05  0.2884542E+04  0.7818609E-02  0.8277491E-01
       -2   -1    0    0    0  501  0.00000000000E+00  0.00000000000E+00  0.81022339423E+03  0.81022339423E+03  0.25500000920E-02 0. -1.
        2   -1    0    0  501    0  0.00000000000E+00  0.00000000000E+00 -0.25673737844E+04  0.25673737844E+04  0.25500000920E-02 0.  1.
    10030    2    1    2    0    0  0.00000000000E+00  0.00000000000E+00 -0.17571503902E+04  0.33775971786E+04  0.28845424607E+04 0.  0.
        1    1    3    3  502    0  0.55928601156E+03 -0.54375780952E+03 -0.22990599068E+04  0.24277870279E+04  0.50400001928E-02 0.  1.
       -1    1    3    3    0  502 -0.55928601156E+03  0.54375780952E+03  0.54190951660E+03  0.94981015068E+03  0.50400001928E-02 0. -1.
</event>
<event>
 5   0  0.3746518E-06  0.2923677E+04  0.7818609E-02  0.8265867E-01
       -1   -1    0    0    0  501  0.00000000000E+00  0.00000000000E+00  0.90977374789E+03  0.90977374790E+03  0.50400001928E-02 0.  1.
        1   -1    0    0  501    0  0.00000000000E+00  0.00000000000E+00 -0.23489053826E+04  0.23489053826E+04  0.50400001928E-02 0. -1.
    10030    2    1    2    0    0  0.00000000000E+00  0.00000000000E+00 -0.14391316347E+04  0.32586791305E+04  0.29236774469E+04 0.  0.
        4    1    3    3  502    0 -0.34969288391E+03  0.14124002496E+04 -0.87644604695E+03  0.16986226374E+04  0.12699999809E+01 0. -1.
       -4    1    3    3    0  502  0.34969288391E+03 -0.14124002496E+04 -0.56268558773E+03  0.15600564931E+04  0.12699999809E+01 0.  1.
</event>
<event>
 5   0  0.9505359E-06  0.2494019E+04  0.7818609E-02  0.8405119E-01
        2   -1    0    0  501    0  0.00000000000E+00  0.00000000000E+00  0.27820393136E+04  0.27820393136E+04  0.25500000920E-02 0.  1.
       -2   -1    0    0    0  501  0.00000000000E+00  0.00000000000E+00 -0.55895432572E+03  0.55895432572E+03  0.25500000920E-02 0. -1.
    10030    2    1    2    0    0  0.00000000000E+00  0.00000000000E+00  0.22230849879E+04  0.33409936393E+04  0.24940191729E+04 0.  0.
        4    1    3    3  502    0  0.82699352532E+03 -0.66769040389E+02 -0.13555084468E+03  0.84068545847E+03  0.12699999809E+01 0. -1.
       -4    1    3    3    0  502 -0.82699352532E+03  0.66769040389E+02  0.23586358326E+04  0.25003081809E+04  0.12699999809E+01 0.  1.
</event>
<event>
 5   0  0.9505359E-06  0.2877784E+04  0.7818609E-02  0.8279518E-01
        2   -1    0    0  501    0  0.00000000000E+00  0.00000000000E+00  0.14067139734E+04  0.14067139734E+04  0.25500000920E-02 0. -1.
       -2   -1    0    0    0  501  0.00000000000E+00  0.00000000000E+00 -0.14718058896E+04  0.14718058896E+04  0.25500000920E-02 0.  1.
    10030    2    1    2    0    0  0.00000000000E+00  0.00000000000E+00 -0.65091916179E+02  0.28785198630E+04  0.28777838078E+04 0.  0.
        4    1    3    3  502    0 -0.20889802007E+03 -0.11911368531E+04 -0.81246515359E+03  0.14568962298E+04  0.12699999809E+01 0.  1.
       -4    1    3    3    0  502  0.20889802007E+03  0.11911368531E+04  0.74737323741E+03  0.14216236332E+04  0.12699999809E+01 0. -1.
</event>
<event>
 5   0  0.3649705E-06  0.2884474E+04  0.7818609E-02  0.8277512E-01
       -1   -1    0    0    0  501  0.00000000000E+00  0.00000000000E+00  0.13671565707E+04  0.13671565707E+04  0.50400001928E-02 0.  1.
        1   -1    0    0  501    0  0.00000000000E+00  0.00000000000E+00 -0.15214408655E+04  0.15214408655E+04  0.50400001928E-02 0. -1.
    10030    2    1    2    0    0  0.00000000000E+00  0.00000000000E+00 -0.15428429480E+03  0.28885974361E+04  0.28844742163E+04 0.  0.
        2    1    3    3  502    0  0.85298971962E+03  0.41163545517E+03  0.10120764740E+04  0.13861219279E+04  0.25500000920E-02 0.  1.
       -2    1    3    3    0  502 -0.85298971962E+03 -0.41163545517E+03 -0.11663607688E+04  0.15024755082E+04  0.25500000920E-02 0. -1.
</event>
<event>
 5   0  0.9505359E-06  0.2972489E+04  0.7818609E-02  0.8251631E-01
       -2   -1    0    0    0  501  0.00000000000E+00  0.00000000000E+00  0.86023392854E+03  0.86023392855E+03  0.25500000920E-02 0.  1.
        2   -1    0    0  501    0  0.00000000000E+00  0.00000000000E+00 -0.25678163118E+04  0.25678163118E+04  0.25500000920E-02 0. -1.
    10030    2    1    2    0    0  0.00000000000E+00  0.00000000000E+00 -0.17075823833E+04  0.34280502404E+04  0.29724889999E+04 0.  0.
        4    1    3    3  502    0  0.35863646704E+03  0.14198561839E+04 -0.56133275195E+03  0.15683455518E+04  0.12699999809E+01 0.  1.
       -4    1    3    3    0  502 -0.35863646704E+03 -0.14198561839E+04 -0.11462496313E+04  0.18597046886E+04  0.12699999809E+01 0. -1.
</event>
<event>
 5   0  0.3486236E-06  0.2897064E+04  0.7818609E-02  0.8273752E-01
       -1   -1    0    0    0  501  0.00000000000E+00  0.00000000000E+00  0.16609721991E+04  0.16609721991E+04  0.50400001928E-02 0.  1.
        1   -1    0    0  501    0  0.00000000000E+00  0.00000000000E+00 -0.12632629795E+04  0.12632629796E+04  0.50400001928E-02 0. -1.
    10030    2    1    2    0    0  0.00000000000E+00  0.00000000000E+00  0.39770921956E+03  0.29242351787E+04  0.28970638165E+04 0.  0.
        5    1    3    3  502    0 -0.16612625546E+03 -0.75858468882E+03  0.14330959659E+04  0.16299800000E+04  0.46999998093E+01 0.  1.
       -5    1    3    3    0  502  0.16612625546E+03  0.75858468882E+03 -0.10353867464E+04  0.12942551787E+04  0.46999998093E+01 0. -1.
</event>
<event>
 5   0  0.3486236E-06  0.2894183E+04  0.7818609E-02  0.8274610E-01
       -1   -1    0    0    0  501  0.00000000000E+00  0.00000000000E+00  0.12525090048E+04  0.12525090048E+04  0.50400001928E-02 0. -1.
        1   -1    0    0  501    0  0.00000000000E+00  0.00000000000E+00 -0.16719031741E+04  0.16719031741E+04  0.50400001928E-02 0.  1.
    10030    2    1    2    0    0  0.00000000000E+00  0.00000000000E+00 -0.41939416924E+03  0.29244121789E+04  0.28941829802E+04 0.  0.
        5    1    3    3  502    0 -0.20685939924E+03  0.14054024837E+04 -0.48844937707E+03  0.15021823578E+04  0.46999998093E+01 0.  1.
       -5    1    3    3    0  502  0.20685939924E+03 -0.14054024837E+04  0.69055207831E+02  0.14222298211E+04  0.46999998093E+01 0. -1.
</event>
<event>
 5   0  0.3486236E-06  0.2979485E+04  0.7818609E-02  0.8249613E-01
        1   -1    0    0  501    0  0.00000000000E+00  0.00000000000E+00  0.12134436333E+04  0.12134436334E+04  0.50400001928E-02 0.  1.
       -1   -1    0    0    0  501  0.00000000000E+00  0.00000000000E+00 -0.18289543136E+04  0.18289543136E+04  0.50400001928E-02 0. -1.
    10030    2    1    2    0    0  0.00000000000E+00  0.00000000000E+00 -0.61551068025E+03  0.30423979470E+04  0.29794851686E+04 0.  0.
        5    1    3    3  502    0 -0.55946970329E+02 -0.45728014802E+03 -0.17543826705E+04  0.18138676472E+04  0.46999998093E+01 0. -1.
       -5    1    3    3    0  502  0.55946970329E+02  0.45728014802E+03  0.11388719902E+04  0.12285302997E+04  0.46999998093E+01 0.  1.
</event>
<event>
 5   0  0.3649705E-06  0.2920540E+04  0.7818609E-02  0.8266792E-01
       -1   -1    0    0    0  501  0.00000000000E+00  0.00000000000E+00  0.15781538866E+04  0.15781538866E+04  0.50400001928E-02 0. -1.
        1   -1    0    0  501    0  0.00000000000E+00  0.00000000000E+00 -0.13511914393E+04  0.13511914393E+04  0.50400001928E-02 0.  1.
    10030    2    1    2    0    0  0.00000000000E+00  0.00000000000E+00  0.22696244736E+03  0.29293453259E+04  0.29205396909E+04 0.  0.
        2    1    3    3  502    0 -0.17269005029E+03  0.10322330022E+04  0.11349136744E+04  0.15438121235E+04  0.25500000920E-02 0. -1.
       -2    1    3    3    0  502  0.17269005029E+03 -0.10322330022E+04 -0.90795122705E+03  0.13855332024E+04  0.25500000920E-02 0.  1.
</event>
<event>
 5   0  0.9646321E-06  0.2887180E+04  0.7818609E-02  0.8276702E-01
       -2   -1    0    0    0  501  0.00000000000E+00  0.00000000000E+00  0.94279089859E+03  0.94279089859E+03  0.25500000920E-02 0.  1.
        2   -1    0    0  501    0  0.00000000000E+00  0.00000000000E+00 -0.22104077258E+04  0.22104077258E+04  0.25500000920E-02 0. -1.
    10030    2    1    2    0    0  0.00000000000E+00  0.00000000000E+00 -0.12676168272E+04  0.31531986244E+04  0.28871801371E+04 0.  0.
        3    1    3    3  502    0  0.12743941054E+04 -0.67714870161E+03 -0.67381072234E+03  0.15926806333E+04  0.10100000352E+00 0. -1.
       -3    1    3    3    0  502 -0.12743941054E+04  0.67714870161E+03 -0.59380610486E+03  0.15605179911E+04  0.10100000352E+00 0.  1.
</event>
<event>
 5   0  0.9360689E-06  0.2790618E+04  0.7818609E-02  0.8306187E-01
       -2   -1    0    0    0  501  0.00000000000E+00  0.00000000000E+00  0.85477116766E+03  0.85477116767E+03  0.25500000920E-02 0. -1.
        2   -1    0    0  501    0  0.00000000000E+00  0.00000000000E+00 -0.22776699797E+04  0.22776699797E+04  0.25500000920E-02 0.  1.
    10030    2    1    2    0    0  0.00000000000E+00  0.00000000000E+00 -0.14228988120E+04  0.31324411473E+04  0.27906175862E+04 0.  0.
        5    1    3    3  502    0  0.10600999313E+04 -0.84049697289E+03 -0.10947720543E+04  0.17403433473E+04  0.46999998093E+01 0. -1.
       -5    1    3    3    0  502 -0.10600999313E+04  0.84049697289E+03 -0.32812675768E+03  0.13920978000E+04  0.46999998093E+01 0.  1.
</event>
<event>
 5   0  0.9251510E-06  0.2895135E+04  0.7818609E-02  0.8274326E-01
        2   -1    0    0  501    0  0.00000000000E+00  0.00000000000E+00  0.23591728580E+04  0.23591728580E+04  0.25500000920E-02 0. -1.
       -2   -1    0    0    0  501  0.00000000000E+00  0.00000000000E+00 -0.88821447536E+03  0.88821447536E+03  0.25500000920E-02 0.  1.
    10030    2    1    2    0    0  0.00000000000E+00  0.00000000000E+00  0.14709583827E+04  0.32473873334E+04  0.28951348724E+04 0.  0.
        2    1    3    3  502    0 -0.12423774105E+04  0.68295894201E+03  0.10634924185E+04  0.17722727417E+04  0.25500000920E-02 0. -1.
       -2    1    3    3    0  502  0.12423774105E+04 -0.68295894201E+03  0.40746596419E+03  0.14751145917E+04  0.25500000920E-02 0.  1.
</event>
<event>
 5   0  0.3649705E-06  0.2827104E+04  0.7818609E-02  0.8294903E-01
        1   -1    0    0  501    0  0.00000000000E+00  0.00000000000E+00  0.21132351299E+04  0.21132351299E+04  0.50400001928E-02 0.  1.
       -1   -1    0    0    0  501  0.00000000000E+00  0.00000000000E+00 -0.94553075927E+03  0.94553075928E+03  0.50400001928E-02 0. -1.
    10030    2    1    2    0    0  0.00000000000E+00  0.00000000000E+00  0.11677043706E+04  0.30587658892E+04  0.28271036889E+04 0.  0.
        2    1    3    3  502    0  0.18310059311E+03  0.18690467787E+03  0.20868072010E+04  0.21031460910E+04  0.25500000920E-02 0.  1.
       -2    1    3    3    0  502 -0.18310059311E+03 -0.18690467787E+03 -0.91910283041E+03  0.95561979818E+03  0.25500000920E-02 0. -1.
</event>
<event>
 5   0  0.1001573E-05  0.2909984E+04  0.7818609E-02  0.8269913E-01
       -2   -1    0    0    0  501  0.00000000000E+00  0.00000000000E+00  0.79092356100E+03  0.79092356100E+03  0.25500000920E-02 0. -1.
        2   -1    0    0  501    0  0.00000000000E+00  0.00000000000E+00 -0.26766202796E+04  0.26766202796E+04  0.25500000920E-02 0.  1.
    10030    2    1    2    0    0  0.00000000000E+00  0.00000000000E+00 -0.18856967186E+04  0.34675438406E+04  0.29099842219E+04 0.  0.
        1    1    3    3  502    0 -0.12285213049E+03 -0.64020970028E+03  0.60716970435E+03  0.89085136594E+03  0.50400001928E-02 0. -1.
       -1    1    3    3    0  502  0.12285213049E+03  0.64020970028E+03 -0.24928664229E+04  0.25766924746E+04  0.50400001928E-02 0.  1.
</event>
<event>
 5   0  0.3649705E-06  0.2895825E+04  0.7818609E-02  0.8274121E-01
       -1   -1    0    0    0  501  0.00000000000E+00  0.00000000000E+00  0.16235833247E+04  0.16235833247E+04  0.50400001928E-02 0. -1.
        1   -1    0    0  501    0  0.00000000000E+00  0.00000000000E+00 -0.12912490438E+04  0.12912490438E+04  0.50400001928E-02 0.  1.
    10030    2    1    2    0    0  0.00000000000E+00  0.00000000000E+00  0.33233428088E+03  0.29148323685E+04  0.28958248673E+04 0.  0.
        2    1    3    3  502    0 -0.98332579177E+03 -0.82092402670E+03  0.84558242749E+03  0.15348796409E+04  0.25500000920E-02 0. -1.
       -2    1    3    3    0  502  0.98332579177E+03  0.82092402670E+03 -0.51324814661E+03  0.13799527276E+04  0.25500000920E-02 0.  1.
</event>
<event>
 5   0  0.3564340E-06  0.2483027E+04  0.7818609E-02  0.8409057E-01
        1   -1    0    0  501    0  0.00000000000E+00  0.00000000000E+00  0.17927962332E+04  0.17927962332E+04  0.50400001928E-02 0. -1.
       -1   -1    0    0    0  501  0.00000000000E+00  0.00000000000E+00 -0.85974954848E+03  0.85974954850E+03  0.50400001928E-02 0.  1.
    10030    2    1    2    0    0  0.00000000000E+00  0.00000000000E+00  0.93304668476E+03  0.26525457817E+04  0.24830269850E+04 0.  0.
        1    1    3    3  502    0  0.94298040734E+03  0.25026682621E+03 -0.35369054447E+03  0.10377584180E+04  0.50400001928E-02 0.  1.
       -1    1    3    3    0  502 -0.94298040734E+03 -0.25026682621E+03  0.12867372292E+04  0.16147873637E+04  0.50400001928E-02 0. -1.
</event>
<event>
 5   0  0.3474078E-06  0.2921610E+04  0.7818609E-02  0.8266477E-01
       -1   -1    0    0    0  501  0.00000000000E+00  0.00000000000E+00  0.16664367649E+04  0.16664367649E+04  0.50400001928E-02 0. -1.
        1   -1    0    0  501    0  0.00000000000E+00  0.00000000000E+00 -0.12805472350E+04  0.12805472350E+04  0.50400001928E-02 0.  1.
    10030    2    1    2    0    0  0.00000000000E+00  0.00000000000E+00  0.38588952994E+03  0.29469839999E+04  0.29216098244E+04 0.  0.
        3    1    3    3  502    0  0.40818821899E+03 -0.10684697942E+04  0.11095201543E+04  0.15935119410E+04  0.10100000352E+00 0. -1.
       -3    1    3    3    0  502 -0.40818821899E+03  0.10684697942E+04 -0.72363062433E+03  0.13534720588E+04  0.10100000352E+00 0.  1.
</event>
<event>
 5   0  0.3649705E-06  0.2892515E+04  0.7818609E-02  0.8275108E-01
        1   -1    0    0  501    0  0.00000000000E+00  0.00000000000E+00  0.16009029855E+04  0.16009029855E+04  0.50400001928E-02 0. -1.
       -1   -1    0    0    0  501  0.00000000000E+00  0.00000000000E+00 -0.13065501606E+04  0.13065501606E+04  0.50400001928E-02 0.  1.
    10030    2    1    2    0    0  0.00000000000E+00  0.00000000000E+00  0.29435282492E+03  0.29074531461E+04  0.28925145136E+04 0.  0.
        2    1    3    3  502    0 -0.34980880552E+03 -0.40774481373E+03  0.14968837852E+04  0.15903720005E+04  0.25500000920E-02 0. -1.
       -2    1    3    3    0  502  0.34980880552E+03  0.40774481373E+03 -0.12025309603E+04  0.13170811456E+04  0.25500000920E-02 0.  1.
</event>
<event>
 5   0  0.3474078E-06  0.2899581E+04  0.7818609E-02  0.8273002E-01
        1   -1    0    0  501    0  0.00000000000E+00  0.00000000000E+00  0.16319425154E+04  0.16319425154E+04  0.50400001928E-02 0. -1.
       -1   -1    0    0    0  501  0.00000000000E+00  0.00000000000E+00 -0.12879696484E+04  0.12879696484E+04  0.50400001928E-02 0.  1.
    10030    2    1    2    0    0  0.00000000000E+00  0.00000000000E+00  0.34397286703E+03  0.29199121638E+04  0.28995809544E+04 0.  0.
        3    1    3    3  502    0  0.14370470276E+04  0.17756918341E+03  0.98969793212E+02  0.14513545413E+04  0.10100000352E+00 0.  1.
       -3    1    3    3    0  502 -0.14370470276E+04 -0.17756918341E+03  0.24500307382E+03  0.14685576225E+04  0.10100000352E+00 0. -1.
</event>
<event>
 5   0  0.3564340E-06  0.2939040E+04  0.7818609E-02  0.8261356E-01
        1   -1    0    0  501    0  0.00000000000E+00  0.00000000000E+00  0.19690004966E+04  0.19690004966E+04  0.50400001928E-02 0. -1.
       -1   -1    0    0    0  501  0.00000000000E+00  0.00000000000E+00 -0.10967438641E+04  0.10967438641E+04  0.50400001928E-02 0.  1.
    10030    2    1    2    0    0  0.00000000000E+00  0.00000000000E+00  0.87225663257E+03  0.30657443607E+04  0.29390401243E+04 0.  0.
        1    1    3    3  502    0  0.96788417101E+03 -0.25725191405E+03 -0.68564547097E+03  0.12137083783E+04  0.50400001928E-02 0.  1.
       -1    1    3    3    0  502 -0.96788417101E+03  0.25725191405E+03  0.15579021035E+04  0.18520359824E+04  0.50400001928E-02 0. -1.
</event>
<event>
 5   0  0.3649705E-06  0.3115185E+04  0.7818609E-02  0.8211583E-01
       -1   -1    0    0    0  501  0.00000000000E+00  0.00000000000E+00  0.80217441564E+03  0.80217441565E+03  0.50400001928E-02 0. -1.
        1   -1    0    0  501    0  0.00000000000E+00  0.00000000000E+00 -0.30243981110E+04  0.30243981110E+04  0.50400001928E-02 0.  1.
    10030    2    1    2    0    0  0.00000000000E+00  0.00000000000E+00 -0.22222236953E+04  0.38265725266E+04  0.31151852512E+04 0.  0.
        2    1    3    3  502    0 -0.12961331732E+04 -0.53941237941E+01 -0.21721375326E+04  0.25294607647E+04  0.25500000920E-02 0.  1.
       -2    1    3    3    0  502  0.12961331732E+04  0.53941237941E+01 -0.50086162694E+02  0.12971117620E+04  0.25500000920E-02 0. -1.
</event>
<event>
 5   0  0.9251510E-06  0.2904002E+04  0.7818609E-02  0.8271688E-01
       -2   -1    0    0    0  501  0.00000000000E+00  0.00000000000E+00  0.13043228874E+04  0.13043228874E+04  0.25500000920E-02 0.  1.
        2   -1    0    0  501    0  0.00000000000E+00  0.00000000000E+00 -0.16163993657E+04  0.16163993657E+04  0.25500000920E-02 0. -1.
    10030    2    1    2    0    0  0.00000000000E+00  0.00000000000E+00 -0.31207647822E+03  0.29207222531E+04  0.29040018512E+04 0.  0.
        2    1    3    3  502    0  0.14098361199E+04  0.30634120873E+03  0.86846920072E+01  0.14427606333E+04  0.25500000920E-02 0. -1.
       -2    1    3    3    0  502 -0.14098361199E+04 -0.30634120873E+03 -0.32076117023E+03  0.14779616198E+04  0.25500000920E-02 0.  1.
</event>
<event>
 5   0  0.3649705E-06  0.2840391E+04  0.7818609E-02  0.8290837E-01
        1   -1    0    0  501    0  0.00000000000E+00  0.00000000000E+00  0.14408003535E+04  0.14408003535E+04  0.50400001928E-02 0. -1.
       -1   -1    0    0    0  501  0.00000000000E+00  0.00000000000E+00 -0.13998855032E+04  0.13998855032E+04  0.50400001928E-02 0.  1.
    10030    2    1    2    0    0  0.00000000000E+00  0.00000000000E+00  0.40914850323E+02  0.28406858567E+04  0.28403911899E+04 0.  0.
        2    1    3    3  502    0  0.12507596191E+03  0.30047671203E+03 -0.13620843657E+04  0.14004299590E+04  0.25500000920E-02 0.  1.
       -2    1    3    3    0  502 -0.12507596191E+03 -0.30047671203E+03  0.14029992161E+04  0.14402558977E+04  0.25500000920E-02 0. -1.
</event>
<event>
 5   0  0.3486236E-06  0.2897585E+04  0.7818609E-02  0.8273596E-01
        1   -1    0    0  501    0  0.00000000000E+00  0.00000000000E+00  0.18255503302E+04  0.18255503302E+04  0.50400001928E-02 0. -1.
       -1   -1    0    0    0  501  0.00000000000E+00  0.00000000000E+00 -0.11497904299E+04  0.11497904299E+04  0.50400001928E-02 0.  1.
    10030    2    1    2    0    0  0.00000000000E+00  0.00000000000E+00  0.67575990033E+03  0.29753407602E+04  0.28975854079E+04 0.  0.
        5    1    3    3  502    0  0.77911827769E+03  0.87532892203E+03 -0.53689159043E+03  0.12889921188E+04  0.46999998093E+01 0.  1.
       -5    1    3    3    0  502 -0.77911827769E+03 -0.87532892203E+03  0.12126514908E+04  0.16863486414E+04  0.46999998093E+01 0. -1.
</event>
<event>
 5   0  0.3188375E-06  0.2939043E+04  0.7818609E-02  0.8261355E-01
        3   -1    0    0  501    0  0.00000000000E+00  0.00000000000E+00  0.14980649402E+04  0.14980649436E+04  0.10100000352E+00 0.  1.
       -3   -1    0    0    0  501  0.00000000000E+00  0.00000000000E+00 -0.14415223509E+04  0.14415223545E+04  0.10100000352E+00 0. -1.
    10030    2    1    2    0    0  0.00000000000E+00  0.00000000000E+00  0.56542589267E+02  0.29395872980E+04  0.29390434530E+04 0.  0.
        3    1    3    3  502    0 -0.12184121097E+03  0.11700703311E+04 -0.85256426957E+03  0.14528508885E+04  0.10100000352E+00 0. -1.
       -3    1    3    3    0  502  0.12184121097E+03 -0.11700703311E+04  0.90910685884E+03  0.14867364095E+04  0.10100000352E+00 0.  1.
</event>
<event>
 5   0  0.9646321E-06  0.2784513E+04  0.7818609E-02  0.8308093E-01
        2   -1    0    0  501    0  0.00000000000E+00  0.00000000000E+00  0.24395417427E+04  0.24395417427E+04  0.25500000920E-02 0. -1.
       -2   -1    0    0    0  501  0.00000000000E+00  0.00000000000E+00 -0.79456634126E+03  0.79456634127E+03  0.25500000920E-02 0.  1.
    10030    2    1    2    0    0  0.00000000000E+00  0.00000000000E+00  0.16449754015E+04  0.32341080840E+04  0.27845127092E+04 0.  0.
        3    1    3    3  502    0  0.54019485090E+03  0.12585538031E+04  0.53186751843E+03  0.14692349096E+04  0.10100000352E+00 0.  1.
       -3    1    3    3    0  502 -0.54019485090E+03 -0.12585538031E+04  0.11131078831E+04  0.17648731744E+04  0.10100000352E+00 0. -1.
</event>
<event>
 5   0  0.9646321E-06  0.2875363E+04  0.7818609E-02  0.8280246E-01
       -2   -1    0    0    0  501  0.00000000000E+00  0.00000000000E+00  0.14913678137E+04  0.14913678137E+04  0.25500000920E-02 0.  1.
        2   -1    0    0  501    0  0.00000000000E+00  0.00000000000E+00 -0.13859277255E+04  0.13859277255E+04  0.25500000920E-02 0. -1.
    10030    2    1    2    0    0  0.00000000000E+00  0.00000000000E+00  0.10544008818E+03  0.28772955392E+04  0.28753629349E+04 0.  0.
        3    1    3    3  502    0  0.92462973698E+03 -0.10301476724E+04  0.44128969448E+03  0.14528871196E+04  0.10100000352E+00 0.  1.
       -3    1    3    3    0  502 -0.92462973698E+03  0.10301476724E+04 -0.33584960630E+03  0.14244084196E+04  0.10100000352E+00 0. -1.
</event>
<event>
 5   0  0.9505359E-06  0.2867947E+04  0.7818609E-02  0.8282479E-01
       -2   -1    0    0    0  501  0.00000000000E+00  0.00000000000E+00  0.12865793371E+04  0.12865793372E+04  0.25500000920E-02 0. -1.
        2   -1    0    0  501    0  0.00000000000E+00  0.00000000000E+00 -0.15982532827E+04  0.15982532827E+04  0.25500000920E-02 0.  1.
    10030    2    1    2    0    0  0.00000000000E+00  0.00000000000E+00 -0.31167394556E+03  0.28848326199E+04  0.28679467562E+04 0.  0.
        4    1    3    3  502    0  0.12490754005E+04 -0.61763361772E+03 -0.49638220249E+03  0.14792084187E+04  0.12699999809E+01 0.  1.
       -4    1    3    3    0  502 -0.12490754005E+04  0.61763361772E+03  0.18470825693E+03  0.14056242012E+04  0.12699999809E+01 0. -1.
</event>
<event>
 5   0  0.9646321E-06  0.2887164E+04  0.7818609E-02  0.8276707E-01
       -2   -1    0    0    0  501  0.00000000000E+00  0.00000000000E+00  0.12008078634E+04  0.12008078634E+04  0.25500000920E-02 0. -1.
        2   -1    0    0  501    0  0.00000000000E+00  0.00000000000E+00 -0.17354391951E+04  0.17354391951E+04  0.25500000920E-02 0.  1.
    10030    2    1    2    0    0  0.00000000000E+00  0.00000000000E+00 -0.53463133166E+03  0.29362470585E+04  0.28871640285E+04 0.  0.
        3    1    3    3  502    0  0.11901427631E+04  0.36607554908E+03 -0.10101284340E+04  0.16033747433E+04  0.10100000352E+00 0. -1.
       -3    1    3    3    0  502 -0.11901427631E+04 -0.36607554908E+03  0.47549710234E+03  0.13328723152E+04  0.10100000352E+00 0.  1.
</event>
<event>
 5   0  0.1001573E-05  0.2565378E+04  0.7818609E-02  0.8380058E-01
       -2   -1    0    0    0  501  0.00000000000E+00  0.00000000000E+00  0.10862471936E+04  0.10862471936E+04  0.25500000920E-02 0. -1.
        2   -1    0    0  501    0  0.00000000000E+00  0.00000000000E+00 -0.15146561137E+04  0.15146561137E+04  0.25500000920E-02 0.  1.
    10030    2    1    2    0    0  0.00000000000E+00  0.00000000000E+00 -0.42840892011E+03  0.26009033073E+04  0.25653779080E+04 0.  0.
        1    1    3    3  502    0  0.58445162533E+02  0.42903233873E+03  0.10099121134E+04  0.10988207595E+04  0.50400001928E-02 0. -1.
       -1    1    3    3    0  502 -0.58445162533E+02 -0.42903233873E+03 -0.14383210335E+04  0.15020825477E+04  0.50400001928E-02 0.  1.
</event>
<event>
 5   0  0.9646321E-06  0.2890563E+04  0.7818609E-02  0.8275691E-01
       -2   -1    0    0    0  501  0.00000000000E+00  0.00000000000E+00  0.10085788295E+04  0.10085788295E+04  0.25500000920E-02 0.  1.
        2   -1    0    0  501    0  0.00000000000E+00  0.00000000000E+00 -0.20710710852E+04  0.20710710852E+04  0.25500000920E-02 0. -1.
    10030    2    1    2    0    0  0.00000000000E+00  0.00000000000E+00 -0.10624922557E+04  0.30796499147E+04  0.28905628870E+04 0.  0.
        3    1    3    3  502    0  0.72932372214E+03 -0.62464724497E+03 -0.16820629161E+04  0.19368616203E+04  0.10100000352E+00 0. -1.
       -3    1    3    3    0  502 -0.72932372214E+03  0.62464724497E+03  0.61957066039E+03  0.11427882944E+04  0.10100000352E+00 0.  1.
</event>
<event>
 5   0  0.9360689E-06  0.2886784E+04  0.7818609E-02  0.8276821E-01
        2   -1    0    0  501    0  0.00000000000E+00  0.00000000000E+00  0.13762178698E+04  0.13762178698E+04  0.25500000920E-02 0. -1.
       -2   -1    0    0    0  501  0.00000000000E+00  0.00000000000E+00 -0.15138446662E+04  0.15138446662E+04  0.25500000920E-02 0.  1.
    10030    2    1    2    0    0  0.00000000000E+00  0.00000000000E+00 -0.13762679639E+03  0.28900625360E+04  0.28867837340E+04 0.  0.
        5    1    3    3  502    0 -0.90577290697E+03  0.79121437920E+03 -0.86778828489E+03  0.14830790101E+04  0.46999998093E+01 0.  1.
       -5    1    3    3    0  502  0.90577290697E+03 -0.79121437920E+03  0.73016148850E+03  0.14069835259E+04  0.46999998093E+01 0. -1.
</event>
<event>
 5   0  0.3474078E-06  0.2878947E+04  0.7818609E-02  0.8279169E-01
        1   -1    0    0  501    0  0.00000000000E+00  0.00000000000E+00  0.13172205897E+04  0.13172205897E+04  0.50400001928E-02 0.  1.
       -1   -1    0    0    0  501  0.00000000000E+00  0.00000000000E+00 -0.15730732573E+04  0.15730732573E+04  0.50400001928E-02 0. -1.
    10030    2    1    2    0    0  0.00000000000E+00  0.00000000000E+00 -0.25585266762E+03  0.28902938470E+04  0.28789473657E+04 0.  0.
        3    1    3    3  502    0  0.87046724832E+02  0.14085272736E+04  0.15702015764E+03  0.14199230799E+04  0.10100000352E+00 0.  1.
       -3    1    3    3    0  502 -0.87046724832E+02 -0.14085272736E+04 -0.41287282525E+03  0.14703707671E+04  0.10100000352E+00 0. -1.
</event>
<event>
 5   0  0.3564340E-06  0.2890129E+04  0.7818609E-02  0.8275820E-01
        1   -1    0    0  501    0  0.00000000000E+00  0.00000000000E+00  0.19538257904E+04  0.19538257904E+04  0.50400001928E-02 0.  1.
       -1   -1    0    0    0  501  0.00000000000E+00  0.00000000000E+00 -0.10687806998E+04  0.10687806998E+04  0.50400001928E-02 0. -1.
    10030    2    1    2    0    0  0.00000000000E+00  0.00000000000E+00  0.88504509068E+03  0.30226064902E+04  0.28901289214E+04 0.  0.
        1    1    3    3  502    0  0.89161061554E+03 -0.42267035370E+03  0.15466577902E+04  0.18346035097E+04  0.50400001928E-02 0.  1.
       -1    1    3    3    0  502 -0.89161061554E+03  0.42267035370E+03 -0.66161269951E+03  0.11880029806E+04  0.50400001928E-02 0. -1.
</event>
<event>
 5   0  0.3474078E-06  0.2925512E+04  0.7818609E-02  0.8265327E-01
        1   -1    0    0  501    0  0.00000000000E+00  0.00000000000E+00  0.15979056697E+04  0.15979056697E+04  0.50400001928E-02 0.  1.
       -1   -1    0    0    0  501  0.00000000000E+00  0.00000000000E+00 -0.13390373540E+04  0.13390373540E+04  0.50400001928E-02 0. -1.
    10030    2    1    2    0    0  0.00000000000E+00  0.00000000000E+00  0.25886831573E+03  0.29369430237E+04  0.29255121807E+04 0.  0.
        3    1    3    3  502    0 -0.51708934745E+03 -0.77065261423E+03  0.12645015438E+04  0.15685187310E+04  0.10100000352E+00 0.  1.
       -3    1    3    3    0  502  0.51708934745E+03  0.77065261423E+03 -0.10056332281E+04  0.13684242926E+04  0.10100000352E+00 0. -1.
</event>
<event>
 5   0  0.3564340E-06  0.2904949E+04  0.7818609E-02  0.8271407E-01
        1   -1    0    0  501    0  0.00000000000E+00  0.00000000000E+00  0.11457995506E+04  0.11457995506E+04  0.50400001928E-02 0.  1.
       -1   -1    0    0    0  501  0.00000000000E+00  0.00000000000E+00 -0.18412309928E+04  0.18412309928E+04  0.50400001928E-02 0. -1.
    10030    2    1    2    0    0  0.00000000000E+00  0.00000000000E+00 -0.69543144219E+03  0.29870305434E+04  0.29049486358E+04 0.  0.
        1    1    3    3  502    0 -0.50496496755E+03  0.12902905291E+04 -0.79573611788E+03  0.15978220292E+04  0.50400001928E-02 0. -1.
       -1    1    3    3    0  502  0.50496496755E+03 -0.12902905291E+04  0.10030467569E+03  0.13892085142E+04  0.50400001928E-02 0.  1.
</event>
<event>
 5   0  0.3746518E-06  0.2749475E+04  0.7818609E-02  0.8319128E-01
       -1   -1    0    0    0  501  0.00000000000E+00  0.00000000000E+00  0.94561402608E+03  0.94561402609E+03  0.50400001928E-02 0. -1.
        1   -1    0    0  501    0  0.00000000000E+00  0.00000000000E+00 -0.19985988241E+04  0.19985988242E+04  0.50400001928E-02 0.  1.
    10030    2    1    2    0    0  0.00000000000E+00  0.00000000000E+00 -0.10529847981E+04  0.29442128502E+04  0.27494749176E+04 0.  0.
        4    1    3    3  502    0 -0.13231373478E+04  0.14887097070E+03 -0.16014038406E+03  0.13410822356E+04  0.12699999809E+01 0. -1.
       -4    1    3    3    0  502  0.13231373478E+04 -0.14887097070E+03 -0.89284441401E+03  0.16031306147E+04  0.12699999809E+01 0.  1.
</event>
<event>
 5   0  0.9505359E-06  0.2914180E+04  0.7818609E-02  0.8268671E-01
       -2   -1    0    0    0  501  0.00000000000E+00  0.00000000000E+00  0.10201924027E+04  0.10201924027E+04  0.25500000920E-02 0.  1.
        2   -1    0    0  501    0  0.00000000000E+00  0.00000000000E+00 -0.20810889136E+04  0.20810889137E+04  0.25500000920E-02 0. -1.
    10030    2    1    2    0    0  0.00000000000E+00  0.00000000000E+00 -0.10608965110E+04  0.31012813163E+04  0.29141798839E+04 0.  0.
        4    1    3    3  502    0  0.91769782315E+03  0.91898638517E+03  0.17257432622E+03  0.13101483816E+04  0.12699999809E+01 0.  1.
       -4    1    3    3    0  502 -0.91769782315E+03 -0.91898638517E+03 -0.12334708372E+04  0.17911329347E+04  0.12699999809E+01 0. -1.
</event>
<event>
 5   0  0.9360689E-06  0.2811411E+04  0.7818609E-02  0.8299734E-01
        2   -1    0    0  501    0  0.00000000000E+00  0.00000000000E+00  0.14194957188E+04  0.14194957188E+04  0.25500000920E-02 0. -1.
       -2   -1    0    0    0  501  0.00000000000E+00  0.00000000000E+00 -0.13920494811E+04  0.13920494811E+04  0.25500000920E-02 0.  1.
    10030    2    1    2    0    0  0.00000000000E+00  0.00000000000E+00  0.27446237749E+02  0.28115451999E+04  0.28114112320E+04 0.  0.
        5    1    3    3  502    0 -0.59422387570E+03 -0.70918143088E+03  0.10720484985E+04  0.14161039473E+04  0.46999998093E+01 0. -1.
       -5    1    3    3    0  502  0.59422387570E+03  0.70918143088E+03 -0.10446022608E+04  0.13954412526E+04  0.46999998093E+01 0.  1.
</event>
<event>
 5   0  0.3564340E-06  0.2889795E+04  0.7818609E-02  0.8275920E-01
        1   -1    0    0  501    0  0.00000000000E+00  0.00000000000E+00  0.24324963143E+04  0.24324963143E+04  0.50400001928E-02 0.  1.
       -1   -1    0    0    0  501  0.00000000000E+00  0.00000000000E+00 -0.85826584084E+03  0.85826584085E+03  0.50400001928E-02 0. -1.
    10030    2    1    2    0    0  0.00000000000E+00  0.00000000000E+00  0.15742304735E+04  0.32907621552E+04  0.28897947987E+04 0.  0.
        1    1    3    3  502    0 -0.19724918765E+03 -0.26543664051E+03  0.23888207111E+04  0.24116028367E+04  0.50400001928E-02 0.  1.
       -1    1    3    3    0  502  0.19724918765E+03  0.26543664051E+03 -0.81459023758E+03  0.87915931852E+03  0.50400001928E-02 0. -1.
</event>
<event>
 5   0  0.9646321E-06  0.2883805E+04  0.7818609E-02  0.8277712E-01
       -2   -1    0    0    0  501  0.00000000000E+00  0.00000000000E+00  0.28475724338E+04  0.28475724338E+04  0.25500000920E-02 0. -1.
        2   -1    0    0  501    0  0.00000000000E+00  0.00000000000E+00 -0.73012450916E+03  0.73012450916E+03  0.25500000920E-02 0.  1.
    10030    2    1    2    0    0  0.00000000000E+00  0.00000000000E+00  0.21174479246E+04  0.35776969429E+04  0.28838047268E+04 0.  0.
        3    1    3    3  502    0  0.13410466459E+04  0.35656852222E+02  0.40294918604E+03  0.14007303717E+04  0.10100000352E+00 0.  1.
       -3    1    3    3    0  502 -0.13410466459E+04 -0.35656852222E+02  0.17144987386E+04  0.21769665712E+04  0.10100000352E+00 0. -1.
</event>
<event>
 5   0  0.1001573E-05  0.2875563E+04  0.7818609E-02  0.8280186E-01
       -2   -1    0    0    0  501  0.00000000000E+00  0.00000000000E+00  0.82783536015E+03  0.82783536015E+03  0.25500000920E-02 0.  1.
        2   -1    0    0  501    0  0.00000000000E+00  0.00000000000E+00 -0.24971334293E+04  0.24971334293E+04  0.25500000920E-02 0. -1.
    10030    2    1    2    0    0  0.00000000000E+00  0.00000000000E+00 -0.16692980692E+04  0.33249687895E+04  0.28755627983E+04 0.  0.
        1    1    3    3  502    0 -0.83799242120E+03 -0.61337625447E+03 -0.19844131786E+04  0.22397226147E+04  0.50400001928E-02 0. -1.
       -1    1    3    3    0  502  0.83799242120E+03  0.61337625447E+03  0.31511510943E+03  0.10852461747E+04  0.50400001928E-02 0.  1.
</event>
<event>
 5   0  0.9251510E-06  0.2886675E+04  0.7818609E-02  0.8276853E-01
       -2   -1    0    0    0  501  0.00000000000E+00  0.00000000000E+00  0.13905007227E+04  0.13905007227E+04  0.25500000920E-02 0.  1.
        2   -1    0    0  501    0  0.00000000000E+00  0.00000000000E+00 -0.14981818498E+04  0.14981818498E+04  0.25500000920E-02 0. -1.
    10030    2    1    2    0    0  0.00000000000E+00  0.00000000000E+00 -0.10768112711E+03  0.28886825726E+04  0.28866748656E+04 0.  0.
        2    1    3    3  502    0 -0.77222780971E+03 -0.92025650188E+03 -0.85440643040E+03  0.14741838989E+04  0.25500000920E-02 0. -1.
       -2    1    3    3    0  502  0.77222780971E+03  0.92025650188E+03  0.74672530329E+03  0.14144986737E+04  0.25500000920E-02 0.  1.
</event>
<event>
 5   0  0.3649705E-06  0.2941043E+04  0.7818609E-02  0.8260770E-01
       -1   -1    0    0    0  501  0.00000000000E+00  0.00000000000E+00  0.21940969852E+04  0.21940969852E+04  0.50400001928E-02 0. -1.
        1   -1    0    0  501    0  0.00000000000E+00  0.00000000000E+00 -0.98556880849E+03  0.98556880850E+03  0.50400001928E-02 0.  1.
    10030    2    1    2    0    0  0.00000000000E+00  0.00000000000E+00  0.12085281767E+04  0.31796657937E+04  0.29410430472E+04 0.  0.
        2    1    3    3  502    0  0.12331197908E+04 -0.38872777762E+03 -0.15310182611E+03  0.13019730691E+04  0.25500000920E-02 0.  1.
       -2    1    3    3    0  502 -0.12331197908E+04  0.38872777762E+03  0.13616300028E+04  0.18776927246E+04  0.25500000920E-02 0. -1.
</event>
<event>
 5   0  0.3746518E-06  0.2891182E+04  0.7818609E-02  0.8275506E-01
        1   -1    0    0  501    0  0.00000000000E+00  0.00000000000E+00  0.24315190232E+04  0.24315190232E+04  0.50400001928E-02 0.  1.
       -1   -1    0    0    0  501  0.00000000000E+00  0.00000000000E+00 -0.85943554251E+03  0.85943554253E+03  0.50400001928E-02 0. -1.
    10030    2    1    2    0    0  0.00000000000E+00  0.00000000000E+00  0.15720834807E+04  0.32909545657E+04  0.28911823677E+04 0.  0.
        4    1    3    3  502    0 -0.13836791900E+04  0.70426120426E+02  0.12556456325E+04  0.18698062751E+04  0.12699999809E+01 0.  1.
       -4    1    3    3    0  502  0.13836791900E+04 -0.70426120426E+02  0.31643784815E+03  0.14211482906E+04  0.12699999809E+01 0. -1.
</event>
<event>
 5   0  0.9360689E-06  0.2876765E+04  0.7818609E-02  0.8279824E-01
        2   -1    0    0  501    0  0.00000000000E+00  0.00000000000E+00  0.13433507417E+04  0.13433507417E+04  0.25500000920E-02 0. -1.
       -2   -1    0    0    0  501  0.00000000000E+00  0.00000000000E+00 -0.15401372510E+04  0.15401372510E+04  0.25500000920E-02 0.  1.
    10030    2    1    2    0    0  0.00000000000E+00  0.00000000000E+00 -0.19678650934E+03  0.28834879927E+04  0.28767652100E+04 0.  0.
        5    1    3    3  502    0 -0.29164946749E+03  0.27489337015E+03 -0.14830326167E+04  0.15362400884E+04  0.46999998093E+01 0.  1.
       -5    1    3    3    0  502  0.29164946749E+03 -0.27489337015E+03  0.12862461074E+04  0.13472479043E+04  0.46999998093E+01 0. -1.
</event>
<event>
 5   0  0.3188375E-06  0.2836658E+04  0.7818609E-02  0.8291977E-01
        4   -1    0    0  501    0  0.00000000000E+00  0.00000000000E+00  0.15192967676E+04  0.15192972984E+04  0.12699999809E+01 0.  1.
       -4   -1    0    0    0  501  0.00000000000E+00  0.00000000000E+00 -0.13240703211E+04  0.13240709301E+04  0.12699999809E+01 0. -1.
    10030    2    1    2    0    0  0.00000000000E+00  0.00000000000E+00  0.19522644653E+03  0.28433682286E+04  0.28366581602E+04 0.  0.
        1    1    3    3  502    0 -0.56402870630E+03 -0.99882145460E+03  0.93378354158E+03  0.14790957989E+04  0.50400001928E-02 0.  1.
       -1    1    3    3    0  502  0.56402870630E+03  0.99882145460E+03 -0.73855709505E+03  0.13642724297E+04  0.50400001928E-02 0. -1.
</event>
<event>
 5   0  0.3486236E-06  0.2901868E+04  0.7818609E-02  0.8272322E-01
       -1   -1    0    0    0  501  0.00000000000E+00  0.00000000000E+00  0.19609203743E+04  0.19609203744E+04  0.50400001928E-02 0.  1.
        1   -1    0    0  501    0  0.00000000000E+00  0.00000000000E+00 -0.10735822650E+04  0.10735822650E+04  0.50400001928E-02 0. -1.
    10030    2    1    2    0    0  0.00000000000E+00  0.00000000000E+00  0.88733810935E+03  0.30345026394E+04  0.29018679067E+04 0.  0.
        5    1    3    3  502    0  0.63171748696E+03 -0.12195376934E+04 -0.45525088145E+02  0.13742029663E+04  0.46999998093E+01 0. -1.
       -5    1    3    3    0  502 -0.63171748696E+03  0.12195376934E+04  0.93286319749E+03  0.16602996730E+04  0.46999998093E+01 0.  1.
</event>
<event>
 5   0  0.3746518E-06  0.2860474E+04  0.7818609E-02  0.8284736E-01
        1   -1    0    0  501    0  0.00000000000E+00  0.00000000000E+00  0.19347269802E+04  0.19347269802E+04  0.50400001928E-02 0. -1.
       -1   -1    0    0    0  501  0.00000000000E+00  0.00000000000E+00 -0.10572951488E+04  0.10572951488E+04  0.50400001928E-02 0.  1.
    10030    2    1    2    0    0  0.00000000000E+00  0.00000000000E+00  0.87743183144E+03  0.29920221290E+04  0.28604737023E+04 0.  0.
        4    1    3    3  502    0 -0.10128312068E+04 -0.96896260788E+03  0.73615249511E+03  0.15832364630E+04  0.12699999809E+01 0. -1.
       -4    1    3    3    0  502  0.10128312068E+04  0.96896260788E+03  0.14127933633E+03  0.14087856660E+04  0.12699999809E+01 0.  1.
</event>
<event>
 5   0  0.3474078E-06  0.2749913E+04  0.7818609E-02  0.8318989E-01
       -1   -1    0    0    0  501  0.00000000000E+00  0.00000000000E+00  0.12484278454E+04  0.12484278454E+04  0.50400001928E-02 0.  1.
        1   -1    0    0  501    0  0.00000000000E+00  0.00000000000E+00 -0.15143086725E+04  0.15143086725E+04  0.50400001928E-02 0. -1.
    10030    2    1    2    0    0  0.00000000000E+00  0.00000000000E+00 -0.26588082703E+03  0.27627365179E+04  0.27499128083E+04 0.  0.
        3    1    3    3  502    0  0.98923550509E+02  0.40039820451E+03  0.11848165686E+04  0.12545496811E+04  0.10100000352E+00 0.  1.
       -3    1    3    3    0  502 -0.98923550509E+02 -0.40039820451E+03 -0.14506973956E+04  0.15081868368E+04  0.10100000352E+00 0. -1.
</event>
<event>
 5   0  0.3486236E-06  0.2812397E+04  0.7818609E-02  0.8299430E-01
       -1   -1    0    0    0  501  0.00000000000E+00  0.00000000000E+00  0.10028683203E+04  0.10028683203E+04  0.50400001928E-02 0. -1.
        1   -1    0    0  501    0  0.00000000000E+00  0.00000000000E+00 -0.19717387859E+04  0.19717387859E+04  0.50400001928E-02 0.  1.
    10030    2    1    2    0    0  0.00000000000E+00  0.00000000000E+00 -0.96887046566E+03  0.29746071062E+04  0.28123971016E+04 0.  0.
        5    1    3    3  502    0  0.13646982560E+04 -0.33896306669E+03 -0.49359398496E+03  0.14902866847E+04  0.46999998093E+01 0.  1.
       -5    1    3    3    0  502 -0.13646982560E+04  0.33896306669E+03 -0.47527648070E+03  0.14843204215E+04  0.46999998093E+01 0. -1.
</event>
<event>
 5   0  0.3564340E-06  0.2493235E+04  0.7818609E-02  0.8405400E-01
       -1   -1    0    0    0  501  0.00000000000E+00  0.00000000000E+00  0.14389356912E+04  0.14389356912E+04  0.50400001928E-02 0. -1.
        1   -1    0    0  501    0  0.00000000000E+00  0.00000000000E+00 -0.10800030101E+04  0.10800030101E+04  0.50400001928E-02 0.  1.
    10030    2    1    2    0    0  0.00000000000E+00  0.00000000000E+00  0.35893268108E+03  0.25189387013E+04  0.24932347486E+04 0.  0.
        1    1    3    3  502    0 -0.73506762589E+03  0.89531931911E+03  0.64479450916E+03  0.13257756435E+04  0.50400001928E-02 0. -1.
       -1    1    3    3    0  502  0.73506762589E+03 -0.89531931911E+03 -0.28586182808E+03  0.11931630578E+04  0.50400001928E-02 0.  1.
</event>
<event>
 5   0  0.3188375E-06  0.2857265E+04  0.7818609E-02  0.8285707E-01
        3   -1    0    0  501    0  0.00000000000E+00  0.00000000000E+00  0.19738423680E+04  0.19738423706E+04  0.10100000352E+00 0. -1.
       -3   -1    0    0    0  501  0.00000000000E+00  0.00000000000E+00 -0.10340189234E+04  0.10340189283E+04  0.10100000352E+00 0.  1.
    10030    2    1    2    0    0  0.00000000000E+00  0.00000000000E+00  0.93982344465E+03  0.30078612989E+04  0.28572646861E+04 0.  0.
        3    1    3    3  502    0 -0.13857781399E+04  0.14944865545E+03  0.79992206434E+03  0.16070442659E+04  0.10100000352E+00 0. -1.
       -3    1    3    3    0  502  0.13857781399E+04 -0.14944865545E+03  0.13990138031E+03  0.14008170330E+04  0.10100000352E+00 0.  1.
</event>
<event>
 5   0  0.1001573E-05  0.2940863E+04  0.7818609E-02  0.8260822E-01
        2   -1    0    0  501    0  0.00000000000E+00  0.00000000000E+00  0.24092133870E+04  0.24092133870E+04  0.25500000920E-02 0. -1.
       -2   -1    0    0    0  501  0.00000000000E+00  0.00000000000E+00 -0.89745817204E+03  0.89745817204E+03  0.25500000920E-02 0.  1.
    10030    2    1    2    0    0  0.00000000000E+00  0.00000000000E+00  0.15117552149E+04  0.33066715590E+04  0.29408626233E+04 0.  0.
        1    1    3    3  502    0 -0.11860954632E+04  0.71851815267E+03  0.20610178402E+03  0.14019874211E+04  0.50400001928E-02 0.  1.
       -1    1    3    3    0  502  0.11860954632E+04 -0.71851815267E+03  0.13056534309E+04  0.19046841379E+04  0.50400001928E-02 0. -1.
</event>
<event>
 5   0  0.3564340E-06  0.2935708E+04  0.7818609E-02  0.8262332E-01
        1   -1    0    0  501    0  0.00000000000E+00  0.00000000000E+00  0.13594050227E+04  0.13594050227E+04  0.50400001928E-02 0.  1.
       -1   -1    0    0    0  501  0.00000000000E+00  0.00000000000E+00 -0.15849548962E+04  0.15849548962E+04  0.50400001928E-02 0. -1.
    10030    2    1    2    0    0  0.00000000000E+00  0.00000000000E+00 -0.22554987350E+03  0.29443599189E+04  0.29357081917E+04 0.  0.
        1    1    3    3  502    0 -0.34910040105E+03 -0.14257014809E+04 -0.10275330083E+03  0.14714122616E+04  0.50400001928E-02 0. -1.
       -1    1    3    3    0  502  0.34910040105E+03  0.14257014809E+04 -0.12279657267E+03  0.14729476573E+04  0.50400001928E-02 0.  1.
</event>
<event>
 5   0  0.9505359E-06  0.2889047E+04  0.7818609E-02  0.8276144E-01
       -2   -1    0    0    0  501  0.00000000000E+00  0.00000000000E+00  0.14254592019E+04  0.14254592019E+04  0.25500000920E-02 0. -1.
        2   -1    0    0  501    0  0.00000000000E+00  0.00000000000E+00 -0.14638425335E+04  0.14638425335E+04  0.25500000920E-02 0.  1.
    10030    2    1    2    0    0  0.00000000000E+00  0.00000000000E+00 -0.38383331611E+02  0.28893017354E+04  0.28890467698E+04 0.  0.
        4    1    3    3  502    0 -0.88519646494E+02 -0.55085602699E+02  0.14216908576E+04  0.14255092630E+04  0.12699999809E+01 0. -1.
       -4    1    3    3    0  502  0.88519646494E+02  0.55085602699E+02 -0.14600741892E+04  0.14637924724E+04  0.12699999809E+01 0.  1.
</event>
<event>
 5   0  0.9360689E-06  0.3031602E+04  0.7818609E-02  0.8234764E-01
       -2   -1    0    0    0  501  0.00000000000E+00  0.00000000000E+00  0.15061334371E+04  0.15061334371E+04  0.25500000920E-02 0.  1.
        2   -1    0    0  501    0  0.00000000000E+00  0.00000000000E+00 -0.15255305726E+04  0.15255305726E+04  0.25500000920E-02 0. -1.
    10030    2    1    2    0    0  0.00000000000E+00  0.00000000000E+00 -0.19397135534E+02  0.30316640097E+04  0.30316019559E+04 0.  0.
        5    1    3    3  502    0  0.20074806856E+03  0.15003200357E+04 -0.89515727960E+02  0.15163426895E+04  0.46999998093E+01 0. -1.
       -5    1    3    3    0  502 -0.20074806856E+03 -0.15003200357E+04  0.70118592427E+02  0.15153213202E+04  0.46999998093E+01 0.  1.
</event>
<event>
 5   0  0.3649705E-06  0.2751743E+04  0.7818609E-02  0.8318409E-01
        1   -1    0    0  501    0  0.00000000000E+00  0.00000000000E+00  0.24887383009E+04  0.24887383009E+04  0.50400001928E-02 0.  1.
       -1   -1    0    0    0  501  0.00000000000E+00  0.00000000000E+00 -0.76063542876E+03  0.76063542878E+03  0.50400001928E-02 0. -1.
    10030    2    1    2    0    0  0.00000000000E+00  0.00000000000E+00  0.17281028721E+04  0.32493737296E+04  0.27517431018E+04 0.  0.
        2    1    3    3  502    0 -0.10664626959E+04 -0.35498646705E+03  0.18010660538E+04  0.21230160159E+04  0.25500000920E-02 0.  1.
       -2    1    3    3    0  502  0.10664626959E+04  0.35498646705E+03 -0.72963181691E+02  0.11263577138E+04  0.25500000920E-02 0. -1.
</event>
<event>
 5   0  0.3564340E-06  0.2768599E+04  0.7818609E-02  0.8313084E-01
       -1   -1    0    0    0  501  0.00000000000E+00  0.00000000000E+00  0.14571593691E+04  0.14571593691E+04  0.50400001928E-02 0.  1.
        1   -1    0    0  501    0  0.00000000000E+00  0.00000000000E+00 -0.13150829368E+04  0.13150829368E+04  0.50400001928E-02 0. -1.
    10030    2    1    2    0    0  0.00000000000E+00  0.00000000000E+00  0.14207643227E+03  0.27722423059E+04  0.27685992289E+04 0.  0.
        1    1    3    3  502    0 -0.99664050786E+03 -0.54936344664E+03 -0.71815681688E+03  0.13456751882E+04  0.50400001928E-02 0.  1.
       -1    1    3    3    0  502  0.99664050786E+03  0.54936344664E+03  0.86023324915E+03  0.14265671177E+04  0.50400001928E-02 0. -1.
</event>
<event>
 5   0  0.9251510E-06  0.2871265E+04  0.7818609E-02  0.8281479E-01
       -2   -1    0    0    0  501  0.00000000000E+00  0.00000000000E+00  0.73470670653E+03  0.73470670654E+03  0.25500000920E-02 0. -1.
        2   -1    0    0  501    0  0.00000000000E+00  0.00000000000E+00 -0.28052560929E+04  0.28052560929E+04  0.25500000920E-02 0.  1.
    10030    2    1    2    0    0  0.00000000000E+00  0.00000000000E+00 -0.20705493864E+04  0.35399627994E+04  0.28712648537E+04 0.  0.
        2    1    3    3  502    0 -0.19445196561E+03  0.13496682847E+04 -0.15888758744E+04  0.20937866629E+04  0.25500000920E-02 0.  1.
       -2    1    3    3    0  502  0.19445196561E+03 -0.13496682847E+04 -0.48167351198E+03  0.14461761365E+04  0.25500000920E-02 0. -1.
</event>
<event>
 5   0  0.3474078E-06  0.2977034E+04  0.7818609E-02  0.8250320E-01
        1   -1    0    0  501    0  0.00000000000E+00  0.00000000000E+00  0.17352633437E+04  0.17352633437E+04  0.50400001928E-02 0. -1.
       -1   -1    0    0    0  501  0.00000000000E+00  0.00000000000E+00 -0.12768568283E+04  0.12768568283E+04  0.50400001928E-02 0.  1.
    10030    2    1    2    0    0  0.00000000000E+00  0.00000000000E+00  0.45840651543E+03  0.30121201719E+04  0.29770339932E+04 0.  0.
        3    1    3    3  502    0 -0.11381350688E+04  0.77090470297E+03  0.80692960432E+03  0.15939827140E+04  0.10100000352E+00 0. -1.
       -3    1    3    3    0  502  0.11381350688E+04 -0.77090470297E+03 -0.34852308889E+03  0.14181374580E+04  0.10100000352E+00 0.  1.
</event>
<event>
 5   0  0.3474078E-06  0.2891663E+04  0.7818609E-02  0.8275362E-01
       -1   -1    0    0    0  501  0.00000000000E+00  0.00000000000E+00  0.12151211144E+04  0.12151211144E+04  0.50400001928E-02 0.  1.
        1   -1    0    0  501    0  0.00000000000E+00  0.00000000000E+00 -0.17203461894E+04  0.17203461894E+04  0.50400001928E-02 0. -1.
    10030    2    1    2    0    0  0.00000000000E+00  0.00000000000E+00 -0.50522507496E+03  0.29354673038E+04  0.28916631746E+04 0.  0.
        3    1    3    3  502    0  0.87592813151E+03  0.72065131830E+03 -0.11627657359E+04  0.16243806761E+04  0.10100000352E+00 0. -1.
       -3    1    3    3    0  502 -0.87592813151E+03 -0.72065131830E+03  0.65754066097E+03  0.13110866276E+04  0.10100000352E+00 0.  1.
</event>
<event>
 5   0  0.9251510E-06  0.2753397E+04  0.7818609E-02  0.8317885E-01
        2   -1    0    0  501    0  0.00000000000E+00  0.00000000000E+00  0.13634795758E+04  0.13634795758E+04  0.25500000920E-02 0. -1.
       -2   -1    0    0    0  501  0.00000000000E+00  0.00000000000E+00 -0.13900455364E+04  0.13900455364E+04  0.25500000920E-02 0.  1.
    10030    2    1    2    0    0  0.00000000000E+00  0.00000000000E+00 -0.26565960612E+02  0.27535251122E+04  0.27533969553E+04 0.  0.
        2    1    3    3  502    0  0.60563347776E+03 -0.74011400679E+03  0.97708530724E+03  0.13672075007E+04  0.25500000920E-02 0. -1.
       -2    1    3    3    0  502 -0.60563347776E+03  0.74011400679E+03 -0.10036512679E+04  0.13863176115E+04  0.25500000920E-02 0.  1.
</event>
<event>
 5   0  0.3486236E-06  0.2847898E+04  0.7818609E-02  0.8288550E-01
        1   -1    0    0  501    0  0.00000000000E+00  0.00000000000E+00  0.18189303444E+04  0.18189303444E+04  0.50400001928E-02 0. -1.
       -1   -1    0    0    0  501  0.00000000000E+00  0.00000000000E+00 -0.11147377343E+04  0.11147377343E+04  0.50400001928E-02 0.  1.
    10030    2    1    2    0    0  0.00000000000E+00  0.00000000000E+00  0.70419261004E+03  0.29336680787E+04  0.28478976744E+04 0.  0.
        5    1    3    3  502    0 -0.36428625115E+03 -0.74278194968E+03  0.15459565566E+04  0.17534061886E+04  0.46999998093E+01 0. -1.
       -5    1    3    3    0  502  0.36428625115E+03  0.74278194968E+03 -0.84176394653E+03  0.11802618901E+04  0.46999998093E+01 0.  1.
</event>
<event>
 5   0  0.9646321E-06  0.2885944E+04  0.7818609E-02  0.8277072E-01
        2   -1    0    0  501    0  0.00000000000E+00  0.00000000000E+00  0.17195779091E+04  0.17195779091E+04  0.25500000920E-02 0.  1.
       -2   -1    0    0    0  501  0.00000000000E+00  0.00000000000E+00 -0.12108598661E+04  0.12108598661E+04  0.25500000920E-02 0. -1.
    10030    2    1    2    0    0  0.00000000000E+00  0.00000000000E+00  0.50871804295E+03  0.29304377752E+04  0.28859437810E+04 0.  0.
        3    1    3    3  502    0 -0.84501189380E+03 -0.13148898956E+03 -0.92581359730E+03  0.12603433192E+04  0.10100000352E+00 0. -1.
       -3    1    3    3    0  502  0.84501189380E+03  0.13148898956E+03  0.14345316403E+04  0.16700944561E+04  0.10100000352E+00 0.  1.
</event>
<event>
 5   0  0.9646321E-06  0.2887893E+04  0.7818609E-02  0.8276489E-01
       -2   -1    0    0    0  501  0.00000000000E+00  0.00000000000E+00  0.15574928338E+04  0.15574928338E+04  0.25500000920E-02 0.  1.
        2   -1    0    0  501    0  0.00000000000E+00  0.00000000000E+00 -0.13386778875E+04  0.13386778875E+04  0.25500000920E-02 0. -1.
    10030    2    1    2    0    0  0.00000000000E+00  0.00000000000E+00  0.21881494630E+03  0.28961707213E+04  0.28878928072E+04 0.  0.
        3    1    3    3  502    0  0.11924451565E+04 -0.40765707489E+03 -0.59750414192E+03  0.13946759307E+04  0.10100000352E+00 0. -1.
       -3    1    3    3    0  502 -0.11924451565E+04  0.40765707489E+03  0.81631908823E+03  0.15014947905E+04  0.10100000352E+00 0.  1.
</event>
<event>
 5   0  0.9251510E-06  0.2913520E+04  0.7818609E-02  0.8268866E-01
        2   -1    0    0  501    0  0.00000000000E+00  0.00000000000E+00  0.15351529221E+04  0.15351529221E+04  0.25500000920E-02 0. -1.
       -2   -1    0    0    0  501  0.00000000000E+00  0.00000000000E+00 -0.13823702511E+04  0.13823702511E+04  0.25500000920E-02 0.  1.
    10030    2    1    2    0    0  0.00000000000E+00  0.00000000000E+00  0.15278267107E+03  0.29175231732E+04  0.29135200225E+04 0.  0.
        2    1    3    3  502    0 -0.88691195249E+03 -0.10730480032E+04  0.50605535104E+03  0.14812619103E+04  0.25500000920E-02 0. -1.
       -2    1    3    3    0  502  0.88691195249E+03  0.10730480032E+04 -0.35327267997E+03  0.14362612628E+04  0.25500000920E-02 0.  1.
</event>
<event>
 5   0  0.3746518E-06  0.2771528E+04  0.7818609E-02  0.8312163E-01
        1   -1    0    0  501    0  0.00000000000E+00  0.00000000000E+00  0.15475152364E+04  0.15475152364E+04  0.50400001928E-02 0.  1.
       -1   -1    0    0    0  501  0.00000000000E+00  0.00000000000E+00 -0.12409199360E+04  0.12409199360E+04  0.50400001928E-02 0. -1.
    10030    2    1    2    0    0  0.00000000000E+00  0.00000000000E+00  0.30659530037E+03  0.27884351724E+04  0.27715284651E+04 0.  0.
        4    1    3    3  502    0  0.12930697816E+04 -0.41386792131E+03 -0.12592872509E+03  0.13635159600E+04  0.12699999809E+01 0.  1.
       -4    1    3    3    0  502 -0.12930697816E+04  0.41386792131E+03  0.43252402547E+03  0.14249192124E+04  0.12699999809E+01 0. -1.
</event>
<event>
 5   0  0.1001573E-05  0.2927062E+04  0.7818609E-02  0.8264871E-01
        2   -1    0    0  501    0  0.00000000000E+00  0.00000000000E+00  0.20772706423E+04  0.20772706423E+04  0.25500000920E-02 0.  1.
       -2   -1    0    0    0  501  0.00000000000E+00  0.00000000000E+00 -0.10311239351E+04  0.10311239351E+04  0.25500000920E-02 0. -1.
    10030    2    1    2    0    0  0.00000000000E+00  0.00000000000E+00  0.10461467071E+04  0.31083945774E+04  0.29270623355E+04 0.  0.
        1    1    3    3  502    0 -0.77323359211E+03  0.12004279000E+04  0.86390172881E+03  0.16689048889E+04  0.50400001928E-02 0.  1.
       -1    1    3    3    0  502  0.77323359211E+03 -0.12004279000E+04  0.18224497833E+03  0.14394896885E+04  0.50400001928E-02 0. -1.
</event>
<event>
 5   0  0.9251510E-06  0.2895370E+04  0.7818609E-02  0.8274256E-01
        2   -1    0    0  501    0  0.00000000000E+00  0.00000000000E+00  0.13357218007E+04  0.13357218007E+04  0.25500000920E-02 0. -1.
       -2   -1    0    0    0  501  0.00000000000E+00  0.00000000000E+00 -0.15690337344E+04  0.15690337344E+04  0.25500000920E-02 0.  1.
    10030    2    1    2    0    0  0.00000000000E+00  0.00000000000E+00 -0.23331193372E+03  0.29047555350E+04  0.28953704875E+04 0.  0.
        2    1    3    3  502    0  0.11950958947E+04 -0.36537371759E+03  0.61649347204E+03  0.13934907076E+04  0.25500000920E-02 0. -1.
       -2    1    3    3    0  502 -0.11950958947E+04  0.36537371759E+03 -0.84980540576E+03  0.15112648275E+04  0.25500000920E-02 0.  1.
</event>
<event>
 5   0  0.9505359E-06  0.2866648E+04  0.7818609E-02  0.8282870E-01
        2   -1    0    0  501    0  0.00000000000E+00  0.00000000000E+00  0.23327706869E+04  0.23327706869E+04  0.25500000920E-02 0. -1.
       -2   -1    0    0    0  501  0.00000000000E+00  0.00000000000E+00 -0.88067726357E+03  0.88067726357E+03  0.25500000920E-02 0.  1.
    10030    2    1    2    0    0  0.00000000000E+00  0.00000000000E+00  0.14520934233E+04  0.32134479505E+04  0.28666482903E+04 0.  0.
        4    1    3    3  502    0  0.13228495836E+04  0.53186912598E+03  0.56129466752E+03  0.15322757926E+04  0.12699999809E+01 0.  1.
       -4    1    3    3    0  502 -0.13228495836E+04 -0.53186912598E+03  0.89079875582E+03  0.16811721578E+04  0.12699999809E+01 0. -1.
</event>
<event>
 5   0  0.9646321E-06  0.2667476E+04  0.7818609E-02  0.8345636E-01
       -2   -1    0    0    0  501  0.00000000000E+00  0.00000000000E+00  0.15891262138E+04  0.15891262138E+04  0.25500000920E-02 0. -1.
        2   -1    0    0  501    0  0.00000000000E+00  0.00000000000E+00 -0.11193928627E+04  0.11193928627E+04  0.25500000920E-02 0.  1.
    10030    2    1    2    0    0  0.00000000000E+00  0.00000000000E+00  0.46973335115E+03  0.27085190765E+04  0.26674756169E+04 0.  0.
        3    1    3    3  502    0  0.60820107066E+03 -0.31967237967E+03 -0.92585728856E+03  0.11529573720E+04  0.10100000352E+00 0.  1.
       -3    1    3    3    0  502 -0.60820107066E+03  0.31967237967E+03  0.13955906397E+04  0.15555617045E+04  0.10100000352E+00 0. -1.
</event>
<event>
 5   0  0.3649705E-06  0.2956454E+04  0.7818609E-02  0.8256276E-01
        1   -1    0    0  501    0  0.00000000000E+00  0.00000000000E+00  0.15697604899E+04  0.15697604900E+04  0.50400001928E-02 0. -1.
       -1   -1    0    0    0  501  0.00000000000E+00  0.00000000000E+00 -0.13920313317E+04  0.13920313317E+04  0.50400001928E-02 0.  1.
    10030    2    1    2    0    0  0.00000000000E+00  0.00000000000E+00  0.17772915829E+03  0.29617918216E+04  0.29564544882E+04 0.  0.
        2    1    3    3  502    0 -0.92963695360E+03  0.59014497534E+03  0.10768802236E+04  0.15401840713E+04  0.25500000920E-02 0. -1.
       -2    1    3    3    0  502  0.92963695360E+03 -0.59014497534E+03 -0.89915106535E+03  0.14216077503E+04  0.25500000920E-02 0.  1.
</event>
<event>
 5   0  0.1001573E-05  0.2904803E+04  0.7818609E-02  0.8271450E-01
        2   -1    0    0  501    0  0.00000000000E+00  0.00000000000E+00  0.94345162875E+03  0.94345162875E+03  0.25500000920E-02 0. -1.
       -2   -1    0    0    0  501  0.00000000000E+00  0.00000000000E+00 -0.22359066547E+04  0.22359066547E+04  0.25500000920E-02 0.  1.
    10030    2    1    2    0    0  0.00000000000E+00  0.00000000000E+00 -0.12924550259E+04  0.31793582834E+04  0.29048027645E+04 0.  0.
        1    1    3    3  502    0 -0.25222569717E+03 -0.14041430872E+04 -0.94443924920E+03  0.17109065162E+04  0.50400001928E-02 0. -1.
       -1    1    3    3    0  502  0.25222569717E+03  0.14041430872E+04 -0.34801577673E+03  0.14684517672E+04  0.50400001928E-02 0.  1.
</event>
<event>
 5   0  0.9505359E-06  0.2877698E+04  0.7818609E-02  0.8279544E-01
       -2   -1    0    0    0  501  0.00000000000E+00  0.00000000000E+00  0.13403287438E+04  0.13403287438E+04  0.25500000920E-02 0.  1.
        2   -1    0    0  501    0  0.00000000000E+00  0.00000000000E+00 -0.15446105493E+04  0.15446105493E+04  0.25500000920E-02 0. -1.
    10030    2    1    2    0    0  0.00000000000E+00  0.00000000000E+00 -0.20428180542E+03  0.28849392931E+04  0.28776976333E+04 0.  0.
        4    1    3    3  502    0 -0.98997269926E+03  0.96164693281E+03  0.30566714557E+03  0.14135928641E+04  0.12699999809E+01 0. -1.
       -4    1    3    3    0  502  0.98997269926E+03 -0.96164693281E+03 -0.50994895098E+03  0.14713464290E+04  0.12699999809E+01 0.  1.
</event>
<event>
 5   0  0.3564340E-06  0.2916694E+04  0.7818609E-02  0.8267928E-01
        1   -1    0    0  501    0  0.00000000000E+00  0.00000000000E+00  0.19288587796E+04  0.19288587796E+04  0.50400001928E-02 0.  1.
       -1   -1    0    0    0  501  0.00000000000E+00  0.00000000000E+00 -0.11026087834E+04  0.11026087834E+04  0.50400001928E-02 0. -1.
    10030    2    1    2    0    0  0.00000000000E+00  0.00000000000E+00  0.82624999616E+03  0.30314675630E+04  0.29166944525E+04 0.  0.
        1    1    3    3  502    0 -0.99558925728E+03  0.24167859436E+03  0.14918335926E+04  0.18097441753E+04  0.50400001928E-02 0.  1.
       -1    1    3    3    0  502  0.99558925728E+03 -0.24167859436E+03 -0.66558359640E+03  0.12217233877E+04  0.50400001928E-02 0. -1.
</event>
<event>
 5   0  0.3649705E-06  0.2999209E+04  0.7818609E-02  0.8243957E-01
        1   -1    0    0  501    0  0.00000000000E+00  0.00000000000E+00  0.21881101779E+04  0.21881101779E+04  0.50400001928E-02 0. -1.
       -1   -1    0    0    0  501  0.00000000000E+00  0.00000000000E+00 -0.10277427460E+04  0.10277427461E+04  0.50400001928E-02 0.  1.
    10030    2    1    2    0    0  0.00000000000E+00  0.00000000000E+00  0.11603674319E+04  0.32158529240E+04  0.29992094711E+04 0.  0.
        2    1    3    3  502    0  0.28045350562E+03  0.29345099410E+03 -0.96771700841E+03  0.10494016691E+04  0.25500000920E-02 0.  1.
       -2    1    3    3    0  502 -0.28045350562E+03 -0.29345099410E+03  0.21280844403E+04  0.21664512549E+04  0.25500000920E-02 0. -1.
</event>
<event>
 5   0  0.3486236E-06  0.2879686E+04  0.7818609E-02  0.8278947E-01
       -1   -1    0    0    0  501  0.00000000000E+00  0.00000000000E+00  0.12838642768E+04  0.12838642768E+04  0.50400001928E-02 0. -1.
        1   -1    0    0  501    0  0.00000000000E+00  0.00000000000E+00 -0.16147717165E+04  0.16147717165E+04  0.50400001928E-02 0.  1.
    10030    2    1    2    0    0  0.00000000000E+00  0.00000000000E+00 -0.33090743972E+03  0.28986359934E+04  0.28796859010E+04 0.  0.
        5    1    3    3  502    0 -0.94757210227E+03  0.37404837164E+03  0.85874912928E+03  0.13323952981E+04  0.46999998093E+01 0. -1.
       -5    1    3    3    0  502  0.94757210227E+03 -0.37404837164E+03 -0.11896565690E+04  0.15662406953E+04  0.46999998093E+01 0.  1.
</event>
<event>
 5   0  0.3188375E-06  0.2981296E+04  0.7818609E-02  0.8249092E-01
       -3   -1    0    0    0  501  0.00000000000E+00  0.00000000000E+00  0.16632168354E+04  0.16632168385E+04  0.10100000352E+00 0. -1.
        3   -1    0    0  501    0  0.00000000000E+00  0.00000000000E+00 -0.13359845685E+04  0.13359845724E+04  0.10100000352E+00 0.  1.
    10030    2    1    2    0    0  0.00000000000E+00  0.00000000000E+00  0.32723226691E+03  0.29992014109E+04  0.29812963869E+04 0.  0.
        1    1    3    3  502    0  0.10393212863E+04 -0.10644420827E+04  0.69210366600E+02  0.14893004258E+04  0.50400001928E-02 0.  1.
       -1    1    3    3    0  502 -0.10393212863E+04  0.10644420827E+04  0.25802190031E+03  0.15099009850E+04  0.50400001928E-02 0. -1.
</event>
<event>
 5   0  0.3474078E-06  0.2875522E+04  0.7818609E-02  0.8280198E-01
       -1   -1    0    0    0  501  0.00000000000E+00  0.00000000000E+00  0.93554479305E+03  0.93554479306E+03  0.50400001928E-02 0. -1.
        1   -1    0    0  501    0  0.00000000000E+00  0.00000000000E+00 -0.22095751678E+04  0.22095751679E+04  0.50400001928E-02 0.  1.
    10030    2    1    2    0    0  0.00000000000E+00  0.00000000000E+00 -0.12740303748E+04  0.31451199609E+04  0.28755218957E+04 0.  0.
        3    1    3    3  502    0 -0.10042433353E+04  0.40237588195E+03  0.39873528609E+03  0.11529964724E+04  0.10100000352E+00 0. -1.
       -3    1    3    3    0  502  0.10042433353E+04 -0.40237588195E+03 -0.16727656609E+04  0.19921234885E+04  0.10100000352E+00 0.  1.
</event>
<event>
 5   0  0.9505359E-06  0.2845125E+04  0.7818609E-02  0.8289394E-01
        2   -1    0    0  501    0  0.00000000000E+00  0.00000000000E+00  0.82760036342E+03  0.82760036343E+03  0.25500000920E-02 0.  1.
       -2   -1    0    0    0  501  0.00000000000E+00  0.00000000000E+00 -0.24452429086E+04  0.24452429086E+04  0.25500000920E-02 0. -1.
    10030    2    1    2    0    0  0.00000000000E+00  0.00000000000E+00 -0.16176425451E+04  0.32728432720E+04  0.28451248969E+04 0.  0.
        4    1    3    3  502    0  0.26241052916E+03 -0.12405071033E+04 -0.15507331853E+04  0.20031206115E+04  0.12699999809E+01 0. -1.
       -4    1    3    3    0  502 -0.26241052916E+03  0.12405071033E+04 -0.66909359802E+02  0.12697226605E+04  0.12699999809E+01 0.  1.
</event>
<event>
 5   0  0.3564340E-06  0.2909954E+04  0.7818609E-02  0.8269922E-01
       -1   -1    0    0    0  501  0.00000000000E+00  0.00000000000E+00  0.26197256113E+04  0.26197256113E+04  0.50400001928E-02 0. -1.
        1   -1    0    0  501    0  0.00000000000E+00  0.00000000000E+00 -0.80808397896E+03  0.80808397898E+03  0.50400001928E-02 0.  1.
    10030    2    1    2    0    0  0.00000000000E+00  0.00000000000E+00  0.18116416324E+04  0.34278095903E+04  0.29099541548E+04 0.  0.
        1    1    3    3  502    0 -0.29684795988E+03 -0.15337342428E+03 -0.76227875719E+03  0.83229263018E+03  0.50400001928E-02 0.  1.
       -1    1    3    3    0  502  0.29684795988E+03  0.15337342428E+03  0.25739203896E+04  0.25955169601E+04  0.50400001928E-02 0. -1.
</event>
<event>
 5   0  0.9360689E-06  0.2963921E+04  0.7818609E-02  0.8254109E-01
        2   -1    0    0  501    0  0.00000000000E+00  0.00000000000E+00  0.11428041058E+04  0.11428041058E+04  0.25500000920E-02 0. -1.
       -2   -1    0    0    0  501  0.00000000000E+00  0.00000000000E+00 -0.19217699737E+04  0.19217699737E+04  0.25500000920E-02 0.  1.
    10030    2    1    2    0    0  0.00000000000E+00  0.00000000000E+00 -0.77896586791E+03  0.30645740795E+04  0.29639207927E+04 0.  0.
        5    1    3    3  502    0  0.87174864709E+03 -0.11867210326E+04 -0.21667859192E+03  0.14883629313E+04  0.46999998093E+01 0.  1.
       -5    1    3    3    0  502 -0.87174864709E+03  0.11867210326E+04 -0.56228727599E+03  0.15762111482E+04  0.46999998093E+01 0. -1.
</event>
<event>
 5   0  0.9360689E-06  0.2910204E+04  0.7818609E-02  0.8269848E-01
        2   -1    0    0  501    0  0.00000000000E+00  0.00000000000E+00  0.23563426351E+04  0.23563426351E+04  0.25500000920E-02 0.  1.
       -2   -1    0    0    0  501  0.00000000000E+00  0.00000000000E+00 -0.89856302982E+03  0.89856302982E+03  0.25500000920E-02 0. -1.
    10030    2    1    2    0    0  0.00000000000E+00  0.00000000000E+00  0.14577796053E+04  0.32549056650E+04  0.29102043760E+04 0.  0.
        5    1    3    3  502    0  0.48826294897E+03 -0.75620863516E+03  0.20075663466E+04  0.22001356625E+04  0.46999998093E+01 0.  1.
       -5    1    3    3    0  502 -0.48826294897E+03  0.75620863516E+03 -0.54978674130E+03  0.10547700025E+04  0.46999998093E+01 0. -1.
</event>
<event>
 5   0  0.9360689E-06  0.2905682E+04  0.7818609E-02  0.8271189E-01
        2   -1    0    0  501    0  0.00000000000E+00  0.00000000000E+00  0.90708926450E+03  0.90708926450E+03  0.25500000920E-02 0. -1.
       -2   -1    0    0    0  501  0.00000000000E+00  0.00000000000E+00 -0.23269449861E+04  0.23269449861E+04  0.25500000920E-02 0.  1.
    10030    2    1    2    0    0  0.00000000000E+00  0.00000000000E+00 -0.14198557216E+04  0.32340342506E+04  0.29056818931E+04 0.  0.
        5    1    3    3  502    0  0.14209393605E+04 -0.17434689016E+03 -0.43445280156E+03  0.14960738054E+04  0.46999998093E+01 0. -1.
       -5    1    3    3    0  502 -0.14209393605E+04  0.17434689016E+03 -0.98540292002E+03  0.17379604452E+04  0.46999998093E+01 0.  1.
</event>
<event>
 5   0  0.9251510E-06  0.2889137E+04  0.7818609E-02  0.8276117E-01
       -2   -1    0    0    0  501  0.00000000000E+00  0.00000000000E+00  0.12531822592E+04  0.12531822592E+04  0.25500000920E-02 0. -1.
        2   -1    0    0  501    0  0.00000000000E+00  0.00000000000E+00 -0.16651834918E+04  0.16651834918E+04  0.25500000920E-02 0.  1.
    10030    2    1    2    0    0  0.00000000000E+00  0.00000000000E+00 -0.41200123261E+03  0.29183657509E+04  0.28891371792E+04 0.  0.
        2    1    3    3  502    0 -0.93629142724E+03  0.71000480555E+02  0.90287370431E+03  0.13026371831E+04  0.25500000920E-02 0. -1.
       -2    1    3    3    0  502  0.93629142724E+03 -0.71000480555E+02 -0.13148749369E+04  0.16157285678E+04  0.25500000920E-02 0.  1.
</event>
<event>
 5   0  0.3746518E-06  0.2885907E+04  0.7818609E-02  0.8277083E-01
        1   -1    0    0  501    0  0.00000000000E+00  0.00000000000E+00  0.10084396511E+04  0.10084396511E+04  0.50400001928E-02 0. -1.
       -1   -1    0    0    0  501  0.00000000000E+00  0.00000000000E+00 -0.20646895077E+04  0.20646895077E+04  0.50400001928E-02 0.  1.
    10030    2    1    2    0    0  0.00000000000E+00  0.00000000000E+00 -0.10562498566E+04  0.30731291588E+04  0.28859069748E+04 0.  0.
        4    1    3    3  502    0 -0.27167013700E+01 -0.87280932785E+03 -0.17517162396E+04  0.19571190307E+04  0.12699999809E+01 0.  1.
       -4    1    3    3    0  502  0.27167013700E+01  0.87280932785E+03  0.69546638305E+03  0.11160101281E+04  0.12699999809E+01 0. -1.
</event>
<event>
 5   0  0.1001573E-05  0.2923884E+04  0.7818609E-02  0.8265807E-01
       -2   -1    0    0    0  501  0.00000000000E+00  0.00000000000E+00  0.11844707988E+04  0.11844707988E+04  0.25500000920E-02 0. -1.
        2   -1    0    0  501    0  0.00000000000E+00  0.00000000000E+00 -0.18044126010E+04  0.18044126010E+04  0.25500000920E-02 0.  1.
    10030    2    1    2    0    0  0.00000000000E+00  0.00000000000E+00 -0.61994180218E+03  0.29888833998E+04  0.29238837425E+04 0.  0.
        1    1    3    3  502    0 -0.39855202408E+03 -0.73301117788E+03 -0.15371266558E+04  0.17489732585E+04  0.50400001928E-02 0.  1.
       -1    1    3    3    0  502  0.39855202408E+03  0.73301117788E+03  0.91718485364E+03  0.12399101413E+04  0.50400001928E-02 0. -1.
</event>
<event>
 5   0  0.9360689E-06  0.2922838E+04  0.7818609E-02  0.8266115E-01
        2   -1    0    0  501    0  0.00000000000E+00  0.00000000000E+00  0.16817321970E+04  0.16817321970E+04  0.25500000920E-02 0. -1.
       -2   -1    0    0    0  501  0.00000000000E+00  0.00000000000E+00 -0.12699673176E+04  0.12699673176E+04  0.25500000920E-02 0.  1.
    10030    2    1    2    0    0  0.00000000000E+00  0.00000000000E+00  0.41176487934E+03  0.29516995146E+04  0.29228376124E+04 0.  0.
        5    1    3    3  502    0  0.52416269959E+03 -0.27360050769E+02  0.15832521029E+04  0.16679941305E+04  0.46999998093E+01 0. -1.
       -5    1    3    3    0  502 -0.52416269959E+03  0.27360050769E+02 -0.11714872236E+04  0.12837053841E+04  0.46999998093E+01 0.  1.
</event>
<event>
 5   0  0.9505359E-06  0.2906246E+04  0.7818609E-02  0.8271021E-01
        2   -1    0    0  501    0  0.00000000000E+00  0.00000000000E+00  0.14270132574E+04  0.14270132574E+04  0.25500000920E-02 0.  1.
       -2   -1    0    0    0  501  0.00000000000E+00  0.00000000000E+00 -0.14797107169E+04  0.14797107169E+04  0.25500000920E-02 0. -1.
    10030    2    1    2    0    0  0.00000000000E+00  0.00000000000E+00 -0.52697459491E+02  0.29067239744E+04  0.29062462457E+04 0.  0.
        4    1    3    3  502    0 -0.13782570655E+04  0.36599960468E+03  0.25301232523E+03  0.14482973102E+04  0.12699999809E+01 0.  1.
       -4    1    3    3    0  502  0.13782570655E+04 -0.36599960468E+03 -0.30570978472E+03  0.14584266641E+04  0.12699999809E+01 0. -1.
</event>
<event>
 5   0  0.9646321E-06  0.2901973E+04  0.7818609E-02  0.8272291E-01
       -2   -1    0    0    0  501  0.00000000000E+00  0.00000000000E+00  0.91325139389E+03  0.91325139389E+03  0.25500000920E-02 0.  1.
        2   -1    0    0  501    0  0.00000000000E+00  0.00000000000E+00 -0.23053467150E+04  0.23053467150E+04  0.25500000920E-02 0. -1.
    10030    2    1    2    0    0  0.00000000000E+00  0.00000000000E+00 -0.13920953211E+04  0.32185981089E+04  0.29019725022E+04 0.  0.
        3    1    3    3  502    0  0.12468893829E+04  0.71704685021E+03 -0.48423501153E+03  0.15176866854E+04  0.10100000352E+00 0.  1.
       -3    1    3    3    0  502 -0.12468893829E+04 -0.71704685021E+03 -0.90786030960E+03  0.17009114235E+04  0.10100000352E+00 0. -1.
</event>
<event>
 5   0  0.9360689E-06  0.2860645E+04  0.7818609E-02  0.8284684E-01
       -2   -1    0    0    0  501  0.00000000000E+00  0.00000000000E+00  0.10884822649E+04  0.10884822649E+04  0.25500000920E-02 0.  1.
        2   -1    0    0  501    0  0.00000000000E+00  0.00000000000E+00 -0.18795189329E+04  0.18795189329E+04  0.25500000920E-02 0. -1.
    10030    2    1    2    0    0  0.00000000000E+00  0.00000000000E+00 -0.79103666797E+03  0.29680011978E+04  0.28606453992E+04 0.  0.
        5    1    3    3  502    0 -0.52846588359E+03 -0.85260354200E+03  0.66234970972E+03  0.12020558298E+04  0.46999998093E+01 0.  1.
       -5    1    3    3    0  502  0.52846588359E+03  0.85260354200E+03 -0.14533863777E+04  0.17659453680E+04  0.46999998093E+01 0. -1.
</event>
<event>
 5   0  0.3746518E-06  0.2865219E+04  0.7818609E-02  0.8283302E-01
       -1   -1    0    0    0  501  0.00000000000E+00  0.00000000000E+00  0.11335284393E+04  0.11335284393E+04  0.50400001928E-02 0. -1.
        1   -1    0    0  501    0  0.00000000000E+00  0.00000000000E+00 -0.18106026474E+04  0.18106026475E+04  0.50400001928E-02 0.  1.
    10030    2    1    2    0    0  0.00000000000E+00  0.00000000000E+00 -0.67707420816E+03  0.29441310867E+04  0.28652187303E+04 0.  0.
        4    1    3    3  502    0  0.13645863892E+04 -0.39889880824E+03 -0.15717761309E+03  0.14303575385E+04  0.12699999809E+01 0. -1.
       -4    1    3    3    0  502 -0.13645863892E+04  0.39889880824E+03 -0.51989659508E+03  0.15137735483E+04  0.12699999809E+01 0.  1.
</event>
<event>
 5   0  0.3474078E-06  0.2769689E+04  0.7818609E-02  0.8312741E-01
        1   -1    0    0  501    0  0.00000000000E+00  0.00000000000E+00  0.14556623742E+04  0.14556623742E+04  0.50400001928E-02 0. -1.
       -1   -1    0    0    0  501  0.00000000000E+00  0.00000000000E+00 -0.13174720265E+04  0.13174720265E+04  0.50400001928E-02 0.  1.
    10030    2    1    2    0    0  0.00000000000E+00  0.00000000000E+00  0.13819034775E+03  0.27731344007E+04  0.27696891219E+04 0.  0.
        3    1    3    3  502    0  0.84388539968E+03  0.10959189973E+04  0.13710190933E+03  0.13899561001E+04  0.10100000352E+00 0.  1.
       -3    1    3    3    0  502 -0.84388539968E+03 -0.10959189973E+04  0.10884384260E+01  0.13831783006E+04  0.10100000352E+00 0. -1.
</event>
<event>
 5   0  0.3486236E-06  0.2931392E+04  0.7818609E-02  0.8263598E-01
       -1   -1    0    0    0  501  0.00000000000E+00  0.00000000000E+00  0.94077841464E+03  0.94077841465E+03  0.50400001928E-02 0.  1.
        1   -1    0    0  501    0  0.00000000000E+00  0.00000000000E+00 -0.22834974145E+04  0.22834974145E+04  0.50400001928E-02 0. -1.
    10030    2    1    2    0    0  0.00000000000E+00  0.00000000000E+00 -0.13427189999E+04  0.32242758292E+04  0.29313922136E+04 0.  0.
        5    1    3    3  502    0  0.10347772588E+04 -0.93235077801E+03 -0.11732392855E+04  0.18211409774E+04  0.46999998093E+01 0. -1.
       -5    1    3    3    0  502 -0.10347772588E+04  0.93235077801E+03 -0.16947971443E+03  0.14031348518E+04  0.46999998093E+01 0.  1.
</event>
<event>
 5   0  0.1001573E-05  0.3193654E+04  0.7818609E-02  0.8190495E-01
       -2   -1    0    0    0  501  0.00000000000E+00  0.00000000000E+00  0.86003848657E+03  0.86003848657E+03  0.25500000920E-02 0. -1.
        2   -1    0    0  501    0  0.00000000000E+00  0.00000000000E+00 -0.29648171729E+04  0.29648171729E+04  0.25500000920E-02 0.  1.
    10030    2    1    2    0    0  0.00000000000E+00  0.00000000000E+00 -0.21047786863E+04  0.38248556594E+04  0.31936542545E+04 0.  0.
        1    1    3    3  502    0  0.33975592731E+03 -0.12500583471E+04 -0.21706159842E+04  0.25277764363E+04  0.50400001928E-02 0.  1.
       -1    1    3    3    0  502 -0.33975592731E+03  0.12500583471E+04  0.65837297872E+02  0.12970792231E+04  0.50400001928E-02 0. -1.
</event>
<event>
 5   0  0.9360689E-06  0.2895678E+04  0.7818609E-02  0.8274164E-01
       -2   -1    0    0    0  501  0.00000000000E+00  0.00000000000E+00  0.16126261525E+04  0.16126261525E+04  0.25500000920E-02 0. -1.
        2   -1    0    0  501    0  0.00000000000E+00  0.00000000000E+00 -0.12998910322E+04  0.12998910322E+04  0.25500000920E-02 0.  1.
    10030    2    1    2    0    0  0.00000000000E+00  0.00000000000E+00  0.31273512025E+03  0.29125171847E+04  0.28956783481E+04 0.  0.
        5    1    3    3  502    0 -0.47552792405E+03 -0.13609863786E+04  0.22154520432E+02  0.14418473019E+04  0.46999998093E+01 0.  1.
       -5    1    3    3    0  502  0.47552792405E+03  0.13609863786E+04  0.29058059982E+03  0.14706698828E+04  0.46999998093E+01 0. -1.
</event>
<event>
 5   0  0.3486236E-06  0.2902258E+04  0.7818609E-02  0.8272206E-01
       -1   -1    0    0    0  501  0.00000000000E+00  0.00000000000E+00  0.10814865203E+04  0.10814865204E+04  0.50400001928E-02 0.  1.
        1   -1    0    0  501    0  0.00000000000E+00  0.00000000000E+00 -0.19471118160E+04  0.19471118160E+04  0.50400001928E-02 0. -1.
    10030    2    1    2    0    0  0.00000000000E+00  0.00000000000E+00 -0.86562529568E+03  0.30285983364E+04  0.29022578677E+04 0.  0.
        5    1    3    3  502    0  0.36719251763E+03  0.11447211793E+04  0.41530086731E+03  0.12718937942E+04  0.46999998093E+01 0.  1.
       -5    1    3    3    0  502 -0.36719251763E+03 -0.11447211793E+04 -0.12809261630E+04  0.17567045422E+04  0.46999998093E+01 0. -1.
</event>
<event>
 5   0  0.3564340E-06  0.2892234E+04  0.7818609E-02  0.8275192E-01
        1   -1    0    0  501    0  0.00000000000E+00  0.00000000000E+00  0.17830792496E+04  0.17830792496E+04  0.50400001928E-02 0.  1.
       -1   -1    0    0    0  501  0.00000000000E+00  0.00000000000E+00 -0.11728333205E+04  0.11728333206E+04  0.50400001928E-02 0. -1.
    10030    2    1    2    0    0  0.00000000000E+00  0.00000000000E+00  0.61024592905E+03  0.29559125702E+04  0.28922342624E+04 0.  0.
        1    1    3    3  502    0  0.14362244439E+04 -0.16016291204E+03  0.25044796461E+03  0.14666686724E+04  0.50400001928E-02 0. -1.
       -1    1    3    3    0  502 -0.14362244439E+04  0.16016291204E+03  0.35979796444E+03  0.14892438977E+04  0.50400001928E-02 0.  1.
</event>
<event>
 5   0  0.9251510E-06  0.2958078E+04  0.7818609E-02  0.8255804E-01
        2   -1    0    0  501    0  0.00000000000E+00  0.00000000000E+00  0.14614013980E+04  0.14614013980E+04  0.25500000920E-02 0. -1.
       -2   -1    0    0    0  501  0.00000000000E+00  0.00000000000E+00 -0.14968890975E+04  0.14968890975E+04  0.25500000920E-02 0.  1.
    10030    2    1    2    0    0  0.00000000000E+00  0.00000000000E+00 -0.35487699499E+02  0.29582904956E+04  0.29580776324E+04 0.  0.
        2    1    3    3  502    0 -0.13777324574E+04  0.53521061819E+03  0.36653905510E+02  0.14784926915E+04  0.25500000920E-02 0.  1.
       -2    1    3    3    0  502  0.13777324574E+04 -0.53521061819E+03 -0.72141605008E+02  0.14797978041E+04  0.25500000920E-02 0. -1.
</event>
<event>
 5   0  0.3564340E-06  0.2915505E+04  0.7818609E-02  0.8268279E-01
       -1   -1    0    0    0  501  0.00000000000E+00  0.00000000000E+00  0.10054747818E+04  0.10054747818E+04  0.50400001928E-02 0. -1.
        1   -1    0    0  501    0  0.00000000000E+00  0.00000000000E+00 -0.21134721958E+04  0.21134721958E+04  0.50400001928E-02 0.  1.
    10030    2    1    2    0    0  0.00000000000E+00  0.00000000000E+00 -0.11079974140E+04  0.31189469776E+04  0.29155054415E+04 0.  0.
        1    1    3    3  502    0  0.19692567481E+03 -0.79820451447E+03  0.73380073525E+03  0.11019862465E+04  0.50400001928E-02 0. -1.
       -1    1    3    3    0  502 -0.19692567481E+03  0.79820451447E+03 -0.18417981493E+04  0.20169607311E+04  0.50400001928E-02 0.  1.
</event>
<event>
 5   0  0.9505359E-06  0.2900381E+04  0.7818609E-02  0.8272764E-01
        2   -1    0    0  501    0  0.00000000000E+00  0.00000000000E+00  0.19779445915E+04  0.19779445915E+04  0.25500000920E-02 0.  1.
       -2   -1    0    0    0  501  0.00000000000E+00  0.00000000000E+00 -0.10632513755E+04  0.10632513755E+04  0.25500000920E-02 0. -1.
    10030    2    1    2    0    0  0.00000000000E+00  0.00000000000E+00  0.91469321598E+03  0.30411959670E+04  0.29003808768E+04 0.  0.
        4    1    3    3  502    0 -0.49273846104E+03  0.12891451483E+04  0.92435116615E+03  0.16610578243E+04  0.12699999809E+01 0. -1.
       -4    1    3    3    0  502  0.49273846104E+03 -0.12891451483E+04 -0.96579501633E+01  0.13801381428E+04  0.12699999809E+01 0.  1.
</event>
<event>
 5   0  0.1001573E-05  0.2933921E+04  0.7818609E-02  0.8262856E-01
        2   -1    0    0  501    0  0.00000000000E+00  0.00000000000E+00  0.19759081532E+04  0.19759081532E+04  0.25500000920E-02 0. -1.
       -2   -1    0    0    0  501  0.00000000000E+00  0.00000000000E+00 -0.10891059586E+04  0.10891059586E+04  0.25500000920E-02 0.  1.
    10030    2    1    2    0    0  0.00000000000E+00  0.00000000000E+00  0.88680219461E+03  0.30650141119E+04  0.29339211601E+04 0.  0.
        1    1    3    3  502    0  0.37526045725E+03 -0.33861758479E+03 -0.99526311175E+03  0.11162575604E+04  0.50400001928E-02 0.  1.
       -1    1    3    3    0  502 -0.37526045725E+03  0.33861758479E+03  0.18820653064E+04  0.19487565515E+04  0.50400001928E-02 0. -1.
</event>
<event>
 5   0  0.3188375E-06  0.2878047E+04  0.7818609E-02  0.8279439E-01
        4   -1    0    0  501    0  0.00000000000E+00  0.00000000000E+00  0.14523930661E+04  0.14523936213E+04  0.12699999809E+01 0. -1.
       -4   -1    0    0    0  501  0.00000000000E+00  0.00000000000E+00 -0.14257759479E+04  0.14257765135E+04  0.12699999809E+01 0.  1.
    10030    2    1    2    0    0  0.00000000000E+00  0.00000000000E+00  0.26617118211E+02  0.28781701349E+04  0.28780470556E+04 0.  0.
        2    1    3    3  502    0 -0.10834518118E+02  0.10969573739E+04 -0.91805068028E+03  0.14304719216E+04  0.25500000920E-02 0.  1.
       -2    1    3    3    0  502  0.10834518118E+02 -0.10969573739E+04  0.94466779849E+03  0.14476982132E+04  0.25500000920E-02 0. -1.
</event>
<event>
 5   0  0.3564340E-06  0.2895336E+04  0.7818609E-02  0.8274267E-01
       -1   -1    0    0    0  501  0.00000000000E+00  0.00000000000E+00  0.11636679431E+04  0.11636679431E+04  0.50400001928E-02 0. -1.
        1   -1    0    0  501    0  0.00000000000E+00  0.00000000000E+00 -0.18009797437E+04  0.18009797437E+04  0.50400001928E-02 0.  1.
    10030    2    1    2    0    0  0.00000000000E+00  0.00000000000E+00 -0.63731180062E+03  0.29646476868E+04  0.28953358312E+04 0.  0.
        1    1    3    3  502    0  0.14190568900E+04 -0.22178002867E+03 -0.13311780117E+03  0.14424386251E+04  0.50400001928E-02 0. -1.
       -1    1    3    3    0  502 -0.14190568900E+04  0.22178002867E+03 -0.50419399945E+03  0.15222090617E+04  0.50400001928E-02 0.  1.
</event>
<event>
 5   0  0.3188375E-06  0.2751999E+04  0.7818609E-02  0.8318327E-01
        3   -1    0    0  501    0  0.00000000000E+00  0.00000000000E+00  0.11469647518E+04  0.11469647563E+04  0.10100000352E+00 0. -1.
       -3   -1    0    0    0  501  0.00000000000E+00  0.00000000000E+00 -0.16507701768E+04  0.16507701799E+04  0.10100000352E+00 0.  1.
    10030    2    1    2    0    0  0.00000000000E+00  0.00000000000E+00 -0.50380542493E+03  0.27977349361E+04  0.27519994307E+04 0.  0.
        4    1    3    3  502    0 -0.83731400695E+03  0.10594879228E+04 -0.52042141042E+03  0.14472212899E+04  0.12699999809E+01 0. -1.
       -4    1    3    3    0  502  0.83731400695E+03 -0.10594879228E+04  0.16615985484E+02  0.13505136462E+04  0.12699999809E+01 0.  1.
</event>
<event>
 5   0  0.9505359E-06  0.2956769E+04  0.7818609E-02  0.8256185E-01
        2   -1    0    0  501    0  0.00000000000E+00  0.00000000000E+00  0.18600414456E+04  0.18600414456E+04  0.25500000920E-02 0.  1.
       -2   -1    0    0    0  501  0.00000000000E+00  0.00000000000E+00 -0.11750385626E+04  0.11750385626E+04  0.25500000920E-02 0. -1.
    10030    2    1    2    0    0  0.00000000000E+00  0.00000000000E+00  0.68500288296E+03  0.30350800081E+04  0.29567687948E+04 0.  0.
        4    1    3    3  502    0  0.71404335352E+03 -0.12849465722E+04  0.18126410975E+03  0.14811495179E+04  0.12699999809E+01 0. -1.
       -4    1    3    3    0  502 -0.71404335352E+03  0.12849465722E+04  0.50373877321E+03  0.15539304902E+04  0.12699999809E+01 0.  1.
</event>
<event>
 5   0  0.3746518E-06  0.2903568E+04  0.7818609E-02  0.8271817E-01
        1   -1    0    0  501    0  0.00000000000E+00  0.00000000000E+00  0.12972603203E+04  0.12972603203E+04  0.50400001928E-02 0.  1.
       -1   -1    0    0    0  501  0.00000000000E+00  0.00000000000E+00 -0.16247142789E+04  0.16247142789E+04  0.50400001928E-02 0. -1.
    10030    2    1    2    0    0  0.00000000000E+00  0.00000000000E+00 -0.32745395853E+03  0.29219745992E+04  0.29035684017E+04 0.  0.
        4    1    3    3  502    0  0.45787917784E+03 -0.12983843748E+04  0.29986719154E+03  0.14090341627E+04  0.12699999809E+01 0.  1.
       -4    1    3    3    0  502 -0.45787917784E+03  0.12983843748E+04 -0.62732115007E+03  0.15129404365E+04  0.12699999809E+01 0. -1.
</event>
<event>
 5   0  0.9505359E-06  0.2131066E+04  0.7818609E-02  0.8547681E-01
        2   -1    0    0  501    0  0.00000000000E+00  0.00000000000E+00  0.12097081135E+04  0.12097081135E+04  0.25500000920E-02 0.  1.
       -2   -1    0    0    0  501  0.00000000000E+00  0.00000000000E+00 -0.93854116844E+03  0.93854116844E+03  0.25500000920E-02 0. -1.
    10030    2    1    2    0    0  0.00000000000E+00  0.00000000000E+00  0.27116694504E+03  0.21482492819E+04  0.21310662742E+04 0.  0.
        4    1    3    3  502    0  0.95450270397E+02 -0.10590299136E+04  0.66443707736E+02  0.10653973396E+04  0.12699999809E+01 0. -1.
       -4    1    3    3    0  502 -0.95450270397E+02  0.10590299136E+04  0.20472323731E+03  0.10828519423E+04  0.12699999809E+01 0.  1.
</event>
<event>
 5   0  0.3649705E-06  0.2619610E+04  0.7818609E-02  0.8361571E-01
        1   -1    0    0  501    0  0.00000000000E+00  0.00000000000E+00  0.12785464484E+04  0.12785464484E+04  0.50400001928E-02 0. -1.
       -1   -1    0    0    0  501  0.00000000000E+00  0.00000000000E+00 -0.13418273962E+04  0.13418273962E+04  0.50400001928E-02 0.  1.
    10030    2    1    2    0    0  0.00000000000E+00  0.00000000000E+00 -0.63280947817E+02  0.26203738446E+04  0.26196096287E+04 0.  0.
        2    1    3    3  502    0 -0.10495747133E+04 -0.77906441650E+03 -0.11557089809E+03  0.13122138074E+04  0.25500000920E-02 0.  1.
       -2    1    3    3    0  502  0.10495747133E+04  0.77906441650E+03  0.52289950269E+02  0.13081600371E+04  0.25500000920E-02 0. -1.
</event>
<event>
 5   0  0.1001573E-05  0.2927290E+04  0.7818609E-02  0.8264804E-01
        2   -1    0    0  501    0  0.00000000000E+00  0.00000000000E+00  0.31762288943E+04  0.31762288943E+04  0.25500000920E-02 0. -1.
       -2   -1    0    0    0  501  0.00000000000E+00  0.00000000000E+00 -0.67446535991E+03  0.67446535991E+03  0.25500000920E-02 0.  1.
    10030    2    1    2    0    0  0.00000000000E+00  0.00000000000E+00  0.25017635344E+04  0.38506942542E+04  0.29272897802E+04 0.  0.
        1    1    3    3  502    0 -0.10364838051E+04  0.73400309780E+02  0.26068581078E+04  0.28063135032E+04  0.50400001928E-02 0. -1.
       -1    1    3    3    0  502  0.10364838051E+04 -0.73400309780E+02 -0.10509457342E+03  0.10443807510E+04  0.50400001928E-02 0.  1.
</event>
<event>
 5   0  0.3474078E-06  0.2893823E+04  0.7818609E-02  0.8274718E-01
        1   -1    0    0  501    0  0.00000000000E+00  0.00000000000E+00  0.17439741319E+04  0.17439741319E+04  0.50400001928E-02 0. -1.
       -1   -1    0    0    0  501  0.00000000000E+00  0.00000000000E+00 -0.12004497328E+04  0.12004497328E+04  0.50400001928E-02 0.  1.
    10030    2    1    2    0    0  0.00000000000E+00  0.00000000000E+00  0.54352439914E+03  0.29444238647E+04  0.28938232708E+04 0.  0.
        3    1    3    3  502    0 -0.12546536558E+04 -0.19084371153E+03 -0.43535462072E+03  0.13416820690E+04  0.10100000352E+00 0.  1.
       -3    1    3    3    0  502  0.12546536558E+04  0.19084371153E+03  0.97887901986E+03  0.16027417958E+04  0.10100000352E+00 0. -1.
</event>
<event>
 5   0  0.3564340E-06  0.2889674E+04  0.7818609E-02  0.8275957E-01
       -1   -1    0    0    0  501  0.00000000000E+00  0.00000000000E+00  0.20296434315E+04  0.20296434315E+04  0.50400001928E-02 0. -1.
        1   -1    0    0  501    0  0.00000000000E+00  0.00000000000E+00 -0.10285320235E+04  0.10285320235E+04  0.50400001928E-02 0.  1.
    10030    2    1    2    0    0  0.00000000000E+00  0.00000000000E+00  0.10011114080E+04  0.30581754550E+04  0.28896735218E+04 0.  0.
        1    1    3    3  502    0  0.12184722588E+03 -0.48651533050E+03  0.19345620207E+04  0.19985179822E+04  0.50400001928E-02 0. -1.
       -1    1    3    3    0  502 -0.12184722588E+03  0.48651533050E+03 -0.93345061269E+03  0.10596574728E+04  0.50400001928E-02 0.  1.
</event>
<event>
 5   0  0.3474078E-06  0.2934769E+04  0.7818609E-02  0.8262607E-01
        1   -1    0    0  501    0  0.00000000000E+00  0.00000000000E+00  0.13520117006E+04  0.13520117007E+04  0.50400001928E-02 0. -1.
       -1   -1    0    0    0  501  0.00000000000E+00  0.00000000000E+00 -0.15926029230E+04  0.15926029230E+04  0.50400001928E-02 0.  1.
    10030    2    1    2    0    0  0.00000000000E+00  0.00000000000E+00 -0.24059122238E+03  0.29446146237E+04  0.29347693514E+04 0.  0.
        3    1    3    3  502    0 -0.99997257004E+03 -0.62225090622E+02 -0.11959932448E+04  0.15601977293E+04  0.10100000352E+00 0.  1.
       -3    1    3    3    0  502  0.99997257004E+03  0.62225090622E+02  0.95540202243E+03  0.13844168944E+04  0.10100000352E+00 0. -1.
</event>
<event>
 5   0  0.9646321E-06  0.2891030E+04  0.7818609E-02  0.8275551E-01
       -2   -1    0    0    0  501  0.00000000000E+00  0.00000000000E+00  0.18944117597E+04  0.18944117597E+04  0.25500000920E-02 0.  1.
        2   -1    0    0  501    0  0.00000000000E+00  0.00000000000E+00 -0.11029881080E+04  0.11029881080E+04  0.25500000920E-02 0. -1.
    10030    2    1    2    0    0  0.00000000000E+00  0.00000000000E+00  0.79142365170E+03  0.29973998677E+04  0.28910300189E+04 0.  0.
        3    1    3    3  502    0  0.86340132663E+03  0.25531378414E+03 -0.77676620575E+03  0.11891226715E+04  0.10100000352E+00 0. -1.
       -3    1    3    3    0  502 -0.86340132663E+03 -0.25531378414E+03  0.15681898574E+04  0.18082771962E+04  0.10100000352E+00 0.  1.
</event>
<event>
 5   0  0.9251510E-06  0.2950530E+04  0.7818609E-02  0.8258000E-01
        2   -1    0    0  501    0  0.00000000000E+00  0.00000000000E+00  0.18650003787E+04  0.18650003787E+04  0.25500000920E-02 0. -1.
       -2   -1    0    0    0  501  0.00000000000E+00  0.00000000000E+00 -0.11669735892E+04  0.11669735892E+04  0.25500000920E-02 0.  1.
    10030    2    1    2    0    0  0.00000000000E+00  0.00000000000E+00  0.69802678953E+03  0.30319739680E+04  0.29505295700E+04 0.  0.
        2    1    3    3  502    0 -0.13845200296E+04  0.50748059574E+03  0.30335821160E+03  0.15054761612E+04  0.25500000920E-02 0. -1.
       -2    1    3    3    0  502  0.13845200296E+04 -0.50748059574E+03  0.39466857793E+03  0.15264978067E+04  0.25500000920E-02 0.  1.
</event>
<event>
 5   0  0.3746518E-06  0.2914419E+04  0.7818609E-02  0.8268600E-01
        1   -1    0    0  501    0  0.00000000000E+00  0.00000000000E+00  0.16136055916E+04  0.16136055916E+04  0.50400001928E-02 0.  1.
       -1   -1    0    0    0  501  0.00000000000E+00  0.00000000000E+00 -0.13159716788E+04  0.13159716789E+04  0.50400001928E-02 0. -1.
    10030    2    1    2    0    0  0.00000000000E+00  0.00000000000E+00  0.29763391271E+03  0.29295772704E+04  0.29144188164E+04 0.  0.
        4    1    3    3  502    0 -0.41358160500E+03  0.12199360492E+04  0.83365628588E+03  0.15343657074E+04  0.12699999809E+01 0.  1.
       -4    1    3    3    0  502  0.41358160500E+03 -0.12199360492E+04 -0.53602237316E+03  0.13952115630E+04  0.12699999809E+01 0. -1.
</event>
<event>
 5   0  0.9505359E-06  0.2962159E+04  0.7818609E-02  0.8254620E-01
        2   -1    0    0  501    0  0.00000000000E+00  0.00000000000E+00  0.18450045004E+04  0.18450045004E+04  0.25500000920E-02 0.  1.
       -2   -1    0    0    0  501  0.00000000000E+00  0.00000000000E+00 -0.11889383203E+04  0.11889383203E+04  0.25500000920E-02 0. -1.
    10030    2    1    2    0    0  0.00000000000E+00  0.00000000000E+00  0.65606618011E+03  0.30339428207E+04  0.29621590448E+04 0.  0.
        4    1    3    3  502    0  0.20230662876E+03 -0.90485789614E+03  0.15109670974E+04  0.17727715494E+04  0.12699999809E+01 0.  1.
       -4    1    3    3    0  502 -0.20230662876E+03  0.90485789614E+03 -0.85490091727E+03  0.12611712713E+04  0.12699999809E+01 0. -1.
</event>
<event>
 5   0  0.9360689E-06  0.2806247E+04  0.7818609E-02  0.8301332E-01
       -2   -1    0    0    0  501  0.00000000000E+00  0.00000000000E+00  0.10498348620E+04  0.10498348620E+04  0.25500000920E-02 0. -1.
        2   -1    0    0  501    0  0.00000000000E+00  0.00000000000E+00 -0.18753003638E+04  0.18753003638E+04  0.25500000920E-02 0.  1.
    10030    2    1    2    0    0  0.00000000000E+00  0.00000000000E+00 -0.82546550187E+03  0.29251352258E+04  0.28062471015E+04 0.  0.
        5    1    3    3  502    0  0.79145756111E+03  0.11243153446E+04 -0.12116177290E+03  0.13802870463E+04  0.46999998093E+01 0. -1.
       -5    1    3    3    0  502 -0.79145756111E+03 -0.11243153446E+04 -0.70430372897E+03  0.15448481795E+04  0.46999998093E+01 0.  1.
</event>
<event>
 5   0  0.3746518E-06  0.2318896E+04  0.7818609E-02  0.8470508E-01
       -1   -1    0    0    0  501  0.00000000000E+00  0.00000000000E+00  0.12268438416E+04  0.12268438416E+04  0.50400001928E-02 0.  1.
        1   -1    0    0  501    0  0.00000000000E+00  0.00000000000E+00 -0.10957546766E+04  0.10957546766E+04  0.50400001928E-02 0. -1.
    10030    2    1    2    0    0  0.00000000000E+00  0.00000000000E+00  0.13108916498E+03  0.23225985182E+04  0.23188961830E+04 0.  0.
        4    1    3    3  502    0 -0.59131481485E+03 -0.98968171123E+03 -0.57920894203E+02  0.11543307770E+04  0.12699999809E+01 0.  1.
       -4    1    3    3    0  502  0.59131481485E+03  0.98968171123E+03  0.18901005919E+03  0.11682677412E+04  0.12699999809E+01 0. -1.
</event>
<event>
 5   0  0.1001573E-05  0.2727605E+04  0.7818609E-02  0.8326103E-01
       -2   -1    0    0    0  501  0.00000000000E+00  0.00000000000E+00  0.23463233491E+04  0.23463233491E+04  0.25500000920E-02 0. -1.
        2   -1    0    0  501    0  0.00000000000E+00  0.00000000000E+00 -0.79271161653E+03  0.79271161654E+03  0.25500000920E-02 0.  1.
    10030    2    1    2    0    0  0.00000000000E+00  0.00000000000E+00  0.15536117326E+04  0.31390349657E+04  0.27276053784E+04 0.  0.
        1    1    3    3  502    0 -0.57796841449E+03  0.10427043146E+04  0.14573226003E+02  0.11922634586E+04  0.50400001928E-02 0.  1.
       -1    1    3    3    0  502  0.57796841449E+03 -0.10427043146E+04  0.15390385066E+04  0.19467715070E+04  0.50400001928E-02 0. -1.
</event>
<event>
 5   0  0.3564340E-06  0.2879857E+04  0.7818609E-02  0.8278896E-01
        1   -1    0    0  501    0  0.00000000000E+00  0.00000000000E+00  0.10346897718E+04  0.10346897718E+04  0.50400001928E-02 0.  1.
       -1   -1    0    0    0  501  0.00000000000E+00  0.00000000000E+00 -0.20038796449E+04  0.20038796449E+04  0.50400001928E-02 0. -1.
    10030    2    1    2    0    0  0.00000000000E+00  0.00000000000E+00 -0.96918987310E+03  0.30385694166E+04  0.28798567828E+04 0.  0.
        1    1    3    3  502    0 -0.77164491798E+03  0.12038188938E+04 -0.66358474491E+03  0.15763757554E+04  0.50400001928E-02 0. -1.
       -1    1    3    3    0  502  0.77164491798E+03 -0.12038188938E+04 -0.30560512819E+03  0.14621936612E+04  0.50400001928E-02 0.  1.
</event>
<event>
 5   0  0.1001573E-05  0.3056124E+04  0.7818609E-02  0.8227883E-01
       -2   -1    0    0    0  501  0.00000000000E+00  0.00000000000E+00  0.12508690227E+04  0.12508690227E+04  0.25500000920E-02 0.  1.
        2   -1    0    0  501    0  0.00000000000E+00  0.00000000000E+00 -0.18666813002E+04  0.18666813002E+04  0.25500000920E-02 0. -1.
    10030    2    1    2    0    0  0.00000000000E+00  0.00000000000E+00 -0.61581227747E+03  0.31175503229E+04  0.30561242211E+04 0.  0.
        1    1    3    3  502    0 -0.11506579906E+04  0.84057176133E+03 -0.87071919443E+03  0.16699480869E+04  0.50400001928E-02 0.  1.
       -1    1    3    3    0  502  0.11506579906E+04 -0.84057176133E+03  0.25490691696E+03  0.14476022360E+04  0.50400001928E-02 0. -1.
</event>
<event>
 5   0  0.3746518E-06  0.2850921E+04  0.7818609E-02  0.8287631E-01
        1   -1    0    0  501    0  0.00000000000E+00  0.00000000000E+00  0.12524620076E+04  0.12524620076E+04  0.50400001928E-02 0. -1.
       -1   -1    0    0    0  501  0.00000000000E+00  0.00000000000E+00 -0.16223549893E+04  0.16223549893E+04  0.50400001928E-02 0.  1.
    10030    2    1    2    0    0  0.00000000000E+00  0.00000000000E+00 -0.36989298172E+03  0.28748169969E+04  0.28509212454E+04 0.  0.
        4    1    3    3  502    0 -0.13936192700E+04  0.22007036678E+03 -0.38995012668E+03  0.14637856230E+04  0.12699999809E+01 0. -1.
       -4    1    3    3    0  502  0.13936192700E+04 -0.22007036678E+03  0.20057144958E+02  0.14110313739E+04  0.12699999809E+01 0.  1.
</event>
<event>
 5   0  0.9251510E-06  0.2948305E+04  0.7818609E-02  0.8258649E-01
       -2   -1    0    0    0  501  0.00000000000E+00  0.00000000000E+00  0.14962425979E+04  0.14962425979E+04  0.25500000920E-02 0. -1.
        2   -1    0    0  501    0  0.00000000000E+00  0.00000000000E+00 -0.14523888493E+04  0.14523888493E+04  0.25500000920E-02 0.  1.
    10030    2    1    2    0    0  0.00000000000E+00  0.00000000000E+00  0.43853748679E+02  0.29486314472E+04  0.29483053200E+04 0.  0.
        2    1    3    3  502    0 -0.11828570251E+04 -0.25140300033E+03  0.86509299526E+03  0.14868557768E+04  0.25500000920E-02 0. -1.
       -2    1    3    3    0  502  0.11828570251E+04  0.25140300033E+03 -0.82123924658E+03  0.14617756704E+04  0.25500000920E-02 0.  1.
</event>
<event>
 5   0  0.9251510E-06  0.2914591E+04  0.7818609E-02  0.8268549E-01
       -2   -1    0    0    0  501  0.00000000000E+00  0.00000000000E+00  0.78163714027E+03  0.78163714028E+03  0.25500000920E-02 0. -1.
        2   -1    0    0  501    0  0.00000000000E+00  0.00000000000E+00 -0.27170029286E+04  0.27170029286E+04  0.25500000920E-02 0.  1.
    10030    2    1    2    0    0  0.00000000000E+00  0.00000000000E+00 -0.19353657884E+04  0.34986400689E+04  0.29145911544E+04 0.  0.
        2    1    3    3  502    0  0.60204388577E+03  0.10008026040E+04  0.78548478226E+02  0.11705693299E+04  0.25500000920E-02 0.  1.
       -2    1    3    3    0  502 -0.60204388577E+03 -0.10008026040E+04 -0.20139142666E+04  0.23280707390E+04  0.25500000920E-02 0. -1.
</event>
<event>
 5   0  0.3746518E-06  0.2874548E+04  0.7818609E-02  0.8280491E-01
        1   -1    0    0  501    0  0.00000000000E+00  0.00000000000E+00  0.15403764451E+04  0.15403764452E+04  0.50400001928E-02 0. -1.
       -1   -1    0    0    0  501  0.00000000000E+00  0.00000000000E+00 -0.13410723672E+04  0.13410723672E+04  0.50400001928E-02 0.  1.
    10030    2    1    2    0    0  0.00000000000E+00  0.00000000000E+00  0.19930407799E+03  0.28814488123E+04  0.28745478153E+04 0.  0.
        4    1    3    3  502    0 -0.39086909252E+03 -0.13820502937E+04  0.45550149552E+02  0.14369822862E+04  0.12699999809E+01 0. -1.
       -4    1    3    3    0  502  0.39086909252E+03  0.13820502937E+04  0.15375392844E+03  0.14444665262E+04  0.12699999809E+01 0.  1.
</event>
<event>
 5   0  0.3486236E-06  0.2909972E+04  0.7818609E-02  0.8269917E-01
       -1   -1    0    0    0  501  0.00000000000E+00  0.00000000000E+00  0.17381046360E+04  0.17381046360E+04  0.50400001928E-02 0.  1.
        1   -1    0    0  501    0  0.00000000000E+00  0.00000000000E+00 -0.12179844770E+04  0.12179844771E+04  0.50400001928E-02 0. -1.
    10030    2    1    2    0    0  0.00000000000E+00  0.00000000000E+00  0.52012015899E+03  0.29560891131E+04  0.29099721416E+04 0.  0.
        5    1    3    3  502    0 -0.33370369485E+03 -0.12828117881E+04  0.86956724697E+03  0.15852865756E+04  0.46999998093E+01 0.  1.
       -5    1    3    3    0  502  0.33370369485E+03  0.12828117881E+04 -0.34944708798E+03  0.13708025375E+04  0.46999998093E+01 0. -1.
</event>
<event>
 5   0  0.3649705E-06  0.2881335E+04  0.7818609E-02  0.8278453E-01
        1   -1    0    0  501    0  0.00000000000E+00  0.00000000000E+00  0.21453421641E+04  0.21453421641E+04  0.50400001928E-02 0.  1.
       -1   -1    0    0    0  501  0.00000000000E+00  0.00000000000E+00 -0.96745543123E+03  0.96745543125E+03  0.50400001928E-02 0. -1.
    10030    2    1    2    0    0  0.00000000000E+00  0.00000000000E+00  0.11778867329E+04  0.31127975953E+04  0.28813350576E+04 0.  0.
        2    1    3    3  502    0  0.63239275948E+03 -0.12089437171E+04  0.89113437563E+02  0.13672624906E+04  0.25500000920E-02 0.  1.
       -2    1    3    3    0  502 -0.63239275948E+03  0.12089437171E+04  0.10887732953E+04  0.17455351048E+04  0.25500000920E-02 0. -1.
</event>
<event>
 5   0  0.9646321E-06  0.2850967E+04  0.7818609E-02  0.8287618E-01
        2   -1    0    0  501    0  0.00000000000E+00  0.00000000000E+00  0.73998713138E+03  0.73998713138E+03  0.25500000920E-02 0.  1.
       -2   -1    0    0    0  501  0.00000000000E+00  0.00000000000E+00 -0.27459972727E+04  0.27459972727E+04  0.25500000920E-02 0. -1.
    10030    2    1    2    0    0  0.00000000000E+00  0.00000000000E+00 -0.20060101413E+04  0.34859844040E+04  0.28509666042E+04 0.  0.
        3    1    3    3  502    0  0.56648939936E+03  0.12508764330E+04 -0.14708529390E+04  0.20122153137E+04  0.10100000352E+00 0. -1.
       -3    1    3    3    0  502 -0.56648939936E+03 -0.12508764330E+04 -0.53515720229E+03  0.14737690904E+04  0.10100000352E+00 0.  1.
</event>
<event>
 5   0  0.3649705E-06  0.2902512E+04  0.7818609E-02  0.8272131E-01
       -1   -1    0    0    0  501  0.00000000000E+00  0.00000000000E+00  0.17538982843E+04  0.17538982843E+04  0.50400001928E-02 0.  1.
        1   -1    0    0  501    0  0.00000000000E+00  0.00000000000E+00 -0.12008357200E+04  0.12008357200E+04  0.50400001928E-02 0. -1.
    10030    2    1    2    0    0  0.00000000000E+00  0.00000000000E+00  0.55306256436E+03  0.29547340043E+04  0.29025118150E+04 0.  0.
        2    1    3    3  502    0 -0.71116090748E+03 -0.12585541568E+04  0.40703813159E+03  0.15017950734E+04  0.25500000920E-02 0.  1.
       -2    1    3    3    0  502  0.71116090748E+03  0.12585541568E+04  0.14602443277E+03  0.14529389309E+04  0.25500000920E-02 0. -1.
</event>
<event>
 5   0  0.3564340E-06  0.2874117E+04  0.7818609E-02  0.8280620E-01
       -1   -1    0    0    0  501  0.00000000000E+00  0.00000000000E+00  0.26283268533E+04  0.26283268533E+04  0.50400001928E-02 0. -1.
        1   -1    0    0  501    0  0.00000000000E+00  0.00000000000E+00 -0.78572337401E+03  0.78572337403E+03  0.50400001928E-02 0.  1.
    10030    2    1    2    0    0  0.00000000000E+00  0.00000000000E+00  0.18426034792E+04  0.34140502273E+04  0.28741174946E+04 0.  0.
        1    1    3    3  502    0 -0.11530511231E+04 -0.85234844827E+03  0.10346977617E+04  0.17682262943E+04  0.50400001928E-02 0.  1.
       -1    1    3    3    0  502  0.11530511231E+04  0.85234844827E+03  0.80790571752E+03  0.16458239329E+04  0.50400001928E-02 0. -1.
</event>
<event>
 5   0  0.1001573E-05  0.2976461E+04  0.7818609E-02  0.8250485E-01
       -2   -1    0    0    0  501  0.00000000000E+00  0.00000000000E+00  0.19792070586E+04  0.19792070586E+04  0.25500000920E-02 0.  1.
        2   -1    0    0  501    0  0.00000000000E+00  0.00000000000E+00 -0.11190495234E+04  0.11190495234E+04  0.25500000920E-02 0. -1.
    10030    2    1    2    0    0  0.00000000000E+00  0.00000000000E+00  0.86015753523E+03  0.30982565821E+04  0.29764614667E+04 0.  0.
        1    1    3    3  502    0  0.10459717921E+04 -0.49084157793E+03 -0.54630603036E+03  0.12780581847E+04  0.50400001928E-02 0. -1.
       -1    1    3    3    0  502 -0.10459717921E+04  0.49084157793E+03  0.14064635656E+04  0.18201983974E+04  0.50400001928E-02 0.  1.
</event>
<event>
 5   0  0.3486236E-06  0.2955684E+04  0.7818609E-02  0.8256500E-01
        1   -1    0    0  501    0  0.00000000000E+00  0.00000000000E+00  0.13295533154E+04  0.13295533155E+04  0.50400001928E-02 0. -1.
       -1   -1    0    0    0  501  0.00000000000E+00  0.00000000000E+00 -0.16426701281E+04  0.16426701281E+04  0.50400001928E-02 0.  1.
    10030    2    1    2    0    0  0.00000000000E+00  0.00000000000E+00 -0.31311681263E+03  0.29722234435E+04  0.29556843641E+04 0.  0.
        5    1    3    3  502    0 -0.42991926684E+02  0.65362754626E+02  0.13274619530E+04  0.13297736356E+04  0.46999998093E+01 0. -1.
       -5    1    3    3    0  502  0.42991926684E+02 -0.65362754626E+02 -0.16405787656E+04  0.16424498079E+04  0.46999998093E+01 0.  1.
</event>
<event>
 5   0  0.3486236E-06  0.2835123E+04  0.7818609E-02  0.8292446E-01
        1   -1    0    0  501    0  0.00000000000E+00  0.00000000000E+00  0.15977315567E+04  0.15977315567E+04  0.50400001928E-02 0.  1.
       -1   -1    0    0    0  501  0.00000000000E+00  0.00000000000E+00 -0.12577081527E+04  0.12577081527E+04  0.50400001928E-02 0. -1.
    10030    2    1    2    0    0  0.00000000000E+00  0.00000000000E+00  0.34002340396E+03  0.28554397094E+04  0.28351225756E+04 0.  0.
        5    1    3    3  502    0  0.69566375184E+03  0.40275338977E+03 -0.10059598148E+04  0.12876861370E+04  0.46999998093E+01 0. -1.
       -5    1    3    3    0  502 -0.69566375184E+03 -0.40275338977E+03  0.13459832187E+04  0.15677535724E+04  0.46999998093E+01 0.  1.
</event>
<event>
 5   0  0.9251510E-06  0.2919754E+04  0.7818609E-02  0.8267024E-01
        2   -1    0    0  501    0  0.00000000000E+00  0.00000000000E+00  0.11437935322E+04  0.11437935322E+04  0.25500000920E-02 0. -1.
       -2   -1    0    0    0  501  0.00000000000E+00  0.00000000000E+00 -0.18633087086E+04  0.18633087086E+04  0.25500000920E-02 0.  1.
    10030    2    1    2    0    0  0.00000000000E+00  0.00000000000E+00 -0.71951517642E+03  0.30071022407E+04  0.29197537220E+04 0.  0.
        2    1    3    3  502    0  0.11815035349E+04 -0.23941137173E+03 -0.12077810461E+04  0.17064593353E+04  0.25500000920E-02 0.  1.
       -2    1    3    3    0  502 -0.11815035349E+04  0.23941137173E+03  0.48826586964E+03  0.13006429054E+04  0.25500000920E-02 0. -1.
</event>
<event>
 5   0  0.9251510E-06  0.2914071E+04  0.7818609E-02  0.8268703E-01
        2   -1    0    0  501    0  0.00000000000E+00  0.00000000000E+00  0.13859012533E+04  0.13859012533E+04  0.25500000920E-02 0.  1.
       -2   -1    0    0    0  501  0.00000000000E+00  0.00000000000E+00 -0.15318207081E+04  0.15318207081E+04  0.25500000920E-02 0. -1.
    10030    2    1    2    0    0  0.00000000000E+00  0.00000000000E+00 -0.14591945482E+03  0.29177219614E+04  0.29140708565E+04 0.  0.
        2    1    3    3  502    0  0.11957590594E+04  0.70324483997E+03 -0.51911785692E+03  0.14811739879E+04  0.25500000920E-02 0. -1.
       -2    1    3    3    0  502 -0.11957590594E+04 -0.70324483997E+03  0.37319840211E+03  0.14365479736E+04  0.25500000920E-02 0.  1.
</event>
<event>
 5   0  0.3474078E-06  0.2892323E+04  0.7818609E-02  0.8275165E-01
        1   -1    0    0  501    0  0.00000000000E+00  0.00000000000E+00  0.16073639709E+04  0.16073639709E+04  0.50400001928E-02 0. -1.
       -1   -1    0    0    0  501  0.00000000000E+00  0.00000000000E+00 -0.13011261540E+04  0.13011261540E+04  0.50400001928E-02 0.  1.
    10030    2    1    2    0    0  0.00000000000E+00  0.00000000000E+00  0.30623781692E+03  0.29084901249E+04  0.28923231504E+04 0.  0.
        3    1    3    3  502    0  0.87608955980E+03  0.11142855153E+04 -0.13522094258E+03  0.14238854729E+04  0.10100000352E+00 0.  1.
       -3    1    3    3    0  502 -0.87608955980E+03 -0.11142855153E+04  0.44145875951E+03  0.14846046520E+04  0.10100000352E+00 0. -1.
</event>
<event>
 5   0  0.9360689E-06  0.2919590E+04  0.7818609E-02  0.8267073E-01
        2   -1    0    0  501    0  0.00000000000E+00  0.00000000000E+00  0.14356792962E+04  0.14356792962E+04  0.25500000920E-02 0. -1.
       -2   -1    0    0    0  501  0.00000000000E+00  0.00000000000E+00 -0.14843161998E+04  0.14843161998E+04  0.25500000920E-02 0.  1.
    10030    2    1    2    0    0  0.00000000000E+00  0.00000000000E+00 -0.48636903635E+02  0.29199954960E+04  0.29195904076E+04 0.  0.
        5    1    3    3  502    0  0.11882846864E+04 -0.74529757674E+03 -0.42871472373E+03  0.14667335743E+04  0.46999998093E+01 0.  1.
       -5    1    3    3    0  502 -0.11882846864E+04  0.74529757674E+03  0.38007782009E+03  0.14532619217E+04  0.46999998093E+01 0. -1.
</event>
<event>
 5   0  0.3746518E-06  0.2892103E+04  0.7818609E-02  0.8275231E-01
        1   -1    0    0  501    0  0.00000000000E+00  0.00000000000E+00  0.17263189307E+04  0.17263189307E+04  0.50400001928E-02 0. -1.
       -1   -1    0    0    0  501  0.00000000000E+00  0.00000000000E+00 -0.12112850866E+04  0.12112850866E+04  0.50400001928E-02 0.  1.
    10030    2    1    2    0    0  0.00000000000E+00  0.00000000000E+00  0.51503384409E+03  0.29376040172E+04  0.28921026091E+04 0.  0.
        4    1    3    3  502    0  0.53845240609E+03 -0.11999456981E+04  0.86802406769E+03  0.15758388455E+04  0.12699999809E+01 0. -1.
       -4    1    3    3    0  502 -0.53845240609E+03  0.11999456981E+04 -0.35299022359E+03  0.13617651717E+04  0.12699999809E+01 0.  1.
</event>
<event>
 5   0  0.9251510E-06  0.2875862E+04  0.7818609E-02  0.8280096E-01
        2   -1    0    0  501    0  0.00000000000E+00  0.00000000000E+00  0.14145210143E+04  0.14145210143E+04  0.25500000920E-02 0. -1.
       -2   -1    0    0    0  501  0.00000000000E+00  0.00000000000E+00 -0.14617287430E+04  0.14617287430E+04  0.25500000920E-02 0.  1.
    10030    2    1    2    0    0  0.00000000000E+00  0.00000000000E+00 -0.47207728641E+02  0.28762497573E+04  0.28758623223E+04 0.  0.
        2    1    3    3  502    0 -0.88824664684E+03 -0.12501259434E+03 -0.11476039106E+04  0.14565730294E+04  0.25500000920E-02 0.  1.
       -2    1    3    3    0  502  0.88824664684E+03  0.12501259434E+03  0.11003961820E+04  0.14196767279E+04  0.25500000920E-02 0. -1.
</event>
<event>
 5   0  0.3486236E-06  0.2282370E+04  0.7818609E-02  0.8484905E-01
        1   -1    0    0  501    0  0.00000000000E+00  0.00000000000E+00  0.72263475525E+03  0.72263475526E+03  0.50400001928E-02 0.  1.
       -1   -1    0    0    0  501  0.00000000000E+00  0.00000000000E+00 -0.18021599329E+04  0.18021599329E+04  0.50400001928E-02 0. -1.
    10030    2    1    2    0    0  0.00000000000E+00  0.00000000000E+00 -0.10795251776E+04  0.25247946882E+04  0.22823701733E+04 0.  0.
        5    1    3    3  502    0  0.67720508555E+03  0.75332132381E+03 -0.11211121239E+04  0.15109646684E+04  0.46999998093E+01 0. -1.
       -5    1    3    3    0  502 -0.67720508555E+03 -0.75332132381E+03  0.41586946305E+02  0.10138300197E+04  0.46999998093E+01 0.  1.
</event>
<event>
 5   0  0.3486236E-06  0.2923789E+04  0.7818609E-02  0.8265834E-01
       -1   -1    0    0    0  501  0.00000000000E+00  0.00000000000E+00  0.13682820072E+04  0.13682820072E+04  0.50400001928E-02 0. -1.
        1   -1    0    0  501    0  0.00000000000E+00  0.00000000000E+00 -0.15619121175E+04  0.15619121175E+04  0.50400001928E-02 0.  1.
    10030    2    1    2    0    0  0.00000000000E+00  0.00000000000E+00 -0.19363011030E+03  0.29301941247E+04  0.29237894912E+04 0.  0.
        5    1    3    3  502    0  0.93111866482E+03 -0.47087893022E+03 -0.11229745790E+04  0.15329066932E+04  0.46999998093E+01 0.  1.
       -5    1    3    3    0  502 -0.93111866482E+03  0.47087893022E+03  0.92934446867E+03  0.13972874315E+04  0.46999998093E+01 0. -1.
</event>
<event>
 5   0  0.3649705E-06  0.2895289E+04  0.7818609E-02  0.8274281E-01
       -1   -1    0    0    0  501  0.00000000000E+00  0.00000000000E+00  0.10463582495E+04  0.10463582496E+04  0.50400001928E-02 0. -1.
        1   -1    0    0  501    0  0.00000000000E+00  0.00000000000E+00 -0.20028270194E+04  0.20028270194E+04  0.50400001928E-02 0.  1.
    10030    2    1    2    0    0  0.00000000000E+00  0.00000000000E+00 -0.95646876984E+03  0.30491852689E+04  0.28952889833E+04 0.  0.
        2    1    3    3  502    0 -0.83412442350E+02  0.10793654881E+04 -0.14904064104E+04  0.18420908665E+04  0.25500000920E-02 0.  1.
       -2    1    3    3    0  502  0.83412442350E+02 -0.10793654881E+04  0.53393764057E+03  0.12070944024E+04  0.25500000920E-02 0. -1.
</event>
<event>
 5   0  0.3486236E-06  0.2776265E+04  0.7818609E-02  0.8310675E-01
       -1   -1    0    0    0  501  0.00000000000E+00  0.00000000000E+00  0.89010773597E+03  0.89010773599E+03  0.50400001928E-02 0. -1.
        1   -1    0    0  501    0  0.00000000000E+00  0.00000000000E+00 -0.21648068159E+04  0.21648068159E+04  0.50400001928E-02 0.  1.
    10030    2    1    2    0    0  0.00000000000E+00  0.00000000000E+00 -0.12746990799E+04  0.30549145519E+04  0.27762646083E+04 0.  0.
        5    1    3    3  502    0 -0.13581457876E+04 -0.21987078688E+03 -0.84020589771E+03  0.16121014806E+04  0.46999998093E+01 0. -1.
       -5    1    3    3    0  502  0.13581457876E+04  0.21987078688E+03 -0.43449318223E+03  0.14428130713E+04  0.46999998093E+01 0.  1.
</event>
<event>
 5   0  0.9251510E-06  0.2896811E+04  0.7818609E-02  0.8273827E-01
       -2   -1    0    0    0  501  0.00000000000E+00  0.00000000000E+00  0.11406957171E+04  0.11406957171E+04  0.25500000920E-02 0.  1.
        2   -1    0    0  501    0  0.00000000000E+00  0.00000000000E+00 -0.18391218114E+04  0.18391218114E+04  0.25500000920E-02 0. -1.
    10030    2    1    2    0    0  0.00000000000E+00  0.00000000000E+00 -0.69842609433E+03  0.29798175286E+04  0.28968109179E+04 0.  0.
        2    1    3    3  502    0 -0.81101313528E+03  0.25545851048E+03  0.85693730518E+03  0.12072045813E+04  0.25500000920E-02 0.  1.
       -2    1    3    3    0  502  0.81101313528E+03 -0.25545851048E+03 -0.15553633995E+04  0.17726129472E+04  0.25500000920E-02 0. -1.
</event>
<event>
 5   0  0.9251510E-06  0.2546553E+04  0.7818609E-02  0.8386586E-01
        2   -1    0    0  501    0  0.00000000000E+00  0.00000000000E+00  0.11916373655E+04  0.11916373655E+04  0.25500000920E-02 0.  1.
       -2   -1    0    0    0  501  0.00000000000E+00  0.00000000000E+00 -0.13605092275E+04  0.13605092275E+04  0.25500000920E-02 0. -1.
    10030    2    1    2    0    0  0.00000000000E+00  0.00000000000E+00 -0.16887186196E+03  0.25521465930E+04  0.25465534604E+04 0.  0.
        2    1    3    3  502    0  0.31510473795E+03 -0.85474951765E+03  0.80709413952E+03  0.12170820366E+04  0.25500000920E-02 0.  1.
       -2    1    3    3    0  502 -0.31510473795E+03  0.85474951765E+03 -0.97596600147E+03  0.13350645564E+04  0.25500000920E-02 0. -1.
</event>
<event>
 5   0  0.3746518E-06  0.2970091E+04  0.7818609E-02  0.8252323E-01
       -1   -1    0    0    0  501  0.00000000000E+00  0.00000000000E+00  0.19215716588E+04  0.19215716588E+04  0.50400001928E-02 0. -1.
        1   -1    0    0  501    0  0.00000000000E+00  0.00000000000E+00 -0.11476857895E+04  0.11476857895E+04  0.50400001928E-02 0.  1.
    10030    2    1    2    0    0  0.00000000000E+00  0.00000000000E+00  0.77388586927E+03  0.30692574483E+04  0.29700912352E+04 0.  0.
        4    1    3    3  502    0 -0.32881678271E+03  0.14477313738E+04  0.34950822342E+03  0.15251898958E+04  0.12699999809E+01 0.  1.
       -4    1    3    3    0  502  0.32881678271E+03 -0.14477313738E+04  0.42437764585E+03  0.15440675524E+04  0.12699999809E+01 0. -1.
</event>
<event>
 5   0  0.9505359E-06  0.2874458E+04  0.7818609E-02  0.8280518E-01
        2   -1    0    0  501    0  0.00000000000E+00  0.00000000000E+00  0.95168616442E+03  0.95168616442E+03  0.25500000920E-02 0. -1.
       -2   -1    0    0    0  501  0.00000000000E+00  0.00000000000E+00 -0.21704913478E+04  0.21704913478E+04  0.25500000920E-02 0.  1.
    10030    2    1    2    0    0  0.00000000000E+00  0.00000000000E+00 -0.12188051834E+04  0.31221775122E+04  0.28744575737E+04 0.  0.
        4    1    3    3  502    0 -0.13530771309E+03  0.27769607150E+03 -0.21340065106E+04  0.21562487532E+04  0.12699999809E+01 0.  1.
       -4    1    3    3    0  502  0.13530771309E+03 -0.27769607150E+03  0.91520132722E+03  0.96592875906E+03  0.12699999809E+01 0. -1.
</event>
<event>
 5   0  0.3188375E-06  0.2865883E+04  0.7818609E-02  0.8283101E-01
       -3   -1    0    0    0  501  0.00000000000E+00  0.00000000000E+00  0.69904163761E+03  0.69904164491E+03  0.10100000352E+00 0. -1.
        3   -1    0    0  501    0  0.00000000000E+00  0.00000000000E+00 -0.29373367194E+04  0.29373367212E+04  0.10100000352E+00 0.  1.
    10030    2    1    2    0    0  0.00000000000E+00  0.00000000000E+00 -0.22382950818E+04  0.36363783661E+04  0.28658825426E+04 0.  0.
        4    1    3    3  502    0  0.23199309402E+03  0.22307841141E+03 -0.28908810307E+04  0.29087419136E+04  0.12699999809E+01 0.  1.
       -4    1    3    3    0  502 -0.23199309402E+03 -0.22307841141E+03  0.65258594891E+03  0.72763645245E+03  0.12699999809E+01 0. -1.
</event>
<event>
 5   0  0.3486236E-06  0.2892259E+04  0.7818609E-02  0.8275184E-01
        1   -1    0    0  501    0  0.00000000000E+00  0.00000000000E+00  0.24448950088E+04  0.24448950088E+04  0.50400001928E-02 0.  1.
       -1   -1    0    0    0  501  0.00000000000E+00  0.00000000000E+00 -0.85537053633E+03  0.85537053635E+03  0.50400001928E-02 0. -1.
    10030    2    1    2    0    0  0.00000000000E+00  0.00000000000E+00  0.15895244724E+04  0.33002655451E+04  0.28922594316E+04 0.  0.
        5    1    3    3  502    0 -0.80779961156E+03  0.10139409321E+04  0.63540743159E+02  0.12979506702E+04  0.46999998093E+01 0. -1.
       -5    1    3    3    0  502  0.80779961156E+03 -0.10139409321E+04  0.15259837293E+04  0.20023148749E+04  0.46999998093E+01 0.  1.
</event>
<event>
 5   0  0.3474078E-06  0.2899903E+04  0.7818609E-02  0.8272906E-01
        1   -1    0    0  501    0  0.00000000000E+00  0.00000000000E+00  0.19797406906E+04  0.19797406906E+04  0.50400001928E-02 0.  1.
       -1   -1    0    0    0  501  0.00000000000E+00  0.00000000000E+00 -0.10619369001E+04  0.10619369001E+04  0.50400001928E-02 0. -1.
    10030    2    1    2    0    0  0.00000000000E+00  0.00000000000E+00  0.91780379052E+03  0.30416775907E+04  0.28999032342E+04 0.  0.
        3    1    3    3  502    0  0.11198504923E+04 -0.88192291004E+03  0.73741418571E+03  0.16048778259E+04  0.10100000352E+00 0.  1.
       -3    1    3    3    0  502 -0.11198504923E+04  0.88192291004E+03  0.18038960481E+03  0.14367997648E+04  0.10100000352E+00 0. -1.
</event>
<event>
 5   0  0.9251510E-06  0.2859996E+04  0.7818609E-02  0.8284880E-01
        2   -1    0    0  501    0  0.00000000000E+00  0.00000000000E+00  0.13098167552E+04  0.13098167552E+04  0.25500000920E-02 0.  1.
       -2   -1    0    0    0  501  0.00000000000E+00  0.00000000000E+00 -0.15612061973E+04  0.15612061973E+04  0.25500000920E-02 0. -1.
    10030    2    1    2    0    0  0.00000000000E+00  0.00000000000E+00 -0.25138944215E+03  0.28710229525E+04  0.28599958290E+04 0.  0.
        2    1    3    3  502    0  0.41288456719E+03  0.13690135058E+04 -0.11072445567E+03  0.14342006659E+04  0.25500000920E-02 0. -1.
       -2    1    3    3    0  502 -0.41288456719E+03 -0.13690135058E+04 -0.14066498649E+03  0.14368222866E+04  0.25500000920E-02 0.  1.
</event>
<event>
 5   0  0.3564340E-06  0.2928487E+04  0.7818609E-02  0.8264452E-01
       -1   -1    0    0    0  501  0.00000000000E+00  0.00000000000E+00  0.93367824415E+03  0.93367824417E+03  0.50400001928E-02 0.  1.
        1   -1    0    0  501    0  0.00000000000E+00  0.00000000000E+00 -0.22963046318E+04  0.22963046318E+04  0.50400001928E-02 0. -1.
    10030    2    1    2    0    0  0.00000000000E+00  0.00000000000E+00 -0.13626263876E+04  0.32299828759E+04  0.29284874435E+04 0.  0.
        1    1    3    3  502    0 -0.70334185360E+03 -0.41581282701E+03 -0.20214889448E+04  0.21803686900E+04  0.50400001928E-02 0. -1.
       -1    1    3    3    0  502  0.70334185360E+03  0.41581282701E+03  0.65886255719E+03  0.10496141860E+04  0.50400001928E-02 0.  1.
</event>
<event>
 5   0  0.9251510E-06  0.2854056E+04  0.7818609E-02  0.8286680E-01
        2   -1    0    0  501    0  0.00000000000E+00  0.00000000000E+00  0.15006567601E+04  0.15006567601E+04  0.25500000920E-02 0. -1.
       -2   -1    0    0    0  501  0.00000000000E+00  0.00000000000E+00 -0.13570113993E+04  0.13570113993E+04  0.25500000920E-02 0.  1.
    10030    2    1    2    0    0  0.00000000000E+00  0.00000000000E+00  0.14364536083E+03  0.28576681594E+04  0.28540555915E+04 0.  0.
        2    1    3    3  502    0  0.87266330760E+03 -0.76673446169E+03 -0.75807223664E+03  0.13871180552E+04  0.25500000920E-02 0.  1.
       -2    1    3    3    0  502 -0.87266330760E+03  0.76673446169E+03  0.90171759747E+03  0.14705501041E+04  0.25500000920E-02 0. -1.
</event>
<event>
 5   0  0.9251510E-06  0.2187748E+04  0.7818609E-02  0.8523545E-01
       -2   -1    0    0    0  501  0.00000000000E+00  0.00000000000E+00  0.10425585924E+04  0.10425585924E+04  0.25500000920E-02 0. -1.
        2   -1    0    0  501    0  0.00000000000E+00  0.00000000000E+00 -0.11477148628E+04  0.11477148628E+04  0.25500000920E-02 0.  1.
    10030    2    1    2    0    0  0.00000000000E+00  0.00000000000E+00 -0.10515627043E+03  0.21902734551E+04  0.21877476927E+04 0.  0.
        2    1    3    3  502    0  0.62014937553E+03  0.69724354241E+02  0.84685388789E+03  0.10519544862E+04  0.25500000920E-02 0. -1.
       -2    1    3    3    0  502 -0.62014937553E+03 -0.69724354241E+02 -0.95201015832E+03  0.11383189690E+04  0.25500000920E-02 0.  1.
</event>
<event>
 5   0  0.3474078E-06  0.2838503E+04  0.7818609E-02  0.8291414E-01
       -1   -1    0    0    0  501  0.00000000000E+00  0.00000000000E+00  0.14985167508E+04  0.14985167508E+04  0.50400001928E-02 0.  1.
        1   -1    0    0  501    0  0.00000000000E+00  0.00000000000E+00 -0.13441785990E+04  0.13441785990E+04  0.50400001928E-02 0. -1.
    10030    2    1    2    0    0  0.00000000000E+00  0.00000000000E+00  0.15433815182E+03  0.28426953498E+04  0.28385025254E+04 0.  0.
        3    1    3    3  502    0 -0.50371656166E+03 -0.12780914977E+04  0.43410244379E+03  0.14407266197E+04  0.10100000352E+00 0.  1.
       -3    1    3    3    0  502  0.50371656166E+03  0.12780914977E+04 -0.27976429197E+03  0.14019687301E+04  0.10100000352E+00 0. -1.
</event>
<event>
 5   0  0.3564340E-06  0.2832572E+04  0.7818609E-02  0.8293227E-01
       -1   -1    0    0    0  501  0.00000000000E+00  0.00000000000E+00  0.11392355216E+04  0.11392355216E+04  0.50400001928E-02 0. -1.
        1   -1    0    0  501    0  0.00000000000E+00  0.00000000000E+00 -0.17607126084E+04  0.17607126084E+04  0.50400001928E-02 0.  1.
    10030    2    1    2    0    0  0.00000000000E+00  0.00000000000E+00 -0.62147708681E+03  0.28999481301E+04  0.28325722211E+04 0.  0.
        1    1    3    3  502    0  0.95235534492E+03 -0.20770662211E+03 -0.13626724833E+04  0.16754101112E+04  0.50400001928E-02 0. -1.
       -1    1    3    3    0  502 -0.95235534492E+03  0.20770662211E+03  0.74119539649E+03  0.12245380189E+04  0.50400001928E-02 0.  1.
</event>
<event>
 5   0  0.3474078E-06  0.2923568E+04  0.7818609E-02  0.8265900E-01
       -1   -1    0    0    0  501  0.00000000000E+00  0.00000000000E+00  0.11264152042E+04  0.11264152042E+04  0.50400001928E-02 0. -1.
        1   -1    0    0  501    0  0.00000000000E+00  0.00000000000E+00 -0.18970024508E+04  0.18970024508E+04  0.50400001928E-02 0.  1.
    10030    2    1    2    0    0  0.00000000000E+00  0.00000000000E+00 -0.77058724655E+03  0.30234176550E+04  0.29235679592E+04 0.  0.
        3    1    3    3  502    0  0.11973849676E+04  0.82373247945E+03 -0.22326969425E+03  0.14704133177E+04  0.10100000352E+00 0. -1.
       -3    1    3    3    0  502 -0.11973849676E+04 -0.82373247945E+03 -0.54731755230E+03  0.15530043373E+04  0.10100000352E+00 0.  1.
</event>
<event>
 5   0  0.3188375E-06  0.2904479E+04  0.7818609E-02  0.8271546E-01
       -3   -1    0    0    0  501  0.00000000000E+00  0.00000000000E+00  0.13831537910E+04  0.13831537947E+04  0.10100000352E+00 0.  1.
        3   -1    0    0  501    0  0.00000000000E+00  0.00000000000E+00 -0.15247763289E+04  0.15247763323E+04  0.10100000352E+00 0. -1.
    10030    2    1    2    0    0  0.00000000000E+00  0.00000000000E+00 -0.14162253798E+03  0.29079301269E+04  0.29044794163E+04 0.  0.
        2    1    3    3  502    0 -0.65424750470E+02 -0.25311513847E+03 -0.15010225244E+04  0.15236194702E+04  0.25500000920E-02 0. -1.
       -2    1    3    3    0  502  0.65424750470E+02  0.25311513847E+03  0.13593999864E+04  0.13843106567E+04  0.25500000920E-02 0.  1.
</event>
<event>
 5   0  0.3746518E-06  0.2882724E+04  0.7818609E-02  0.8278036E-01
       -1   -1    0    0    0  501  0.00000000000E+00  0.00000000000E+00  0.64161823289E+03  0.64161823291E+03  0.50400001928E-02 0. -1.
        1   -1    0    0  501    0  0.00000000000E+00  0.00000000000E+00 -0.32379442746E+04  0.32379442746E+04  0.50400001928E-02 0.  1.
    10030    2    1    2    0    0  0.00000000000E+00  0.00000000000E+00 -0.25963260417E+04  0.38795625075E+04  0.28827237701E+04 0.  0.
        4    1    3    3  502    0 -0.20914595328E+03 -0.11789038447E+04 -0.21819412017E+03  0.12170318778E+04  0.12699999809E+01 0. -1.
       -4    1    3    3    0  502  0.20914595328E+03  0.11789038447E+04 -0.23781319216E+04  0.26625306297E+04  0.12699999809E+01 0.  1.
</event>
<event>
 5   0  0.3746518E-06  0.2776677E+04  0.7818609E-02  0.8310546E-01
       -1   -1    0    0    0  501  0.00000000000E+00  0.00000000000E+00  0.15287361753E+04  0.15287361753E+04  0.50400001928E-02 0.  1.
        1   -1    0    0  501    0  0.00000000000E+00  0.00000000000E+00 -0.12608347042E+04  0.12608347042E+04  0.50400001928E-02 0. -1.
    10030    2    1    2    0    0  0.00000000000E+00  0.00000000000E+00  0.26790147110E+03  0.27895708794E+04  0.27766768795E+04 0.  0.
        4    1    3    3  502    0 -0.10033799169E+03  0.13788193376E+04  0.26210299886E+03  0.14070927735E+04  0.12699999809E+01 0. -1.
       -4    1    3    3    0  502  0.10033799169E+03 -0.13788193376E+04  0.57984722442E+01  0.13824781060E+04  0.12699999809E+01 0.  1.
</event>
<event>
 5   0  0.1001573E-05  0.2867416E+04  0.7818609E-02  0.8282639E-01
       -2   -1    0    0    0  501  0.00000000000E+00  0.00000000000E+00  0.13529576003E+04  0.13529576003E+04  0.25500000920E-02 0. -1.
        2   -1    0    0  501    0  0.00000000000E+00  0.00000000000E+00 -0.15192783504E+04  0.15192783504E+04  0.25500000920E-02 0.  1.
    10030    2    1    2    0    0  0.00000000000E+00  0.00000000000E+00 -0.16632075003E+03  0.28722359507E+04  0.28674163919E+04 0.  0.
        1    1    3    3  502    0  0.35857542525E+03 -0.95713586954E+03 -0.10902525560E+04  0.14944350251E+04  0.50400001928E-02 0.  1.
       -1    1    3    3    0  502 -0.35857542525E+03  0.95713586954E+03  0.92393180601E+03  0.13778009256E+04  0.50400001928E-02 0. -1.
</event>
<event>
 5   0  0.9646321E-06  0.2898308E+04  0.7818609E-02  0.8273381E-01
       -2   -1    0    0    0  501  0.00000000000E+00  0.00000000000E+00  0.87933573212E+03  0.87933573213E+03  0.25500000920E-02 0.  1.
        2   -1    0    0  501    0  0.00000000000E+00  0.00000000000E+00 -0.23882208814E+04  0.23882208814E+04  0.25500000920E-02 0. -1.
    10030    2    1    2    0    0  0.00000000000E+00  0.00000000000E+00 -0.15088851493E+04  0.32675566135E+04  0.28983084427E+04 0.  0.
        3    1    3    3  502    0 -0.10466333428E+04  0.59008602310E+03  0.15896473985E+03  0.12119870740E+04  0.10100000352E+00 0.  1.
       -3    1    3    3    0  502  0.10466333428E+04 -0.59008602310E+03 -0.16678498891E+04  0.20555695395E+04  0.10100000352E+00 0. -1.
</event>
<event>
 5   0  0.3486236E-06  0.2888475E+04  0.7818609E-02  0.8276315E-01
       -1   -1    0    0    0  501  0.00000000000E+00  0.00000000000E+00  0.13453001825E+04  0.13453001825E+04  0.50400001928E-02 0. -1.
        1   -1    0    0  501    0  0.00000000000E+00  0.00000000000E+00 -0.15504513756E+04  0.15504513756E+04  0.50400001928E-02 0.  1.
    10030    2    1    2    0    0  0.00000000000E+00  0.00000000000E+00 -0.20515119313E+03  0.28957515582E+04  0.28884753893E+04 0.  0.
        5    1    3    3  502    0 -0.10855035030E+04 -0.18951119357E+03 -0.10385054185E+04  0.15141822684E+04  0.46999998093E+01 0.  1.
       -5    1    3    3    0  502  0.10855035030E+04  0.18951119357E+03  0.83335422541E+03  0.13815692898E+04  0.46999998093E+01 0. -1.
</event>
<event>
 5   0  0.9251510E-06  0.3000352E+04  0.7818609E-02  0.8243630E-01
        2   -1    0    0  501    0  0.00000000000E+00  0.00000000000E+00  0.13963127671E+04  0.13963127671E+04  0.25500000920E-02 0. -1.
       -2   -1    0    0    0  501  0.00000000000E+00  0.00000000000E+00 -0.16117645674E+04  0.16117645674E+04  0.25500000920E-02 0.  1.
    10030    2    1    2    0    0  0.00000000000E+00  0.00000000000E+00 -0.21545180024E+03  0.30080773345E+04  0.30003516081E+04 0.  0.
        2    1    3    3  502    0 -0.51228562194E+03  0.78031757682E+03 -0.12851413748E+04  0.15883703700E+04  0.25500000920E-02 0.  1.
       -2    1    3    3    0  502  0.51228562194E+03 -0.78031757682E+03  0.10696895745E+04  0.14197069645E+04  0.25500000920E-02 0. -1.
</event>
<event>
 5   0  0.9505359E-06  0.2862639E+04  0.7818609E-02  0.8284081E-01
       -2   -1    0    0    0  501  0.00000000000E+00  0.00000000000E+00  0.15054694227E+04  0.15054694227E+04  0.25500000920E-02 0.  1.
        2   -1    0    0  501    0  0.00000000000E+00  0.00000000000E+00 -0.13608220955E+04  0.13608220955E+04  0.25500000920E-02 0. -1.
    10030    2    1    2    0    0  0.00000000000E+00  0.00000000000E+00  0.14464732716E+03  0.28662915182E+04  0.28626393796E+04 0.  0.
        4    1    3    3  502    0 -0.58086996640E+03  0.76212143560E+03  0.11368994884E+04  0.14868695505E+04  0.12699999809E+01 0.  1.
       -4    1    3    3    0  502  0.58086996640E+03 -0.76212143560E+03 -0.99225216127E+03  0.13794219677E+04  0.12699999809E+01 0. -1.
</event>
<event>
 5   0  0.3746518E-06  0.2892381E+04  0.7818609E-02  0.8275148E-01
        1   -1    0    0  501    0  0.00000000000E+00  0.00000000000E+00  0.24040728183E+04  0.24040728183E+04  0.50400001928E-02 0.  1.
       -1   -1    0    0    0  501  0.00000000000E+00  0.00000000000E+00 -0.86996832945E+03  0.86996832946E+03  0.50400001928E-02 0. -1.
    10030    2    1    2    0    0  0.00000000000E+00  0.00000000000E+00  0.15341044888E+04  0.32740411477E+04  0.28923811738E+04 0.  0.
        4    1    3    3  502    0  0.22380873146E+03 -0.14275402238E+04  0.83405932279E+03  0.16684178151E+04  0.12699999809E+01 0. -1.
       -4    1    3    3    0  502 -0.22380873146E+03  0.14275402238E+04  0.70004516602E+03  0.16056233326E+04  0.12699999809E+01 0.  1.
</event>
<event>
 5   0  0.9360689E-06  0.2921598E+04  0.7818609E-02  0.8266480E-01
        2   -1    0    0  501    0  0.00000000000E+00  0.00000000000E+00  0.13077412777E+04  0.13077412777E+04  0.25500000920E-02 0.  1.
       -2   -1    0    0    0  501  0.00000000000E+00  0.00000000000E+00 -0.16317710324E+04  0.16317710325E+04  0.25500000920E-02 0. -1.
    10030    2    1    2    0    0  0.00000000000E+00  0.00000000000E+00 -0.32402975475E+03  0.29395123102E+04  0.29215984220E+04 0.  0.
        5    1    3    3  502    0  0.63182723498E+03 -0.97444835330E+03  0.72950907257E+03  0.13714812522E+04  0.46999998093E+01 0.  1.
       -5    1    3    3    0  502 -0.63182723498E+03  0.97444835330E+03 -0.10535388273E+04  0.15680310580E+04  0.46999998093E+01 0. -1.
</event>
<event>
 5   0  0.1001573E-05  0.2926982E+04  0.7818609E-02  0.8264895E-01
        2   -1    0    0  501    0  0.00000000000E+00  0.00000000000E+00  0.22798936208E+04  0.22798936208E+04  0.25500000920E-02 0. -1.
       -2   -1    0    0    0  501  0.00000000000E+00  0.00000000000E+00 -0.93943207717E+03  0.93943207717E+03  0.25500000920E-02 0.  1.
    10030    2    1    2    0    0  0.00000000000E+00  0.00000000000E+00  0.13404615436E+04  0.32193256980E+04  0.29269815168E+04 0.  0.
        1    1    3    3  502    0  0.71176644503E+03  0.87184088496E+03 -0.35866315035E+03  0.11812524101E+04  0.50400001928E-02 0. -1.
       -1    1    3    3    0  502 -0.71176644503E+03 -0.87184088496E+03  0.16991246940E+04  0.20380732879E+04  0.50400001928E-02 0.  1.
</event>
<event>
 5   0  0.3746518E-06  0.2908808E+04  0.7818609E-02  0.8270262E-01
       -1   -1    0    0    0  501  0.00000000000E+00  0.00000000000E+00  0.12298921189E+04  0.12298921189E+04  0.50400001928E-02 0. -1.
        1   -1    0    0  501    0  0.00000000000E+00  0.00000000000E+00 -0.17198994837E+04  0.17198994837E+04  0.50400001928E-02 0.  1.
    10030    2    1    2    0    0  0.00000000000E+00  0.00000000000E+00 -0.49000736480E+03  0.29497916026E+04  0.29088078797E+04 0.  0.
        4    1    3    3  502    0  0.77125523123E+02 -0.54324066050E+03 -0.16109150593E+04  0.17017954351E+04  0.12699999809E+01 0.  1.
       -4    1    3    3    0  502 -0.77125523123E+02  0.54324066050E+03  0.11209076945E+04  0.12479961675E+04  0.12699999809E+01 0. -1.
</event>
<event>
 5   0  0.3474078E-06  0.2969414E+04  0.7818609E-02  0.8252519E-01
        1   -1    0    0  501    0  0.00000000000E+00  0.00000000000E+00  0.17022613588E+04  0.17022613588E+04  0.50400001928E-02 0.  1.
       -1   -1    0    0    0  501  0.00000000000E+00  0.00000000000E+00 -0.12949567561E+04  0.12949567561E+04  0.50400001928E-02 0. -1.
    10030    2    1    2    0    0  0.00000000000E+00  0.00000000000E+00  0.40730460262E+03  0.29972181149E+04  0.29694139807E+04 0.  0.
        3    1    3    3  502    0  0.27389853678E+03 -0.26978321742E+03  0.16511483560E+04  0.16953153974E+04  0.10100000352E+00 0.  1.
       -3    1    3    3    0  502 -0.27389853678E+03  0.26978321742E+03 -0.12438437534E+04  0.13019027175E+04  0.10100000352E+00 0. -1.
</event>
<event>
 5   0  0.9505359E-06  0.2900205E+04  0.7818609E-02  0.8272817E-01
       -2   -1    0    0    0  501  0.00000000000E+00  0.00000000000E+00  0.13861794365E+04  0.13861794365E+04  0.25500000920E-02 0. -1.
        2   -1    0    0  501    0  0.00000000000E+00  0.00000000000E+00 -0.15169729622E+04  0.15169729622E+04  0.25500000920E-02 0.  1.
    10030    2    1    2    0    0  0.00000000000E+00  0.00000000000E+00 -0.13079352577E+03  0.29031523987E+04  0.29002046314E+04 0.  0.
        4    1    3    3  502    0 -0.87420926071E+03 -0.13119600187E+03 -0.12160610392E+04  0.15034162053E+04  0.12699999809E+01 0.  1.
       -4    1    3    3    0  502  0.87420926071E+03  0.13119600187E+03  0.10852675135E+04  0.13997361934E+04  0.12699999809E+01 0. -1.
</event>
<event>
 5   0  0.9646321E-06  0.2921654E+04  0.7818609E-02  0.8266464E-01
       -2   -1    0    0    0  501  0.00000000000E+00  0.00000000000E+00  0.13135092456E+04  0.13135092456E+04  0.25500000920E-02 0. -1.
        2   -1    0    0  501    0  0.00000000000E+00  0.00000000000E+00 -0.16246678392E+04  0.16246678392E+04  0.25500000920E-02 0.  1.
    10030    2    1    2    0    0  0.00000000000E+00  0.00000000000E+00 -0.31115859356E+03  0.29381770848E+04  0.29216544818E+04 0.  0.
        3    1    3    3  502    0 -0.91784481770E+03 -0.14328188725E+02 -0.12983912228E+04  0.15901145191E+04  0.10100000352E+00 0.  1.
       -3    1    3    3    0  502  0.91784481770E+03  0.14328188725E+02  0.98723262924E+03  0.13480625656E+04  0.10100000352E+00 0. -1.
</event>
<event>
 5   0  0.9251510E-06  0.2704003E+04  0.7818609E-02  0.8333707E-01
        2   -1    0    0  501    0  0.00000000000E+00  0.00000000000E+00  0.23034592854E+04  0.23034592854E+04  0.25500000920E-02 0.  1.
       -2   -1    0    0    0  501  0.00000000000E+00  0.00000000000E+00 -0.79354937965E+03  0.79354937965E+03  0.25500000920E-02 0. -1.
    10030    2    1    2    0    0  0.00000000000E+00  0.00000000000E+00  0.15099099057E+04  0.30970086650E+04  0.27040034667E+04 0.  0.
        2    1    3    3  502    0 -0.99846002248E+03  0.68328484293E+03  0.63839914766E+02  0.12115593786E+04  0.25500000920E-02 0. -1.
       -2    1    3    3    0  502  0.99846002248E+03 -0.68328484293E+03  0.14460699910E+04  0.18854492865E+04  0.25500000920E-02 0.  1.
</event>
<event>
 5   0  0.9251510E-06  0.2846114E+04  0.7818609E-02  0.8289093E-01
       -2   -1    0    0    0  501  0.00000000000E+00  0.00000000000E+00  0.17165177451E+04  0.17165177451E+04  0.25500000920E-02 0.  1.
        2   -1    0    0  501    0  0.00000000000E+00  0.00000000000E+00 -0.11797670125E+04  0.11797670125E+04  0.25500000920E-02 0. -1.
    10030    2    1    2    0    0  0.00000000000E+00  0.00000000000E+00  0.53675073263E+03  0.28962847576E+04  0.28461138502E+04 0.  0.
        2    1    3    3  502    0 -0.54205255364E+03 -0.81658359861E+03  0.13182898374E+04  0.16427166036E+04  0.25500000920E-02 0.  1.
       -2    1    3    3    0  502  0.54205255364E+03  0.81658359861E+03 -0.78153910475E+03  0.12535681540E+04  0.25500000920E-02 0. -1.
</event>
<event>
 5   0  0.9505359E-06  0.2892149E+04  0.7818609E-02  0.8275217E-01
       -2   -1    0    0    0  501  0.00000000000E+00  0.00000000000E+00  0.85054702784E+03  0.85054702785E+03  0.25500000920E-02 0.  1.
        2   -1    0    0  501    0  0.00000000000E+00  0.00000000000E+00 -0.24585731636E+04  0.24585731636E+04  0.25500000920E-02 0. -1.
    10030    2    1    2    0    0  0.00000000000E+00  0.00000000000E+00 -0.16080261358E+04  0.33091201915E+04  0.28921494408E+04 0.  0.
        4    1    3    3  502    0  0.91451084113E+03  0.90748553748E+03 -0.15554051946E+04  0.20196898305E+04  0.12699999809E+01 0. -1.
       -4    1    3    3    0  502 -0.91451084113E+03 -0.90748553748E+03 -0.52620941150E+02  0.12894303609E+04  0.12699999809E+01 0.  1.
</event>
<event>
 5   0  0.9360689E-06  0.2887976E+04  0.7818609E-02  0.8276464E-01
       -2   -1    0    0    0  501  0.00000000000E+00  0.00000000000E+00  0.19180085583E+04  0.19180085583E+04  0.25500000920E-02 0. -1.
        2   -1    0    0  501    0  0.00000000000E+00  0.00000000000E+00 -0.10871179246E+04  0.10871179246E+04  0.25500000920E-02 0.  1.
    10030    2    1    2    0    0  0.00000000000E+00  0.00000000000E+00  0.83089063374E+03  0.30051264829E+04  0.28879760963E+04 0.  0.
        5    1    3    3  502    0 -0.95600174973E+03 -0.93939946597E+03  0.97451894008E+03  0.16571421052E+04  0.46999998093E+01 0.  1.
       -5    1    3    3    0  502  0.95600174973E+03  0.93939946597E+03 -0.14362830634E+03  0.13479843777E+04  0.46999998093E+01 0. -1.
</event>
<event>
 5   0  0.9360689E-06  0.2926179E+04  0.7818609E-02  0.8265131E-01
        2   -1    0    0  501    0  0.00000000000E+00  0.00000000000E+00  0.67685484601E+03  0.67685484602E+03  0.25500000920E-02 0.  1.
       -2   -1    0    0    0  501  0.00000000000E+00  0.00000000000E+00 -0.31626147456E+04  0.31626147456E+04  0.25500000920E-02 0. -1.
    10030    2    1    2    0    0  0.00000000000E+00  0.00000000000E+00 -0.24857598996E+04  0.38394695916E+04  0.29261791583E+04 0.  0.
        5    1    3    3  502    0 -0.12272312544E+04  0.15416171572E+03 -0.22682977757E+04  0.25836136080E+04  0.46999998093E+01 0. -1.
       -5    1    3    3    0  502  0.12272312544E+04 -0.15416171572E+03 -0.21746212393E+03  0.12558559836E+04  0.46999998093E+01 0.  1.
</event>
<event>
 5   0  0.9646321E-06  0.2888446E+04  0.7818609E-02  0.8276323E-01
       -2   -1    0    0    0  501  0.00000000000E+00  0.00000000000E+00  0.11460046795E+04  0.11460046795E+04  0.25500000920E-02 0. -1.
        2   -1    0    0  501    0  0.00000000000E+00  0.00000000000E+00 -0.18200448984E+04  0.18200448984E+04  0.25500000920E-02 0.  1.
    10030    2    1    2    0    0  0.00000000000E+00  0.00000000000E+00 -0.67404021891E+03  0.29660495778E+04  0.28884459284E+04 0.  0.
        3    1    3    3  502    0  0.24713916966E+03 -0.11193257033E+04 -0.12391518694E+04  0.16880358897E+04  0.10100000352E+00 0.  1.
       -3    1    3    3    0  502 -0.24713916966E+03  0.11193257033E+04  0.56511165051E+03  0.12780136881E+04  0.10100000352E+00 0. -1.
</event>
<event>
 5   0  0.3564340E-06  0.2918282E+04  0.7818609E-02  0.8267459E-01
       -1   -1    0    0    0  501  0.00000000000E+00  0.00000000000E+00  0.17760758442E+04  0.17760758443E+04  0.50400001928E-02 0.  1.
        1   -1    0    0  501    0  0.00000000000E+00  0.00000000000E+00 -0.11987624543E+04  0.11987624543E+04  0.50400001928E-02 0. -1.
    10030    2    1    2    0    0  0.00000000000E+00  0.00000000000E+00  0.57731338994E+03  0.29748382986E+04  0.29182823976E+04 0.  0.
        1    1    3    3  502    0  0.83726654984E+03  0.37287514110E+02 -0.92893159284E+03  0.12511273070E+04  0.50400001928E-02 0. -1.
       -1    1    3    3    0  502 -0.83726654984E+03 -0.37287514110E+02  0.15062449828E+04  0.17237109915E+04  0.50400001928E-02 0.  1.
</event>
<event>
 5   0  0.3564340E-06  0.2894824E+04  0.7818609E-02  0.8274419E-01
        1   -1    0    0  501    0  0.00000000000E+00  0.00000000000E+00  0.13691210428E+04  0.13691210429E+04  0.50400001928E-02 0.  1.
       -1   -1    0    0    0  501  0.00000000000E+00  0.00000000000E+00 -0.15301799108E+04  0.15301799108E+04  0.50400001928E-02 0. -1.
    10030    2    1    2    0    0  0.00000000000E+00  0.00000000000E+00 -0.16105886799E+03  0.28993009537E+04  0.28948240121E+04 0.  0.
        1    1    3    3  502    0  0.10069152426E+04 -0.21003211555E+03 -0.11004410675E+04  0.15063075179E+04  0.50400001928E-02 0. -1.
       -1    1    3    3    0  502 -0.10069152426E+04  0.21003211555E+03  0.93938219952E+03  0.13929934358E+04  0.50400001928E-02 0.  1.
</event>
<event>
 5   0  0.9251510E-06  0.2891269E+04  0.7818609E-02  0.8275480E-01
       -2   -1    0    0    0  501  0.00000000000E+00  0.00000000000E+00  0.26575410505E+04  0.26575410505E+04  0.25500000920E-02 0. -1.
        2   -1    0    0  501    0  0.00000000000E+00  0.00000000000E+00 -0.78638840652E+03  0.78638840652E+03  0.25500000920E-02 0.  1.
    10030    2    1    2    0    0  0.00000000000E+00  0.00000000000E+00  0.18711526440E+04  0.34439294570E+04  0.28912692521E+04 0.  0.
        2    1    3    3  502    0  0.88972231300E+03  0.97300079766E+03  0.16418006271E+04  0.21056698805E+04  0.25500000920E-02 0. -1.
       -2    1    3    3    0  502 -0.88972231300E+03 -0.97300079766E+03  0.22935201688E+03  0.13382595765E+04  0.25500000920E-02 0.  1.
</event>
<event>
 5   0  0.9505359E-06  0.2855562E+04  0.7818609E-02  0.8286223E-01
        2   -1    0    0  501    0  0.00000000000E+00  0.00000000000E+00  0.85593538225E+03  0.85593538226E+03  0.25500000920E-02 0. -1.
       -2   -1    0    0    0  501  0.00000000000E+00  0.00000000000E+00 -0.23816727433E+04  0.23816727433E+04  0.25500000920E-02 0.  1.
    10030    2    1    2    0    0  0.00000000000E+00  0.00000000000E+00 -0.15257373610E+04  0.32376081255E+04  0.28555615699E+04 0.  0.
        4    1    3    3  502    0  0.10081883538E+04 -0.18591338750E+03 -0.18895783937E+04  0.21497710723E+04  0.12699999809E+01 0.  1.
       -4    1    3    3    0  502 -0.10081883538E+04  0.18591338750E+03  0.36384103267E+03  0.10878370532E+04  0.12699999809E+01 0. -1.
</event>
<event>
 5   0  0.3486236E-06  0.2882840E+04  0.7818609E-02  0.8278001E-01
        1   -1    0    0  501    0  0.00000000000E+00  0.00000000000E+00  0.10442085703E+04  0.10442085703E+04  0.50400001928E-02 0. -1.
       -1   -1    0    0    0  501  0.00000000000E+00  0.00000000000E+00 -0.19897290398E+04  0.19897290398E+04  0.50400001928E-02 0.  1.
    10030    2    1    2    0    0  0.00000000000E+00  0.00000000000E+00 -0.94552046952E+03  0.30339376101E+04  0.28828403465E+04 0.  0.
        5    1    3    3  502    0 -0.12651154115E+04 -0.35366580961E+03  0.15169704540E+03  0.13223579670E+04  0.46999998093E+01 0. -1.
       -5    1    3    3    0  502  0.12651154115E+04  0.35366580961E+03 -0.10972175149E+04  0.17115796430E+04  0.46999998093E+01 0.  1.
</event>
<event>
 5   0  0.9505359E-06  0.2911815E+04  0.7818609E-02  0.8269371E-01
       -2   -1    0    0    0  501  0.00000000000E+00  0.00000000000E+00  0.19735165409E+04  0.19735165409E+04  0.25500000920E-02 0. -1.
        2   -1    0    0  501    0  0.00000000000E+00  0.00000000000E+00 -0.10740557909E+04  0.10740557910E+04  0.25500000920E-02 0.  1.
    10030    2    1    2    0    0  0.00000000000E+00  0.00000000000E+00  0.89946074993E+03  0.30475723318E+04  0.29118151516E+04 0.  0.
        4    1    3    3  502    0  0.36610526313E+03 -0.10483979182E+04 -0.53570493608E+03  0.12329447068E+04  0.12699999809E+01 0.  1.
       -4    1    3    3    0  502 -0.36610526313E+03  0.10483979182E+04  0.14351656860E+04  0.18146276251E+04  0.12699999809E+01 0. -1.
</event>
<event>
 5   0  0.3486236E-06  0.2953887E+04  0.7818609E-02  0.8257023E-01
        1   -1    0    0  501    0  0.00000000000E+00  0.00000000000E+00  0.82857898544E+03  0.82857898545E+03  0.50400001928E-02 0. -1.
       -1   -1    0    0    0  501  0.00000000000E+00  0.00000000000E+00 -0.26326545616E+04  0.26326545616E+04  0.50400001928E-02 0.  1.
    10030    2    1    2    0    0  0.00000000000E+00  0.00000000000E+00 -0.18040755761E+04  0.34612335470E+04  0.29538870971E+04 0.  0.
        5    1    3    3  502    0 -0.11652295579E+04  0.74387579081E+03 -0.29291755932E+03  0.14131291170E+04  0.46999998093E+01 0.  1.
       -5    1    3    3    0  502  0.11652295579E+04 -0.74387579081E+03 -0.15111580168E+04  0.20481044301E+04  0.46999998093E+01 0. -1.
</event>
<event>
 5   0  0.3746518E-06  0.2912645E+04  0.7818609E-02  0.8269125E-01
        1   -1    0    0  501    0  0.00000000000E+00  0.00000000000E+00  0.17176515363E+04  0.17176515363E+04  0.50400001928E-02 0. -1.
       -1   -1    0    0    0  501  0.00000000000E+00  0.00000000000E+00 -0.12347527440E+04  0.12347527440E+04  0.50400001928E-02 0.  1.
    10030    2    1    2    0    0  0.00000000000E+00  0.00000000000E+00  0.48289879230E+03  0.29524042803E+04  0.29126448103E+04 0.  0.
        4    1    3    3  502    0 -0.74594217563E+03  0.87421817942E+03  0.11481915845E+04  0.16245099822E+04  0.12699999809E+01 0. -1.
       -4    1    3    3    0  502  0.74594217563E+03 -0.87421817942E+03 -0.66529279223E+03  0.13278942981E+04  0.12699999809E+01 0.  1.
</event>
<event>
 5   0  0.3564340E-06  0.2872453E+04  0.7818609E-02  0.8281121E-01
       -1   -1    0    0    0  501  0.00000000000E+00  0.00000000000E+00  0.12379411588E+04  0.12379411588E+04  0.50400001928E-02 0.  1.
        1   -1    0    0  501    0  0.00000000000E+00  0.00000000000E+00 -0.16662723895E+04  0.16662723895E+04  0.50400001928E-02 0. -1.
    10030    2    1    2    0    0  0.00000000000E+00  0.00000000000E+00 -0.42833123069E+03  0.29042135483E+04  0.28724534271E+04 0.  0.
        1    1    3    3  502    0 -0.12700333069E+04 -0.98943793681E+02 -0.88480401207E+03  0.15510166391E+04  0.50400001928E-02 0. -1.
       -1    1    3    3    0  502  0.12700333069E+04  0.98943793681E+02  0.45647278138E+03  0.13531969092E+04  0.50400001928E-02 0.  1.
</event>
<event>
 5   0  0.3564340E-06  0.3032342E+04  0.7818609E-02  0.8234555E-01
       -1   -1    0    0    0  501  0.00000000000E+00  0.00000000000E+00  0.20741398542E+04  0.20741398542E+04  0.50400001928E-02 0. -1.
        1   -1    0    0  501    0  0.00000000000E+00  0.00000000000E+00 -0.11083026692E+04  0.11083026692E+04  0.50400001928E-02 0.  1.
    10030    2    1    2    0    0  0.00000000000E+00  0.00000000000E+00  0.96583718493E+03  0.31824425234E+04  0.30323421553E+04 0.  0.
        1    1    3    3  502    0  0.10477169769E+04  0.42025362472E+02 -0.66641439917E+03  0.12424110214E+04  0.50400001928E-02 0.  1.
       -1    1    3    3    0  502 -0.10477169769E+04 -0.42025362472E+02  0.16322515841E+04  0.19400315020E+04  0.50400001928E-02 0. -1.
</event>
<event>
 5   0  0.3564340E-06  0.2906562E+04  0.7818609E-02  0.8270928E-01
        1   -1    0    0  501    0  0.00000000000E+00  0.00000000000E+00  0.96917033129E+03  0.96917033131E+03  0.50400001928E-02 0. -1.
       -1   -1    0    0    0  501  0.00000000000E+00  0.00000000000E+00 -0.21792095194E+04  0.21792095194E+04  0.50400001928E-02 0.  1.
    10030    2    1    2    0    0  0.00000000000E+00  0.00000000000E+00 -0.12100391881E+04  0.31483798507E+04  0.29065616883E+04 0.  0.
        1    1    3    3  502    0 -0.34926530573E+03  0.58113786679E+02 -0.21317752734E+04  0.21609787788E+04  0.50400001928E-02 0.  1.
       -1    1    3    3    0  502  0.34926530573E+03 -0.58113786679E+02  0.92173608527E+03  0.98740107196E+03  0.50400001928E-02 0. -1.
</event>
<event>
 5   0  0.3649705E-06  0.2860370E+04  0.7818609E-02  0.8284767E-01
       -1   -1    0    0    0  501  0.00000000000E+00  0.00000000000E+00  0.10585386325E+04  0.10585386325E+04  0.50400001928E-02 0. -1.
        1   -1    0    0  501    0  0.00000000000E+00  0.00000000000E+00 -0.19323143166E+04  0.19323143166E+04  0.50400001928E-02 0.  1.
    10030    2    1    2    0    0  0.00000000000E+00  0.00000000000E+00 -0.87377568411E+03  0.29908529492E+04  0.28603701539E+04 0.  0.
        2    1    3    3  502    0 -0.44602414258E+03 -0.50968291544E+03 -0.17539986281E+04  0.18802195078E+04  0.25500000920E-02 0.  1.
       -2    1    3    3    0  502  0.44602414258E+03  0.50968291544E+03  0.88022294398E+03  0.11106334414E+04  0.25500000920E-02 0. -1.
</event>
<event>
 5   0  0.3486236E-06  0.2992066E+04  0.7818609E-02  0.8246000E-01
       -1   -1    0    0    0  501  0.00000000000E+00  0.00000000000E+00  0.21654244782E+04  0.21654244782E+04  0.50400001928E-02 0. -1.
        1   -1    0    0  501    0  0.00000000000E+00  0.00000000000E+00 -0.10335687128E+04  0.10335687128E+04  0.50400001928E-02 0.  1.
    10030    2    1    2    0    0  0.00000000000E+00  0.00000000000E+00  0.11318557654E+04  0.31989931910E+04  0.29920661694E+04 0.  0.
        5    1    3    3  502    0 -0.14717785985E+04 -0.20889582006E+03  0.74586188239E+03  0.16631601680E+04  0.46999998093E+01 0. -1.
       -5    1    3    3    0  502  0.14717785985E+04  0.20889582006E+03  0.38599388304E+03  0.15358330230E+04  0.46999998093E+01 0.  1.
</event>
<event>
 5   0  0.9646321E-06  0.2801914E+04  0.7818609E-02  0.8302675E-01
        2   -1    0    0  501    0  0.00000000000E+00  0.00000000000E+00  0.14372692916E+04  0.14372692916E+04  0.25500000920E-02 0. -1.
       -2   -1    0    0    0  501  0.00000000000E+00  0.00000000000E+00 -0.13655617624E+04  0.13655617624E+04  0.25500000920E-02 0.  1.
    10030    2    1    2    0    0  0.00000000000E+00  0.00000000000E+00  0.71707529200E+02  0.28028310540E+04  0.28019136224E+04 0.  0.
        3    1    3    3  502    0  0.75396692891E+03 -0.41831593409E+03  0.11404008119E+04  0.14296742191E+04  0.10100000352E+00 0. -1.
       -3    1    3    3    0  502 -0.75396692891E+03  0.41831593409E+03 -0.10686932827E+04  0.13731568349E+04  0.10100000352E+00 0.  1.
</event>
<event>
 5   0  0.3474078E-06  0.2924293E+04  0.7818609E-02  0.8265686E-01
        1   -1    0    0  501    0  0.00000000000E+00  0.00000000000E+00  0.75108697714E+03  0.75108697716E+03  0.50400001928E-02 0.  1.
       -1   -1    0    0    0  501  0.00000000000E+00  0.00000000000E+00 -0.28463716509E+04  0.28463716509E+04  0.50400001928E-02 0. -1.
    10030    2    1    2    0    0  0.00000000000E+00  0.00000000000E+00 -0.20952846737E+04  0.35974586280E+04  0.29242931995E+04 0.  0.
        3    1    3    3  502    0 -0.10154662287E+04  0.54032529955E+03 -0.21580615456E+04  0.24454759733E+04  0.10100000352E+00 0. -1.
       -3    1    3    3    0  502  0.10154662287E+04 -0.54032529955E+03  0.62776871875E+02  0.11519826548E+04  0.10100000352E+00 0.  1.
</event>
<event>
 5   0  0.3649705E-06  0.2898937E+04  0.7818609E-02  0.8273194E-01
        1   -1    0    0  501    0  0.00000000000E+00  0.00000000000E+00  0.18014576595E+04  0.18014576595E+04  0.50400001928E-02 0.  1.
       -1   -1    0    0    0  501  0.00000000000E+00  0.00000000000E+00 -0.11662552851E+04  0.11662552851E+04  0.50400001928E-02 0. -1.
    10030    2    1    2    0    0  0.00000000000E+00  0.00000000000E+00  0.63520237446E+03  0.29677129446E+04  0.28989374028E+04 0.  0.
        2    1    3    3  502    0 -0.41959933585E+03  0.13832032672E+04  0.20713076966E+03  0.14602116411E+04  0.25500000920E-02 0.  1.
       -2    1    3    3    0  502  0.41959933585E+03 -0.13832032672E+04  0.42807160480E+03  0.15075013035E+04  0.25500000920E-02 0. -1.
</event>
<event>
 5   0  0.9360689E-06  0.2906820E+04  0.7818609E-02  0.8270851E-01
       -2   -1    0    0    0  501  0.00000000000E+00  0.00000000000E+00  0.10285138241E+04  0.10285138241E+04  0.25500000920E-02 0.  1.
        2   -1    0    0  501    0  0.00000000000E+00  0.00000000000E+00 -0.20538378405E+04  0.20538378405E+04  0.25500000920E-02 0. -1.
    10030    2    1    2    0    0  0.00000000000E+00  0.00000000000E+00 -0.10253240164E+04  0.30823516646E+04  0.29068199885E+04 0.  0.
        5    1    3    3  502    0 -0.95199891139E+03  0.98763511964E+03 -0.10219272537E+04  0.17105795680E+04  0.46999998093E+01 0.  1.
       -5    1    3    3    0  502  0.95199891139E+03 -0.98763511964E+03 -0.33967627546E+01  0.13717720965E+04  0.46999998093E+01 0. -1.
</event>
<event>
 5   0  0.9646321E-06  0.2930985E+04  0.7818609E-02  0.8263718E-01
       -2   -1    0    0    0  501  0.00000000000E+00  0.00000000000E+00  0.16800118544E+04  0.16800118544E+04  0.25500000920E-02 0. -1.
        2   -1    0    0  501    0  0.00000000000E+00  0.00000000000E+00 -0.12783652901E+04  0.12783652901E+04  0.25500000920E-02 0.  1.
    10030    2    1    2    0    0  0.00000000000E+00  0.00000000000E+00  0.40164656431E+03  0.29583771446E+04  0.29309853918E+04 0.  0.
        3    1    3    3  502    0 -0.12270030445E+02 -0.80839444981E+03  0.14345461351E+04  0.16466859943E+04  0.10100000352E+00 0. -1.
       -3    1    3    3    0  502  0.12270030445E+02  0.80839444981E+03 -0.10328995708E+04  0.13116911502E+04  0.10100000352E+00 0.  1.
</event>
<event>
 5   0  0.3564340E-06  0.2905980E+04  0.7818609E-02  0.8271101E-01
       -1   -1    0    0    0  501  0.00000000000E+00  0.00000000000E+00  0.15013672713E+04  0.15013672713E+04  0.50400001928E-02 0. -1.
        1   -1    0    0  501    0  0.00000000000E+00  0.00000000000E+00 -0.14061713779E+04  0.14061713779E+04  0.50400001928E-02 0.  1.
    10030    2    1    2    0    0  0.00000000000E+00  0.00000000000E+00  0.95195893432E+02  0.29075386492E+04  0.29059798242E+04 0.  0.
        1    1    3    3  502    0 -0.35591584869E+03 -0.13927182034E+04 -0.16426927040E+03  0.14468325676E+04  0.50400001928E-02 0. -1.
       -1    1    3    3    0  502  0.35591584869E+03  0.13927182034E+04  0.25946516383E+03  0.14607060816E+04  0.50400001928E-02 0.  1.
</event>
<event>
 5   0  0.9505359E-06  0.2767041E+04  0.7818609E-02  0.8313574E-01
        2   -1    0    0  501    0  0.00000000000E+00  0.00000000000E+00  0.11439603047E+04  0.11439603047E+04  0.25500000920E-02 0.  1.
       -2   -1    0    0    0  501  0.00000000000E+00  0.00000000000E+00 -0.16732477740E+04  0.16732477740E+04  0.25500000920E-02 0. -1.
    10030    2    1    2    0    0  0.00000000000E+00  0.00000000000E+00 -0.52928746926E+03  0.28172080788E+04  0.27670410430E+04 0.  0.
        4    1    3    3  502    0 -0.66370291108E+03  0.86451560770E+03 -0.11322905904E+04  0.15716145788E+04  0.12699999809E+01 0. -1.
       -4    1    3    3    0  502  0.66370291108E+03 -0.86451560770E+03  0.60300312117E+03  0.12455935000E+04  0.12699999809E+01 0.  1.
</event>
<event>
 5   0  0.1001573E-05  0.3094349E+04  0.7818609E-02  0.8217290E-01
       -2   -1    0    0    0  501  0.00000000000E+00  0.00000000000E+00  0.12311483233E+04  0.12311483234E+04  0.25500000920E-02 0.  1.
        2   -1    0    0  501    0  0.00000000000E+00  0.00000000000E+00 -0.19443223665E+04  0.19443223665E+04  0.25500000920E-02 0. -1.
    10030    2    1    2    0    0  0.00000000000E+00  0.00000000000E+00 -0.71317404317E+03  0.31754706899E+04  0.30943491862E+04 0.  0.
        1    1    3    3  502    0  0.10562121174E+04  0.94769004483E+03 -0.98922964676E+03  0.17298195721E+04  0.50400001928E-02 0. -1.
       -1    1    3    3    0  502 -0.10562121174E+04 -0.94769004483E+03  0.27605560360E+03  0.14456511178E+04  0.50400001928E-02 0.  1.
</event>
<event>
 5   0  0.9646321E-06  0.2903313E+04  0.7818609E-02  0.8271892E-01
        2   -1    0    0  501    0  0.00000000000E+00  0.00000000000E+00  0.11928885121E+04  0.11928885121E+04  0.25500000920E-02 0.  1.
       -2   -1    0    0    0  501  0.00000000000E+00  0.00000000000E+00 -0.17665584749E+04  0.17665584749E+04  0.25500000920E-02 0. -1.
    10030    2    1    2    0    0  0.00000000000E+00  0.00000000000E+00 -0.57366996284E+03  0.29594469870E+04  0.29033134937E+04 0.  0.
        3    1    3    3  502    0 -0.13180523528E+03 -0.11874587601E+04  0.55365319208E+03  0.13168002104E+04  0.10100000352E+00 0.  1.
       -3    1    3    3    0  502  0.13180523528E+03  0.11874587601E+04 -0.11273231549E+04  0.16426467766E+04  0.10100000352E+00 0. -1.
</event>
<event>
 5   0  0.3486236E-06  0.2888239E+04  0.7818609E-02  0.8276385E-01
        1   -1    0    0  501    0  0.00000000000E+00  0.00000000000E+00  0.16623827161E+04  0.16623827161E+04  0.50400001928E-02 0. -1.
       -1   -1    0    0    0  501  0.00000000000E+00  0.00000000000E+00 -0.12545128995E+04  0.12545128995E+04  0.50400001928E-02 0.  1.
    10030    2    1    2    0    0  0.00000000000E+00  0.00000000000E+00  0.40786981669E+03  0.29168956156E+04  0.28882386060E+04 0.  0.
        5    1    3    3  502    0 -0.71690521064E+03 -0.11996930670E+04  0.57119388270E+03  0.15098016683E+04  0.46999998093E+01 0. -1.
       -5    1    3    3    0  502  0.71690521064E+03  0.11996930670E+04 -0.16332406602E+03  0.14070939473E+04  0.46999998093E+01 0.  1.
</event>
<event>
 5   0  0.3649705E-06  0.2442643E+04  0.7818609E-02  0.8423709E-01
        1   -1    0    0  501    0  0.00000000000E+00  0.00000000000E+00  0.14916125010E+04  0.14916125011E+04  0.50400001928E-02 0. -1.
       -1   -1    0    0    0  501  0.00000000000E+00  0.00000000000E+00 -0.10000088148E+04  0.10000088148E+04  0.50400001928E-02 0.  1.
    10030    2    1    2    0    0  0.00000000000E+00  0.00000000000E+00  0.49160368627E+03  0.24916213158E+04  0.24426425439E+04 0.  0.
        2    1    3    3  502    0 -0.80391280314E+03  0.30781251626E+02 -0.69153749126E+03  0.10608710489E+04  0.25500000920E-02 0.  1.
       -2    1    3    3    0  502  0.80391280314E+03 -0.30781251626E+02  0.11831411775E+04  0.14307502670E+04  0.25500000920E-02 0. -1.
</event>
<event>
 5   0  0.3474078E-06  0.2756040E+04  0.7818609E-02  0.8317048E-01
       -1   -1    0    0    0  501  0.00000000000E+00  0.00000000000E+00  0.12435898317E+04  0.12435898318E+04  0.50400001928E-02 0.  1.
        1   -1    0    0  501    0  0.00000000000E+00  0.00000000000E+00 -0.15269821630E+04  0.15269821630E+04  0.50400001928E-02 0. -1.
    10030    2    1    2    0    0  0.00000000000E+00  0.00000000000E+00 -0.28339233123E+03  0.27705719947E+04  0.27560402691E+04 0.  0.
        3    1    3    3  502    0  0.72171055008E+03 -0.94793980549E+03 -0.83779468362E+03  0.14564875334E+04  0.10100000352E+00 0. -1.
       -3    1    3    3    0  502 -0.72171055008E+03  0.94793980549E+03  0.55440235239E+03  0.13140844613E+04  0.10100000352E+00 0.  1.
</event>
<event>
 5   0  0.9251510E-06  0.2913956E+04  0.7818609E-02  0.8268737E-01
        2   -1    0    0  501    0  0.00000000000E+00  0.00000000000E+00  0.13658882991E+04  0.13658882991E+04  0.25500000920E-02 0.  1.
       -2   -1    0    0    0  501  0.00000000000E+00  0.00000000000E+00 -0.15541421800E+04  0.15541421800E+04  0.25500000920E-02 0. -1.
    10030    2    1    2    0    0  0.00000000000E+00  0.00000000000E+00 -0.18825388093E+03  0.29200304792E+04  0.29139558122E+04 0.  0.
        2    1    3    3  502    0  0.97951394235E+03  0.10614825273E+04  0.97561931697E+02  0.14476570898E+04  0.25500000920E-02 0.  1.
       -2    1    3    3    0  502 -0.97951394235E+03 -0.10614825273E+04 -0.28581581263E+03  0.14723733894E+04  0.25500000920E-02 0. -1.
</event>
<event>
 5   0  0.9505359E-06  0.2837533E+04  0.7818609E-02  0.8291710E-01
        2   -1    0    0  501    0  0.00000000000E+00  0.00000000000E+00  0.22316173756E+04  0.22316173756E+04  0.25500000920E-02 0.  1.
       -2   -1    0    0    0  501  0.00000000000E+00  0.00000000000E+00 -0.90199055507E+03  0.90199055507E+03  0.25500000920E-02 0. -1.
    10030    2    1    2    0    0  0.00000000000E+00  0.00000000000E+00  0.13296268205E+04  0.31336079307E+04  0.28375325868E+04 0.  0.
        4    1    3    3  502    0 -0.11499433592E+03 -0.10608142131E+03  0.22220613888E+04  0.22275626577E+04  0.12699999809E+01 0.  1.
       -4    1    3    3    0  502  0.11499433592E+03  0.10608142131E+03 -0.89243456827E+03  0.90604527303E+03  0.12699999809E+01 0. -1.
</event>
<event>
 5   0  0.3649705E-06  0.2871647E+04  0.7818609E-02  0.8281364E-01
       -1   -1    0    0    0  501  0.00000000000E+00  0.00000000000E+00  0.29937899567E+04  0.29937899567E+04  0.50400001928E-02 0. -1.
        1   -1    0    0  501    0  0.00000000000E+00  0.00000000000E+00 -0.68862198132E+03  0.68862198134E+03  0.50400001928E-02 0.  1.
    10030    2    1    2    0    0  0.00000000000E+00  0.00000000000E+00  0.23051679754E+04  0.36824119381E+04  0.28716473124E+04 0.  0.
        2    1    3    3  502    0 -0.94412717350E+03 -0.53170821146E+03 -0.55467401324E+02  0.10849729833E+04  0.25500000920E-02 0.  1.
       -2    1    3    3    0  502  0.94412717350E+03  0.53170821146E+03  0.23606353767E+04  0.25974389548E+04  0.25500000920E-02 0. -1.
</event>
<event>
 5   0  0.3486236E-06  0.2885490E+04  0.7818609E-02  0.8277208E-01
        1   -1    0    0  501    0  0.00000000000E+00  0.00000000000E+00  0.10923465042E+04  0.10923465042E+04  0.50400001928E-02 0. -1.
       -1   -1    0    0    0  501  0.00000000000E+00  0.00000000000E+00 -0.19055434628E+04  0.19055434628E+04  0.50400001928E-02 0.  1.
    10030    2    1    2    0    0  0.00000000000E+00  0.00000000000E+00 -0.81319695855E+03  0.29978899670E+04  0.28854904195E+04 0.  0.
        5    1    3    3  502    0  0.45387678748E+03 -0.10970885878E+04  0.44501641341E+03  0.12679389599E+04  0.46999998093E+01 0. -1.
       -5    1    3    3    0  502 -0.45387678748E+03  0.10970885878E+04 -0.12582133720E+04  0.17299510071E+04  0.46999998093E+01 0.  1.
</event>
<event>
 5   0  0.3649705E-06  0.2860819E+04  0.7818609E-02  0.8284631E-01
       -1   -1    0    0    0  501  0.00000000000E+00  0.00000000000E+00  0.72849038526E+03  0.72849038528E+03  0.50400001928E-02 0. -1.
        1   -1    0    0  501    0  0.00000000000E+00  0.00000000000E+00 -0.28086458737E+04  0.28086458737E+04  0.50400001928E-02 0.  1.
    10030    2    1    2    0    0  0.00000000000E+00  0.00000000000E+00 -0.20801554884E+04  0.35371362590E+04  0.28608191237E+04 0.  0.
        2    1    3    3  502    0  0.85808227974E+03  0.23910055350E+03  0.34370246602E+03  0.95478042431E+03  0.25500000920E-02 0. -1.
       -2    1    3    3    0  502 -0.85808227974E+03 -0.23910055350E+03 -0.24238579545E+04  0.25823558347E+04  0.25500000920E-02 0.  1.
</event>
<event>
 5   0  0.3188375E-06  0.2934319E+04  0.7818609E-02  0.8262739E-01
        3   -1    0    0  501    0  0.00000000000E+00  0.00000000000E+00  0.19472347020E+04  0.19472347046E+04  0.10100000352E+00 0.  1.
       -3   -1    0    0    0  501  0.00000000000E+00  0.00000000000E+00 -0.11054433676E+04  0.11054433722E+04  0.10100000352E+00 0. -1.
    10030    2    1    2    0    0  0.00000000000E+00  0.00000000000E+00  0.84179133433E+03  0.30526780768E+04  0.29343194765E+04 0.  0.
        5    1    3    3  502    0  0.62309885471E+03 -0.93414950036E+03 -0.56146364071E+03  0.12554485181E+04  0.46999998093E+01 0. -1.
       -5    1    3    3    0  502 -0.62309885471E+03  0.93414950036E+03  0.14032549750E+04  0.17972295587E+04  0.46999998093E+01 0.  1.
</event>
<event>
 5   0  0.9251510E-06  0.2822511E+04  0.7818609E-02  0.8296313E-01
       -2   -1    0    0    0  501  0.00000000000E+00  0.00000000000E+00  0.16358473598E+04  0.16358473598E+04  0.25500000920E-02 0. -1.
        2   -1    0    0  501    0  0.00000000000E+00  0.00000000000E+00 -0.12174990792E+04  0.12174990792E+04  0.25500000920E-02 0.  1.
    10030    2    1    2    0    0  0.00000000000E+00  0.00000000000E+00  0.41834828059E+03  0.28533464391E+04  0.28225114026E+04 0.  0.
        2    1    3    3  502    0 -0.34505002569E+03 -0.74725756407E+03  0.13680789296E+04  0.15965880323E+04  0.25500000920E-02 0. -1.
       -2    1    3    3    0  502  0.34505002569E+03  0.74725756407E+03 -0.94973064902E+03  0.12567584068E+04  0.25500000920E-02 0.  1.
</event>
<event>
 5   0  0.9646321E-06  0.2834841E+04  0.7818609E-02  0.8292533E-01
       -2   -1    0    0    0  501  0.00000000000E+00  0.00000000000E+00  0.88495634011E+03  0.88495634011E+03  0.25500000920E-02 0. -1.
        2   -1    0    0  501    0  0.00000000000E+00  0.00000000000E+00 -0.22702596628E+04  0.22702596628E+04  0.25500000920E-02 0.  1.
    10030    2    1    2    0    0  0.00000000000E+00  0.00000000000E+00 -0.13853033227E+04  0.31552160029E+04  0.28348408649E+04 0.  0.
        3    1    3    3  502    0  0.30460791058E+03 -0.50553692774E+03  0.74167987965E+03  0.94786213057E+03  0.10100000352E+00 0. -1.
       -3    1    3    3    0  502 -0.30460791058E+03  0.50553692774E+03 -0.21269832024E+04  0.22073538724E+04  0.10100000352E+00 0.  1.
</event>
<event>
 5   0  0.9251510E-06  0.2205301E+04  0.7818609E-02  0.8516225E-01
        2   -1    0    0  501    0  0.00000000000E+00  0.00000000000E+00  0.14935071366E+04  0.14935071366E+04  0.25500000920E-02 0.  1.
       -2   -1    0    0    0  501  0.00000000000E+00  0.00000000000E+00 -0.81408276306E+03  0.81408276306E+03  0.25500000920E-02 0. -1.
    10030    2    1    2    0    0  0.00000000000E+00  0.00000000000E+00  0.67942437357E+03  0.23075898997E+04  0.22053012642E+04 0.  0.
        2    1    3    3  502    0  0.41332342715E+02  0.10983652330E+04  0.43167413141E+03  0.11808713323E+04  0.25500000920E-02 0. -1.
       -2    1    3    3    0  502 -0.41332342715E+02 -0.10983652330E+04  0.24775024216E+03  0.11267185674E+04  0.25500000920E-02 0.  1.
</event>
<event>
 5   0  0.3474078E-06  0.2987379E+04  0.7818609E-02  0.8247344E-01
        1   -1    0    0  501    0  0.00000000000E+00  0.00000000000E+00  0.20602456731E+04  0.20602456731E+04  0.50400001928E-02 0. -1.
       -1   -1    0    0    0  501  0.00000000000E+00  0.00000000000E+00 -0.10829328843E+04  0.10829328843E+04  0.50400001928E-02 0.  1.
    10030    2    1    2    0    0  0.00000000000E+00  0.00000000000E+00  0.97731278881E+03  0.31431785574E+04  0.29873786430E+04 0.  0.
        3    1    3    3  502    0  0.31038722774E+03 -0.14610021253E+04  0.50496773661E+03  0.15766609866E+04  0.10100000352E+00 0.  1.
       -3    1    3    3    0  502 -0.31038722774E+03  0.14610021253E+04  0.47234505220E+03  0.15665175709E+04  0.10100000352E+00 0. -1.
</event>
<event>
 5   0  0.3486236E-06  0.2930006E+04  0.7818609E-02  0.8264006E-01
       -1   -1    0    0    0  501  0.00000000000E+00  0.00000000000E+00  0.10529572837E+04  0.10529572837E+04  0.50400001928E-02 0.  1.
        1   -1    0    0  501    0  0.00000000000E+00  0.00000000000E+00 -0.20382907404E+04  0.20382907404E+04  0.50400001928E-02 0. -1.
    10030    2    1    2    0    0  0.00000000000E+00  0.00000000000E+00 -0.98533345675E+03  0.30912480241E+04  0.29300055163E+04 0.  0.
        5    1    3    3  502    0  0.69621322124E+03 -0.77692284259E+03 -0.15778059783E+04  0.18915114982E+04  0.46999998093E+01 0. -1.
       -5    1    3    3    0  502 -0.69621322124E+03  0.77692284259E+03  0.59247252153E+03  0.11997365259E+04  0.46999998093E+01 0.  1.
</event>
<event>
 5   0  0.9360689E-06  0.2793237E+04  0.7818609E-02  0.8305371E-01
       -2   -1    0    0    0  501  0.00000000000E+00  0.00000000000E+00  0.11722106931E+04  0.11722106931E+04  0.25500000920E-02 0.  1.
        2   -1    0    0  501    0  0.00000000000E+00  0.00000000000E+00 -0.16639867267E+04  0.16639867267E+04  0.25500000920E-02 0. -1.
    10030    2    1    2    0    0  0.00000000000E+00  0.00000000000E+00 -0.49177603359E+03  0.28361974198E+04  0.27932368565E+04 0.  0.
        5    1    3    3  502    0 -0.48988250132E+02 -0.13370297207E+04 -0.65263952072E+03  0.14886264665E+04  0.46999998093E+01 0. -1.
       -5    1    3    3    0  502  0.48988250132E+02  0.13370297207E+04  0.16086348712E+03  0.13475709533E+04  0.46999998093E+01 0.  1.
</event>
<event>
 5   0  0.3486236E-06  0.2809204E+04  0.7818609E-02  0.8300417E-01
        1   -1    0    0  501    0  0.00000000000E+00  0.00000000000E+00  0.14390776768E+04  0.14390776768E+04  0.50400001928E-02 0. -1.
       -1   -1    0    0    0  501  0.00000000000E+00  0.00000000000E+00 -0.13709524613E+04  0.13709524613E+04  0.50400001928E-02 0.  1.
    10030    2    1    2    0    0  0.00000000000E+00  0.00000000000E+00  0.68125215418E+02  0.28100301381E+04  0.28092042169E+04 0.  0.
        5    1    3    3  502    0  0.21268414743E+03 -0.28726834510E+01 -0.13547411348E+04  0.13713454821E+04  0.46999998093E+01 0.  1.
       -5    1    3    3    0  502 -0.21268414743E+03  0.28726834510E+01  0.14228663502E+04  0.14386846560E+04  0.46999998093E+01 0. -1.
</event>
<event>
 5   0  0.3649705E-06  0.2517003E+04  0.7818609E-02  0.8396953E-01
       -1   -1    0    0    0  501  0.00000000000E+00  0.00000000000E+00  0.12330110920E+04  0.12330110920E+04  0.50400001928E-02 0.  1.
        1   -1    0    0  501    0  0.00000000000E+00  0.00000000000E+00 -0.12845193344E+04  0.12845193344E+04  0.50400001928E-02 0. -1.
    10030    2    1    2    0    0  0.00000000000E+00  0.00000000000E+00 -0.51508242432E+02  0.25175304264E+04  0.25170034463E+04 0.  0.
        2    1    3    3  502    0  0.11938488805E+04 -0.35025756771E+03  0.16368213708E+03  0.12548893797E+04  0.25500000920E-02 0.  1.
       -2    1    3    3    0  502 -0.11938488805E+04  0.35025756771E+03 -0.21519037952E+03  0.12626410467E+04  0.25500000920E-02 0. -1.
</event>
<event>
 5   0  0.9360689E-06  0.2889619E+04  0.7818609E-02  0.8275973E-01
       -2   -1    0    0    0  501  0.00000000000E+00  0.00000000000E+00  0.15469686971E+04  0.15469686971E+04  0.25500000920E-02 0. -1.
        2   -1    0    0  501    0  0.00000000000E+00  0.00000000000E+00 -0.13493965695E+04  0.13493965695E+04  0.25500000920E-02 0.  1.
    10030    2    1    2    0    0  0.00000000000E+00  0.00000000000E+00  0.19757212762E+03  0.28963652666E+04  0.28896188350E+04 0.  0.
        5    1    3    3  502    0  0.91434257248E+03 -0.94177003794E+03  0.70393315916E+03  0.14894620260E+04  0.46999998093E+01 0. -1.
       -5    1    3    3    0  502 -0.91434257248E+03  0.94177003794E+03 -0.50636103153E+03  0.14069032406E+04  0.46999998093E+01 0.  1.
</event>
<event>
 5   0  0.3564340E-06  0.2954758E+04  0.7818609E-02  0.8256769E-01
        1   -1    0    0  501    0  0.00000000000E+00  0.00000000000E+00  0.22895743051E+04  0.22895743051E+04  0.50400001928E-02 0. -1.
       -1   -1    0    0    0  501  0.00000000000E+00  0.00000000000E+00 -0.95329863711E+03  0.95329863712E+03  0.50400001928E-02 0.  1.
    10030    2    1    2    0    0  0.00000000000E+00  0.00000000000E+00  0.13362756680E+04  0.32428729422E+04  0.29547575634E+04 0.  0.
        1    1    3    3  502    0  0.14746763389E+04  0.56628860913E+02  0.59233076649E+03  0.15901990031E+04  0.50400001928E-02 0.  1.
       -1    1    3    3    0  502 -0.14746763389E+04 -0.56628860913E+02  0.74394490146E+03  0.16526739391E+04  0.50400001928E-02 0. -1.
</event>
<event>
 5   0  0.9646321E-06  0.2901552E+04  0.7818609E-02  0.8272416E-01
       -2   -1    0    0    0  501  0.00000000000E+00  0.00000000000E+00  0.90861416677E+03  0.90861416678E+03  0.25500000920E-02 0.  1.
        2   -1    0    0  501    0  0.00000000000E+00  0.00000000000E+00 -0.23164409969E+04  0.23164409969E+04  0.25500000920E-02 0. -1.
    10030    2    1    2    0    0  0.00000000000E+00  0.00000000000E+00 -0.14078268302E+04  0.32250551637E+04  0.29015520718E+04 0.  0.
        3    1    3    3  502    0  0.14531617744E+02 -0.62325672592E+03  0.75213874565E+03  0.97692006696E+03  0.10100000352E+00 0.  1.
       -3    1    3    3    0  502 -0.14531617744E+02  0.62325672592E+03 -0.21599655758E+04  0.22481350968E+04  0.10100000352E+00 0. -1.
</event>
<event>
 5   0  0.9505359E-06  0.2915181E+04  0.7818609E-02  0.8268375E-01
        2   -1    0    0  501    0  0.00000000000E+00  0.00000000000E+00  0.24436121845E+04  0.24436121845E+04  0.25500000920E-02 0.  1.
       -2   -1    0    0    0  501  0.00000000000E+00  0.00000000000E+00 -0.86943807533E+03  0.86943807533E+03  0.25500000920E-02 0. -1.
    10030    2    1    2    0    0  0.00000000000E+00  0.00000000000E+00  0.15741741092E+04  0.33130502598E+04  0.29151805944E+04 0.  0.
        4    1    3    3  502    0 -0.57175605505E+03 -0.10461446001E+04 -0.16596294620E+03  0.12036896706E+04  0.12699999809E+01 0. -1.
       -4    1    3    3    0  502  0.57175605505E+03  0.10461446001E+04  0.17401370554E+04  0.21093605892E+04  0.12699999809E+01 0.  1.
</event>
<event>
 5   0  0.9646321E-06  0.2847449E+04  0.7818609E-02  0.8288687E-01
       -2   -1    0    0    0  501  0.00000000000E+00  0.00000000000E+00  0.87798445373E+03  0.87798445374E+03  0.25500000920E-02 0. -1.
        2   -1    0    0  501    0  0.00000000000E+00  0.00000000000E+00 -0.23086864381E+04  0.23086864381E+04  0.25500000920E-02 0.  1.
    10030    2    1    2    0    0  0.00000000000E+00  0.00000000000E+00 -0.14307019843E+04  0.31866708918E+04  0.28474485429E+04 0.  0.
        3    1    3    3  502    0  0.11620480055E+04  0.80263628177E+03 -0.91682653689E+03  0.16837908056E+04  0.10100000352E+00 0.  1.
       -3    1    3    3    0  502 -0.11620480055E+04 -0.80263628177E+03 -0.51387544746E+03  0.15028800863E+04  0.10100000352E+00 0. -1.
</event>
<event>
 5   0  0.3649705E-06  0.2899938E+04  0.7818609E-02  0.8272896E-01
       -1   -1    0    0    0  501  0.00000000000E+00  0.00000000000E+00  0.24458332074E+04  0.24458332074E+04  0.50400001928E-02 0. -1.
        1   -1    0    0  501    0  0.00000000000E+00  0.00000000000E+00 -0.85958844417E+03  0.85958844418E+03  0.50400001928E-02 0.  1.
    10030    2    1    2    0    0  0.00000000000E+00  0.00000000000E+00  0.15862447632E+04  0.33054216516E+04  0.28999379038E+04 0.  0.
        2    1    3    3  502    0  0.12870167732E+04  0.58618955918E+03  0.11578300182E+04  0.18277310319E+04  0.25500000920E-02 0. -1.
       -2    1    3    3    0  502 -0.12870167732E+04 -0.58618955918E+03  0.42841474507E+03  0.14776906197E+04  0.25500000920E-02 0.  1.
</event>
<event>
 5   0  0.9505359E-06  0.2852479E+04  0.7818609E-02  0.8287159E-01
        2   -1    0    0  501    0  0.00000000000E+00  0.00000000000E+00  0.21972568200E+04  0.21972568200E+04  0.25500000920E-02 0. -1.
       -2   -1    0    0    0  501  0.00000000000E+00  0.00000000000E+00 -0.92577192338E+03  0.92577192339E+03  0.25500000920E-02 0.  1.
    10030    2    1    2    0    0  0.00000000000E+00  0.00000000000E+00  0.12714848966E+04  0.31230287434E+04  0.28524786922E+04 0.  0.
        4    1    3    3  502    0  0.74297318207E+03 -0.12142788711E+04  0.53982773810E+03  0.15224644252E+04  0.12699999809E+01 0.  1.
       -4    1    3    3    0  502 -0.74297318207E+03  0.12142788711E+04  0.73165715848E+03  0.16005643182E+04  0.12699999809E+01 0. -1.
</event>
<event>
 5   0  0.3486236E-06  0.2871037E+04  0.7818609E-02  0.8281547E-01
       -1   -1    0    0    0  501  0.00000000000E+00  0.00000000000E+00  0.15007724344E+04  0.15007724344E+04  0.50400001928E-02 0.  1.
        1   -1    0    0  501    0  0.00000000000E+00  0.00000000000E+00 -0.13731017694E+04  0.13731017694E+04  0.50400001928E-02 0. -1.
    10030    2    1    2    0    0  0.00000000000E+00  0.00000000000E+00  0.12767066498E+03  0.28738742038E+04  0.28710369451E+04 0.  0.
        5    1    3    3  502    0 -0.60541488618E+03  0.18983942089E+03 -0.12251192276E+04  0.13796758322E+04  0.46999998093E+01 0. -1.
       -5    1    3    3    0  502  0.60541488618E+03 -0.18983942089E+03  0.13527898926E+04  0.14941983716E+04  0.46999998093E+01 0.  1.
</event>
<event>
 5   0  0.3188375E-06  0.2872605E+04  0.7818609E-02  0.8281075E-01
       -4   -1    0    0    0  501  0.00000000000E+00  0.00000000000E+00  0.11104737961E+04  0.11104745223E+04  0.12699999809E+01 0.  1.
        4   -1    0    0  501    0  0.00000000000E+00  0.00000000000E+00 -0.18577328139E+04  0.18577332480E+04  0.12699999809E+01 0. -1.
    10030    2    1    2    0    0  0.00000000000E+00  0.00000000000E+00 -0.74725901776E+03  0.29682077703E+04  0.28726053206E+04 0.  0.
        5    1    3    3  502    0  0.58438222330E+03 -0.12997189000E+04 -0.18829615392E+03  0.14374454193E+04  0.46999998093E+01 0. -1.
       -5    1    3    3    0  502 -0.58438222330E+03  0.12997189000E+04 -0.55896286384E+03  0.15307623510E+04  0.46999998093E+01 0.  1.
</event>
<event>
 5   0  0.3188375E-06  0.2791089E+04  0.7818609E-02  0.8306040E-01
        3   -1    0    0  501    0  0.00000000000E+00  0.00000000000E+00  0.18539583827E+04  0.18539583855E+04  0.10100000352E+00 0. -1.
       -3   -1    0    0    0  501  0.00000000000E+00  0.00000000000E+00 -0.10504788732E+04  0.10504788780E+04  0.10100000352E+00 0.  1.
    10030    2    1    2    0    0  0.00000000000E+00  0.00000000000E+00  0.80347950953E+03  0.29044372635E+04  0.27910887652E+04 0.  0.
        3    1    3    3  502    0 -0.10398158080E+04 -0.21444681454E+03  0.13442481620E+04  0.17129528546E+04  0.10100000352E+00 0. -1.
       -3    1    3    3    0  502  0.10398158080E+04  0.21444681454E+03 -0.54076865246E+03  0.11914844089E+04  0.10100000352E+00 0.  1.
</event>
<event>
 5   0  0.3649705E-06  0.2873650E+04  0.7818609E-02  0.8280761E-01
       -1   -1    0    0    0  501  0.00000000000E+00  0.00000000000E+00  0.95776039844E+03  0.95776039845E+03  0.50400001928E-02 0. -1.
        1   -1    0    0  501    0  0.00000000000E+00  0.00000000000E+00 -0.21555144596E+04  0.21555144596E+04  0.50400001928E-02 0.  1.
    10030    2    1    2    0    0  0.00000000000E+00  0.00000000000E+00 -0.11977540611E+04  0.31132748580E+04  0.28736502137E+04 0.  0.
        2    1    3    3  502    0  0.10157190323E+02 -0.79334061661E+03  0.69891636383E+03  0.10573441191E+04  0.25500000920E-02 0. -1.
       -2    1    3    3    0  502 -0.10157190323E+02  0.79334061661E+03 -0.18966704249E+04  0.20559307390E+04  0.25500000920E-02 0.  1.
</event>
<event>
 5   0  0.3474078E-06  0.2891367E+04  0.7818609E-02  0.8275451E-01
        1   -1    0    0  501    0  0.00000000000E+00  0.00000000000E+00  0.10564831081E+04  0.10564831081E+04  0.50400001928E-02 0. -1.
       -1   -1    0    0    0  501  0.00000000000E+00  0.00000000000E+00 -0.19782625718E+04  0.19782625718E+04  0.50400001928E-02 0.  1.
    10030    2    1    2    0    0  0.00000000000E+00  0.00000000000E+00 -0.92177946377E+03  0.30347456799E+04  0.28913671441E+04 0.  0.
        3    1    3    3  502    0 -0.47519930879E+03 -0.19634001141E+03  0.95727375058E+03  0.10866171483E+04  0.10100000352E+00 0. -1.
       -3    1    3    3    0  502  0.47519930879E+03  0.19634001141E+03 -0.18790532144E+04  0.19481285316E+04  0.10100000352E+00 0.  1.
</event>
<event>
 5   0  0.3486236E-06  0.2904526E+04  0.7818609E-02  0.8271532E-01
        1   -1    0    0  501    0  0.00000000000E+00  0.00000000000E+00  0.17620516839E+04  0.17620516839E+04  0.50400001928E-02 0. -1.
       -1   -1    0    0    0  501  0.00000000000E+00  0.00000000000E+00 -0.11969383688E+04  0.11969383688E+04  0.50400001928E-02 0.  1.
    10030    2    1    2    0    0  0.00000000000E+00  0.00000000000E+00  0.56511331507E+03  0.29589900527E+04  0.29045256193E+04 0.  0.
        5    1    3    3  502    0  0.13336982735E+04  0.36927421968E+03  0.73118996549E+03  0.15651758335E+04  0.46999998093E+01 0. -1.
       -5    1    3    3    0  502 -0.13336982735E+04 -0.36927421968E+03 -0.16607665042E+03  0.13938142193E+04  0.46999998093E+01 0.  1.
</event>
<event>
 5   0  0.9360689E-06  0.2922421E+04  0.7818609E-02  0.8266238E-01
       -2   -1    0    0    0  501  0.00000000000E+00  0.00000000000E+00  0.74851158403E+03  0.74851158403E+03  0.25500000920E-02 0. -1.
        2   -1    0    0  501    0  0.00000000000E+00  0.00000000000E+00 -0.28525096574E+04  0.28525096574E+04  0.25500000920E-02 0.  1.
    10030    2    1    2    0    0  0.00000000000E+00  0.00000000000E+00 -0.21039980734E+04  0.36010212414E+04  0.29224212716E+04 0.  0.
        5    1    3    3  502    0 -0.75200775073E+03  0.65464125677E+03  0.26423762286E+03  0.10314622841E+04  0.46999998093E+01 0. -1.
       -5    1    3    3    0  502  0.75200775073E+03 -0.65464125677E+03 -0.23682356962E+04  0.25695589573E+04  0.46999998093E+01 0.  1.
</event>
<event>
 5   0  0.3564340E-06  0.2886911E+04  0.7818609E-02  0.8276782E-01
       -1   -1    0    0    0  501  0.00000000000E+00  0.00000000000E+00  0.10288198289E+04  0.10288198289E+04  0.50400001928E-02 0.  1.
        1   -1    0    0  501    0  0.00000000000E+00  0.00000000000E+00 -0.20251980653E+04  0.20251980653E+04  0.50400001928E-02 0. -1.
    10030    2    1    2    0    0  0.00000000000E+00  0.00000000000E+00 -0.99637823643E+03  0.30540178942E+04  0.28869111016E+04 0.  0.
        1    1    3    3  502    0 -0.92579776174E+03 -0.54660858525E+03  0.52072507393E+03  0.11945865577E+04  0.50400001928E-02 0.  1.
       -1    1    3    3    0  502  0.92579776174E+03  0.54660858525E+03 -0.15171033104E+04  0.18594313366E+04  0.50400001928E-02 0. -1.
</event>
<event>
 5   0  0.3486236E-06  0.2869150E+04  0.7818609E-02  0.8282116E-01
       -1   -1    0    0    0  501  0.00000000000E+00  0.00000000000E+00  0.10288704196E+04  0.10288704196E+04  0.50400001928E-02 0.  1.
        1   -1    0    0  501    0  0.00000000000E+00  0.00000000000E+00 -0.20002577497E+04  0.20002577497E+04  0.50400001928E-02 0. -1.
    10030    2    1    2    0    0  0.00000000000E+00  0.00000000000E+00 -0.97138733011E+03  0.30291281693E+04  0.28691504180E+04 0.  0.
        5    1    3    3  502    0  0.54958047708E+03  0.60290732648E+03  0.76012210674E+03  0.11150532060E+04  0.46999998093E+01 0.  1.
       -5    1    3    3    0  502 -0.54958047708E+03 -0.60290732648E+03 -0.17315094368E+04  0.19140749633E+04  0.46999998093E+01 0. -1.
</event>
<event>
 5   0  0.3746518E-06  0.2913615E+04  0.7818609E-02  0.8268838E-01
       -1   -1    0    0    0  501  0.00000000000E+00  0.00000000000E+00  0.10131890720E+04  0.10131890720E+04  0.50400001928E-02 0.  1.
        1   -1    0    0  501    0  0.00000000000E+00  0.00000000000E+00 -0.20946607596E+04  0.20946607596E+04  0.50400001928E-02 0. -1.
    10030    2    1    2    0    0  0.00000000000E+00  0.00000000000E+00 -0.10814716876E+04  0.31078498317E+04  0.29136145189E+04 0.  0.
        4    1    3    3  502    0  0.49383494387E+03  0.83958110458E+02 -0.19999097429E+04  0.20616892367E+04  0.12699999809E+01 0. -1.
       -4    1    3    3    0  502 -0.49383494387E+03 -0.83958110458E+02  0.91843805530E+03  0.10461605949E+04  0.12699999809E+01 0.  1.
</event>
<event>
 5   0  0.3649705E-06  0.3048464E+04  0.7818609E-02  0.8230026E-01
        1   -1    0    0  501    0  0.00000000000E+00  0.00000000000E+00  0.22097464322E+04  0.22097464322E+04  0.50400001928E-02 0.  1.
       -1   -1    0    0    0  501  0.00000000000E+00  0.00000000000E+00 -0.10513799130E+04  0.10513799130E+04  0.50400001928E-02 0. -1.
    10030    2    1    2    0    0  0.00000000000E+00  0.00000000000E+00  0.11583665192E+04  0.32611263452E+04  0.30484638831E+04 0.  0.
        2    1    3    3  502    0 -0.15553383611E+03 -0.25058822818E+03 -0.10205640444E+04  0.10623258460E+04  0.25500000920E-02 0. -1.
       -2    1    3    3    0  502  0.15553383611E+03  0.25058822818E+03  0.21789305636E+04  0.21988004992E+04  0.25500000920E-02 0.  1.
</event>
<event>
 5   0  0.9251510E-06  0.2554728E+04  0.7818609E-02  0.8383744E-01
       -2   -1    0    0    0  501  0.00000000000E+00  0.00000000000E+00  0.63181180694E+03  0.63181180695E+03  0.25500000920E-02 0.  1.
        2   -1    0    0  501    0  0.00000000000E+00  0.00000000000E+00 -0.25825072716E+04  0.25825072716E+04  0.25500000920E-02 0. -1.
    10030    2    1    2    0    0  0.00000000000E+00  0.00000000000E+00 -0.19506954647E+04  0.32143190786E+04  0.25547278413E+04 0.  0.
        2    1    3    3  502    0 -0.86951138904E+03  0.87423473455E+03 -0.55555476830E+03  0.13523969563E+04  0.25500000920E-02 0.  1.
       -2    1    3    3    0  502  0.86951138904E+03 -0.87423473455E+03 -0.13951406964E+04  0.18619221223E+04  0.25500000920E-02 0. -1.
</event>
<event>
 5   0  0.9646321E-06  0.2900277E+04  0.7818609E-02  0.8272795E-01
        2   -1    0    0  501    0  0.00000000000E+00  0.00000000000E+00  0.26349769752E+04  0.26349769752E+04  0.25500000920E-02 0.  1.
       -2   -1    0    0    0  501  0.00000000000E+00  0.00000000000E+00 -0.79807199449E+03  0.79807199449E+03  0.25500000920E-02 0. -1.
    10030    2    1    2    0    0  0.00000000000E+00  0.00000000000E+00  0.18369049807E+04  0.34330489697E+04  0.29002767661E+04 0.  0.
        3    1    3    3  502    0 -0.10789485145E+04  0.83417172092E+03  0.33503398146E+03  0.14043575527E+04  0.10100000352E+00 0.  1.
       -3    1    3    3    0  502  0.10789485145E+04 -0.83417172092E+03  0.15018709993E+04  0.20286914170E+04  0.10100000352E+00 0. -1.
</event>
<event>
 5   0  0.9505359E-06  0.3003891E+04  0.7818609E-02  0.8242621E-01
        2   -1    0    0  501    0  0.00000000000E+00  0.00000000000E+00  0.75768056150E+03  0.75768056150E+03  0.25500000920E-02 0. -1.
       -2   -1    0    0    0  501  0.00000000000E+00  0.00000000000E+00 -0.29772969423E+04  0.29772969423E+04  0.25500000920E-02 0.  1.
    10030    2    1    2    0    0  0.00000000000E+00  0.00000000000E+00 -0.22196163808E+04  0.37349775038E+04  0.30038908229E+04 0.  0.
        4    1    3    3  502    0 -0.18711046758E+03  0.56877696032E+03 -0.28224803407E+04  0.28852927831E+04  0.12699999809E+01 0.  1.
       -4    1    3    3    0  502  0.18711046758E+03 -0.56877696032E+03  0.60286395986E+03  0.84968472075E+03  0.12699999809E+01 0. -1.
</event>
<event>
 5   0  0.3486236E-06  0.2971620E+04  0.7818609E-02  0.8251882E-01
       -1   -1    0    0    0  501  0.00000000000E+00  0.00000000000E+00  0.24616222372E+04  0.24616222372E+04  0.50400001928E-02 0.  1.
        1   -1    0    0  501    0  0.00000000000E+00  0.00000000000E+00 -0.89681991514E+03  0.89681991515E+03  0.50400001928E-02 0. -1.
    10030    2    1    2    0    0  0.00000000000E+00  0.00000000000E+00  0.15648023220E+04  0.33584421523E+04  0.29716203296E+04 0.  0.
        5    1    3    3  502    0  0.74123834972E+03 -0.12808011640E+04  0.63194031487E+03  0.16091167031E+04  0.46999998093E+01 0.  1.
       -5    1    3    3    0  502 -0.74123834972E+03  0.12808011640E+04  0.93286200715E+03  0.17493254492E+04  0.46999998093E+01 0. -1.
</event>
<event>
 5   0  0.1001573E-05  0.2262186E+04  0.7818609E-02  0.8492982E-01
        2   -1    0    0  501    0  0.00000000000E+00  0.00000000000E+00  0.14831271296E+04  0.14831271296E+04  0.25500000920E-02 0. -1.
       -2   -1    0    0    0  501  0.00000000000E+00  0.00000000000E+00 -0.86261751045E+03  0.86261751046E+03  0.25500000920E-02 0.  1.
    10030    2    1    2    0    0  0.00000000000E+00  0.00000000000E+00  0.62050961918E+03  0.23457446401E+04  0.22621860509E+04 0.  0.
        1    1    3    3  502    0  0.97273217860E+03  0.54456612056E+03  0.50866312813E+03  0.12253564089E+04  0.50400001928E-02 0. -1.
       -1    1    3    3    0  502 -0.97273217860E+03 -0.54456612056E+03  0.11184649105E+03  0.11203882312E+04  0.50400001928E-02 0.  1.
</event>
<event>
 5   0  0.9360689E-06  0.2925508E+04  0.7818609E-02  0.8265328E-01
        2   -1    0    0  501    0  0.00000000000E+00  0.00000000000E+00  0.19906309469E+04  0.19906309469E+04  0.25500000920E-02 0. -1.
       -2   -1    0    0    0  501  0.00000000000E+00  0.00000000000E+00 -0.10748598062E+04  0.10748598062E+04  0.25500000920E-02 0.  1.
    10030    2    1    2    0    0  0.00000000000E+00  0.00000000000E+00  0.91577114071E+03  0.30654907531E+04  0.29255079516E+04 0.  0.
        5    1    3    3  502    0 -0.12291878927E+04 -0.10849346387E+03 -0.36516194324E+03  0.12868718049E+04  0.46999998093E+01 0.  1.
       -5    1    3    3    0  502  0.12291878927E+04  0.10849346387E+03  0.12809330839E+04  0.17786189482E+04  0.46999998093E+01 0. -1.
</event>
<event>
 5   0  0.3746518E-06  0.2935456E+04  0.7818609E-02  0.8262406E-01
       -1   -1    0    0    0  501  0.00000000000E+00  0.00000000000E+00  0.18462139881E+04  0.18462139881E+04  0.50400001928E-02 0.  1.
        1   -1    0    0  501    0  0.00000000000E+00  0.00000000000E+00 -0.11668337777E+04  0.11668337777E+04  0.50400001928E-02 0. -1.
    10030    2    1    2    0    0  0.00000000000E+00  0.00000000000E+00  0.67938021040E+03  0.30130477658E+04  0.29354555641E+04 0.  0.
        4    1    3    3  502    0  0.90935012034E+03 -0.10435681887E+04 -0.16134265263E+03  0.13935513160E+04  0.12699999809E+01 0. -1.
       -4    1    3    3    0  502 -0.90935012034E+03  0.10435681887E+04  0.84072286303E+03  0.16194964498E+04  0.12699999809E+01 0.  1.
</event>
<event>
 5   0  0.3649705E-06  0.2927201E+04  0.7818609E-02  0.8264830E-01
       -1   -1    0    0    0  501  0.00000000000E+00  0.00000000000E+00  0.13195545852E+04  0.13195545852E+04  0.50400001928E-02 0. -1.
        1   -1    0    0  501    0  0.00000000000E+00  0.00000000000E+00 -0.16233702817E+04  0.16233702817E+04  0.50400001928E-02 0.  1.
    10030    2    1    2    0    0  0.00000000000E+00  0.00000000000E+00 -0.30381569644E+03  0.29429248669E+04  0.29272005047E+04 0.  0.
        2    1    3    3  502    0 -0.14252865547E+04 -0.26894194930E+03 -0.34880206554E+03  0.14917889985E+04  0.25500000920E-02 0.  1.
       -2    1    3    3    0  502  0.14252865547E+04  0.26894194930E+03  0.44986369095E+02  0.14511358684E+04  0.25500000920E-02 0. -1.
</event>
<event>
 5   0  0.3649705E-06  0.2868442E+04  0.7818609E-02  0.8282329E-01
        1   -1    0    0  501    0  0.00000000000E+00  0.00000000000E+00  0.11458309972E+04  0.11458309972E+04  0.50400001928E-02 0.  1.
       -1   -1    0    0    0  501  0.00000000000E+00  0.00000000000E+00 -0.17951946778E+04  0.17951946778E+04  0.50400001928E-02 0. -1.
    10030    2    1    2    0    0  0.00000000000E+00  0.00000000000E+00 -0.64936368064E+03  0.29410256750E+04  0.28684418821E+04 0.  0.
        2    1    3    3  502    0  0.12476121511E+04 -0.61545764338E+03 -0.68231395838E+03  0.15494762109E+04  0.25500000920E-02 0. -1.
       -2    1    3    3    0  502 -0.12476121511E+04  0.61545764338E+03  0.32950277740E+02  0.13915494641E+04  0.25500000920E-02 0.  1.
</event>
<event>
 5   0  0.3474078E-06  0.2660106E+04  0.7818609E-02  0.8348066E-01
        1   -1    0    0  501    0  0.00000000000E+00  0.00000000000E+00  0.25980249643E+04  0.25980249644E+04  0.50400001928E-02 0. -1.
       -1   -1    0    0    0  501  0.00000000000E+00  0.00000000000E+00 -0.68091772755E+03  0.68091772757E+03  0.50400001928E-02 0.  1.
    10030    2    1    2    0    0  0.00000000000E+00  0.00000000000E+00  0.19171072368E+04  0.32789426919E+04  0.26601062046E+04 0.  0.
        3    1    3    3  502    0 -0.16981567710E+03 -0.99792778101E+03  0.20220149501E+04  0.22612478168E+04  0.10100000352E+00 0. -1.
       -3    1    3    3    0  502  0.16981567710E+03  0.99792778101E+03 -0.10490771333E+03  0.10176948751E+04  0.10100000352E+00 0.  1.
</event>
<event>
 5   0  0.3649705E-06  0.2931889E+04  0.7818609E-02  0.8263452E-01
       -1   -1    0    0    0  501  0.00000000000E+00  0.00000000000E+00  0.18792759515E+04  0.18792759515E+04  0.50400001928E-02 0.  1.
        1   -1    0    0  501    0  0.00000000000E+00  0.00000000000E+00 -0.11435220583E+04  0.11435220583E+04  0.50400001928E-02 0. -1.
    10030    2    1    2    0    0  0.00000000000E+00  0.00000000000E+00  0.73575389315E+03  0.30227980098E+04  0.29318891550E+04 0.  0.
        2    1    3    3  502    0 -0.77594801771E+03  0.95422362681E+02 -0.91065176473E+03  0.12002030620E+04  0.25500000920E-02 0. -1.
       -2    1    3    3    0  502  0.77594801771E+03 -0.95422362681E+02  0.16464056579E+04  0.18225949478E+04  0.25500000920E-02 0.  1.
</event>
<event>
 5   0  0.9251510E-06  0.2942917E+04  0.7818609E-02  0.8260222E-01
       -2   -1    0    0    0  501  0.00000000000E+00  0.00000000000E+00  0.91930523482E+03  0.91930523482E+03  0.25500000920E-02 0. -1.
        2   -1    0    0  501    0  0.00000000000E+00  0.00000000000E+00 -0.23552456496E+04  0.23552456496E+04  0.25500000920E-02 0.  1.
    10030    2    1    2    0    0  0.00000000000E+00  0.00000000000E+00 -0.14359404148E+04  0.32745508844E+04  0.29429166859E+04 0.  0.
        2    1    3    3  502    0 -0.11629878106E+03 -0.36859161198E+03 -0.22977551797E+04  0.23300352033E+04  0.25500000920E-02 0.  1.
       -2    1    3    3    0  502  0.11629878106E+03  0.36859161198E+03  0.86181476489E+03  0.94451568112E+03  0.25500000920E-02 0. -1.
</event>
<event>
 5   0  0.9251510E-06  0.2898750E+04  0.7818609E-02  0.8273249E-01
       -2   -1    0    0    0  501  0.00000000000E+00  0.00000000000E+00  0.16540171290E+04  0.16540171290E+04  0.25500000920E-02 0. -1.
        2   -1    0    0  501    0  0.00000000000E+00  0.00000000000E+00 -0.12700523055E+04  0.12700523055E+04  0.25500000920E-02 0.  1.
    10030    2    1    2    0    0  0.00000000000E+00  0.00000000000E+00  0.38396482355E+03  0.29240694345E+04  0.28987502604E+04 0.  0.
        2    1    3    3  502    0  0.77495306365E+03 -0.10257980069E+04 -0.48309726256E+03  0.13733887894E+04  0.25500000920E-02 0.  1.
       -2    1    3    3    0  502 -0.77495306365E+03  0.10257980069E+04  0.86706208611E+03  0.15506806451E+04  0.25500000920E-02 0. -1.
</event>
<event>
 5   0  0.9646321E-06  0.2909608E+04  0.7818609E-02  0.8270025E-01
        2   -1    0    0  501    0  0.00000000000E+00  0.00000000000E+00  0.22483885518E+04  0.22483885518E+04  0.25500000920E-02 0. -1.
       -2   -1    0    0    0  501  0.00000000000E+00  0.00000000000E+00 -0.94132059587E+03  0.94132059588E+03  0.25500000920E-02 0.  1.
    10030    2    1    2    0    0  0.00000000000E+00  0.00000000000E+00  0.13070679559E+04  0.31897091477E+04  0.29096078439E+04 0.  0.
        3    1    3    3  502    0 -0.91333867765E+03 -0.49548810103E+03  0.17697684113E+04  0.20522612500E+04  0.10100000352E+00 0. -1.
       -3    1    3    3    0  502  0.91333867765E+03  0.49548810103E+03 -0.46270045537E+03  0.11374478977E+04  0.10100000352E+00 0.  1.
</event>
<event>
 5   0  0.3564340E-06  0.2893963E+04  0.7818609E-02  0.8274676E-01
        1   -1    0    0  501    0  0.00000000000E+00  0.00000000000E+00  0.10504297678E+04  0.10504297678E+04  0.50400001928E-02 0.  1.
       -1   -1    0    0    0  501  0.00000000000E+00  0.00000000000E+00 -0.19932375501E+04  0.19932375501E+04  0.50400001928E-02 0. -1.
    10030    2    1    2    0    0  0.00000000000E+00  0.00000000000E+00 -0.94280778233E+03  0.30436673179E+04  0.28939634116E+04 0.  0.
        1    1    3    3  502    0  0.11614266268E+04 -0.31822395330E+03 -0.13151361614E+04  0.17831885534E+04  0.50400001928E-02 0. -1.
       -1    1    3    3    0  502 -0.11614266268E+04  0.31822395330E+03  0.37232837905E+03  0.12604787645E+04  0.50400001928E-02 0.  1.
</event>
<event>
 5   0  0.3649705E-06  0.3025023E+04  0.7818609E-02  0.8236621E-01
        1   -1    0    0  501    0  0.00000000000E+00  0.00000000000E+00  0.19195478552E+04  0.19195478552E+04  0.50400001928E-02 0. -1.
       -1   -1    0    0    0  501  0.00000000000E+00  0.00000000000E+00 -0.11917863129E+04  0.11917863129E+04  0.50400001928E-02 0.  1.
    10030    2    1    2    0    0  0.00000000000E+00  0.00000000000E+00  0.72776154225E+03  0.31113341681E+04  0.30250228831E+04 0.  0.
        2    1    3    3  502    0 -0.88294435803E+03 -0.95733763891E+03  0.11549852191E+04  0.17407116219E+04  0.25500000920E-02 0. -1.
       -2    1    3    3    0  502  0.88294435803E+03  0.95733763891E+03 -0.42722367684E+03  0.13706225463E+04  0.25500000920E-02 0.  1.
</event>
<event>
 5   0  0.3649705E-06  0.2845448E+04  0.7818609E-02  0.8289296E-01
       -1   -1    0    0    0  501  0.00000000000E+00  0.00000000000E+00  0.15281075731E+04  0.15281075731E+04  0.50400001928E-02 0.  1.
        1   -1    0    0  501    0  0.00000000000E+00  0.00000000000E+00 -0.13246078787E+04  0.13246078787E+04  0.50400001928E-02 0. -1.
    10030    2    1    2    0    0  0.00000000000E+00  0.00000000000E+00  0.20349969440E+03  0.28527154518E+04  0.28454478247E+04 0.  0.
        2    1    3    3  502    0  0.96180816754E+03 -0.85114148853E+03 -0.51188088498E+03  0.13825841114E+04  0.25500000920E-02 0.  1.
       -2    1    3    3    0  502 -0.96180816754E+03  0.85114148853E+03  0.71538057939E+03  0.14701313404E+04  0.25500000920E-02 0. -1.
</event>
<event>
 5   0  0.9646321E-06  0.2841015E+04  0.7818609E-02  0.8290647E-01
       -2   -1    0    0    0  501  0.00000000000E+00  0.00000000000E+00  0.14184155555E+04  0.14184155555E+04  0.25500000920E-02 0. -1.
        2   -1    0    0  501    0  0.00000000000E+00  0.00000000000E+00 -0.14226028780E+04  0.14226028780E+04  0.25500000920E-02 0.  1.
    10030    2    1    2    0    0  0.00000000000E+00  0.00000000000E+00 -0.41873225086E+01  0.28410184335E+04  0.28410153477E+04 0.  0.
        3    1    3    3  502    0 -0.12276083150E+04  0.32137471199E+03 -0.64048151041E+03  0.14214501243E+04  0.10100000352E+00 0.  1.
       -3    1    3    3    0  502  0.12276083150E+04 -0.32137471199E+03  0.63629418790E+03  0.14195683092E+04  0.10100000352E+00 0. -1.
</event>
<event>
 5   0  0.9251510E-06  0.2919601E+04  0.7818609E-02  0.8267069E-01
       -2   -1    0    0    0  501  0.00000000000E+00  0.00000000000E+00  0.86676972958E+03  0.86676972958E+03  0.25500000920E-02 0.  1.
        2   -1    0    0  501    0  0.00000000000E+00  0.00000000000E+00 -0.24585747183E+04  0.24585747183E+04  0.25500000920E-02 0. -1.
    10030    2    1    2    0    0  0.00000000000E+00  0.00000000000E+00 -0.15918049888E+04  0.33253444479E+04  0.29196014411E+04 0.  0.
        2    1    3    3  502    0 -0.89652631283E+03  0.11265058994E+04 -0.10707777085E+04  0.17942518976E+04  0.25500000920E-02 0. -1.
       -2    1    3    3    0  502  0.89652631283E+03 -0.11265058994E+04 -0.52102728023E+03  0.15310925503E+04  0.25500000920E-02 0.  1.
</event>
<event>
 5   0  0.9251510E-06  0.3069477E+04  0.7818609E-02  0.8224165E-01
        2   -1    0    0  501    0  0.00000000000E+00  0.00000000000E+00  0.11426998813E+04  0.11426998813E+04  0.25500000920E-02 0.  1.
       -2   -1    0    0    0  501  0.00000000000E+00  0.00000000000E+00 -0.20612777011E+04  0.20612777011E+04  0.25500000920E-02 0. -1.
    10030    2    1    2    0    0  0.00000000000E+00  0.00000000000E+00 -0.91857781979E+03  0.32039775823E+04  0.30694766878E+04 0.  0.
        2    1    3    3  502    0  0.16639087100E+02 -0.50986301512E+03 -0.19701908513E+04  0.20351631738E+04  0.25500000920E-02 0. -1.
       -2    1    3    3    0  502 -0.16639087100E+02  0.50986301512E+03  0.10516130315E+04  0.11688144085E+04  0.25500000920E-02 0.  1.
</event>
<event>
 5   0  0.3746518E-06  0.2934806E+04  0.7818609E-02  0.8262596E-01
       -1   -1    0    0    0  501  0.00000000000E+00  0.00000000000E+00  0.11229599863E+04  0.11229599863E+04  0.50400001928E-02 0. -1.
        1   -1    0    0  501    0  0.00000000000E+00  0.00000000000E+00 -0.19174961042E+04  0.19174961042E+04  0.50400001928E-02 0.  1.
    10030    2    1    2    0    0  0.00000000000E+00  0.00000000000E+00 -0.79453611792E+03  0.30404560905E+04  0.29348058872E+04 0.  0.
        4    1    3    3  502    0 -0.35295862847E+03 -0.13330759417E+04 -0.91692101332E+03  0.16560244615E+04  0.12699999809E+01 0.  1.
       -4    1    3    3    0  502  0.35295862847E+03  0.13330759417E+04  0.12238489540E+03  0.13844316289E+04  0.12699999809E+01 0. -1.
</event>
<event>
 5   0  0.3188375E-06  0.2906714E+04  0.7818609E-02  0.8270883E-01
       -3   -1    0    0    0  501  0.00000000000E+00  0.00000000000E+00  0.17768721545E+04  0.17768721573E+04  0.10100000352E+00 0. -1.
        3   -1    0    0  501    0  0.00000000000E+00  0.00000000000E+00 -0.11887442349E+04  0.11887442392E+04  0.10100000352E+00 0.  1.
    10030    2    1    2    0    0  0.00000000000E+00  0.00000000000E+00  0.58812791957E+03  0.29656163965E+04  0.29067139800E+04 0.  0.
        2    1    3    3  502    0  0.13408957809E+04  0.11677409802E+03  0.85345249300E+03  0.15937436566E+04  0.25500000920E-02 0. -1.
       -2    1    3    3    0  502 -0.13408957809E+04 -0.11677409802E+03 -0.26532457344E+03  0.13718727399E+04  0.25500000920E-02 0.  1.
</event>
<event>
 5   0  0.1001573E-05  0.2861081E+04  0.7818609E-02  0.8284552E-01
       -2   -1    0    0    0  501  0.00000000000E+00  0.00000000000E+00  0.15521931225E+04  0.15521931225E+04  0.25500000920E-02 0.  1.
        2   -1    0    0  501    0  0.00000000000E+00  0.00000000000E+00 -0.13184220104E+04  0.13184220104E+04  0.25500000920E-02 0. -1.
    10030    2    1    2    0    0  0.00000000000E+00  0.00000000000E+00  0.23377111213E+03  0.28706151330E+04  0.28610806191E+04 0.  0.
        1    1    3    3  502    0  0.93587455212E+03  0.96203833484E+02 -0.96435555877E+03  0.13472557287E+04  0.50400001928E-02 0. -1.
       -1    1    3    3    0  502 -0.93587455212E+03 -0.96203833484E+02  0.11981266709E+04  0.15233594042E+04  0.50400001928E-02 0.  1.
</event>
<event>
 5   0  0.9646321E-06  0.2890437E+04  0.7818609E-02  0.8275728E-01
        2   -1    0    0  501    0  0.00000000000E+00  0.00000000000E+00  0.19598381148E+04  0.19598381148E+04  0.25500000920E-02 0. -1.
       -2   -1    0    0    0  501  0.00000000000E+00  0.00000000000E+00 -0.10657293363E+04  0.10657293363E+04  0.25500000920E-02 0.  1.
    10030    2    1    2    0    0  0.00000000000E+00  0.00000000000E+00  0.89410877853E+03  0.30255674511E+04  0.28904373187E+04 0.  0.
        3    1    3    3  502    0  0.12938478583E+04 -0.49194081591E+03  0.88193985802E+03  0.16413000854E+04  0.10100000352E+00 0. -1.
       -3    1    3    3    0  502 -0.12938478583E+04  0.49194081591E+03  0.12168920503E+02  0.13842673657E+04  0.10100000352E+00 0.  1.
</event>
<event>
 5   0  0.3649705E-06  0.2905846E+04  0.7818609E-02  0.8271140E-01
       -1   -1    0    0    0  501  0.00000000000E+00  0.00000000000E+00  0.88323453971E+03  0.88323453973E+03  0.50400001928E-02 0.  1.
        1   -1    0    0  501    0  0.00000000000E+00  0.00000000000E+00 -0.23900611736E+04  0.23900611736E+04  0.50400001928E-02 0. -1.
    10030    2    1    2    0    0  0.00000000000E+00  0.00000000000E+00 -0.15068266339E+04  0.32732957133E+04  0.29058455434E+04 0.  0.
        2    1    3    3  502    0  0.13161310402E+04  0.17413920639E+03 -0.14183628488E+04  0.19427502539E+04  0.25500000920E-02 0. -1.
       -2    1    3    3    0  502 -0.13161310402E+04 -0.17413920639E+03 -0.88463785050E+02  0.13305454594E+04  0.25500000920E-02 0.  1.
</event>
<event>
 5   0  0.9646321E-06  0.2909630E+04  0.7818609E-02  0.8270018E-01
       -2   -1    0    0    0  501  0.00000000000E+00  0.00000000000E+00  0.11108782999E+04  0.11108782999E+04  0.25500000920E-02 0. -1.
        2   -1    0    0  501    0  0.00000000000E+00  0.00000000000E+00 -0.19052371538E+04  0.19052371538E+04  0.25500000920E-02 0.  1.
    10030    2    1    2    0    0  0.00000000000E+00  0.00000000000E+00 -0.79435885389E+03  0.30161154538E+04  0.29096299493E+04 0.  0.
        3    1    3    3  502    0 -0.13111811058E+04 -0.62151678938E+03 -0.28842265738E+03  0.14794142933E+04  0.10100000352E+00 0.  1.
       -3    1    3    3    0  502  0.13111811058E+04  0.62151678938E+03 -0.50593619652E+03  0.15367011605E+04  0.10100000352E+00 0. -1.
</event>
<event>
 5   0  0.9251510E-06  0.2918103E+04  0.7818609E-02  0.8267512E-01
       -2   -1    0    0    0  501  0.00000000000E+00  0.00000000000E+00  0.16488014588E+04  0.16488014588E+04  0.25500000920E-02 0.  1.
        2   -1    0    0  501    0  0.00000000000E+00  0.00000000000E+00 -0.12911382877E+04  0.12911382877E+04  0.25500000920E-02 0. -1.
    10030    2    1    2    0    0  0.00000000000E+00  0.00000000000E+00  0.35766317116E+03  0.29399397465E+04  0.29181025974E+04 0.  0.
        2    1    3    3  502    0  0.58043319261E+03  0.44683203995E+03  0.14501259159E+04  0.16246312612E+04  0.25500000920E-02 0.  1.
       -2    1    3    3    0  502 -0.58043319261E+03 -0.44683203995E+03 -0.10924627447E+04  0.13153084853E+04  0.25500000920E-02 0. -1.
</event>
<event>
 5   0  0.9646321E-06  0.2947880E+04  0.7818609E-02  0.8258773E-01
        2   -1    0    0  501    0  0.00000000000E+00  0.00000000000E+00  0.27294448664E+04  0.27294448664E+04  0.25500000920E-02 0.  1.
       -2   -1    0    0    0  501  0.00000000000E+00  0.00000000000E+00 -0.79594929049E+03  0.79594929050E+03  0.25500000920E-02 0. -1.
    10030    2    1    2    0    0  0.00000000000E+00  0.00000000000E+00  0.19334955760E+04  0.35253941569E+04  0.29478803944E+04 0.  0.
        3    1    3    3  502    0 -0.70463081336E+01  0.14486906017E+04  0.64198531972E+03  0.15845817337E+04  0.10100000352E+00 0. -1.
       -3    1    3    3    0  502  0.70463081336E+01 -0.14486906017E+04  0.12915102562E+04  0.19408124232E+04  0.10100000352E+00 0.  1.
</event>
<event>
 5   0  0.3486236E-06  0.2891728E+04  0.7818609E-02  0.8275343E-01
        1   -1    0    0  501    0  0.00000000000E+00  0.00000000000E+00  0.22027041657E+04  0.22027041657E+04  0.50400001928E-02 0.  1.
       -1   -1    0    0    0  501  0.00000000000E+00  0.00000000000E+00 -0.94907109359E+03  0.94907109361E+03  0.50400001928E-02 0. -1.
    10030    2    1    2    0    0  0.00000000000E+00  0.00000000000E+00  0.12536330721E+04  0.31517752593E+04  0.28917281003E+04 0.  0.
        5    1    3    3  502    0 -0.42160749388E+03 -0.13798330986E+04  0.72911022187E+03  0.16165754126E+04  0.46999998093E+01 0. -1.
       -5    1    3    3    0  502  0.42160749388E+03  0.13798330986E+04  0.52452285027E+03  0.15351998467E+04  0.46999998093E+01 0.  1.
</event>
<event>
 5   0  0.3486236E-06  0.2650018E+04  0.7818609E-02  0.8351407E-01
        1   -1    0    0  501    0  0.00000000000E+00  0.00000000000E+00  0.96460310646E+03  0.96460310647E+03  0.50400001928E-02 0.  1.
       -1   -1    0    0    0  501  0.00000000000E+00  0.00000000000E+00 -0.18200738686E+04  0.18200738686E+04  0.50400001928E-02 0. -1.
    10030    2    1    2    0    0  0.00000000000E+00  0.00000000000E+00 -0.85547076211E+03  0.27846769750E+04  0.26500180434E+04 0.  0.
        5    1    3    3  502    0 -0.94180722049E+03 -0.90018906157E+03 -0.17404339860E+03  0.13144026711E+04  0.46999998093E+01 0. -1.
       -5    1    3    3    0  502  0.94180722049E+03  0.90018906157E+03 -0.68142736351E+03  0.14702743040E+04  0.46999998093E+01 0.  1.
</event>
<event>
 5   0  0.1001573E-05  0.2978955E+04  0.7818609E-02  0.8249766E-01
       -2   -1    0    0    0  501  0.00000000000E+00  0.00000000000E+00  0.14722301818E+04  0.14722301818E+04  0.25500000920E-02 0.  1.
        2   -1    0    0  501    0  0.00000000000E+00  0.00000000000E+00 -0.15069265008E+04  0.15069265008E+04  0.25500000920E-02 0. -1.
    10030    2    1    2    0    0  0.00000000000E+00  0.00000000000E+00 -0.34696318980E+02  0.29791566825E+04  0.29789546328E+04 0.  0.
        1    1    3    3  502    0  0.42095062845E+03  0.22749513253E+03  0.13932755001E+04  0.14731497161E+04  0.50400001928E-02 0.  1.
       -1    1    3    3    0  502 -0.42095062845E+03 -0.22749513253E+03 -0.14279718190E+04  0.15060069664E+04  0.50400001928E-02 0. -1.
</event>
<event>
 5   0  0.3746518E-06  0.2822535E+04  0.7818609E-02  0.8296306E-01
       -1   -1    0    0    0  501  0.00000000000E+00  0.00000000000E+00  0.10552946967E+04  0.10552946967E+04  0.50400001928E-02 0. -1.
        1   -1    0    0  501    0  0.00000000000E+00  0.00000000000E+00 -0.18873169119E+04  0.18873169119E+04  0.50400001928E-02 0.  1.
    10030    2    1    2    0    0  0.00000000000E+00  0.00000000000E+00 -0.83202221523E+03  0.29426116086E+04  0.28225346964E+04 0.  0.
        4    1    3    3  502    0  0.11314153303E+04 -0.68652237873E+03 -0.92702728898E+03  0.16157954182E+04  0.12699999809E+01 0. -1.
       -4    1    3    3    0  502 -0.11314153303E+04  0.68652237873E+03  0.95005073756E+02  0.13268161904E+04  0.12699999809E+01 0.  1.
</event>
<event>
 5   0  0.9251510E-06  0.2856288E+04  0.7818609E-02  0.8286003E-01
       -2   -1    0    0    0  501  0.00000000000E+00  0.00000000000E+00  0.88971987834E+03  0.88971987835E+03  0.25500000920E-02 0. -1.
        2   -1    0    0  501    0  0.00000000000E+00  0.00000000000E+00 -0.22924012817E+04  0.22924012817E+04  0.25500000920E-02 0.  1.
    10030    2    1    2    0    0  0.00000000000E+00  0.00000000000E+00 -0.14026814033E+04  0.31821211600E+04  0.28562877932E+04 0.  0.
        2    1    3    3  502    0  0.10386910927E+04 -0.23064864977E+02  0.39033071257E+03  0.11098509986E+04  0.25500000920E-02 0. -1.
       -2    1    3    3    0  502 -0.10386910927E+04  0.23064864977E+02 -0.17930121159E+04  0.20722701614E+04  0.25500000920E-02 0.  1.
</event>
<event>
 5   0  0.3564340E-06  0.2819132E+04  0.7818609E-02  0.8297353E-01
       -1   -1    0    0    0  501  0.00000000000E+00  0.00000000000E+00  0.91124484912E+03  0.91124484913E+03  0.50400001928E-02 0.  1.
        1   -1    0    0  501    0  0.00000000000E+00  0.00000000000E+00 -0.21803972303E+04  0.21803972303E+04  0.50400001928E-02 0. -1.
    10030    2    1    2    0    0  0.00000000000E+00  0.00000000000E+00 -0.12691523812E+04  0.30916420794E+04  0.28191316005E+04 0.  0.
        1    1    3    3  502    0  0.26850940208E+03  0.12571567406E+04 -0.12686868089E+04  0.18061302801E+04  0.50400001928E-02 0. -1.
       -1    1    3    3    0  502 -0.26850940208E+03 -0.12571567406E+04 -0.46557225979E+00  0.12855117994E+04  0.50400001928E-02 0.  1.
</event>
<event>
 5   0  0.9505359E-06  0.2822210E+04  0.7818609E-02  0.8296406E-01
       -2   -1    0    0    0  501  0.00000000000E+00  0.00000000000E+00  0.13924937292E+04  0.13924937292E+04  0.25500000920E-02 0.  1.
        2   -1    0    0  501    0  0.00000000000E+00  0.00000000000E+00 -0.14299654856E+04  0.14299654856E+04  0.25500000920E-02 0. -1.
    10030    2    1    2    0    0  0.00000000000E+00  0.00000000000E+00 -0.37471756409E+02  0.28224592148E+04  0.28222104611E+04 0.  0.
        4    1    3    3  502    0 -0.12659926861E+04  0.14875747806E+03  0.58658608101E+03  0.14031931841E+04  0.12699999809E+01 0.  1.
       -4    1    3    3    0  502  0.12659926861E+04 -0.14875747806E+03 -0.62405783742E+03  0.14192660307E+04  0.12699999809E+01 0. -1.
</event>
<event>
 5   0  0.3746518E-06  0.2814373E+04  0.7818609E-02  0.8298820E-01
        1   -1    0    0  501    0  0.00000000000E+00  0.00000000000E+00  0.17247793214E+04  0.17247793214E+04  0.50400001928E-02 0.  1.
       -1   -1    0    0    0  501  0.00000000000E+00  0.00000000000E+00 -0.11480735793E+04  0.11480735793E+04  0.50400001928E-02 0. -1.
    10030    2    1    2    0    0  0.00000000000E+00  0.00000000000E+00  0.57670574213E+03  0.28728529008E+04  0.28143728034E+04 0.  0.
        4    1    3    3  502    0  0.12735853531E+04 -0.10244104441E+03 -0.31352442768E+03  0.13156036633E+04  0.12699999809E+01 0.  1.
       -4    1    3    3    0  502 -0.12735853531E+04  0.10244104441E+03  0.89023016982E+03  0.15572492374E+04  0.12699999809E+01 0. -1.
</event>
<event>
 5   0  0.9360689E-06  0.2818654E+04  0.7818609E-02  0.8297500E-01
        2   -1    0    0  501    0  0.00000000000E+00  0.00000000000E+00  0.35691123640E+04  0.35691123640E+04  0.25500000920E-02 0.  1.
       -2   -1    0    0    0  501  0.00000000000E+00  0.00000000000E+00 -0.55649745617E+03  0.55649745617E+03  0.25500000920E-02 0. -1.
    10030    2    1    2    0    0  0.00000000000E+00  0.00000000000E+00  0.30126149078E+04  0.41256098201E+04  0.28186535448E+04 0.  0.
        5    1    3    3  502    0  0.38940777090E+03  0.13310257002E+04  0.18734319134E+04  0.23308876101E+04  0.46999998093E+01 0.  1.
       -5    1    3    3    0  502 -0.38940777090E+03 -0.13310257002E+04  0.11391829944E+04  0.17947222101E+04  0.46999998093E+01 0. -1.
</event>
<event>
 5   0  0.3746518E-06  0.2761568E+04  0.7818609E-02  0.8315300E-01
        1   -1    0    0  501    0  0.00000000000E+00  0.00000000000E+00  0.16418482922E+04  0.16418482922E+04  0.50400001928E-02 0. -1.
       -1   -1    0    0    0  501  0.00000000000E+00  0.00000000000E+00 -0.11612305478E+04  0.11612305478E+04  0.50400001928E-02 0.  1.
    10030    2    1    2    0    0  0.00000000000E+00  0.00000000000E+00  0.48061774434E+03  0.28030788400E+04  0.27615679544E+04 0.  0.
        4    1    3    3  502    0  0.26125846723E+03 -0.67922625523E+03  0.14313863210E+04  0.16057623439E+04  0.12699999809E+01 0. -1.
       -4    1    3    3    0  502 -0.26125846723E+03  0.67922625523E+03 -0.95076857662E+03  0.11973164960E+04  0.12699999809E+01 0.  1.
</event>
<event>
 5   0  0.3486236E-06  0.2889501E+04  0.7818609E-02  0.8276008E-01
        1   -1    0    0  501    0  0.00000000000E+00  0.00000000000E+00  0.10125526785E+04  0.10125526785E+04  0.50400001928E-02 0.  1.
       -1   -1    0    0    0  501  0.00000000000E+00  0.00000000000E+00 -0.20614282457E+04  0.20614282458E+04  0.50400001928E-02 0. -1.
    10030    2    1    2    0    0  0.00000000000E+00  0.00000000000E+00 -0.10488755673E+04  0.30739809242E+04  0.28895014738E+04 0.  0.
        5    1    3    3  502    0  0.64368250015E+03  0.96203885586E+03 -0.14441785815E+04  0.18508159786E+04  0.46999998093E+01 0. -1.
       -5    1    3    3    0  502 -0.64368250015E+03 -0.96203885586E+03  0.39530301426E+03  0.12231649456E+04  0.46999998093E+01 0.  1.
</event>
<event>
 5   0  0.1001573E-05  0.2891087E+04  0.7818609E-02  0.8275534E-01
        2   -1    0    0  501    0  0.00000000000E+00  0.00000000000E+00  0.15570307731E+04  0.15570307731E+04  0.25500000920E-02 0.  1.
       -2   -1    0    0    0  501  0.00000000000E+00  0.00000000000E+00 -0.13420385769E+04  0.13420385769E+04  0.25500000920E-02 0. -1.
    10030    2    1    2    0    0  0.00000000000E+00  0.00000000000E+00  0.21499219623E+03  0.28990693499E+04  0.28910865520E+04 0.  0.
        1    1    3    3  502    0 -0.44817553356E+03 -0.71197611693E+03  0.12862520169E+04  0.15369500808E+04  0.50400001928E-02 0.  1.
       -1    1    3    3    0  502  0.44817553356E+03  0.71197611693E+03 -0.10712598207E+04  0.13621192691E+04  0.50400001928E-02 0. -1.
</event>
<event>
 5   0  0.3474078E-06  0.2785298E+04  0.7818609E-02  0.8307847E-01
       -1   -1    0    0    0  501  0.00000000000E+00  0.00000000000E+00  0.16886569599E+04  0.16886569599E+04  0.50400001928E-02 0.  1.
        1   -1    0    0  501    0  0.00000000000E+00  0.00000000000E+00 -0.11485288216E+04  0.11485288216E+04  0.50400001928E-02 0. -1.
    10030    2    1    2    0    0  0.00000000000E+00  0.00000000000E+00  0.54012813831E+03  0.28371857816E+04  0.27852979649E+04 0.  0.
        3    1    3    3  502    0 -0.11337995230E+04  0.11291474046E+03 -0.54561566124E+03  0.12633081798E+04  0.10100000352E+00 0. -1.
       -3    1    3    3    0  502  0.11337995230E+04 -0.11291474046E+03  0.10857437996E+04  0.15738776018E+04  0.10100000352E+00 0.  1.
</event>
<event>
 5   0  0.1001573E-05  0.2930942E+04  0.7818609E-02  0.8263730E-01
       -2   -1    0    0    0  501  0.00000000000E+00  0.00000000000E+00  0.16739237018E+04  0.16739237018E+04  0.25500000920E-02 0. -1.
        2   -1    0    0  501    0  0.00000000000E+00  0.00000000000E+00 -0.12829768057E+04  0.12829768057E+04  0.25500000920E-02 0.  1.
    10030    2    1    2    0    0  0.00000000000E+00  0.00000000000E+00  0.39094689603E+03  0.29569005075E+04  0.29309420219E+04 0.  0.
        1    1    3    3  502    0 -0.11792511602E+04 -0.82322620513E+03 -0.88570511012E+02  0.14408953533E+04  0.50400001928E-02 0.  1.
       -1    1    3    3    0  502  0.11792511602E+04  0.82322620513E+03  0.47951740704E+03  0.15160051542E+04  0.50400001928E-02 0. -1.
</event>
<event>
 5   0  0.3474078E-06  0.2264643E+04  0.7818609E-02  0.8491994E-01
       -1   -1    0    0    0  501  0.00000000000E+00  0.00000000000E+00  0.92462083429E+03  0.92462083430E+03  0.50400001928E-02 0. -1.
        1   -1    0    0  501    0  0.00000000000E+00  0.00000000000E+00 -0.13866781170E+04  0.13866781170E+04  0.50400001928E-02 0.  1.
    10030    2    1    2    0    0  0.00000000000E+00  0.00000000000E+00 -0.46205728274E+03  0.23112989513E+04  0.22646425568E+04 0.  0.
        3    1    3    3  502    0 -0.34737770937E+03 -0.23141065306E+03 -0.13052962540E+04  0.13704088748E+04  0.10100000352E+00 0.  1.
       -3    1    3    3    0  502  0.34737770937E+03  0.23141065306E+03  0.84323897123E+03  0.94089007653E+03  0.10100000352E+00 0. -1.
</event>
<event>
 5   0  0.3486236E-06  0.2903186E+04  0.7818609E-02  0.8271930E-01
        1   -1    0    0  501    0  0.00000000000E+00  0.00000000000E+00  0.11471450972E+04  0.11471450972E+04  0.50400001928E-02 0. -1.
       -1   -1    0    0    0  501  0.00000000000E+00  0.00000000000E+00 -0.18368396706E+04  0.18368396706E+04  0.50400001928E-02 0.  1.
    10030    2    1    2    0    0  0.00000000000E+00  0.00000000000E+00 -0.68969457339E+03  0.29839847678E+04  0.29031855763E+04 0.  0.
        5    1    3    3  502    0 -0.77423116783E+03  0.10427099352E+04  0.32159773204E+03  0.13379555678E+04  0.46999998093E+01 0. -1.
       -5    1    3    3    0  502  0.77423116783E+03 -0.10427099352E+04 -0.10112923054E+04  0.16460292000E+04  0.46999998093E+01 0.  1.
</event>
<event>
 5   0  0.9505359E-06  0.2904885E+04  0.7818609E-02  0.8271426E-01
        2   -1    0    0  501    0  0.00000000000E+00  0.00000000000E+00  0.17974858226E+04  0.17974858226E+04  0.25500000920E-02 0.  1.
       -2   -1    0    0    0  501  0.00000000000E+00  0.00000000000E+00 -0.11736329826E+04  0.11736329826E+04  0.25500000920E-02 0. -1.
    10030    2    1    2    0    0  0.00000000000E+00  0.00000000000E+00  0.62385283996E+03  0.29711188053E+04  0.29048846086E+04 0.  0.
        4    1    3    3  502    0 -0.13836133389E+03 -0.12656066969E+04  0.10269241913E+04  0.16356891751E+04  0.12699999809E+01 0.  1.
       -4    1    3    3    0  502  0.13836133389E+03  0.12656066969E+04 -0.40307135129E+03  0.13354296302E+04  0.12699999809E+01 0. -1.
</event>
<event>
 5   0  0.9251510E-06  0.2909436E+04  0.7818609E-02  0.8270075E-01
        2   -1    0    0  501    0  0.00000000000E+00  0.00000000000E+00  0.19207973829E+04  0.19207973829E+04  0.25500000920E-02 0. -1.
       -2   -1    0    0    0  501  0.00000000000E+00  0.00000000000E+00 -0.11017326104E+04  0.11017326104E+04  0.25500000920E-02 0.  1.
    10030    2    1    2    0    0  0.00000000000E+00  0.00000000000E+00  0.81906477258E+03  0.30225299933E+04  0.29094364504E+04 0.  0.
        2    1    3    3  502    0 -0.42748904415E+03 -0.12843295301E+04 -0.14405627267E+03  0.13612499530E+04  0.25500000920E-02 0.  1.
       -2    1    3    3    0  502  0.42748904415E+03  0.12843295301E+04  0.96312104524E+03  0.16612800404E+04  0.25500000920E-02 0. -1.
</event>
<event>
 5   0  0.3746518E-06  0.2891305E+04  0.7818609E-02  0.8275469E-01
        1   -1    0    0  501    0  0.00000000000E+00  0.00000000000E+00  0.15748911268E+04  0.15748911268E+04  0.50400001928E-02 0. -1.
       -1   -1    0    0    0  501  0.00000000000E+00  0.00000000000E+00 -0.13270192584E+04  0.13270192584E+04  0.50400001928E-02 0.  1.
    10030    2    1    2    0    0  0.00000000000E+00  0.00000000000E+00  0.24787186842E+03  0.29019103852E+04  0.28913047955E+04 0.  0.
        4    1    3    3  502    0 -0.50815592872E+02  0.89387332684E+03 -0.10152682518E+04  0.13536480285E+04  0.12699999809E+01 0.  1.
       -4    1    3    3    0  502  0.50815592872E+02 -0.89387332684E+03  0.12631401202E+04  0.15482623567E+04  0.12699999809E+01 0. -1.
</event>
<event>
 5   0  0.9360689E-06  0.2665178E+04  0.7818609E-02  0.8346393E-01
        2   -1    0    0  501    0  0.00000000000E+00  0.00000000000E+00  0.18380874005E+04  0.18380874005E+04  0.25500000920E-02 0.  1.
       -2   -1    0    0    0  501  0.00000000000E+00  0.00000000000E+00 -0.96610957884E+03  0.96610957885E+03  0.25500000920E-02 0. -1.
    10030    2    1    2    0    0  0.00000000000E+00  0.00000000000E+00  0.87197782168E+03  0.28041969794E+04  0.26651783013E+04 0.  0.
        5    1    3    3  502    0 -0.13181686529E+04 -0.15657562254E+03  0.31289401353E+03  0.13638215708E+04  0.46999998093E+01 0.  1.
       -5    1    3    3    0  502  0.13181686529E+04  0.15657562254E+03  0.55908380815E+03  0.14403754086E+04  0.46999998093E+01 0. -1.
</event>
<event>
 5   0  0.3564340E-06  0.2750333E+04  0.7818609E-02  0.8318856E-01
        1   -1    0    0  501    0  0.00000000000E+00  0.00000000000E+00  0.27157758106E+04  0.27157758106E+04  0.50400001928E-02 0.  1.
       -1   -1    0    0    0  501  0.00000000000E+00  0.00000000000E+00 -0.69633255940E+03  0.69633255942E+03  0.50400001928E-02 0. -1.
    10030    2    1    2    0    0  0.00000000000E+00  0.00000000000E+00  0.20194432512E+04  0.34121083700E+04  0.27503331587E+04 0.  0.
        1    1    3    3  502    0 -0.96018386885E+03  0.91837910089E+03  0.56985376844E+03  0.14457200809E+04  0.50400001928E-02 0.  1.
       -1    1    3    3    0  502  0.96018386885E+03 -0.91837910089E+03  0.14495894827E+04  0.19663882891E+04  0.50400001928E-02 0. -1.
</event>
<event>
 5   0  0.9505359E-06  0.2878844E+04  0.7818609E-02  0.8279200E-01
        2   -1    0    0  501    0  0.00000000000E+00  0.00000000000E+00  0.19715081001E+04  0.19715081001E+04  0.25500000920E-02 0.  1.
       -2   -1    0    0    0  501  0.00000000000E+00  0.00000000000E+00 -0.10509397426E+04  0.10509397426E+04  0.25500000920E-02 0. -1.
    10030    2    1    2    0    0  0.00000000000E+00  0.00000000000E+00  0.92056835750E+03  0.30224478428E+04  0.28788443622E+04 0.  0.
        4    1    3    3  502    0 -0.10895982851E+04 -0.42073592932E+03 -0.42292303037E+03  0.12422192430E+04  0.12699999809E+01 0. -1.
       -4    1    3    3    0  502  0.10895982851E+04  0.42073592932E+03  0.13434913879E+04  0.17802285998E+04  0.12699999809E+01 0.  1.
</event>
<event>
 5   0  0.3649705E-06  0.2549231E+04  0.7818609E-02  0.8385654E-01
        1   -1    0    0  501    0  0.00000000000E+00  0.00000000000E+00  0.24477368761E+04  0.24477368761E+04  0.50400001928E-02 0.  1.
       -1   -1    0    0    0  501  0.00000000000E+00  0.00000000000E+00 -0.66373326538E+03  0.66373326540E+03  0.50400001928E-02 0. -1.
    10030    2    1    2    0    0  0.00000000000E+00  0.00000000000E+00  0.17840036107E+04  0.31114701415E+04  0.25492307778E+04 0.  0.
        2    1    3    3  502    0 -0.10552954485E+04 -0.53102140523E+03  0.30790373915E+03  0.12208345216E+04  0.25500000920E-02 0. -1.
       -2    1    3    3    0  502  0.10552954485E+04  0.53102140523E+03  0.14760998715E+04  0.18906356199E+04  0.25500000920E-02 0.  1.
</event>
<event>
 5   0  0.3649705E-06  0.2843878E+04  0.7818609E-02  0.8289774E-01
       -1   -1    0    0    0  501  0.00000000000E+00  0.00000000000E+00  0.13952359940E+04  0.13952359940E+04  0.50400001928E-02 0.  1.
        1   -1    0    0  501    0  0.00000000000E+00  0.00000000000E+00 -0.14491530567E+04  0.14491530567E+04  0.50400001928E-02 0. -1.
    10030    2    1    2    0    0  0.00000000000E+00  0.00000000000E+00 -0.53917062667E+02  0.28443890508E+04  0.28438779901E+04 0.  0.
        2    1    3    3  502    0 -0.81619393783E+03  0.30610833566E+03 -0.11505640131E+04  0.14434931263E+04  0.25500000920E-02 0. -1.
       -2    1    3    3    0  502  0.81619393783E+03 -0.30610833566E+03  0.10966469504E+04  0.14008959245E+04  0.25500000920E-02 0.  1.
</event>
<event>
 5   0  0.9251510E-06  0.2930153E+04  0.7818609E-02  0.8263962E-01
        2   -1    0    0  501    0  0.00000000000E+00  0.00000000000E+00  0.13549775259E+04  0.13549775259E+04  0.25500000920E-02 0.  1.
       -2   -1    0    0    0  501  0.00000000000E+00  0.00000000000E+00 -0.15841217104E+04  0.15841217104E+04  0.25500000920E-02 0. -1.
    10030    2    1    2    0    0  0.00000000000E+00  0.00000000000E+00 -0.22914418456E+03  0.29390992363E+04  0.29301531126E+04 0.  0.
        2    1    3    3  502    0 -0.25967319472E+03 -0.39902490957E+03 -0.15043702549E+04  0.15779039611E+04  0.25500000920E-02 0. -1.
       -2    1    3    3    0  502  0.25967319472E+03  0.39902490957E+03  0.12752260704E+04  0.13611952752E+04  0.25500000920E-02 0.  1.
</event>
<event>
 5   0  0.3486236E-06  0.2928441E+04  0.7818609E-02  0.8264466E-01
        1   -1    0    0  501    0  0.00000000000E+00  0.00000000000E+00  0.16363737940E+04  0.16363737941E+04  0.50400001928E-02 0.  1.
       -1   -1    0    0    0  501  0.00000000000E+00  0.00000000000E+00 -0.13101781011E+04  0.13101781011E+04  0.50400001928E-02 0. -1.
    10030    2    1    2    0    0  0.00000000000E+00  0.00000000000E+00  0.32619569298E+03  0.29465518951E+04  0.29284406159E+04 0.  0.
        5    1    3    3  502    0  0.11058410166E+04  0.72064182132E+03  0.80082368177E+03  0.15438748809E+04  0.46999998093E+01 0.  1.
       -5    1    3    3    0  502 -0.11058410166E+04 -0.72064182132E+03 -0.47462798879E+03  0.14026770142E+04  0.46999998093E+01 0. -1.
</event>
<event>
 5   0  0.3564340E-06  0.2873030E+04  0.7818609E-02  0.8280947E-01
        1   -1    0    0  501    0  0.00000000000E+00  0.00000000000E+00  0.17579054397E+04  0.17579054397E+04  0.50400001928E-02 0. -1.
       -1   -1    0    0    0  501  0.00000000000E+00  0.00000000000E+00 -0.11738833062E+04  0.11738833062E+04  0.50400001928E-02 0.  1.
    10030    2    1    2    0    0  0.00000000000E+00  0.00000000000E+00  0.58402213353E+03  0.29317887459E+04  0.28730303511E+04 0.  0.
        1    1    3    3  502    0  0.52036288155E+03  0.42064116959E+03 -0.10051509827E+04  0.12074953499E+04  0.50400001928E-02 0.  1.
       -1    1    3    3    0  502 -0.52036288155E+03 -0.42064116959E+03  0.15891731162E+04  0.17242933960E+04  0.50400001928E-02 0. -1.
</event>
<event>
 5   0  0.3486236E-06  0.2902538E+04  0.7818609E-02  0.8272123E-01
       -1   -1    0    0    0  501  0.00000000000E+00  0.00000000000E+00  0.96507471923E+03  0.96507471924E+03  0.50400001928E-02 0.  1.
        1   -1    0    0  501    0  0.00000000000E+00  0.00000000000E+00 -0.21824029573E+04  0.21824029573E+04  0.50400001928E-02 0. -1.
    10030    2    1    2    0    0  0.00000000000E+00  0.00000000000E+00 -0.12173282381E+04  0.31474776766E+04  0.29025381453E+04 0.  0.
        5    1    3    3  502    0  0.14258802814E+04 -0.25666530918E+03 -0.51698250177E+03  0.15382797713E+04  0.46999998093E+01 0. -1.
       -5    1    3    3    0  502 -0.14258802814E+04  0.25666530918E+03 -0.70034573631E+03  0.16091979052E+04  0.46999998093E+01 0.  1.
</event>
<event>
 5   0  0.9251510E-06  0.2858980E+04  0.7818609E-02  0.8285188E-01
        2   -1    0    0  501    0  0.00000000000E+00  0.00000000000E+00  0.18654475956E+04  0.18654475956E+04  0.25500000920E-02 0.  1.
       -2   -1    0    0    0  501  0.00000000000E+00  0.00000000000E+00 -0.10954162625E+04  0.10954162625E+04  0.25500000920E-02 0. -1.
    10030    2    1    2    0    0  0.00000000000E+00  0.00000000000E+00  0.77003133303E+03  0.29608638581E+04  0.28589799811E+04 0.  0.
        2    1    3    3  502    0 -0.15576955886E+03  0.11041894384E+04  0.13112841546E+04  0.17213264088E+04  0.25500000920E-02 0.  1.
       -2    1    3    3    0  502  0.15576955886E+03 -0.11041894384E+04 -0.54125282158E+03  0.12395374493E+04  0.25500000920E-02 0. -1.
</event>
<event>
 5   0  0.9251510E-06  0.2168573E+04  0.7818609E-02  0.8531624E-01
       -2   -1    0    0    0  501  0.00000000000E+00  0.00000000000E+00  0.87589895547E+03  0.87589895547E+03  0.25500000920E-02 0.  1.
        2   -1    0    0  501    0  0.00000000000E+00  0.00000000000E+00 -0.13422516304E+04  0.13422516304E+04  0.25500000920E-02 0. -1.
    10030    2    1    2    0    0  0.00000000000E+00  0.00000000000E+00 -0.46635267498E+03  0.22181505859E+04  0.21685726191E+04 0.  0.
        2    1    3    3  502    0  0.62566717614E+02 -0.90507523762E+03 -0.84055403254E+03  0.12367727607E+04  0.25500000920E-02 0. -1.
       -2    1    3    3    0  502 -0.62566717614E+02  0.90507523762E+03  0.37420135756E+03  0.98137782526E+03  0.25500000920E-02 0.  1.
</event>
<event>
 5   0  0.3564340E-06  0.2888894E+04  0.7818609E-02  0.8276190E-01
        1   -1    0    0  501    0  0.00000000000E+00  0.00000000000E+00  0.18032974555E+04  0.18032974555E+04  0.50400001928E-02 0.  1.
       -1   -1    0    0    0  501  0.00000000000E+00  0.00000000000E+00 -0.11570064628E+04  0.11570064628E+04  0.50400001928E-02 0. -1.
    10030    2    1    2    0    0  0.00000000000E+00  0.00000000000E+00  0.64629099273E+03  0.29603039183E+04  0.28888937747E+04 0.  0.
        1    1    3    3  502    0 -0.10286138356E+04 -0.61365989577E+03 -0.50415358993E+03  0.12995367377E+04  0.50400001928E-02 0. -1.
       -1    1    3    3    0  502  0.10286138356E+04  0.61365989577E+03  0.11504445827E+04  0.16607671806E+04  0.50400001928E-02 0.  1.
</event>
<event>
 5   0  0.9646321E-06  0.2841460E+04  0.7818609E-02  0.8290511E-01
        2   -1    0    0  501    0  0.00000000000E+00  0.00000000000E+00  0.19222388358E+04  0.19222388358E+04  0.25500000920E-02 0. -1.
       -2   -1    0    0    0  501  0.00000000000E+00  0.00000000000E+00 -0.10500642997E+04  0.10500642997E+04  0.25500000920E-02 0.  1.
    10030    2    1    2    0    0  0.00000000000E+00  0.00000000000E+00  0.87217453604E+03  0.29723031355E+04  0.28414604533E+04 0.  0.
        3    1    3    3  502    0  0.12906939602E+04  0.51758095309E+02  0.10548530504E+04  0.16677184317E+04  0.10100000352E+00 0. -1.
       -3    1    3    3    0  502 -0.12906939602E+04 -0.51758095309E+02 -0.18267851437E+03  0.13045847037E+04  0.10100000352E+00 0.  1.
</event>
<event>
 5   0  0.9646321E-06  0.2109271E+04  0.7818609E-02  0.8557171E-01
        2   -1    0    0  501    0  0.00000000000E+00  0.00000000000E+00  0.15489848075E+04  0.15489848075E+04  0.25500000920E-02 0. -1.
       -2   -1    0    0    0  501  0.00000000000E+00  0.00000000000E+00 -0.71805451641E+03  0.71805451641E+03  0.25500000920E-02 0.  1.
    10030    2    1    2    0    0  0.00000000000E+00  0.00000000000E+00  0.83093029104E+03  0.22670393239E+04  0.21092705249E+04 0.  0.
        3    1    3    3  502    0 -0.13650403108E+03  0.96552911017E+03 -0.16298286687E+02  0.97526686473E+03  0.10100000352E+00 0.  1.
       -3    1    3    3    0  502  0.13650403108E+03 -0.96552911017E+03  0.84722857773E+03  0.12917724591E+04  0.10100000352E+00 0. -1.
</event>
<event>
 5   0  0.9505359E-06  0.2936786E+04  0.7818609E-02  0.8262016E-01
       -2   -1    0    0    0  501  0.00000000000E+00  0.00000000000E+00  0.73286100138E+03  0.73286100138E+03  0.25500000920E-02 0. -1.
        2   -1    0    0  501    0  0.00000000000E+00  0.00000000000E+00 -0.29421374350E+04  0.29421374350E+04  0.25500000920E-02 0.  1.
    10030    2    1    2    0    0  0.00000000000E+00  0.00000000000E+00 -0.22092764336E+04  0.36749984364E+04  0.29367858531E+04 0.  0.
        4    1    3    3  502    0  0.56859820721E+03  0.11989411769E+04 -0.31775556542E+03  0.13644537658E+04  0.12699999809E+01 0. -1.
       -4    1    3    3    0  502 -0.56859820721E+03 -0.11989411769E+04 -0.18915208682E+04  0.23105446705E+04  0.12699999809E+01 0.  1.
</event>
<event>
 5   0  0.3746518E-06  0.2797458E+04  0.7818609E-02  0.8304058E-01
       -1   -1    0    0    0  501  0.00000000000E+00  0.00000000000E+00  0.10238173795E+04  0.10238173795E+04  0.50400001928E-02 0. -1.
        1   -1    0    0  501    0  0.00000000000E+00  0.00000000000E+00 -0.19109295491E+04  0.19109295491E+04  0.50400001928E-02 0.  1.
    10030    2    1    2    0    0  0.00000000000E+00  0.00000000000E+00 -0.88711216966E+03  0.29347469286E+04  0.27974580486E+04 0.  0.
        4    1    3    3  502    0 -0.36192554178E+03  0.10533395893E+04  0.44409320379E+03  0.11990557846E+04  0.12699999809E+01 0. -1.
       -4    1    3    3    0  502  0.36192554178E+03 -0.10533395893E+04 -0.13312053735E+04  0.17356911440E+04  0.12699999809E+01 0.  1.
</event>
<event>
 5   0  0.3746518E-06  0.2179830E+04  0.7818609E-02  0.8526870E-01
        1   -1    0    0  501    0  0.00000000000E+00  0.00000000000E+00  0.13237798242E+04  0.13237798242E+04  0.50400001928E-02 0.  1.
       -1   -1    0    0    0  501  0.00000000000E+00  0.00000000000E+00 -0.89736611217E+03  0.89736611218E+03  0.50400001928E-02 0. -1.
    10030    2    1    2    0    0  0.00000000000E+00  0.00000000000E+00  0.42641371202E+03  0.22211459364E+04  0.21798304101E+04 0.  0.
        4    1    3    3  502    0  0.10787488942E+04  0.77700527096E+02  0.75829421461E+02  0.10841993649E+04  0.12699999809E+01 0. -1.
       -4    1    3    3    0  502 -0.10787488942E+04 -0.77700527096E+02  0.35058429055E+03  0.11369465715E+04  0.12699999809E+01 0.  1.
</event>
<event>
 5   0  0.9360689E-06  0.2957691E+04  0.7818609E-02  0.8255917E-01
       -2   -1    0    0    0  501  0.00000000000E+00  0.00000000000E+00  0.12602153718E+04  0.12602153718E+04  0.25500000920E-02 0.  1.
        2   -1    0    0  501    0  0.00000000000E+00  0.00000000000E+00 -0.17354051508E+04  0.17354051508E+04  0.25500000920E-02 0. -1.
    10030    2    1    2    0    0  0.00000000000E+00  0.00000000000E+00 -0.47518977898E+03  0.29956205226E+04  0.29576911585E+04 0.  0.
        5    1    3    3  502    0 -0.13450505002E+03  0.14231734609E+04 -0.62119700584E+03  0.15586603601E+04  0.46999998093E+01 0.  1.
       -5    1    3    3    0  502  0.13450505002E+03 -0.14231734609E+04  0.14600722686E+03  0.14369601624E+04  0.46999998093E+01 0. -1.
</event>
<event>
 5   0  0.3746518E-06  0.2930666E+04  0.7818609E-02  0.8263811E-01
        1   -1    0    0  501    0  0.00000000000E+00  0.00000000000E+00  0.11020597644E+04  0.11020597644E+04  0.50400001928E-02 0. -1.
       -1   -1    0    0    0  501  0.00000000000E+00  0.00000000000E+00 -0.19483530516E+04  0.19483530516E+04  0.50400001928E-02 0.  1.
    10030    2    1    2    0    0  0.00000000000E+00  0.00000000000E+00 -0.84629328717E+03  0.30504128160E+04  0.29306664805E+04 0.  0.
        4    1    3    3  502    0 -0.13829284783E+04  0.29673211518E+03 -0.82175485014E+03  0.16357945381E+04  0.12699999809E+01 0.  1.
       -4    1    3    3    0  502  0.13829284783E+04 -0.29673211518E+03 -0.24538437025E+02  0.14146182779E+04  0.12699999809E+01 0. -1.
</event>
<event>
 5   0  0.9646321E-06  0.2912595E+04  0.7818609E-02  0.8269140E-01
       -2   -1    0    0    0  501  0.00000000000E+00  0.00000000000E+00  0.86036470139E+03  0.86036470139E+03  0.25500000920E-02 0. -1.
        2   -1    0    0  501    0  0.00000000000E+00  0.00000000000E+00 -0.24650043249E+04  0.24650043249E+04  0.25500000920E-02 0.  1.
    10030    2    1    2    0    0  0.00000000000E+00  0.00000000000E+00 -0.16046396235E+04  0.33253690263E+04  0.29125952070E+04 0.  0.
        3    1    3    3  502    0  0.11553587109E+04  0.12319369165E+03  0.20003794547E+03  0.11790019620E+04  0.10100000352E+00 0. -1.
       -3    1    3    3    0  502 -0.11553587109E+04 -0.12319369165E+03 -0.18046775690E+04  0.21463670643E+04  0.10100000352E+00 0.  1.
</event>
<event>
 5   0  0.9646321E-06  0.2924368E+04  0.7818609E-02  0.8265664E-01
        2   -1    0    0  501    0  0.00000000000E+00  0.00000000000E+00  0.80672469201E+03  0.80672469202E+03  0.25500000920E-02 0. -1.
       -2   -1    0    0    0  501  0.00000000000E+00  0.00000000000E+00 -0.26502000122E+04  0.26502000122E+04  0.25500000920E-02 0.  1.
    10030    2    1    2    0    0  0.00000000000E+00  0.00000000000E+00 -0.18434753202E+04  0.34569247043E+04  0.29243678214E+04 0.  0.
        3    1    3    3  502    0 -0.10263289989E+04 -0.59551276284E+03 -0.19317295822E+04  0.22670610609E+04  0.10100000352E+00 0.  1.
       -3    1    3    3    0  502  0.10263289989E+04  0.59551276284E+03  0.88254262025E+02  0.11898636433E+04  0.10100000352E+00 0. -1.
</event>
<event>
 5   0  0.3746518E-06  0.2915897E+04  0.7818609E-02  0.8268163E-01
       -1   -1    0    0    0  501  0.00000000000E+00  0.00000000000E+00  0.14311812447E+04  0.14311812447E+04  0.50400001928E-02 0. -1.
        1   -1    0    0  501    0  0.00000000000E+00  0.00000000000E+00 -0.14852164398E+04  0.14852164398E+04  0.50400001928E-02 0.  1.
    10030    2    1    2    0    0  0.00000000000E+00  0.00000000000E+00 -0.54035195012E+02  0.29163976845E+04  0.29158970578E+04 0.  0.
        4    1    3    3  502    0 -0.61655385514E+03 -0.12563794543E+04 -0.43572489392E+03  0.14657713961E+04  0.12699999809E+01 0. -1.
       -4    1    3    3    0  502  0.61655385514E+03  0.12563794543E+04  0.38168969891E+03  0.14506262884E+04  0.12699999809E+01 0.  1.
</event>
<event>
 5   0  0.3474078E-06  0.2890817E+04  0.7818609E-02  0.8275615E-01
        1   -1    0    0  501    0  0.00000000000E+00  0.00000000000E+00  0.18960678743E+04  0.18960678743E+04  0.50400001928E-02 0. -1.
       -1   -1    0    0    0  501  0.00000000000E+00  0.00000000000E+00 -0.11018623851E+04  0.11018623851E+04  0.50400001928E-02 0.  1.
    10030    2    1    2    0    0  0.00000000000E+00  0.00000000000E+00  0.79420548922E+03  0.29979302593E+04  0.28908170957E+04 0.  0.
        3    1    3    3  502    0  0.42482832925E+03 -0.89558981030E+03  0.14880536333E+04  0.17879775847E+04  0.10100000352E+00 0. -1.
       -3    1    3    3    0  502 -0.42482832925E+03  0.89558981030E+03 -0.69384814407E+03  0.12099526746E+04  0.10100000352E+00 0.  1.
</event>
<event>
 5   0  0.3746518E-06  0.2907909E+04  0.7818609E-02  0.8270528E-01
       -1   -1    0    0    0  501  0.00000000000E+00  0.00000000000E+00  0.17097155930E+04  0.17097155931E+04  0.50400001928E-02 0.  1.
        1   -1    0    0  501    0  0.00000000000E+00  0.00000000000E+00 -0.12364536994E+04  0.12364536994E+04  0.50400001928E-02 0. -1.
    10030    2    1    2    0    0  0.00000000000E+00  0.00000000000E+00  0.47326189367E+03  0.29461692924E+04  0.29079093314E+04 0.  0.
        4    1    3    3  502    0  0.17507885207E+03 -0.14329651458E+04  0.41194181986E+03  0.15012459457E+04  0.12699999809E+01 0.  1.
       -4    1    3    3    0  502 -0.17507885207E+03  0.14329651458E+04  0.61320073812E+02  0.14449233467E+04  0.12699999809E+01 0. -1.
</event>
<event>
 5   0  0.9360689E-06  0.2902112E+04  0.7818609E-02  0.8272249E-01
       -2   -1    0    0    0  501  0.00000000000E+00  0.00000000000E+00  0.10063033530E+04  0.10063033530E+04  0.25500000920E-02 0.  1.
        2   -1    0    0  501    0  0.00000000000E+00  0.00000000000E+00 -0.20923751992E+04  0.20923751992E+04  0.25500000920E-02 0. -1.
    10030    2    1    2    0    0  0.00000000000E+00  0.00000000000E+00 -0.10860718462E+04  0.30986785523E+04  0.29021124574E+04 0.  0.
        5    1    3    3  502    0 -0.28809280981E+03 -0.62916547797E+03 -0.19048424492E+04  0.20266458773E+04  0.46999998093E+01 0. -1.
       -5    1    3    3    0  502  0.28809280981E+03  0.62916547797E+03  0.81877060304E+03  0.10720326749E+04  0.46999998093E+01 0.  1.
</event>
<event>
 5   0  0.3746518E-06  0.2800810E+04  0.7818609E-02  0.8303017E-01
        1   -1    0    0  501    0  0.00000000000E+00  0.00000000000E+00  0.23390582683E+04  0.23390582683E+04  0.50400001928E-02 0.  1.
       -1   -1    0    0    0  501  0.00000000000E+00  0.00000000000E+00 -0.83842865599E+03  0.83842865601E+03  0.50400001928E-02 0. -1.
    10030    2    1    2    0    0  0.00000000000E+00  0.00000000000E+00  0.15006296123E+04  0.31774869243E+04  0.28008095117E+04 0.  0.
        4    1    3    3  502    0 -0.12926847271E+04 -0.21119251490E+03  0.13124259814E+04  0.18542113288E+04  0.12699999809E+01 0.  1.
       -4    1    3    3    0  502  0.12926847271E+04  0.21119251490E+03  0.18820363085E+03  0.13232755955E+04  0.12699999809E+01 0. -1.
</event>
<event>
 5   0  0.3649705E-06  0.2839921E+04  0.7818609E-02  0.8290981E-01
        1   -1    0    0  501    0  0.00000000000E+00  0.00000000000E+00  0.17649813191E+04  0.17649813191E+04  0.50400001928E-02 0.  1.
       -1   -1    0    0    0  501  0.00000000000E+00  0.00000000000E+00 -0.11423846215E+04  0.11423846215E+04  0.50400001928E-02 0. -1.
    10030    2    1    2    0    0  0.00000000000E+00  0.00000000000E+00  0.62259669759E+03  0.29073659406E+04  0.28399207849E+04 0.  0.
        2    1    3    3  502    0 -0.77682644248E+03 -0.34933515276E+03 -0.85181435014E+03  0.12046086741E+04  0.25500000920E-02 0. -1.
       -2    1    3    3    0  502  0.77682644248E+03  0.34933515276E+03  0.14744110477E+04  0.17027572664E+04  0.25500000920E-02 0.  1.
</event>
<event>
 5   0  0.3486236E-06  0.2927942E+04  0.7818609E-02  0.8264612E-01
        1   -1    0    0  501    0  0.00000000000E+00  0.00000000000E+00  0.12931158833E+04  0.12931158833E+04  0.50400001928E-02 0. -1.
       -1   -1    0    0    0  501  0.00000000000E+00  0.00000000000E+00 -0.16574006241E+04  0.16574006242E+04  0.50400001928E-02 0.  1.
    10030    2    1    2    0    0  0.00000000000E+00  0.00000000000E+00 -0.36428474087E+03  0.29505165074E+04  0.29279419885E+04 0.  0.
        5    1    3    3  502    0 -0.63019717347E+03 -0.12111166949E+04 -0.71464523793E+03  0.15410035795E+04  0.46999998093E+01 0.  1.
       -5    1    3    3    0  502  0.63019717347E+03  0.12111166949E+04  0.35036049706E+03  0.14095129279E+04  0.46999998093E+01 0. -1.
</event>
<event>
 5   0  0.9251510E-06  0.2926583E+04  0.7818609E-02  0.8265012E-01
       -2   -1    0    0    0  501  0.00000000000E+00  0.00000000000E+00  0.17413946069E+04  0.17413946069E+04  0.25500000920E-02 0. -1.
        2   -1    0    0  501    0  0.00000000000E+00  0.00000000000E+00 -0.12296021031E+04  0.12296021031E+04  0.25500000920E-02 0.  1.
    10030    2    1    2    0    0  0.00000000000E+00  0.00000000000E+00  0.51179250379E+03  0.29709967100E+04  0.29265833123E+04 0.  0.
        2    1    3    3  502    0  0.10543475948E+04 -0.46759589019E+03 -0.65828507842E+03  0.13280188295E+04  0.25500000920E-02 0.  1.
       -2    1    3    3    0  502 -0.10543475948E+04  0.46759589019E+03  0.11700775822E+04  0.16429778804E+04  0.25500000920E-02 0. -1.
</event>
<event>
 5   0  0.9505359E-06  0.2931305E+04  0.7818609E-02  0.8263624E-01
       -2   -1    0    0    0  501  0.00000000000E+00  0.00000000000E+00  0.74570760968E+03  0.74570760968E+03  0.25500000920E-02 0. -1.
        2   -1    0    0  501    0  0.00000000000E+00  0.00000000000E+00 -0.28806693537E+04  0.28806693537E+04  0.25500000920E-02 0.  1.
    10030    2    1    2    0    0  0.00000000000E+00  0.00000000000E+00 -0.21349617440E+04  0.36263769634E+04  0.29313048685E+04 0.  0.
        4    1    3    3  502    0 -0.26338269550E+03  0.14194527142E+04 -0.75470955441E+03  0.16290502069E+04  0.12699999809E+01 0. -1.
       -4    1    3    3    0  502  0.26338269550E+03 -0.14194527142E+04 -0.13802521896E+04  0.19973267565E+04  0.12699999809E+01 0.  1.
</event>
<event>
 5   0  0.9646321E-06  0.2927915E+04  0.7818609E-02  0.8264620E-01
       -2   -1    0    0    0  501  0.00000000000E+00  0.00000000000E+00  0.18521663140E+04  0.18521663140E+04  0.25500000920E-02 0. -1.
        2   -1    0    0  501    0  0.00000000000E+00  0.00000000000E+00 -0.11571157676E+04  0.11571157676E+04  0.25500000920E-02 0.  1.
    10030    2    1    2    0    0  0.00000000000E+00  0.00000000000E+00  0.69505054634E+03  0.30092820816E+04  0.29279145112E+04 0.  0.
        3    1    3    3  502    0 -0.62458549034E+03 -0.82641088159E+03 -0.71568333994E+03  0.12590729261E+04  0.10100000352E+00 0.  1.
       -3    1    3    3    0  502  0.62458549034E+03  0.82641088159E+03  0.14107338863E+04  0.17502091555E+04  0.10100000352E+00 0. -1.
</event>
<event>
 5   0  0.3564340E-06  0.3000053E+04  0.7818609E-02  0.8243716E-01
       -1   -1    0    0    0  501  0.00000000000E+00  0.00000000000E+00  0.13328603130E+04  0.13328603130E+04  0.50400001928E-02 0.  1.
        1   -1    0    0  501    0  0.00000000000E+00  0.00000000000E+00 -0.16881579980E+04  0.16881579980E+04  0.50400001928E-02 0. -1.
    10030    2    1    2    0    0  0.00000000000E+00  0.00000000000E+00 -0.35529768500E+03  0.30210183111E+04  0.30000525314E+04 0.  0.
        1    1    3    3  502    0 -0.14349223986E+04  0.39209595138E+03  0.16930080116E+02  0.14876250040E+04  0.50400001928E-02 0. -1.
       -1    1    3    3    0  502  0.14349223986E+04 -0.39209595138E+03 -0.37222776512E+03  0.15333933071E+04  0.50400001928E-02 0.  1.
</event>
<event>
 5   0  0.3474078E-06  0.2821388E+04  0.7818609E-02  0.8296659E-01
       -1   -1    0    0    0  501  0.00000000000E+00  0.00000000000E+00  0.17082793604E+04  0.17082793604E+04  0.50400001928E-02 0.  1.
        1   -1    0    0  501    0  0.00000000000E+00  0.00000000000E+00 -0.11649483316E+04  0.11649483316E+04  0.50400001928E-02 0. -1.
    10030    2    1    2    0    0  0.00000000000E+00  0.00000000000E+00  0.54333102880E+03  0.28732276921E+04  0.28213877372E+04 0.  0.
        3    1    3    3  502    0  0.99389102387E+03  0.99550156572E+03  0.16382146615E+03  0.14162203987E+04  0.10100000352E+00 0.  1.
       -3    1    3    3    0  502 -0.99389102387E+03 -0.99550156572E+03  0.37950956265E+03  0.14570072934E+04  0.10100000352E+00 0. -1.
</event>
<event>
 5   0  0.3486236E-06  0.2694371E+04  0.7818609E-02  0.8336834E-01
        1   -1    0    0  501    0  0.00000000000E+00  0.00000000000E+00  0.15570730295E+04  0.15570730295E+04  0.50400001928E-02 0. -1.
       -1   -1    0    0    0  501  0.00000000000E+00  0.00000000000E+00 -0.11655903974E+04  0.11655903974E+04  0.50400001928E-02 0.  1.
    10030    2    1    2    0    0  0.00000000000E+00  0.00000000000E+00  0.39148263208E+03  0.27226634269E+04  0.26943714452E+04 0.  0.
        5    1    3    3  502    0  0.13087792781E+04  0.25991560424E+03  0.38323737471E+03  0.13882911422E+04  0.46999998093E+01 0. -1.
       -5    1    3    3    0  502 -0.13087792781E+04 -0.25991560424E+03  0.82452573699E+01  0.13343722847E+04  0.46999998093E+01 0.  1.
</event>
<event>
 5   0  0.3486236E-06  0.3107749E+04  0.7818609E-02  0.8213614E-01
       -1   -1    0    0    0  501  0.00000000000E+00  0.00000000000E+00  0.28678371718E+04  0.28678371718E+04  0.50400001928E-02 0.  1.
        1   -1    0    0  501    0  0.00000000000E+00  0.00000000000E+00 -0.84193298872E+03  0.84193298874E+03  0.50400001928E-02 0. -1.
    10030    2    1    2    0    0  0.00000000000E+00  0.00000000000E+00  0.20259041831E+04  0.37097701605E+04  0.31077494888E+04 0.  0.
        5    1    3    3  502    0 -0.64665866622E+03 -0.79901507376E+03  0.24039831635E+04  0.26145266606E+04  0.46999998093E+01 0.  1.
       -5    1    3    3    0  502  0.64665866622E+03  0.79901507376E+03 -0.37807898042E+03  0.10952434999E+04  0.46999998093E+01 0. -1.
</event>
<event>
 5   0  0.9251510E-06  0.2905581E+04  0.7818609E-02  0.8271219E-01
       -2   -1    0    0    0  501  0.00000000000E+00  0.00000000000E+00  0.14293675573E+04  0.14293675573E+04  0.25500000920E-02 0. -1.
        2   -1    0    0  501    0  0.00000000000E+00  0.00000000000E+00 -0.14765975895E+04  0.14765975895E+04  0.25500000920E-02 0.  1.
    10030    2    1    2    0    0  0.00000000000E+00  0.00000000000E+00 -0.47230032279E+02  0.29059651468E+04  0.29055813116E+04 0.  0.
        2    1    3    3  502    0 -0.12251400688E+04 -0.41179746001E+03 -0.68706932961E+03  0.14637655550E+04  0.25500000920E-02 0.  1.
       -2    1    3    3    0  502  0.12251400688E+04  0.41179746001E+03  0.63983929733E+03  0.14421995918E+04  0.25500000920E-02 0. -1.
</event>
<event>
 5   0  0.9251510E-06  0.2917284E+04  0.7818609E-02  0.8267753E-01
        2   -1    0    0  501    0  0.00000000000E+00  0.00000000000E+00  0.18643813899E+04  0.18643813899E+04  0.25500000920E-02 0. -1.
       -2   -1    0    0    0  501  0.00000000000E+00  0.00000000000E+00 -0.11412025691E+04  0.11412025691E+04  0.25500000920E-02 0.  1.
    10030    2    1    2    0    0  0.00000000000E+00  0.00000000000E+00  0.72317882079E+03  0.30055839590E+04  0.29172842384E+04 0.  0.
        2    1    3    3  502    0  0.13079345981E+04  0.37312301907E+03 -0.18135597395E+03  0.13721529396E+04  0.25500000920E-02 0.  1.
       -2    1    3    3    0  502 -0.13079345981E+04 -0.37312301907E+03  0.90453479474E+03  0.16334310194E+04  0.25500000920E-02 0. -1.
</event>
<event>
 5   0  0.3474078E-06  0.2916455E+04  0.7818609E-02  0.8267999E-01
       -1   -1    0    0    0  501  0.00000000000E+00  0.00000000000E+00  0.10929068330E+04  0.10929068330E+04  0.50400001928E-02 0.  1.
        1   -1    0    0  501    0  0.00000000000E+00  0.00000000000E+00 -0.19456615006E+04  0.19456615006E+04  0.50400001928E-02 0. -1.
    10030    2    1    2    0    0  0.00000000000E+00  0.00000000000E+00 -0.85275466756E+03  0.30385683336E+04  0.29164545247E+04 0.  0.
        3    1    3    3  502    0  0.15838724713E+02 -0.11202261658E+04  0.54612349937E+03  0.12463580603E+04  0.10100000352E+00 0.  1.
       -3    1    3    3    0  502 -0.15838724713E+02  0.11202261658E+04 -0.13988781669E+04  0.17922102733E+04  0.10100000352E+00 0. -1.
</event>
<event>
 5   0  0.3564340E-06  0.2927083E+04  0.7818609E-02  0.8264865E-01
        1   -1    0    0  501    0  0.00000000000E+00  0.00000000000E+00  0.25724517903E+04  0.25724517903E+04  0.50400001928E-02 0. -1.
       -1   -1    0    0    0  501  0.00000000000E+00  0.00000000000E+00 -0.83265091121E+03  0.83265091122E+03  0.50400001928E-02 0.  1.
    10030    2    1    2    0    0  0.00000000000E+00  0.00000000000E+00  0.17398008791E+04  0.34051027015E+04  0.29270834134E+04 0.  0.
        1    1    3    3  502    0  0.10700868873E+04 -0.17635587199E+03 -0.27332345852E+03  0.11184333029E+04  0.50400001928E-02 0.  1.
       -1    1    3    3    0  502 -0.10700868873E+04  0.17635587199E+03  0.20131243376E+04  0.22866693986E+04  0.50400001928E-02 0. -1.
</event>
<event>
 5   0  0.1001573E-05  0.2920142E+04  0.7818609E-02  0.8266910E-01
        2   -1    0    0  501    0  0.00000000000E+00  0.00000000000E+00  0.18084586452E+04  0.18084586452E+04  0.25500000920E-02 0.  1.
       -2   -1    0    0    0  501  0.00000000000E+00  0.00000000000E+00 -0.11787982560E+04  0.11787982560E+04  0.25500000920E-02 0. -1.
    10030    2    1    2    0    0  0.00000000000E+00  0.00000000000E+00  0.62966038919E+03  0.29872569013E+04  0.29201423918E+04 0.  0.
        1    1    3    3  502    0  0.12765259008E+03 -0.12955218590E+04  0.99118837127E+03  0.16361926715E+04  0.50400001928E-02 0.  1.
       -1    1    3    3    0  502 -0.12765259008E+03  0.12955218590E+04 -0.36152798208E+03  0.13510642297E+04  0.50400001928E-02 0. -1.
</event>
<event>
 5   0  0.9360689E-06  0.2881625E+04  0.7818609E-02  0.8278366E-01
       -2   -1    0    0    0  501  0.00000000000E+00  0.00000000000E+00  0.28958784174E+04  0.28958784174E+04  0.25500000920E-02 0.  1.
        2   -1    0    0  501    0  0.00000000000E+00  0.00000000000E+00 -0.71686035174E+03  0.71686035174E+03  0.25500000920E-02 0. -1.
    10030    2    1    2    0    0  0.00000000000E+00  0.00000000000E+00  0.21790180656E+04  0.36127387691E+04  0.28816248339E+04 0.  0.
        5    1    3    3  502    0 -0.79749345963E+03  0.11855710899E+04  0.85716972846E+03  0.16662342755E+04  0.46999998093E+01 0. -1.
       -5    1    3    3    0  502  0.79749345963E+03 -0.11855710899E+04  0.13218483372E+04  0.19465044936E+04  0.46999998093E+01 0.  1.
</event>
<event>
 5   0  0.3649705E-06  0.2701818E+04  0.7818609E-02  0.8334415E-01
        1   -1    0    0  501    0  0.00000000000E+00  0.00000000000E+00  0.29321703233E+04  0.29321703233E+04  0.50400001928E-02 0. -1.
       -1   -1    0    0    0  501  0.00000000000E+00  0.00000000000E+00 -0.62239077634E+03  0.62239077636E+03  0.50400001928E-02 0.  1.
    10030    2    1    2    0    0  0.00000000000E+00  0.00000000000E+00  0.23097795470E+04  0.35545610997E+04  0.27018184720E+04 0.  0.
        2    1    3    3  502    0 -0.47245374728E+03  0.62130159913E+03 -0.29571113552E+03  0.83466957299E+03  0.25500000920E-02 0. -1.
       -2    1    3    3    0  502  0.47245374728E+03 -0.62130159913E+03  0.26054906825E+04  0.27198915267E+04  0.25500000920E-02 0.  1.
</event>
<event>
 5   0  0.3649705E-06  0.2910621E+04  0.7818609E-02  0.8269725E-01
       -1   -1    0    0    0  501  0.00000000000E+00  0.00000000000E+00  0.15347699844E+04  0.15347699844E+04  0.50400001928E-02 0. -1.
        1   -1    0    0  501    0  0.00000000000E+00  0.00000000000E+00 -0.13799643943E+04  0.13799643943E+04  0.50400001928E-02 0.  1.
    10030    2    1    2    0    0  0.00000000000E+00  0.00000000000E+00  0.15480559006E+03  0.29147343787E+04  0.29106205056E+04 0.  0.
        2    1    3    3  502    0  0.56004898662E+03  0.37758720293E+03  0.13682945748E+04  0.15259282442E+04  0.25500000920E-02 0. -1.
       -2    1    3    3    0  502 -0.56004898662E+03 -0.37758720293E+03 -0.12134889847E+04  0.13888061345E+04  0.25500000920E-02 0.  1.
</event>
<event>
 5   0  0.3474078E-06  0.2843840E+04  0.7818609E-02  0.8289786E-01
       -1   -1    0    0    0  501  0.00000000000E+00  0.00000000000E+00  0.11366645391E+04  0.11366645391E+04  0.50400001928E-02 0. -1.
        1   -1    0    0  501    0  0.00000000000E+00  0.00000000000E+00 -0.17787625363E+04  0.17787625363E+04  0.50400001928E-02 0.  1.
    10030    2    1    2    0    0  0.00000000000E+00  0.00000000000E+00 -0.64209799724E+03  0.29154270754E+04  0.28438398678E+04 0.  0.
        3    1    3    3  502    0  0.45017764667E+03 -0.13486229854E+04 -0.34186828708E+03  0.14622988088E+04  0.10100000352E+00 0.  1.
       -3    1    3    3    0  502 -0.45017764667E+03  0.13486229854E+04 -0.30022971016E+03  0.14531282666E+04  0.10100000352E+00 0. -1.
</event>
<event>
 5   0  0.9646321E-06  0.2853906E+04  0.7818609E-02  0.8286726E-01
       -2   -1    0    0    0  501  0.00000000000E+00  0.00000000000E+00  0.78117904712E+03  0.78117904712E+03  0.25500000920E-02 0.  1.
        2   -1    0    0  501    0  0.00000000000E+00  0.00000000000E+00 -0.26065653425E+04  0.26065653425E+04  0.25500000920E-02 0. -1.
    10030    2    1    2    0    0  0.00000000000E+00  0.00000000000E+00 -0.18253862954E+04  0.33877443896E+04  0.28539055559E+04 0.  0.
        3    1    3    3  502    0  0.10500074407E+04 -0.95930863542E+02  0.22865680837E+03  0.10788893837E+04  0.10100000352E+00 0. -1.
       -3    1    3    3    0  502 -0.10500074407E+04  0.95930863542E+02 -0.20540431038E+04  0.23088550059E+04  0.10100000352E+00 0.  1.
</event>
<event>
 5   0  0.3486236E-06  0.2801988E+04  0.7818609E-02  0.8302651E-01
        1   -1    0    0  501    0  0.00000000000E+00  0.00000000000E+00  0.16644081343E+04  0.16644081343E+04  0.50400001928E-02 0.  1.
       -1   -1    0    0    0  501  0.00000000000E+00  0.00000000000E+00 -0.11792686020E+04  0.11792686020E+04  0.50400001928E-02 0. -1.
    10030    2    1    2    0    0  0.00000000000E+00  0.00000000000E+00  0.48513953234E+03  0.28436767363E+04  0.28019880469E+04 0.  0.
        5    1    3    3  502    0 -0.35480478057E+03  0.10144970910E+03 -0.11290499976E+04  0.11878360421E+04  0.46999998093E+01 0. -1.
       -5    1    3    3    0  502  0.35480478057E+03 -0.10144970910E+03  0.16141895300E+04  0.16558406942E+04  0.46999998093E+01 0.  1.
</event>
<event>
 5   0  0.3649705E-06  0.2896626E+04  0.7818609E-02  0.8273882E-01
       -1   -1    0    0    0  501  0.00000000000E+00  0.00000000000E+00  0.74667830497E+03  0.74667830499E+03  0.50400001928E-02 0. -1.
        1   -1    0    0  501    0  0.00000000000E+00  0.00000000000E+00 -0.28092555757E+04  0.28092555757E+04  0.50400001928E-02 0.  1.
    10030    2    1    2    0    0  0.00000000000E+00  0.00000000000E+00 -0.20625772707E+04  0.35559338807E+04  0.28966257553E+04 0.  0.
        2    1    3    3  502    0  0.12611125623E+04 -0.30793078214E+03 -0.24295118984E+03  0.13207011555E+04  0.25500000920E-02 0. -1.
       -2    1    3    3    0  502 -0.12611125623E+04  0.30793078214E+03 -0.18196260808E+04  0.22352327251E+04  0.25500000920E-02 0.  1.
</event>
<event>
 5   0  0.9646321E-06  0.2906257E+04  0.7818609E-02  0.8271018E-01
       -2   -1    0    0    0  501  0.00000000000E+00  0.00000000000E+00  0.87832550280E+03  0.87832550281E+03  0.25500000920E-02 0. -1.
        2   -1    0    0  501    0  0.00000000000E+00  0.00000000000E+00 -0.24041004890E+04  0.24041004890E+04  0.25500000920E-02 0.  1.
    10030    2    1    2    0    0  0.00000000000E+00  0.00000000000E+00 -0.15257749862E+04  0.32824259918E+04  0.29062572293E+04 0.  0.
        3    1    3    3  502    0  0.54699350703E+02  0.44550651070E+03 -0.23238433253E+04  0.23667944315E+04  0.10100000352E+00 0.  1.
       -3    1    3    3    0  502 -0.54699350703E+02 -0.44550651070E+03  0.79806833916E+03  0.91563156030E+03  0.10100000352E+00 0. -1.
</event>
<event>
 5   0  0.9360689E-06  0.2737171E+04  0.7818609E-02  0.8323044E-01
       -2   -1    0    0    0  501  0.00000000000E+00  0.00000000000E+00  0.86596026056E+03  0.86596026057E+03  0.25500000920E-02 0.  1.
        2   -1    0    0  501    0  0.00000000000E+00  0.00000000000E+00 -0.21629467465E+04  0.21629467465E+04  0.25500000920E-02 0. -1.
    10030    2    1    2    0    0  0.00000000000E+00  0.00000000000E+00 -0.12969864859E+04  0.30289070071E+04  0.27371707497E+04 0.  0.
        5    1    3    3  502    0  0.14968871013E+03  0.10812241283E+04  0.26505900913E+03  0.11232678638E+04  0.46999998093E+01 0.  1.
       -5    1    3    3    0  502 -0.14968871013E+03 -0.10812241283E+04 -0.15620454951E+04  0.19056391432E+04  0.46999998093E+01 0. -1.
</event>
<event>
 5   0  0.9360689E-06  0.2894907E+04  0.7818609E-02  0.8274394E-01
        2   -1    0    0  501    0  0.00000000000E+00  0.00000000000E+00  0.11398695338E+04  0.11398695338E+04  0.25500000920E-02 0.  1.
       -2   -1    0    0    0  501  0.00000000000E+00  0.00000000000E+00 -0.18380364407E+04  0.18380364407E+04  0.25500000920E-02 0. -1.
    10030    2    1    2    0    0  0.00000000000E+00  0.00000000000E+00 -0.69816690687E+03  0.29779059744E+04  0.28949070733E+04 0.  0.
        5    1    3    3  502    0  0.72610008750E+03 -0.22934195441E+03 -0.16153434371E+04  0.17858263015E+04  0.46999998093E+01 0. -1.
       -5    1    3    3    0  502 -0.72610008750E+03  0.22934195441E+03  0.91717653025E+03  0.11920796730E+04  0.46999998093E+01 0.  1.
</event>
<event>
 5   0  0.9360689E-06  0.2966860E+04  0.7818609E-02  0.8253258E-01
        2   -1    0    0  501    0  0.00000000000E+00  0.00000000000E+00  0.21404672695E+04  0.21404672695E+04  0.25500000920E-02 0. -1.
       -2   -1    0    0    0  501  0.00000000000E+00  0.00000000000E+00 -0.10280764266E+04  0.10280764266E+04  0.25500000920E-02 0.  1.
    10030    2    1    2    0    0  0.00000000000E+00  0.00000000000E+00  0.11123908429E+04  0.31685436961E+04  0.29668595798E+04 0.  0.
        5    1    3    3  502    0 -0.61698886190E+03 -0.10519799989E+04 -0.34572828111E+03  0.12676305882E+04  0.46999998093E+01 0.  1.
       -5    1    3    3    0  502  0.61698886190E+03  0.10519799989E+04  0.14581191240E+04  0.19009131078E+04  0.46999998093E+01 0. -1.
</event>
<event>
 5   0  0.9251510E-06  0.2883536E+04  0.7818609E-02  0.8277793E-01
       -2   -1    0    0    0  501  0.00000000000E+00  0.00000000000E+00  0.25562799527E+04  0.25562799527E+04  0.25500000920E-02 0.  1.
        2   -1    0    0  501    0  0.00000000000E+00  0.00000000000E+00 -0.81317184736E+03  0.81317184737E+03  0.25500000920E-02 0. -1.
    10030    2    1    2    0    0  0.00000000000E+00  0.00000000000E+00  0.17431081053E+04  0.33694518000E+04  0.28835359484E+04 0.  0.
        2    1    3    3  502    0  0.10892182276E+04  0.93441094339E+03  0.70974659235E+03  0.16010185457E+04  0.25500000920E-02 0. -1.
       -2    1    3    3    0  502 -0.10892182276E+04 -0.93441094339E+03  0.10333615130E+04  0.17684332543E+04  0.25500000920E-02 0.  1.
</event>
<event>
 5   0  0.9505359E-06  0.2909529E+04  0.7818609E-02  0.8270048E-01
        2   -1    0    0  501    0  0.00000000000E+00  0.00000000000E+00  0.13938245745E+04  0.13938245746E+04  0.25500000920E-02 0.  1.
       -2   -1    0    0    0  501  0.00000000000E+00  0.00000000000E+00 -0.15183688294E+04  0.15183688294E+04  0.25500000920E-02 0. -1.
    10030    2    1    2    0    0  0.00000000000E+00  0.00000000000E+00 -0.12454425486E+03  0.29121934040E+04  0.29095290256E+04 0.  0.
        4    1    3    3  502    0  0.89754020688E+03  0.73027217446E+03 -0.94481780046E+03  0.14938400720E+04  0.12699999809E+01 0. -1.
       -4    1    3    3    0  502 -0.89754020688E+03 -0.73027217446E+03  0.82027354560E+03  0.14183533320E+04  0.12699999809E+01 0.  1.
</event>
<event>
 5   0  0.9646321E-06  0.2938294E+04  0.7818609E-02  0.8261574E-01
        2   -1    0    0  501    0  0.00000000000E+00  0.00000000000E+00  0.13340990561E+04  0.13340990561E+04  0.25500000920E-02 0.  1.
       -2   -1    0    0    0  501  0.00000000000E+00  0.00000000000E+00 -0.16178653109E+04  0.16178653109E+04  0.25500000920E-02 0. -1.
    10030    2    1    2    0    0  0.00000000000E+00  0.00000000000E+00 -0.28376625477E+03  0.29519643670E+04  0.29382937799E+04 0.  0.
        3    1    3    3  502    0 -0.11642278989E+04 -0.16650260452E+03  0.74269211786E+03  0.13909497871E+04  0.10100000352E+00 0.  1.
       -3    1    3    3    0  502  0.11642278989E+04  0.16650260452E+03 -0.10264583726E+04  0.15610145800E+04  0.10100000352E+00 0. -1.
</event>
<event>
 5   0  0.9360689E-06  0.2987391E+04  0.7818609E-02  0.8247341E-01
       -2   -1    0    0    0  501  0.00000000000E+00  0.00000000000E+00  0.12351130950E+04  0.12351130950E+04  0.25500000920E-02 0.  1.
        2   -1    0    0  501    0  0.00000000000E+00  0.00000000000E+00 -0.18064140453E+04  0.18064140453E+04  0.25500000920E-02 0. -1.
    10030    2    1    2    0    0  0.00000000000E+00  0.00000000000E+00 -0.57130095032E+03  0.30415271404E+04  0.29873905954E+04 0.  0.
        5    1    3    3  502    0 -0.69385296950E+03  0.73414694686E+03  0.83460721660E+03  0.13103415505E+04  0.46999998093E+01 0.  1.
       -5    1    3    3    0  502  0.69385296950E+03 -0.73414694686E+03 -0.14059081669E+04  0.17311855899E+04  0.46999998093E+01 0. -1.
</event>
<event>
 5   0  0.9505359E-06  0.3115826E+04  0.7818609E-02  0.8211408E-01
       -2   -1    0    0    0  501  0.00000000000E+00  0.00000000000E+00  0.12131929845E+04  0.12131929845E+04  0.25500000920E-02 0.  1.
        2   -1    0    0  501    0  0.00000000000E+00  0.00000000000E+00 -0.20005822890E+04  0.20005822890E+04  0.25500000920E-02 0. -1.
    10030    2    1    2    0    0  0.00000000000E+00  0.00000000000E+00 -0.78738930443E+03  0.32137752735E+04  0.31158256678E+04 0.  0.
        4    1    3    3  502    0 -0.13850209246E+04 -0.61283298587E+03 -0.77019506765E+03  0.16991319211E+04  0.12699999809E+01 0. -1.
       -4    1    3    3    0  502  0.13850209246E+04  0.61283298587E+03 -0.17194236779E+02  0.15146433524E+04  0.12699999809E+01 0.  1.
</event>
<event>
 5   0  0.3188375E-06  0.2916992E+04  0.7818609E-02  0.8267840E-01
       -3   -1    0    0    0  501  0.00000000000E+00  0.00000000000E+00  0.81767015951E+03  0.81767016575E+03  0.10100000352E+00 0.  1.
        3   -1    0    0  501    0  0.00000000000E+00  0.00000000000E+00 -0.26015514470E+04  0.26015514489E+04  0.10100000352E+00 0. -1.
    10030    2    1    2    0    0  0.00000000000E+00  0.00000000000E+00 -0.17838812875E+04  0.34192216147E+04  0.29169922870E+04 0.  0.
        3    1    3    3  502    0  0.43519651693E+03 -0.77635847048E+03 -0.22463377659E+04  0.24162288492E+04  0.10100000352E+00 0. -1.
       -3    1    3    3    0  502 -0.43519651693E+03  0.77635847048E+03  0.46245647840E+03  0.10029927655E+04  0.10100000352E+00 0.  1.
</event>
<event>
 5   0  0.1001573E-05  0.2892129E+04  0.7818609E-02  0.8275223E-01
       -2   -1    0    0    0  501  0.00000000000E+00  0.00000000000E+00  0.10592182356E+04  0.10592182356E+04  0.25500000920E-02 0. -1.
        2   -1    0    0  501    0  0.00000000000E+00  0.00000000000E+00 -0.19741946175E+04  0.19741946175E+04  0.25500000920E-02 0.  1.
    10030    2    1    2    0    0  0.00000000000E+00  0.00000000000E+00 -0.91497638196E+03  0.30334128531E+04  0.28921292775E+04 0.  0.
        1    1    3    3  502    0  0.60784195474E+02 -0.42508310857E+03  0.99080482276E+03  0.10798539551E+04  0.50400001928E-02 0. -1.
       -1    1    3    3    0  502 -0.60784195474E+02  0.42508310857E+03 -0.19057812047E+04  0.19535588980E+04  0.50400001928E-02 0.  1.
</event>
<event>
 5   0  0.3649705E-06  0.2878568E+04  0.7818609E-02  0.8279283E-01
        1   -1    0    0  501    0  0.00000000000E+00  0.00000000000E+00  0.19735313630E+04  0.19735313630E+04  0.50400001928E-02 0.  1.
       -1   -1    0    0    0  501  0.00000000000E+00  0.00000000000E+00 -0.10496604509E+04  0.10496604509E+04  0.50400001928E-02 0. -1.
    10030    2    1    2    0    0  0.00000000000E+00  0.00000000000E+00  0.92387091208E+03  0.30231918139E+04  0.28785675746E+04 0.  0.
        2    1    3    3  502    0 -0.10657334892E+04  0.38376107844E+03 -0.47063981396E+03  0.12266059962E+04  0.25500000920E-02 0. -1.
       -2    1    3    3    0  502  0.10657334892E+04 -0.38376107844E+03  0.13945107260E+04  0.17965858177E+04  0.25500000920E-02 0.  1.
</event>
<event>
 5   0  0.9646321E-06  0.2881544E+04  0.7818609E-02  0.8278390E-01
       -2   -1    0    0    0  501  0.00000000000E+00  0.00000000000E+00  0.81698507912E+03  0.81698507913E+03  0.25500000920E-02 0. -1.
        2   -1    0    0  501    0  0.00000000000E+00  0.00000000000E+00 -0.25408342823E+04  0.25408342823E+04  0.25500000920E-02 0.  1.
    10030    2    1    2    0    0  0.00000000000E+00  0.00000000000E+00 -0.17238492032E+04  0.33578193614E+04  0.28815438204E+04 0.  0.
        3    1    3    3  502    0  0.27648966527E+03 -0.68176170520E+03  0.58160802013E+03  0.93782378780E+03  0.10100000352E+00 0. -1.
       -3    1    3    3    0  502 -0.27648966527E+03  0.68176170520E+03 -0.23054572233E+04  0.24199955736E+04  0.10100000352E+00 0.  1.
</event>
<event>
 5   0  0.3746518E-06  0.2828997E+04  0.7818609E-02  0.8294322E-01
       -1   -1    0    0    0  501  0.00000000000E+00  0.00000000000E+00  0.17352277601E+04  0.17352277601E+04  0.50400001928E-02 0.  1.
        1   -1    0    0  501    0  0.00000000000E+00  0.00000000000E+00 -0.11530509929E+04  0.11530509929E+04  0.50400001928E-02 0. -1.
    10030    2    1    2    0    0  0.00000000000E+00  0.00000000000E+00  0.58217676720E+03  0.28882787530E+04  0.28289970602E+04 0.  0.
        4    1    3    3  502    0 -0.12510806206E+04 -0.62234108227E+03  0.51545085586E+03  0.14893630651E+04  0.12699999809E+01 0. -1.
       -4    1    3    3    0  502  0.12510806206E+04  0.62234108227E+03  0.66725911344E+02  0.13989156880E+04  0.12699999809E+01 0.  1.
</event>
<event>
 5   0  0.3564340E-06  0.2883404E+04  0.7818609E-02  0.8277832E-01
        1   -1    0    0  501    0  0.00000000000E+00  0.00000000000E+00  0.13740749089E+04  0.13740749089E+04  0.50400001928E-02 0. -1.
       -1   -1    0    0    0  501  0.00000000000E+00  0.00000000000E+00 -0.15126572708E+04  0.15126572708E+04  0.50400001928E-02 0.  1.
    10030    2    1    2    0    0  0.00000000000E+00  0.00000000000E+00 -0.13858236182E+03  0.28867321797E+04  0.28834038230E+04 0.  0.
        1    1    3    3  502    0 -0.82867431917E+03 -0.75587309185E+03 -0.97612874816E+03  0.14869003300E+04  0.50400001928E-02 0. -1.
       -1    1    3    3    0  502  0.82867431917E+03  0.75587309185E+03  0.83754638634E+03  0.13998318497E+04  0.50400001928E-02 0.  1.
</event>
<event>
 5   0  0.3486236E-06  0.2797764E+04  0.7818609E-02  0.8303963E-01
        1   -1    0    0  501    0  0.00000000000E+00  0.00000000000E+00  0.19985674750E+04  0.19985674750E+04  0.50400001928E-02 0.  1.
       -1   -1    0    0    0  501  0.00000000000E+00  0.00000000000E+00 -0.97913644945E+03  0.97913644946E+03  0.50400001928E-02 0. -1.
    10030    2    1    2    0    0  0.00000000000E+00  0.00000000000E+00  0.10194310256E+04  0.29777039245E+04  0.27977635794E+04 0.  0.
        5    1    3    3  502    0 -0.41642801665E+03  0.12263232167E+04  0.10724631051E+04  0.16815112627E+04  0.46999998093E+01 0.  1.
       -5    1    3    3    0  502  0.41642801665E+03 -0.12263232167E+04 -0.53032079501E+02  0.12961926618E+04  0.46999998093E+01 0. -1.
</event>
<event>
 5   0  0.9505359E-06  0.2868396E+04  0.7818609E-02  0.8282343E-01
       -2   -1    0    0    0  501  0.00000000000E+00  0.00000000000E+00  0.12799566482E+04  0.12799566482E+04  0.25500000920E-02 0. -1.
        2   -1    0    0  501    0  0.00000000000E+00  0.00000000000E+00 -0.16070260172E+04  0.16070260172E+04  0.25500000920E-02 0.  1.
    10030    2    1    2    0    0  0.00000000000E+00  0.00000000000E+00 -0.32706936899E+03  0.28869826655E+04  0.28683958127E+04 0.  0.
        4    1    3    3  502    0 -0.37498818889E+03 -0.13834706174E+04 -0.21196018108E+03  0.14489775093E+04  0.12699999809E+01 0.  1.
       -4    1    3    3    0  502  0.37498818889E+03  0.13834706174E+04 -0.11510918792E+03  0.14380051562E+04  0.12699999809E+01 0. -1.
</event>
<event>
 5   0  0.3649705E-06  0.2869164E+04  0.7818609E-02  0.8282112E-01
        1   -1    0    0  501    0  0.00000000000E+00  0.00000000000E+00  0.11219378763E+04  0.11219378763E+04  0.50400001928E-02 0.  1.
       -1   -1    0    0    0  501  0.00000000000E+00  0.00000000000E+00 -0.18343488666E+04  0.18343488666E+04  0.50400001928E-02 0. -1.
    10030    2    1    2    0    0  0.00000000000E+00  0.00000000000E+00 -0.71241099033E+03  0.29562867429E+04  0.28691639700E+04 0.  0.
        2    1    3    3  502    0  0.35556182457E+03  0.52853815145E+03 -0.16806351446E+04  0.17973066733E+04  0.25500000920E-02 0. -1.
       -2    1    3    3    0  502 -0.35556182457E+03 -0.52853815145E+03  0.96822415429E+03  0.11589800695E+04  0.25500000920E-02 0.  1.
</event>
<event>
 5   0  0.9251510E-06  0.2891407E+04  0.7818609E-02  0.8275439E-01
        2   -1    0    0  501    0  0.00000000000E+00  0.00000000000E+00  0.20559587201E+04  0.20559587201E+04  0.25500000920E-02 0.  1.
       -2   -1    0    0    0  501  0.00000000000E+00  0.00000000000E+00 -0.10165861590E+04  0.10165861590E+04  0.25500000920E-02 0. -1.
    10030    2    1    2    0    0  0.00000000000E+00  0.00000000000E+00  0.10393725611E+04  0.30725448792E+04  0.28914073933E+04 0.  0.
        2    1    3    3  502    0  0.45154307487E+03 -0.13375415756E+04  0.85090251086E+03  0.16483154121E+04  0.25500000920E-02 0.  1.
       -2    1    3    3    0  502 -0.45154307487E+03  0.13375415756E+04  0.18847005023E+03  0.14242294670E+04  0.25500000920E-02 0. -1.
</event>
<event>
 5   0  0.1001573E-05  0.2905951E+04  0.7818609E-02  0.8271109E-01
        2   -1    0    0  501    0  0.00000000000E+00  0.00000000000E+00  0.12108474948E+04  0.12108474948E+04  0.25500000920E-02 0.  1.
       -2   -1    0    0    0  501  0.00000000000E+00  0.00000000000E+00 -0.17435211387E+04  0.17435211387E+04  0.25500000920E-02 0. -1.
    10030    2    1    2    0    0  0.00000000000E+00  0.00000000000E+00 -0.53267364388E+03  0.29543686335E+04  0.29059512748E+04 0.  0.
        1    1    3    3  502    0  0.13804913606E+04  0.13895332772E+03  0.17221300562E+03  0.13981136375E+04  0.50400001928E-02 0.  1.
       -1    1    3    3    0  502 -0.13804913606E+04 -0.13895332772E+03 -0.70488664950E+03  0.15562549960E+04  0.50400001928E-02 0. -1.
</event>
<event>
 5   0  0.9360689E-06  0.2864976E+04  0.7818609E-02  0.8283375E-01
        2   -1    0    0  501    0  0.00000000000E+00  0.00000000000E+00  0.18903163770E+04  0.18903163770E+04  0.25500000920E-02 0. -1.
       -2   -1    0    0    0  501  0.00000000000E+00  0.00000000000E+00 -0.10855438784E+04  0.10855438784E+04  0.25500000920E-02 0.  1.
    10030    2    1    2    0    0  0.00000000000E+00  0.00000000000E+00  0.80477249859E+03  0.29758602554E+04  0.28649756518E+04 0.  0.
        5    1    3    3  502    0 -0.41745619030E+03 -0.12968440930E+04 -0.57379415853E+02  0.13635940597E+04  0.46999998093E+01 0.  1.
       -5    1    3    3    0  502  0.41745619030E+03  0.12968440930E+04  0.86215191445E+03  0.16122661957E+04  0.46999998093E+01 0. -1.
</event>
<event>
 5   0  0.3649705E-06  0.2878163E+04  0.7818609E-02  0.8279404E-01
       -1   -1    0    0    0  501  0.00000000000E+00  0.00000000000E+00  0.98893035724E+03  0.98893035725E+03  0.50400001928E-02 0.  1.
        1   -1    0    0  501    0  0.00000000000E+00  0.00000000000E+00 -0.20941365583E+04  0.20941365583E+04  0.50400001928E-02 0. -1.
    10030    2    1    2    0    0  0.00000000000E+00  0.00000000000E+00 -0.11052062011E+04  0.30830669156E+04  0.28781627576E+04 0.  0.
        2    1    3    3  502    0 -0.71010009169E+03  0.92863624183E+03 -0.14516061902E+04  0.18638046951E+04  0.25500000920E-02 0. -1.
       -2    1    3    3    0  502  0.71010009169E+03 -0.92863624183E+03  0.34639998915E+03  0.12192622205E+04  0.25500000920E-02 0.  1.
</event>
<event>
 5   0  0.3746518E-06  0.2915573E+04  0.7818609E-02  0.8268259E-01
        1   -1    0    0  501    0  0.00000000000E+00  0.00000000000E+00  0.24896696627E+04  0.24896696627E+04  0.50400001928E-02 0.  1.
       -1   -1    0    0    0  501  0.00000000000E+00  0.00000000000E+00 -0.85358364547E+03  0.85358364548E+03  0.50400001928E-02 0. -1.
    10030    2    1    2    0    0  0.00000000000E+00  0.00000000000E+00  0.16360860173E+04  0.33432533082E+04  0.29155728814E+04 0.  0.
        4    1    3    3  502    0 -0.13555847389E+04 -0.36838881273E+03  0.12648387297E+04  0.18902748283E+04  0.12699999809E+01 0.  1.
       -4    1    3    3    0  502  0.13555847389E+04  0.36838881273E+03  0.37124728755E+03  0.14529784799E+04  0.12699999809E+01 0. -1.
</event>
<event>
 5   0  0.9505359E-06  0.2929972E+04  0.7818609E-02  0.8264015E-01
        2   -1    0    0  501    0  0.00000000000E+00  0.00000000000E+00  0.16908762983E+04  0.16908762983E+04  0.25500000920E-02 0. -1.
       -2   -1    0    0    0  501  0.00000000000E+00  0.00000000000E+00 -0.12692730582E+04  0.12692730582E+04  0.25500000920E-02 0.  1.
    10030    2    1    2    0    0  0.00000000000E+00  0.00000000000E+00  0.42160324011E+03  0.29601493564E+04  0.29299718293E+04 0.  0.
        4    1    3    3  502    0 -0.10265878708E+04  0.80738231909E+03  0.88128841548E+03  0.15755696588E+04  0.12699999809E+01 0. -1.
       -4    1    3    3    0  502  0.10265878708E+04 -0.80738231909E+03 -0.45968517536E+03  0.13845796976E+04  0.12699999809E+01 0.  1.
</event>
<event>
 5   0  0.9646321E-06  0.2776710E+04  0.7818609E-02  0.8310536E-01
       -2   -1    0    0    0  501  0.00000000000E+00  0.00000000000E+00  0.79461661751E+03  0.79461661751E+03  0.25500000920E-02 0. -1.
        2   -1    0    0  501    0  0.00000000000E+00  0.00000000000E+00 -0.24257348336E+04  0.24257348336E+04  0.25500000920E-02 0.  1.
    10030    2    1    2    0    0  0.00000000000E+00  0.00000000000E+00 -0.16311182161E+04  0.32203514511E+04  0.27767097136E+04 0.  0.
        3    1    3    3  502    0  0.68241244458E+02 -0.12980283293E+04 -0.13813507316E+04  0.18967509760E+04  0.10100000352E+00 0.  1.
       -3    1    3    3    0  502 -0.68241244458E+02  0.12980283293E+04 -0.24976748447E+03  0.13236004751E+04  0.10100000352E+00 0. -1.
</event>
<event>
 5   0  0.3564340E-06  0.2904639E+04  0.7818609E-02  0.8271499E-01
        1   -1    0    0  501    0  0.00000000000E+00  0.00000000000E+00  0.15991169285E+04  0.15991169285E+04  0.50400001928E-02 0. -1.
       -1   -1    0    0    0  501  0.00000000000E+00  0.00000000000E+00 -0.13189978028E+04  0.13189978028E+04  0.50400001928E-02 0.  1.
    10030    2    1    2    0    0  0.00000000000E+00  0.00000000000E+00  0.28011912573E+03  0.29181147313E+04  0.29046388520E+04 0.  0.
        1    1    3    3  502    0 -0.94920826746E+02 -0.96531943065E+03 -0.94587162351E+03  0.13548153729E+04  0.50400001928E-02 0.  1.
       -1    1    3    3    0  502  0.94920826746E+02  0.96531943065E+03  0.12259907492E+04  0.15632993583E+04  0.50400001928E-02 0. -1.
</event>
<event>
 5   0  0.3474078E-06  0.2898634E+04  0.7818609E-02  0.8273284E-01
        1   -1    0    0  501    0  0.00000000000E+00  0.00000000000E+00  0.25857755443E+04  0.25857755443E+04  0.50400001928E-02 0. -1.
       -1   -1    0    0    0  501  0.00000000000E+00  0.00000000000E+00 -0.81233664858E+03  0.81233664859E+03  0.50400001928E-02 0.  1.
    10030    2    1    2    0    0  0.00000000000E+00  0.00000000000E+00  0.17734388957E+04  0.33981121929E+04  0.28986343265E+04 0.  0.
        3    1    3    3  502    0  0.22300398108E+03  0.75589324639E+02 -0.78976287159E+03  0.82411766460E+03  0.10100000352E+00 0.  1.
       -3    1    3    3    0  502 -0.22300398108E+03 -0.75589324639E+02  0.25632017673E+04  0.25739945283E+04  0.10100000352E+00 0. -1.
</event>
<event>
 5   0  0.3649705E-06  0.2906678E+04  0.7818609E-02  0.8270893E-01
        1   -1    0    0  501    0  0.00000000000E+00  0.00000000000E+00  0.17866624647E+04  0.17866624647E+04  0.50400001928E-02 0.  1.
       -1   -1    0    0    0  501  0.00000000000E+00  0.00000000000E+00 -0.11822012742E+04  0.11822012742E+04  0.50400001928E-02 0. -1.
    10030    2    1    2    0    0  0.00000000000E+00  0.00000000000E+00  0.60446119046E+03  0.29688637389E+04  0.29066782707E+04 0.  0.
        2    1    3    3  502    0  0.10091639557E+04 -0.56441632041E+03 -0.59707011618E+03  0.13013340831E+04  0.25500000920E-02 0. -1.
       -2    1    3    3    0  502 -0.10091639557E+04  0.56441632041E+03  0.12015313066E+04  0.16675296558E+04  0.25500000920E-02 0.  1.
</event>
<event>
 5   0  0.3649705E-06  0.2913209E+04  0.7818609E-02  0.8268958E-01
       -1   -1    0    0    0  501  0.00000000000E+00  0.00000000000E+00  0.13322033282E+04  0.13322033282E+04  0.50400001928E-02 0.  1.
        1   -1    0    0  501    0  0.00000000000E+00  0.00000000000E+00 -0.15926219466E+04  0.15926219467E+04  0.50400001928E-02 0. -1.
    10030    2    1    2    0    0  0.00000000000E+00  0.00000000000E+00 -0.26041861848E+03  0.29248252748E+04  0.29132087174E+04 0.  0.
        2    1    3    3  502    0  0.29302226241E+03  0.11462882960E+04  0.72280048709E+03  0.13864629270E+04  0.25500000920E-02 0.  1.
       -2    1    3    3    0  502 -0.29302226241E+03 -0.11462882960E+04 -0.98321910557E+03  0.15383623479E+04  0.25500000920E-02 0. -1.
</event>
<event>
 5   0  0.9360689E-06  0.2882873E+04  0.7818609E-02  0.8277991E-01
       -2   -1    0    0    0  501  0.00000000000E+00  0.00000000000E+00  0.14203308718E+04  0.14203308718E+04  0.25500000920E-02 0. -1.
        2   -1    0    0  501    0  0.00000000000E+00  0.00000000000E+00 -0.14628561104E+04  0.14628561104E+04  0.25500000920E-02 0.  1.
    10030    2    1    2    0    0  0.00000000000E+00  0.00000000000E+00 -0.42525238543E+02  0.28831869822E+04  0.28828733546E+04 0.  0.
        5    1    3    3  502    0 -0.73385697080E+03 -0.75365277436E+03  0.96432876018E+03  0.14270566231E+04  0.46999998093E+01 0. -1.
       -5    1    3    3    0  502  0.73385697080E+03  0.75365277436E+03 -0.10068539987E+04  0.14561303591E+04  0.46999998093E+01 0.  1.
</event>
<event>
 5   0  0.3486236E-06  0.2876806E+04  0.7818609E-02  0.8279812E-01
        1   -1    0    0  501    0  0.00000000000E+00  0.00000000000E+00  0.21171047061E+04  0.21171047061E+04  0.50400001928E-02 0.  1.
       -1   -1    0    0    0  501  0.00000000000E+00  0.00000000000E+00 -0.97727938085E+03  0.97727938086E+03  0.50400001928E-02 0. -1.
    10030    2    1    2    0    0  0.00000000000E+00  0.00000000000E+00  0.11398253253E+04  0.30943840870E+04  0.28768057122E+04 0.  0.
        5    1    3    3  502    0  0.82973482801E+03 -0.11572097498E+04  0.78873542398E+03  0.16277960403E+04  0.46999998093E+01 0.  1.
       -5    1    3    3    0  502 -0.82973482801E+03  0.11572097498E+04  0.35108990129E+03  0.14665880467E+04  0.46999998093E+01 0. -1.
</event>
<event>
 5   0  0.3474078E-06  0.2865183E+04  0.7818609E-02  0.8283313E-01
        1   -1    0    0  501    0  0.00000000000E+00  0.00000000000E+00  0.24879626295E+04  0.24879626295E+04  0.50400001928E-02 0.  1.
       -1   -1    0    0    0  501  0.00000000000E+00  0.00000000000E+00 -0.82489914763E+03  0.82489914764E+03  0.50400001928E-02 0. -1.
    10030    2    1    2    0    0  0.00000000000E+00  0.00000000000E+00  0.16630634819E+04  0.33128617771E+04  0.28651828929E+04 0.  0.
        3    1    3    3  502    0  0.12040673431E+04 -0.11295643588E+03  0.17194977176E+04  0.21021916502E+04  0.10100000352E+00 0.  1.
       -3    1    3    3    0  502 -0.12040673431E+04  0.11295643588E+03 -0.56434235793E+02  0.12106701269E+04  0.10100000352E+00 0. -1.
</event>
<event>
 5   0  0.3486236E-06  0.2871028E+04  0.7818609E-02  0.8281550E-01
        1   -1    0    0  501    0  0.00000000000E+00  0.00000000000E+00  0.15374088139E+04  0.15374088139E+04  0.50400001928E-02 0. -1.
       -1   -1    0    0    0  501  0.00000000000E+00  0.00000000000E+00 -0.13403726096E+04  0.13403726096E+04  0.50400001928E-02 0.  1.
    10030    2    1    2    0    0  0.00000000000E+00  0.00000000000E+00  0.19703620430E+03  0.28777814234E+04  0.28710281530E+04 0.  0.
        5    1    3    3  502    0  0.12276139600E+04  0.10876756685E+02 -0.64722401936E+03  0.13878311713E+04  0.46999998093E+01 0.  1.
       -5    1    3    3    0  502 -0.12276139600E+04 -0.10876756685E+02  0.84426022366E+03  0.14899502522E+04  0.46999998093E+01 0. -1.
</event>
<event>
 5   0  0.3564340E-06  0.2897532E+04  0.7818609E-02  0.8273612E-01
        1   -1    0    0  501    0  0.00000000000E+00  0.00000000000E+00  0.10463263353E+04  0.10463263353E+04  0.50400001928E-02 0. -1.
       -1   -1    0    0    0  501  0.00000000000E+00  0.00000000000E+00 -0.20059928492E+04  0.20059928492E+04  0.50400001928E-02 0.  1.
    10030    2    1    2    0    0  0.00000000000E+00  0.00000000000E+00 -0.95966651392E+03  0.30523191845E+04  0.28975321544E+04 0.  0.
        1    1    3    3  502    0  0.56328981850E+03 -0.48104661287E+03 -0.17914248183E+04  0.19385314398E+04  0.50400001928E-02 0.  1.
       -1    1    3    3    0  502 -0.56328981850E+03  0.48104661287E+03  0.83175830437E+03  0.11137877447E+04  0.50400001928E-02 0. -1.
</event>
<event>
 5   0  0.9251510E-06  0.2947629E+04  0.7818609E-02  0.8258846E-01
        2   -1    0    0  501    0  0.00000000000E+00  0.00000000000E+00  0.26670854925E+04  0.26670854925E+04  0.25500000920E-02 0. -1.
       -2   -1    0    0    0  501  0.00000000000E+00  0.00000000000E+00 -0.81442060088E+03  0.81442060089E+03  0.25500000920E-02 0.  1.
    10030    2    1    2    0    0  0.00000000000E+00  0.00000000000E+00  0.18526648916E+04  0.34815060934E+04  0.29476291282E+04 0.  0.
        2    1    3    3  502    0 -0.13535375315E+04  0.40660510507E+03  0.14200604518E+04  0.20034877707E+04  0.25500000920E-02 0. -1.
       -2    1    3    3    0  502  0.13535375315E+04 -0.40660510507E+03  0.43260443986E+03  0.14780183227E+04  0.25500000920E-02 0.  1.
</event>
<event>
 5   0  0.1001573E-05  0.2893031E+04  0.7818609E-02  0.8274954E-01
       -2   -1    0    0    0  501  0.00000000000E+00  0.00000000000E+00  0.72635262616E+03  0.72635262616E+03  0.25500000920E-02 0. -1.
        2   -1    0    0  501    0  0.00000000000E+00  0.00000000000E+00 -0.28807040423E+04  0.28807040423E+04  0.25500000920E-02 0.  1.
    10030    2    1    2    0    0  0.00000000000E+00  0.00000000000E+00 -0.21543514162E+04  0.36070566685E+04  0.28930308995E+04 0.  0.
        1    1    3    3  502    0 -0.27812730231E+03 -0.14029395042E+04 -0.13469388774E+04  0.19646471409E+04  0.50400001928E-02 0.  1.
       -1    1    3    3    0  502  0.27812730231E+03  0.14029395042E+04 -0.80741253876E+03  0.16424095276E+04  0.50400001928E-02 0. -1.
</event>
<event>
 5   0  0.3486236E-06  0.3001659E+04  0.7818609E-02  0.8243257E-01
        1   -1    0    0  501    0  0.00000000000E+00  0.00000000000E+00  0.10654258286E+04  0.10654258286E+04  0.50400001928E-02 0. -1.
       -1   -1    0    0    0  501  0.00000000000E+00  0.00000000000E+00 -0.21141675062E+04  0.21141675062E+04  0.50400001928E-02 0.  1.
    10030    2    1    2    0    0  0.00000000000E+00  0.00000000000E+00 -0.10487416776E+04  0.31795933348E+04  0.30016586529E+04 0.  0.
        5    1    3    3  502    0 -0.10196303665E+04 -0.10859116366E+04 -0.71858725800E+03  0.16538560712E+04  0.46999998093E+01 0.  1.
       -5    1    3    3    0  502  0.10196303665E+04  0.10859116366E+04 -0.33015441965E+03  0.15257372636E+04  0.46999998093E+01 0. -1.
</event>
<event>
 5   0  0.3649705E-06  0.2647659E+04  0.7818609E-02  0.8352190E-01
       -1   -1    0    0    0  501  0.00000000000E+00  0.00000000000E+00  0.14240270186E+04  0.14240270186E+04  0.50400001928E-02 0. -1.
        1   -1    0    0  501    0  0.00000000000E+00  0.00000000000E+00 -0.12306820763E+04  0.12306820764E+04  0.50400001928E-02 0.  1.
    10030    2    1    2    0    0  0.00000000000E+00  0.00000000000E+00  0.19334494226E+03  0.26547090950E+04  0.26476589872E+04 0.  0.
        2    1    3    3  502    0  0.39987849258E+03  0.18347896484E+03  0.13485792297E+04  0.14185320857E+04  0.25500000920E-02 0. -1.
       -2    1    3    3    0  502 -0.39987849258E+03 -0.18347896484E+03 -0.11552342874E+04  0.12361770093E+04  0.25500000920E-02 0.  1.
</event>
<event>
 5   0  0.3474078E-06  0.2999571E+04  0.7818609E-02  0.8243853E-01
        1   -1    0    0  501    0  0.00000000000E+00  0.00000000000E+00  0.16544250119E+04  0.16544250119E+04  0.50400001928E-02 0.  1.
       -1   -1    0    0    0  501  0.00000000000E+00  0.00000000000E+00 -0.13595999379E+04  0.13595999379E+04  0.50400001928E-02 0. -1.
    10030    2    1    2    0    0  0.00000000000E+00  0.00000000000E+00  0.29482507401E+03  0.30140249498E+04  0.29995707316E+04 0.  0.
        3    1    3    3  502    0  0.13607943557E+03  0.10551166504E+04 -0.91483221258E+03  0.14031061065E+04  0.10100000352E+00 0. -1.
       -3    1    3    3    0  502 -0.13607943557E+03 -0.10551166504E+04  0.12096572866E+04  0.16109188433E+04  0.10100000352E+00 0.  1.
</event>
<event>
 5   0  0.9251510E-06  0.2913225E+04  0.7818609E-02  0.8268954E-01
       -2   -1    0    0    0  501  0.00000000000E+00  0.00000000000E+00  0.13490125476E+04  0.13490125476E+04  0.25500000920E-02 0.  1.
        2   -1    0    0  501    0  0.00000000000E+00  0.00000000000E+00 -0.15727944869E+04  0.15727944869E+04  0.25500000920E-02 0. -1.
    10030    2    1    2    0    0  0.00000000000E+00  0.00000000000E+00 -0.22378193935E+03  0.29218070345E+04  0.29132246721E+04 0.  0.
        2    1    3    3  502    0 -0.10901916579E+04  0.68021234423E+02 -0.10783556516E+04  0.15349252915E+04  0.25500000920E-02 0. -1.
       -2    1    3    3    0  502  0.10901916579E+04 -0.68021234423E+02  0.85457371227E+03  0.13868817429E+04  0.25500000920E-02 0.  1.
</event>
<event>
 5   0  0.1001573E-05  0.2884260E+04  0.7818609E-02  0.8277576E-01
       -2   -1    0    0    0  501  0.00000000000E+00  0.00000000000E+00  0.83029083179E+03  0.83029083180E+03  0.25500000920E-02 0. -1.
        2   -1    0    0  501    0  0.00000000000E+00  0.00000000000E+00 -0.25048320650E+04  0.25048320650E+04  0.25500000920E-02 0.  1.
    10030    2    1    2    0    0  0.00000000000E+00  0.00000000000E+00 -0.16745412332E+04  0.33351228968E+04  0.28842601122E+04 0.  0.
        1    1    3    3  502    0  0.86892228497E+03 -0.14903224650E+03  0.48240353203E+03  0.10049625444E+04  0.50400001928E-02 0. -1.
       -1    1    3    3    0  502 -0.86892228497E+03  0.14903224650E+03 -0.21569447652E+04  0.23301603524E+04  0.50400001928E-02 0.  1.
</event>
<event>
 5   0  0.3564340E-06  0.2918708E+04  0.7818609E-02  0.8267333E-01
        1   -1    0    0  501    0  0.00000000000E+00  0.00000000000E+00  0.15092937389E+04  0.15092937390E+04  0.50400001928E-02 0. -1.
       -1   -1    0    0    0  501  0.00000000000E+00  0.00000000000E+00 -0.14110664205E+04  0.14110664205E+04  0.50400001928E-02 0.  1.
    10030    2    1    2    0    0  0.00000000000E+00  0.00000000000E+00  0.98227318473E+02  0.29203601594E+04  0.29187077371E+04 0.  0.
        1    1    3    3  502    0 -0.17493837124E+03  0.96618205192E+03  0.11293556250E+04  0.14965143898E+04  0.50400001928E-02 0. -1.
       -1    1    3    3    0  502  0.17493837124E+03 -0.96618205192E+03 -0.10311283065E+04  0.14238457696E+04  0.50400001928E-02 0.  1.
</event>
<event>
 5   0  0.9251510E-06  0.2880136E+04  0.7818609E-02  0.8278812E-01
        2   -1    0    0  501    0  0.00000000000E+00  0.00000000000E+00  0.27948426525E+04  0.27948426525E+04  0.25500000920E-02 0. -1.
       -2   -1    0    0    0  501  0.00000000000E+00  0.00000000000E+00 -0.74200800398E+03  0.74200800398E+03  0.25500000920E-02 0.  1.
    10030    2    1    2    0    0  0.00000000000E+00  0.00000000000E+00  0.20528346485E+04  0.35368506565E+04  0.28801358426E+04 0.  0.
        2    1    3    3  502    0  0.36537266967E+03  0.11924009415E+04  0.19106551616E+04  0.22816486012E+04  0.25500000920E-02 0. -1.
       -2    1    3    3    0  502 -0.36537266967E+03 -0.11924009415E+04  0.14217948697E+03  0.12552020553E+04  0.25500000920E-02 0.  1.
</event>
<event>
 5   0  0.3746518E-06  0.2732723E+04  0.7818609E-02  0.8324465E-01
       -1   -1    0    0    0  501  0.00000000000E+00  0.00000000000E+00  0.11390391233E+04  0.11390391233E+04  0.50400001928E-02 0. -1.
        1   -1    0    0  501    0  0.00000000000E+00  0.00000000000E+00 -0.16390518701E+04  0.16390518701E+04  0.50400001928E-02 0.  1.
    10030    2    1    2    0    0  0.00000000000E+00  0.00000000000E+00 -0.50001274682E+03  0.27780909934E+04  0.27327233341E+04 0.  0.
        4    1    3    3  502    0  0.19313511040E+03 -0.10501786389E+04 -0.11166652233E+04  0.15450304781E+04  0.12699999809E+01 0.  1.
       -4    1    3    3    0  502 -0.19313511040E+03  0.10501786389E+04  0.61665247652E+03  0.12330605152E+04  0.12699999809E+01 0. -1.
</event>
<event>
 5   0  0.3474078E-06  0.2886187E+04  0.7818609E-02  0.8276999E-01
        1   -1    0    0  501    0  0.00000000000E+00  0.00000000000E+00  0.14786554226E+04  0.14786554226E+04  0.50400001928E-02 0.  1.
       -1   -1    0    0    0  501  0.00000000000E+00  0.00000000000E+00 -0.14083870644E+04  0.14083870644E+04  0.50400001928E-02 0. -1.
    10030    2    1    2    0    0  0.00000000000E+00  0.00000000000E+00  0.70268358192E+02  0.28870424870E+04  0.28861872218E+04 0.  0.
        3    1    3    3  502    0  0.14246093050E+04 -0.18022870793E+03  0.17844247172E+03  0.14470092554E+04  0.10100000352E+00 0.  1.
       -3    1    3    3    0  502 -0.14246093050E+04  0.18022870793E+03 -0.10817411353E+03  0.14400332316E+04  0.10100000352E+00 0. -1.
</event>
<event>
 5   0  0.9360689E-06  0.2897437E+04  0.7818609E-02  0.8273640E-01
       -2   -1    0    0    0  501  0.00000000000E+00  0.00000000000E+00  0.11593392491E+04  0.11593392491E+04  0.25500000920E-02 0. -1.
        2   -1    0    0  501    0  0.00000000000E+00  0.00000000000E+00 -0.18103290616E+04  0.18103290616E+04  0.25500000920E-02 0.  1.
    10030    2    1    2    0    0  0.00000000000E+00  0.00000000000E+00 -0.65098981255E+03  0.29696683107E+04  0.28974371675E+04 0.  0.
        5    1    3    3  502    0 -0.12016108928E+04  0.79333305587E+03 -0.16177108621E+03  0.14489437704E+04  0.46999998093E+01 0. -1.
       -5    1    3    3    0  502  0.12016108928E+04 -0.79333305587E+03 -0.48921872635E+03  0.15207245403E+04  0.46999998093E+01 0.  1.
</event>
<event>
 5   0  0.9251510E-06  0.2999825E+04  0.7818609E-02  0.8243781E-01
        2   -1    0    0  501    0  0.00000000000E+00  0.00000000000E+00  0.22322104827E+04  0.22322104827E+04  0.25500000920E-02 0. -1.
       -2   -1    0    0    0  501  0.00000000000E+00  0.00000000000E+00 -0.10078517806E+04  0.10078517806E+04  0.25500000920E-02 0.  1.
    10030    2    1    2    0    0  0.00000000000E+00  0.00000000000E+00  0.12243587021E+04  0.32400622633E+04  0.29998248680E+04 0.  0.
        2    1    3    3  502    0  0.76070809516E+03  0.12349856970E+04  0.19966250881E+03  0.14641487613E+04  0.25500000920E-02 0.  1.
       -2    1    3    3    0  502 -0.76070809516E+03 -0.12349856970E+04  0.10246961933E+04  0.17759135020E+04  0.25500000920E-02 0. -1.
</event>
<event>
 5   0  0.3188375E-06  0.2889485E+04  0.7818609E-02  0.8276013E-01
       -3   -1    0    0    0  501  0.00000000000E+00  0.00000000000E+00  0.16046755699E+04  0.16046755731E+04  0.10100000352E+00 0. -1.
        3   -1    0    0  501    0  0.00000000000E+00  0.00000000000E+00 -0.13007497630E+04  0.13007497669E+04  0.10100000352E+00 0.  1.
    10030    2    1    2    0    0  0.00000000000E+00  0.00000000000E+00  0.30392580695E+03  0.29054253400E+04  0.28894853366E+04 0.  0.
        4    1    3    3  502    0 -0.11099165588E+03 -0.50019432486E+03 -0.12063281667E+04  0.13106268611E+04  0.12699999809E+01 0.  1.
       -4    1    3    3    0  502  0.11099165588E+03  0.50019432486E+03  0.15102539737E+04  0.15947984789E+04  0.12699999809E+01 0. -1.
</event>
<event>
 5   0  0.3486236E-06  0.2884165E+04  0.7818609E-02  0.8277604E-01
        1   -1    0    0  501    0  0.00000000000E+00  0.00000000000E+00  0.26198738353E+04  0.26198738353E+04  0.50400001928E-02 0.  1.
       -1   -1    0    0    0  501  0.00000000000E+00  0.00000000000E+00 -0.79377964246E+03  0.79377964247E+03  0.50400001928E-02 0. -1.
    10030    2    1    2    0    0  0.00000000000E+00  0.00000000000E+00  0.18260941929E+04  0.34136534778E+04  0.28841654019E+04 0.  0.
        5    1    3    3  502    0 -0.13062645938E+04  0.53775128490E+03  0.12562392417E+04  0.18904133823E+04  0.46999998093E+01 0.  1.
       -5    1    3    3    0  502  0.13062645938E+04 -0.53775128490E+03  0.56985495114E+03  0.15232400955E+04  0.46999998093E+01 0. -1.
</event>
<event>
 5   0  0.3649705E-06  0.2735693E+04  0.7818609E-02  0.8323516E-01
       -1   -1    0    0    0  501  0.00000000000E+00  0.00000000000E+00  0.85975868752E+03  0.85975868754E+03  0.50400001928E-02 0.  1.
        1   -1    0    0  501    0  0.00000000000E+00  0.00000000000E+00 -0.21761973592E+04  0.21761973592E+04  0.50400001928E-02 0. -1.
    10030    2    1    2    0    0  0.00000000000E+00  0.00000000000E+00 -0.13164386717E+04  0.30359560468E+04  0.27356933932E+04 0.  0.
        2    1    3    3  502    0  0.47998311069E+03  0.55761850594E+03 -0.19379012099E+04  0.20728683711E+04  0.25500000920E-02 0. -1.
       -2    1    3    3    0  502 -0.47998311069E+03 -0.55761850594E+03  0.62146253815E+03  0.96308767568E+03  0.25500000920E-02 0.  1.
</event>
<event>
 5   0  0.3564340E-06  0.2982928E+04  0.7818609E-02  0.8248623E-01
        1   -1    0    0  501    0  0.00000000000E+00  0.00000000000E+00  0.13574285825E+04  0.13574285826E+04  0.50400001928E-02 0. -1.
       -1   -1    0    0    0  501  0.00000000000E+00  0.00000000000E+00 -0.16387339519E+04  0.16387339519E+04  0.50400001928E-02 0.  1.
    10030    2    1    2    0    0  0.00000000000E+00  0.00000000000E+00 -0.28130536931E+03  0.29961625344E+04  0.29829276260E+04 0.  0.
        1    1    3    3  502    0  0.99129739107E+03  0.88913246205E+03  0.53406971155E+03  0.14347325568E+04  0.50400001928E-02 0. -1.
       -1    1    3    3    0  502 -0.99129739107E+03 -0.88913246205E+03 -0.81537508086E+03  0.15614299777E+04  0.50400001928E-02 0.  1.
</event>
<event>
 5   0  0.9251510E-06  0.2867725E+04  0.7818609E-02  0.8282546E-01
        2   -1    0    0  501    0  0.00000000000E+00  0.00000000000E+00  0.14442826118E+04  0.14442826118E+04  0.25500000920E-02 0.  1.
       -2   -1    0    0    0  501  0.00000000000E+00  0.00000000000E+00 -0.14235174971E+04  0.14235174971E+04  0.25500000920E-02 0. -1.
    10030    2    1    2    0    0  0.00000000000E+00  0.00000000000E+00  0.20765114705E+02  0.28678001088E+04  0.28677249300E+04 0.  0.
        2    1    3    3  502    0 -0.11053115837E+01 -0.11973017352E+04 -0.77857975906E+03  0.14281873505E+04  0.25500000920E-02 0. -1.
       -2    1    3    3    0  502  0.11053115837E+01  0.11973017352E+04  0.79934487377E+03  0.14396127584E+04  0.25500000920E-02 0.  1.
</event>
<event>
 5   0  0.3564340E-06  0.2927940E+04  0.7818609E-02  0.8264613E-01
       -1   -1    0    0    0  501  0.00000000000E+00  0.00000000000E+00  0.14204331241E+04  0.14204331241E+04  0.50400001928E-02 0. -1.
        1   -1    0    0  501    0  0.00000000000E+00  0.00000000000E+00 -0.15088411794E+04  0.15088411794E+04  0.50400001928E-02 0.  1.
    10030    2    1    2    0    0  0.00000000000E+00  0.00000000000E+00 -0.88408055356E+02  0.29292743035E+04  0.29279398834E+04 0.  0.
        1    1    3    3  502    0  0.30370366031E+03 -0.11762167024E+04 -0.86157475360E+03  0.14893061137E+04  0.50400001928E-02 0.  1.
       -1    1    3    3    0  502 -0.30370366031E+03  0.11762167024E+04  0.77316669824E+03  0.14399681898E+04  0.50400001928E-02 0. -1.
</event>
<event>
 5   0  0.9360689E-06  0.2911385E+04  0.7818609E-02  0.8269498E-01
        2   -1    0    0  501    0  0.00000000000E+00  0.00000000000E+00  0.24975828262E+04  0.24975828262E+04  0.25500000920E-02 0. -1.
       -2   -1    0    0    0  501  0.00000000000E+00  0.00000000000E+00 -0.84843677996E+03  0.84843677996E+03  0.25500000920E-02 0.  1.
    10030    2    1    2    0    0  0.00000000000E+00  0.00000000000E+00  0.16491460463E+04  0.33460196062E+04  0.29113853271E+04 0.  0.
        5    1    3    3  502    0  0.69675267921E+03 -0.10147309457E+04  0.17176782363E+04  0.21131927980E+04  0.46999998093E+01 0. -1.
       -5    1    3    3    0  502 -0.69675267921E+03  0.10147309457E+04 -0.68532189971E+02  0.12328268082E+04  0.46999998093E+01 0.  1.
</event>
<event>
 5   0  0.3474078E-06  0.2884794E+04  0.7818609E-02  0.8277416E-01
       -1   -1    0    0    0  501  0.00000000000E+00  0.00000000000E+00  0.91951049574E+03  0.91951049575E+03  0.50400001928E-02 0.  1.
        1   -1    0    0  501    0  0.00000000000E+00  0.00000000000E+00 -0.22626266822E+04  0.22626266822E+04  0.50400001928E-02 0. -1.
    10030    2    1    2    0    0  0.00000000000E+00  0.00000000000E+00 -0.13431161865E+04  0.31821371780E+04  0.28847939145E+04 0.  0.
        3    1    3    3  502    0  0.10345045432E+04 -0.31927427756E+03 -0.17228813568E+04  0.20348110217E+04  0.10100000352E+00 0. -1.
       -3    1    3    3    0  502 -0.10345045432E+04  0.31927427756E+03  0.37976517029E+03  0.11473261563E+04  0.10100000352E+00 0.  1.
</event>
<event>
 5   0  0.3188375E-06  0.2877617E+04  0.7818609E-02  0.8279568E-01
        3   -1    0    0  501    0  0.00000000000E+00  0.00000000000E+00  0.10257083004E+04  0.10257083054E+04  0.10100000352E+00 0.  1.
       -3   -1    0    0    0  501  0.00000000000E+00  0.00000000000E+00 -0.20182827708E+04  0.20182827733E+04  0.10100000352E+00 0. -1.
    10030    2    1    2    0    0  0.00000000000E+00  0.00000000000E+00 -0.99257447038E+03  0.30439910787E+04  0.28776166541E+04 0.  0.
        2    1    3    3  502    0 -0.75685915714E+03 -0.32575926844E+03 -0.17439795137E+04  0.19288388811E+04  0.25500000920E-02 0. -1.
       -2    1    3    3    0  502  0.75685915714E+03  0.32575926844E+03  0.75140504336E+03  0.11151521976E+04  0.25500000920E-02 0.  1.
</event>
<event>
 5   0  0.3486236E-06  0.2919195E+04  0.7818609E-02  0.8267189E-01
       -1   -1    0    0    0  501  0.00000000000E+00  0.00000000000E+00  0.79667990460E+03  0.79667990461E+03  0.50400001928E-02 0.  1.
        1   -1    0    0  501    0  0.00000000000E+00  0.00000000000E+00 -0.26741289271E+04  0.26741289271E+04  0.50400001928E-02 0. -1.
    10030    2    1    2    0    0  0.00000000000E+00  0.00000000000E+00 -0.18774490225E+04  0.34708088317E+04  0.29191949428E+04 0.  0.
        5    1    3    3  502    0 -0.49241849408E+03  0.12015718152E+04 -0.14634479034E+03  0.13067860146E+04  0.46999998093E+01 0.  1.
       -5    1    3    3    0  502  0.49241849408E+03 -0.12015718152E+04 -0.17311042321E+04  0.21640228171E+04  0.46999998093E+01 0. -1.
</event>
<event>
 5   0  0.9251510E-06  0.2875384E+04  0.7818609E-02  0.8280239E-01
        2   -1    0    0  501    0  0.00000000000E+00  0.00000000000E+00  0.15121934739E+04  0.15121934739E+04  0.25500000920E-02 0.  1.
       -2   -1    0    0    0  501  0.00000000000E+00  0.00000000000E+00 -0.13668609670E+04  0.13668609670E+04  0.25500000920E-02 0. -1.
    10030    2    1    2    0    0  0.00000000000E+00  0.00000000000E+00  0.14533250683E+03  0.28790544409E+04  0.28753839633E+04 0.  0.
        2    1    3    3  502    0 -0.59075919018E+03  0.37095582090E+03 -0.11860596362E+04  0.13759876825E+04  0.25500000920E-02 0. -1.
       -2    1    3    3    0  502  0.59075919018E+03 -0.37095582090E+03  0.13313921430E+04  0.15030667584E+04  0.25500000920E-02 0.  1.
</event>
<event>
 5   0  0.3188375E-06  0.2872436E+04  0.7818609E-02  0.8281126E-01
        3   -1    0    0  501    0  0.00000000000E+00  0.00000000000E+00  0.16417970040E+04  0.16417970071E+04  0.10100000352E+00 0.  1.
       -3   -1    0    0    0  501  0.00000000000E+00  0.00000000000E+00 -0.12563808114E+04  0.12563808155E+04  0.10100000352E+00 0. -1.
    10030    2    1    2    0    0  0.00000000000E+00  0.00000000000E+00  0.38541619261E+03  0.28981778226E+04  0.28724360829E+04 0.  0.
        4    1    3    3  502    0 -0.32601472966E+03 -0.41699227652E+03 -0.11543794417E+04  0.12699455386E+04  0.12699999809E+01 0. -1.
       -4    1    3    3    0  502  0.32601472966E+03  0.41699227652E+03  0.15397956343E+04  0.16282322841E+04  0.12699999809E+01 0.  1.
</event>
<event>
 5   0  0.3564340E-06  0.2904718E+04  0.7818609E-02  0.8271475E-01
        1   -1    0    0  501    0  0.00000000000E+00  0.00000000000E+00  0.12610426179E+04  0.12610426179E+04  0.50400001928E-02 0. -1.
       -1   -1    0    0    0  501  0.00000000000E+00  0.00000000000E+00 -0.16727008141E+04  0.16727008141E+04  0.50400001928E-02 0.  1.
    10030    2    1    2    0    0  0.00000000000E+00  0.00000000000E+00 -0.41165819624E+03  0.29337434320E+04  0.29047182401E+04 0.  0.
        1    1    3    3  502    0  0.88932186069E+03 -0.47206481592E+03 -0.12630014712E+04  0.16152124562E+04  0.50400001928E-02 0.  1.
       -1    1    3    3    0  502 -0.88932186069E+03  0.47206481592E+03  0.85134327495E+03  0.13185309758E+04  0.50400001928E-02 0. -1.
</event>
<event>
 5   0  0.9251510E-06  0.2935876E+04  0.7818609E-02  0.8262283E-01
       -2   -1    0    0    0  501  0.00000000000E+00  0.00000000000E+00  0.16053180059E+04  0.16053180059E+04  0.25500000920E-02 0. -1.
        2   -1    0    0  501    0  0.00000000000E+00  0.00000000000E+00 -0.13423146406E+04  0.13423146406E+04  0.25500000920E-02 0.  1.
    10030    2    1    2    0    0  0.00000000000E+00  0.00000000000E+00  0.26300336534E+03  0.29476326465E+04  0.29358759252E+04 0.  0.
        2    1    3    3  502    0  0.68642052565E+03 -0.54509205082E+03 -0.10507294481E+04  0.13683314127E+04  0.25500000920E-02 0.  1.
       -2    1    3    3    0  502 -0.68642052565E+03  0.54509205082E+03  0.13137328134E+04  0.15793012338E+04  0.25500000920E-02 0. -1.
</event>
<event>
 5   0  0.3649705E-06  0.2798230E+04  0.7818609E-02  0.8303818E-01
       -1   -1    0    0    0  501  0.00000000000E+00  0.00000000000E+00  0.14005327272E+04  0.14005327272E+04  0.50400001928E-02 0.  1.
        1   -1    0    0  501    0  0.00000000000E+00  0.00000000000E+00 -0.13976991703E+04  0.13976991703E+04  0.50400001928E-02 0. -1.
    10030    2    1    2    0    0  0.00000000000E+00  0.00000000000E+00  0.28335568866E+01  0.27982318975E+04  0.27982304628E+04 0.  0.
        2    1    3    3  502    0  0.42066148646E+02 -0.12272128580E+04  0.67201571381E+03  0.13997950133E+04  0.25500000920E-02 0.  1.
       -2    1    3    3    0  502 -0.42066148646E+02  0.12272128580E+04 -0.66918215693E+03  0.13984368841E+04  0.25500000920E-02 0. -1.
</event>
<event>
 5   0  0.3649705E-06  0.2777815E+04  0.7818609E-02  0.8310189E-01
       -1   -1    0    0    0  501  0.00000000000E+00  0.00000000000E+00  0.97300439969E+03  0.97300439970E+03  0.50400001928E-02 0. -1.
        1   -1    0    0  501    0  0.00000000000E+00  0.00000000000E+00 -0.19825857485E+04  0.19825857485E+04  0.50400001928E-02 0.  1.
    10030    2    1    2    0    0  0.00000000000E+00  0.00000000000E+00 -0.10095813488E+04  0.29555901482E+04  0.27778154410E+04 0.  0.
        2    1    3    3  502    0 -0.10299705172E+04 -0.46248987614E+03 -0.13654647909E+04  0.17717873030E+04  0.25500000920E-02 0.  1.
       -2    1    3    3    0  502  0.10299705172E+04  0.46248987614E+03  0.35588344211E+03  0.11838028452E+04  0.25500000920E-02 0. -1.
</event>
<event>
 5   0  0.3746518E-06  0.2925013E+04  0.7818609E-02  0.8265474E-01
        1   -1    0    0  501    0  0.00000000000E+00  0.00000000000E+00  0.10373681153E+04  0.10373681153E+04  0.50400001928E-02 0. -1.
       -1   -1    0    0    0  501  0.00000000000E+00  0.00000000000E+00 -0.20618767530E+04  0.20618767530E+04  0.50400001928E-02 0.  1.
    10030    2    1    2    0    0  0.00000000000E+00  0.00000000000E+00 -0.10245086377E+04  0.30992448684E+04  0.29250129581E+04 0.  0.
        4    1    3    3  502    0 -0.70377516680E+03  0.48817896993E+03 -0.17683231918E+04  0.19648375800E+04  0.12699999809E+01 0.  1.
       -4    1    3    3    0  502  0.70377516680E+03 -0.48817896993E+03  0.74381455410E+03  0.11344072884E+04  0.12699999809E+01 0. -1.
</event>
<event>
 5   0  0.3746518E-06  0.2916647E+04  0.7818609E-02  0.8267942E-01
       -1   -1    0    0    0  501  0.00000000000E+00  0.00000000000E+00  0.13423507242E+04  0.13423507242E+04  0.50400001928E-02 0.  1.
        1   -1    0    0  501    0  0.00000000000E+00  0.00000000000E+00 -0.15843153716E+04  0.15843153716E+04  0.50400001928E-02 0. -1.
    10030    2    1    2    0    0  0.00000000000E+00  0.00000000000E+00 -0.24196464737E+03  0.29266660958E+04  0.29166466268E+04 0.  0.
        4    1    3    3  502    0  0.72242398305E+01  0.35930132411E+03 -0.15391866468E+04  0.15805843153E+04  0.12699999809E+01 0. -1.
       -4    1    3    3    0  502 -0.72242398305E+01 -0.35930132411E+03  0.12972219994E+04  0.13460817805E+04  0.12699999809E+01 0.  1.
</event>
<event>
 5   0  0.3486236E-06  0.2885863E+04  0.7818609E-02  0.8277096E-01
       -1   -1    0    0    0  501  0.00000000000E+00  0.00000000000E+00  0.73782128725E+03  0.73782128727E+03  0.50400001928E-02 0. -1.
        1   -1    0    0  501    0  0.00000000000E+00  0.00000000000E+00 -0.28218911653E+04  0.28218911653E+04  0.50400001928E-02 0.  1.
    10030    2    1    2    0    0  0.00000000000E+00  0.00000000000E+00 -0.20840698781E+04  0.35597124526E+04  0.28858630405E+04 0.  0.
        5    1    3    3  502    0 -0.69739591953E+03 -0.77557540923E+03 -0.22719224123E+04  0.24999063625E+04  0.46999998093E+01 0.  1.
       -5    1    3    3    0  502  0.69739591953E+03  0.77557540923E+03  0.18785253420E+03  0.10598060901E+04  0.46999998093E+01 0. -1.
</event>
<event>
 5   0  0.3474078E-06  0.2900449E+04  0.7818609E-02  0.8272744E-01
       -1   -1    0    0    0  501  0.00000000000E+00  0.00000000000E+00  0.94951878268E+03  0.94951878269E+03  0.50400001928E-02 0.  1.
        1   -1    0    0  501    0  0.00000000000E+00  0.00000000000E+00 -0.22149645118E+04  0.22149645118E+04  0.50400001928E-02 0. -1.
    10030    2    1    2    0    0  0.00000000000E+00  0.00000000000E+00 -0.12654457291E+04  0.31644832945E+04  0.29004485218E+04 0.  0.
        3    1    3    3  502    0 -0.81699729993E+03  0.36944342281E+03 -0.18762975372E+04  0.20795349213E+04  0.10100000352E+00 0. -1.
       -3    1    3    3    0  502  0.81699729993E+03 -0.36944342281E+03  0.61085180809E+03  0.10849483731E+04  0.10100000352E+00 0.  1.
</event>
<event>
 5   0  0.9360689E-06  0.2917267E+04  0.7818609E-02  0.8267758E-01
        2   -1    0    0  501    0  0.00000000000E+00  0.00000000000E+00  0.25712429749E+04  0.25712429749E+04  0.25500000920E-02 0. -1.
       -2   -1    0    0    0  501  0.00000000000E+00  0.00000000000E+00 -0.82746438357E+03  0.82746438358E+03  0.25500000920E-02 0.  1.
    10030    2    1    2    0    0  0.00000000000E+00  0.00000000000E+00  0.17437785913E+04  0.33987073585E+04  0.29172672029E+04 0.  0.
        5    1    3    3  502    0 -0.31495467142E+03 -0.13492657863E+04  0.14030659661E+04  0.19718850885E+04  0.46999998093E+01 0. -1.
       -5    1    3    3    0  502  0.31495467142E+03  0.13492657863E+04  0.34071262521E+03  0.14268222700E+04  0.46999998093E+01 0.  1.
</event>
<event>
 5   0  0.3486236E-06  0.2664315E+04  0.7818609E-02  0.8346677E-01
        1   -1    0    0  501    0  0.00000000000E+00  0.00000000000E+00  0.28184001292E+04  0.28184001292E+04  0.50400001928E-02 0.  1.
       -1   -1    0    0    0  501  0.00000000000E+00  0.00000000000E+00 -0.62966331592E+03  0.62966331594E+03  0.50400001928E-02 0. -1.
    10030    2    1    2    0    0  0.00000000000E+00  0.00000000000E+00  0.21887368133E+04  0.34480634451E+04  0.26643146743E+04 0.  0.
        5    1    3    3  502    0  0.92624260111E+03 -0.31079661578E+03 -0.77620368558E+02  0.98008515145E+03  0.46999998093E+01 0. -1.
       -5    1    3    3    0  502 -0.92624260111E+03  0.31079661578E+03  0.22663571818E+04  0.24679782937E+04  0.46999998093E+01 0.  1.
</event>
<event>
 5   0  0.1001573E-05  0.2921784E+04  0.7818609E-02  0.8266426E-01
        2   -1    0    0  501    0  0.00000000000E+00  0.00000000000E+00  0.12682607277E+04  0.12682607277E+04  0.25500000920E-02 0. -1.
       -2   -1    0    0    0  501  0.00000000000E+00  0.00000000000E+00 -0.16827809200E+04  0.16827809200E+04  0.25500000920E-02 0.  1.
    10030    2    1    2    0    0  0.00000000000E+00  0.00000000000E+00 -0.41452019229E+03  0.29510416477E+04  0.29217836704E+04 0.  0.
        1    1    3    3  502    0 -0.42396717229E+03  0.31486662614E+03 -0.15829995825E+04  0.16687650625E+04  0.50400001928E-02 0.  1.
       -1    1    3    3    0  502  0.42396717229E+03 -0.31486662614E+03  0.11684793903E+04  0.12822765852E+04  0.50400001928E-02 0. -1.
</event>
<event>
 5   0  0.3474078E-06  0.2881107E+04  0.7818609E-02  0.8278521E-01
        1   -1    0    0  501    0  0.00000000000E+00  0.00000000000E+00  0.23332975137E+04  0.23332975137E+04  0.50400001928E-02 0.  1.
       -1   -1    0    0    0  501  0.00000000000E+00  0.00000000000E+00 -0.88938274048E+03  0.88938274049E+03  0.50400001928E-02 0. -1.
    10030    2    1    2    0    0  0.00000000000E+00  0.00000000000E+00  0.14439147733E+04  0.32226802542E+04  0.28811071047E+04 0.  0.
        3    1    3    3  502    0 -0.56286539084E+03  0.10738382236E+04  0.15921686355E+04  0.20012363560E+04  0.10100000352E+00 0.  1.
       -3    1    3    3    0  502  0.56286539084E+03 -0.10738382236E+04 -0.14825386225E+03  0.12214438982E+04  0.10100000352E+00 0. -1.
</event>
<event>
 5   0  0.3746518E-06  0.3010743E+04  0.7818609E-02  0.8240670E-01
        1   -1    0    0  501    0  0.00000000000E+00  0.00000000000E+00  0.10703031798E+04  0.10703031798E+04  0.50400001928E-02 0. -1.
       -1   -1    0    0    0  501  0.00000000000E+00  0.00000000000E+00 -0.21172905621E+04  0.21172905621E+04  0.50400001928E-02 0.  1.
    10030    2    1    2    0    0  0.00000000000E+00  0.00000000000E+00 -0.10469873824E+04  0.31875937419E+04  0.30107426467E+04 0.  0.
        4    1    3    3  502    0  0.35405018945E+03  0.77416059851E+03  0.79099293188E+03  0.11620445775E+04  0.12699999809E+01 0. -1.
       -4    1    3    3    0  502 -0.35405018945E+03 -0.77416059851E+03 -0.18379803143E+04  0.20255491644E+04  0.12699999809E+01 0.  1.
</event>
<event>
 5   0  0.1001573E-05  0.2897695E+04  0.7818609E-02  0.8273564E-01
       -2   -1    0    0    0  501  0.00000000000E+00  0.00000000000E+00  0.70228254518E+03  0.70228254518E+03  0.25500000920E-02 0. -1.
        2   -1    0    0  501    0  0.00000000000E+00  0.00000000000E+00 -0.29890522161E+04  0.29890522161E+04  0.25500000920E-02 0.  1.
    10030    2    1    2    0    0  0.00000000000E+00  0.00000000000E+00 -0.22867696709E+04  0.36913347613E+04  0.28976950827E+04 0.  0.
        1    1    3    3  502    0 -0.72215209593E+03 -0.55743735693E+03  0.29047004061E+03  0.95739902918E+03  0.50400001928E-02 0. -1.
       -1    1    3    3    0  502  0.72215209593E+03  0.55743735693E+03 -0.25772397116E+04  0.27339357321E+04  0.50400001928E-02 0.  1.
</event>
<event>
 5   0  0.9646321E-06  0.2151474E+04  0.7818609E-02  0.8538902E-01
       -2   -1    0    0    0  501  0.00000000000E+00  0.00000000000E+00  0.18823886205E+04  0.18823886205E+04  0.25500000920E-02 0.  1.
        2   -1    0    0  501    0  0.00000000000E+00  0.00000000000E+00 -0.61475628833E+03  0.61475628834E+03  0.25500000920E-02 0. -1.
    10030    2    1    2    0    0  0.00000000000E+00  0.00000000000E+00  0.12676323322E+04  0.24971449089E+04  0.21514741379E+04 0.  0.
        3    1    3    3  502    0  0.98969910555E+03 -0.31144389548E+03  0.96355306854E+03  0.14159576779E+04  0.10100000352E+00 0.  1.
       -3    1    3    3    0  502 -0.98969910555E+03  0.31144389548E+03  0.30407926366E+03  0.10811872309E+04  0.10100000352E+00 0. -1.
</event>
<event>
 5   0  0.1001573E-05  0.2795678E+04  0.7818609E-02  0.8304611E-01
       -2   -1    0    0    0  501  0.00000000000E+00  0.00000000000E+00  0.14089157687E+04  0.14089157687E+04  0.25500000920E-02 0.  1.
        2   -1    0    0  501    0  0.00000000000E+00  0.00000000000E+00 -0.13868494720E+04  0.13868494720E+04  0.25500000920E-02 0. -1.
    10030    2    1    2    0    0  0.00000000000E+00  0.00000000000E+00  0.22066296654E+02  0.27957652407E+04  0.27956781574E+04 0.  0.
        1    1    3    3  502    0 -0.74519661639E+03  0.62212215081E+03 -0.99478151875E+03  0.13899439693E+04  0.50400001928E-02 0. -1.
       -1    1    3    3    0  502  0.74519661639E+03 -0.62212215081E+03  0.10168478154E+04  0.14058212715E+04  0.50400001928E-02 0.  1.
</event>
<event>
 5   0  0.9646321E-06  0.2925794E+04  0.7818609E-02  0.8265244E-01
        2   -1    0    0  501    0  0.00000000000E+00  0.00000000000E+00  0.13495175181E+04  0.13495175181E+04  0.25500000920E-02 0. -1.
       -2   -1    0    0    0  501  0.00000000000E+00  0.00000000000E+00 -0.15858023826E+04  0.15858023826E+04  0.25500000920E-02 0.  1.
    10030    2    1    2    0    0  0.00000000000E+00  0.00000000000E+00 -0.23628486446E+03  0.29353199007E+04  0.29257943164E+04 0.  0.
        3    1    3    3  502    0 -0.38556694494E+03  0.60155557083E+03  0.11625468495E+04  0.13645681227E+04  0.10100000352E+00 0. -1.
       -3    1    3    3    0  502  0.38556694494E+03 -0.60155557083E+03 -0.13988317140E+04  0.15707517780E+04  0.10100000352E+00 0.  1.
</event>
<event>
 5   0  0.9251510E-06  0.2890125E+04  0.7818609E-02  0.8275822E-01
        2   -1    0    0  501    0  0.00000000000E+00  0.00000000000E+00  0.25263433246E+04  0.25263433246E+04  0.25500000920E-02 0. -1.
       -2   -1    0    0    0  501  0.00000000000E+00  0.00000000000E+00 -0.82657250663E+03  0.82657250664E+03  0.25500000920E-02 0.  1.
    10030    2    1    2    0    0  0.00000000000E+00  0.00000000000E+00  0.16997708180E+04  0.33529158313E+04  0.28901252114E+04 0.  0.
        2    1    3    3  502    0  0.20515585072E+03 -0.96094531628E+03 -0.37935851139E+03  0.10532889936E+04  0.25500000920E-02 0.  1.
       -2    1    3    3    0  502 -0.20515585072E+03  0.96094531628E+03  0.20791293294E+04  0.22996268376E+04  0.25500000920E-02 0. -1.
</event>
<event>
 5   0  0.1001573E-05  0.2893907E+04  0.7818609E-02  0.8274693E-01
       -2   -1    0    0    0  501  0.00000000000E+00  0.00000000000E+00  0.74814673532E+03  0.74814673532E+03  0.25500000920E-02 0. -1.
        2   -1    0    0  501    0  0.00000000000E+00  0.00000000000E+00 -0.27984806260E+04  0.27984806260E+04  0.25500000920E-02 0.  1.
    10030    2    1    2    0    0  0.00000000000E+00  0.00000000000E+00 -0.20503338907E+04  0.35466273613E+04  0.28939068017E+04 0.  0.
        1    1    3    3  502    0 -0.79827165801E+03  0.51175160612E+03 -0.23646357508E+04  0.25476714035E+04  0.50400001928E-02 0.  1.
       -1    1    3    3    0  502  0.79827165801E+03 -0.51175160612E+03  0.31430186011E+03  0.99895595781E+03  0.50400001928E-02 0. -1.
</event>
<event>
 5   0  0.3486236E-06  0.3057851E+04  0.7818609E-02  0.8227402E-01
        1   -1    0    0  501    0  0.00000000000E+00  0.00000000000E+00  0.16388538514E+04  0.16388538514E+04  0.50400001928E-02 0. -1.
       -1   -1    0    0    0  501  0.00000000000E+00  0.00000000000E+00 -0.14263704299E+04  0.14263704300E+04  0.50400001928E-02 0.  1.
    10030    2    1    2    0    0  0.00000000000E+00  0.00000000000E+00  0.21248342141E+03  0.30652242813E+04  0.30578506652E+04 0.  0.
        5    1    3    3  502    0 -0.53178327862E+03 -0.97256211764E+03 -0.94935032253E+03  0.14594377866E+04  0.46999998093E+01 0.  1.
       -5    1    3    3    0  502  0.53178327862E+03  0.97256211764E+03  0.11618337439E+04  0.16057864947E+04  0.46999998093E+01 0. -1.
</event>
<event>
 5   0  0.3486236E-06  0.2765588E+04  0.7818609E-02  0.8314032E-01
       -1   -1    0    0    0  501  0.00000000000E+00  0.00000000000E+00  0.86340165780E+03  0.86340165781E+03  0.50400001928E-02 0.  1.
        1   -1    0    0  501    0  0.00000000000E+00  0.00000000000E+00 -0.22146349783E+04  0.22146349783E+04  0.50400001928E-02 0. -1.
    10030    2    1    2    0    0  0.00000000000E+00  0.00000000000E+00 -0.13512333205E+04  0.30780366361E+04  0.27655881918E+04 0.  0.
        5    1    3    3  502    0  0.67077024341E+03  0.63847908974E+03 -0.18185251257E+04  0.20407459397E+04  0.46999998093E+01 0. -1.
       -5    1    3    3    0  502 -0.67077024341E+03 -0.63847908974E+03  0.46729180528E+03  0.10372906964E+04  0.46999998093E+01 0.  1.
</event>
<event>
 5   0  0.9251510E-06  0.2879356E+04  0.7818609E-02  0.8279046E-01
        2   -1    0    0  501    0  0.00000000000E+00  0.00000000000E+00  0.19140391784E+04  0.19140391784E+04  0.25500000920E-02 0. -1.
       -2   -1    0    0    0  501  0.00000000000E+00  0.00000000000E+00 -0.10828792580E+04  0.10828792580E+04  0.25500000920E-02 0.  1.
    10030    2    1    2    0    0  0.00000000000E+00  0.00000000000E+00  0.83115992047E+03  0.29969184364E+04  0.28793564040E+04 0.  0.
        2    1    3    3  502    0  0.83520112042E+03 -0.50017171195E+03  0.15195170075E+04  0.18046231155E+04  0.25500000920E-02 0. -1.
       -2    1    3    3    0  502 -0.83520112042E+03  0.50017171195E+03 -0.68835708702E+03  0.11922953209E+04  0.25500000920E-02 0.  1.
</event>
<event>
 5   0  0.3474078E-06  0.2943653E+04  0.7818609E-02  0.8260007E-01
        1   -1    0    0  501    0  0.00000000000E+00  0.00000000000E+00  0.13889657107E+04  0.13889657107E+04  0.50400001928E-02 0. -1.
       -1   -1    0    0    0  501  0.00000000000E+00  0.00000000000E+00 -0.15596303163E+04  0.15596303163E+04  0.50400001928E-02 0.  1.
    10030    2    1    2    0    0  0.00000000000E+00  0.00000000000E+00 -0.17066460565E+03  0.29485960270E+04  0.29436528536E+04 0.  0.
        3    1    3    3  502    0 -0.41123916618E+02  0.14385940355E+04  0.22345317426E+03  0.14564255239E+04  0.10100000352E+00 0. -1.
       -3    1    3    3    0  502  0.41123916618E+02 -0.14385940355E+04 -0.39411777991E+03  0.14921705030E+04  0.10100000352E+00 0.  1.
</event>
<event>
 5   0  0.3486236E-06  0.2911600E+04  0.7818609E-02  0.8269435E-01
        1   -1    0    0  501    0  0.00000000000E+00  0.00000000000E+00  0.12570315005E+04  0.12570315005E+04  0.50400001928E-02 0.  1.
       -1   -1    0    0    0  501  0.00000000000E+00  0.00000000000E+00 -0.16859983294E+04  0.16859983294E+04  0.50400001928E-02 0. -1.
    10030    2    1    2    0    0  0.00000000000E+00  0.00000000000E+00 -0.42896682890E+03  0.29430298299E+04  0.29115995671E+04 0.  0.
        5    1    3    3  502    0 -0.12429075988E+04 -0.96981053660E+02 -0.97433380460E+03  0.15822683327E+04  0.46999998093E+01 0. -1.
       -5    1    3    3    0  502  0.12429075988E+04  0.96981053660E+02  0.54536697570E+03  0.13607614971E+04  0.46999998093E+01 0.  1.
</event>
<event>
 5   0  0.9360689E-06  0.2929600E+04  0.7818609E-02  0.8264125E-01
        2   -1    0    0  501    0  0.00000000000E+00  0.00000000000E+00  0.16776098052E+04  0.16776098052E+04  0.25500000920E-02 0. -1.
       -2   -1    0    0    0  501  0.00000000000E+00  0.00000000000E+00 -0.12789857794E+04  0.12789857794E+04  0.25500000920E-02 0.  1.
    10030    2    1    2    0    0  0.00000000000E+00  0.00000000000E+00  0.39862402573E+03  0.29565955846E+04  0.29296000302E+04 0.  0.
        5    1    3    3  502    0  0.66779316211E+03 -0.82372860033E+03 -0.82051459538E+03  0.13407993159E+04  0.46999998093E+01 0.  1.
       -5    1    3    3    0  502 -0.66779316211E+03  0.82372860033E+03  0.12191386211E+04  0.16157962687E+04  0.46999998093E+01 0. -1.
</event>
<event>
 5   0  0.9646321E-06  0.2902607E+04  0.7818609E-02  0.8272102E-01
        2   -1    0    0  501    0  0.00000000000E+00  0.00000000000E+00  0.16038417726E+04  0.16038417726E+04  0.25500000920E-02 0. -1.
       -2   -1    0    0    0  501  0.00000000000E+00  0.00000000000E+00 -0.13132729632E+04  0.13132729632E+04  0.25500000920E-02 0.  1.
    10030    2    1    2    0    0  0.00000000000E+00  0.00000000000E+00  0.29056880937E+03  0.29171147358E+04  0.29026071296E+04 0.  0.
        3    1    3    3  502    0  0.13193557560E+04 -0.31372484921E+03 -0.37417339058E+03  0.14068150654E+04  0.10100000352E+00 0. -1.
       -3    1    3    3    0  502 -0.13193557560E+04  0.31372484921E+03  0.66474219996E+03  0.15102996704E+04  0.10100000352E+00 0.  1.
</event>
<event>
 5   0  0.3486236E-06  0.2881850E+04  0.7818609E-02  0.8278298E-01
       -1   -1    0    0    0  501  0.00000000000E+00  0.00000000000E+00  0.99997270436E+03  0.99997270437E+03  0.50400001928E-02 0. -1.
        1   -1    0    0  501    0  0.00000000000E+00  0.00000000000E+00 -0.20763210379E+04  0.20763210379E+04  0.50400001928E-02 0.  1.
    10030    2    1    2    0    0  0.00000000000E+00  0.00000000000E+00 -0.10763483335E+04  0.30762937423E+04  0.28818496584E+04 0.  0.
        5    1    3    3  502    0 -0.12427274407E+04  0.20886164754E+03 -0.12840671767E+04  0.17991234766E+04  0.46999998093E+01 0.  1.
       -5    1    3    3    0  502  0.12427274407E+04 -0.20886164754E+03  0.20771884317E+03  0.12771702657E+04  0.46999998093E+01 0. -1.
</event>
<event>
 5   0  0.9251510E-06  0.2904285E+04  0.7818609E-02  0.8271604E-01
       -2   -1    0    0    0  501  0.00000000000E+00  0.00000000000E+00  0.12060474753E+04  0.12060474753E+04  0.25500000920E-02 0.  1.
        2   -1    0    0  501    0  0.00000000000E+00  0.00000000000E+00 -0.17484529107E+04  0.17484529107E+04  0.25500000920E-02 0. -1.
    10030    2    1    2    0    0  0.00000000000E+00  0.00000000000E+00 -0.54240543536E+03  0.29545003860E+04  0.29042845719E+04 0.  0.
        2    1    3    3  502    0 -0.10408988057E+04 -0.67852388805E+03  0.49335857346E+03  0.13368873073E+04  0.25500000920E-02 0.  1.
       -2    1    3    3    0  502  0.10408988057E+04  0.67852388805E+03 -0.10357640088E+04  0.16176130787E+04  0.25500000920E-02 0. -1.
</event>
<event>
 5   0  0.3564340E-06  0.2867907E+04  0.7818609E-02  0.8282491E-01
       -1   -1    0    0    0  501  0.00000000000E+00  0.00000000000E+00  0.10861068447E+04  0.10861068447E+04  0.50400001928E-02 0.  1.
        1   -1    0    0  501    0  0.00000000000E+00  0.00000000000E+00 -0.18932042895E+04  0.18932042895E+04  0.50400001928E-02 0. -1.
    10030    2    1    2    0    0  0.00000000000E+00  0.00000000000E+00 -0.80709744474E+03  0.29793111342E+04  0.28679066493E+04 0.  0.
        1    1    3    3  502    0  0.10431972218E+03 -0.51703717279E+03  0.98166952617E+03  0.11143989865E+04  0.50400001928E-02 0.  1.
       -1    1    3    3    0  502 -0.10431972218E+03  0.51703717279E+03 -0.17887669709E+04  0.18649121477E+04  0.50400001928E-02 0. -1.
</event>
<event>
 5   0  0.1001573E-05  0.2933855E+04  0.7818609E-02  0.8262875E-01
       -2   -1    0    0    0  501  0.00000000000E+00  0.00000000000E+00  0.14540216785E+04  0.14540216785E+04  0.25500000920E-02 0.  1.
        2   -1    0    0  501    0  0.00000000000E+00  0.00000000000E+00 -0.14799474093E+04  0.14799474093E+04  0.25500000920E-02 0. -1.
    10030    2    1    2    0    0  0.00000000000E+00  0.00000000000E+00 -0.25925730779E+02  0.29339690878E+04  0.29338545404E+04 0.  0.
        1    1    3    3  502    0 -0.76523220056E+03  0.56472852273E+03  0.11039410679E+04  0.14571151316E+04  0.50400001928E-02 0.  1.
       -1    1    3    3    0  502  0.76523220056E+03 -0.56472852273E+03 -0.11298667987E+04  0.14768539562E+04  0.50400001928E-02 0. -1.
</event>
<event>
 5   0  0.3649705E-06  0.2886843E+04  0.7818609E-02  0.8276803E-01
        1   -1    0    0  501    0  0.00000000000E+00  0.00000000000E+00  0.24099258740E+04  0.24099258740E+04  0.50400001928E-02 0.  1.
       -1   -1    0    0    0  501  0.00000000000E+00  0.00000000000E+00 -0.86453500124E+03  0.86453500125E+03  0.50400001928E-02 0. -1.
    10030    2    1    2    0    0  0.00000000000E+00  0.00000000000E+00  0.15453908728E+04  0.32744608753E+04  0.28868427519E+04 0.  0.
        2    1    3    3  502    0  0.83228146539E+03  0.11219507721E+04  0.36059555945E+03  0.14427387601E+04  0.25500000920E-02 0. -1.
       -2    1    3    3    0  502 -0.83228146539E+03 -0.11219507721E+04  0.11847953133E+04  0.18317221151E+04  0.25500000920E-02 0.  1.
</event>
<event>
 5   0  0.3474078E-06  0.2387873E+04  0.7818609E-02  0.8444058E-01
        1   -1    0    0  501    0  0.00000000000E+00  0.00000000000E+00  0.99312564212E+03  0.99312564213E+03  0.50400001928E-02 0.  1.
       -1   -1    0    0    0  501  0.00000000000E+00  0.00000000000E+00 -0.14353512434E+04  0.14353512434E+04  0.50400001928E-02 0. -1.
    10030    2    1    2    0    0  0.00000000000E+00  0.00000000000E+00 -0.44222560128E+03  0.24284768855E+04  0.23878727984E+04 0.  0.
        3    1    3    3  502    0  0.36193581687E+03 -0.30878854966E+03 -0.13347841444E+04  0.14170379763E+04  0.10100000352E+00 0. -1.
       -3    1    3    3    0  502 -0.36193581687E+03  0.30878854966E+03  0.89255854315E+03  0.10114389092E+04  0.10100000352E+00 0.  1.
</event>
<event>
 5   0  0.3486236E-06  0.2902379E+04  0.7818609E-02  0.8272170E-01
        1   -1    0    0  501    0  0.00000000000E+00  0.00000000000E+00  0.18159326545E+04  0.18159326545E+04  0.50400001928E-02 0. -1.
       -1   -1    0    0    0  501  0.00000000000E+00  0.00000000000E+00 -0.11597078032E+04  0.11597078033E+04  0.50400001928E-02 0.  1.
    10030    2    1    2    0    0  0.00000000000E+00  0.00000000000E+00  0.65622485127E+03  0.29756404578E+04  0.29023792100E+04 0.  0.
        5    1    3    3  502    0 -0.83346471958E+03 -0.45745685825E+03  0.14521435759E+04  0.17357054102E+04  0.46999998093E+01 0. -1.
       -5    1    3    3    0  502  0.83346471958E+03  0.45745685825E+03 -0.79591872464E+03  0.12399350476E+04  0.46999998093E+01 0.  1.
</event>
<event>
 5   0  0.3649705E-06  0.2928016E+04  0.7818609E-02  0.8264590E-01
       -1   -1    0    0    0  501  0.00000000000E+00  0.00000000000E+00  0.10784185567E+04  0.10784185567E+04  0.50400001928E-02 0.  1.
        1   -1    0    0  501    0  0.00000000000E+00  0.00000000000E+00 -0.19874652971E+04  0.19874652971E+04  0.50400001928E-02 0. -1.
    10030    2    1    2    0    0  0.00000000000E+00  0.00000000000E+00 -0.90904674045E+03  0.30658838538E+04  0.29280160226E+04 0.  0.
        2    1    3    3  502    0  0.28884241779E+03 -0.57552045206E+03  0.92217170801E+03  0.11247463679E+04  0.25500000920E-02 0.  1.
       -2    1    3    3    0  502 -0.28884241779E+03  0.57552045206E+03 -0.18312184485E+04  0.19411374859E+04  0.25500000920E-02 0. -1.
</event>
<event>
 5   0  0.9505359E-06  0.2941045E+04  0.7818609E-02  0.8260769E-01
        2   -1    0    0  501    0  0.00000000000E+00  0.00000000000E+00  0.12919647491E+04  0.12919647491E+04  0.25500000920E-02 0. -1.
       -2   -1    0    0    0  501  0.00000000000E+00  0.00000000000E+00 -0.16737579051E+04  0.16737579051E+04  0.25500000920E-02 0.  1.
    10030    2    1    2    0    0  0.00000000000E+00  0.00000000000E+00 -0.38179315601E+03  0.29657226542E+04  0.29410448564E+04 0.  0.
        4    1    3    3  502    0  0.21490470940E+03  0.14267382212E+04 -0.47730196399E+03  0.15197318065E+04  0.12699999809E+01 0. -1.
       -4    1    3    3    0  502 -0.21490470940E+03 -0.14267382212E+04  0.95508807977E+02  0.14459908476E+04  0.12699999809E+01 0.  1.
</event>
<event>
 5   0  0.3746518E-06  0.3022104E+04  0.7818609E-02  0.8237447E-01
       -1   -1    0    0    0  501  0.00000000000E+00  0.00000000000E+00  0.13951966445E+04  0.13951966445E+04  0.50400001928E-02 0.  1.
        1   -1    0    0  501    0  0.00000000000E+00  0.00000000000E+00 -0.16365280103E+04  0.16365280103E+04  0.50400001928E-02 0. -1.
    10030    2    1    2    0    0  0.00000000000E+00  0.00000000000E+00 -0.24133136574E+03  0.30317246548E+04  0.30221041601E+04 0.  0.
        4    1    3    3  502    0 -0.14829972652E+03  0.99263891955E+03 -0.12538419899E+04  0.16060654352E+04  0.12699999809E+01 0. -1.
       -4    1    3    3    0  502  0.14829972652E+03 -0.99263891955E+03  0.10125106242E+04  0.14256592196E+04  0.12699999809E+01 0.  1.
</event>
<event>
 5   0  0.3486236E-06  0.2934905E+04  0.7818609E-02  0.8262567E-01
        1   -1    0    0  501    0  0.00000000000E+00  0.00000000000E+00  0.12008652087E+04  0.12008652087E+04  0.50400001928E-02 0.  1.
       -1   -1    0    0    0  501  0.00000000000E+00  0.00000000000E+00 -0.17932208299E+04  0.17932208299E+04  0.50400001928E-02 0. -1.
    10030    2    1    2    0    0  0.00000000000E+00  0.00000000000E+00 -0.59235562121E+03  0.29940860386E+04  0.29349047727E+04 0.  0.
        5    1    3    3  502    0  0.57583168973E+03 -0.51666175512E+03  0.97591181412E+03  0.12453704120E+04  0.46999998093E+01 0.  1.
       -5    1    3    3    0  502 -0.57583168973E+03  0.51666175512E+03 -0.15682674353E+04  0.17487156266E+04  0.46999998093E+01 0. -1.
</event>
<event>
 5   0  0.3188375E-06  0.2911842E+04  0.7818609E-02  0.8269363E-01
       -4   -1    0    0    0  501  0.00000000000E+00  0.00000000000E+00  0.18590420191E+04  0.18590424529E+04  0.12699999809E+01 0.  1.
        4   -1    0    0  501    0  0.00000000000E+00  0.00000000000E+00 -0.11402131474E+04  0.11402138547E+04  0.12699999809E+01 0. -1.
    10030    2    1    2    0    0  0.00000000000E+00  0.00000000000E+00  0.71882887162E+03  0.29992563076E+04  0.29118419346E+04 0.  0.
        5    1    3    3  502    0  0.65911044918E+02 -0.84889981460E+02 -0.11361144591E+04  0.11411961834E+04  0.46999998093E+01 0. -1.
       -5    1    3    3    0  502 -0.65911044918E+02  0.84889981460E+02  0.18549433307E+04  0.18580601242E+04  0.46999998093E+01 0.  1.
</event>
<event>
 5   0  0.1001573E-05  0.2864487E+04  0.7818609E-02  0.8283523E-01
       -2   -1    0    0    0  501  0.00000000000E+00  0.00000000000E+00  0.63894537530E+03  0.63894537531E+03  0.25500000920E-02 0.  1.
        2   -1    0    0  501    0  0.00000000000E+00  0.00000000000E+00 -0.32104807730E+04  0.32104807730E+04  0.25500000920E-02 0. -1.
    10030    2    1    2    0    0  0.00000000000E+00  0.00000000000E+00 -0.25715353977E+04  0.38494261483E+04  0.28644872787E+04 0.  0.
        1    1    3    3  502    0 -0.14236368470E+03  0.27014621069E+03 -0.31662264232E+04  0.31809175024E+04  0.50400001928E-02 0. -1.
       -1    1    3    3    0  502  0.14236368470E+03 -0.27014621069E+03  0.59469102550E+03  0.66850864595E+03  0.50400001928E-02 0.  1.
</event>
<event>
 5   0  0.9646321E-06  0.2905682E+04  0.7818609E-02  0.8271189E-01
       -2   -1    0    0    0  501  0.00000000000E+00  0.00000000000E+00  0.10893430603E+04  0.10893430603E+04  0.25500000920E-02 0. -1.
        2   -1    0    0  501    0  0.00000000000E+00  0.00000000000E+00 -0.19376335615E+04  0.19376335615E+04  0.25500000920E-02 0.  1.
    10030    2    1    2    0    0  0.00000000000E+00  0.00000000000E+00 -0.84829050122E+03  0.30269766218E+04  0.29056824834E+04 0.  0.
        3    1    3    3  502    0 -0.88988460662E+03  0.17166057103E+03 -0.16070569739E+04  0.18449916239E+04  0.10100000352E+00 0.  1.
       -3    1    3    3    0  502  0.88988460662E+03 -0.17166057103E+03  0.75876647272E+03  0.11819849978E+04  0.10100000352E+00 0. -1.
</event>
<event>
 5   0  0.9646321E-06  0.2424149E+04  0.7818609E-02  0.8430518E-01
       -2   -1    0    0    0  501  0.00000000000E+00  0.00000000000E+00  0.77420064413E+03  0.77420064413E+03  0.25500000920E-02 0.  1.
        2   -1    0    0  501    0  0.00000000000E+00  0.00000000000E+00 -0.18976011560E+04  0.18976011560E+04  0.25500000920E-02 0. -1.
    10030    2    1    2    0    0  0.00000000000E+00  0.00000000000E+00 -0.11234005119E+04  0.26718018001E+04  0.24241485411E+04 0.  0.
        3    1    3    3  502    0 -0.87319900083E+02 -0.16280475734E+03 -0.18819923830E+04  0.18910382052E+04  0.10100000352E+00 0. -1.
       -3    1    3    3    0  502  0.87319900083E+02  0.16280475734E+03  0.75859187111E+03  0.78076359487E+03  0.10100000352E+00 0.  1.
</event>
<event>
 5   0  0.3746518E-06  0.2903661E+04  0.7818609E-02  0.8271789E-01
       -1   -1    0    0    0  501  0.00000000000E+00  0.00000000000E+00  0.68096640599E+03  0.68096640601E+03  0.50400001928E-02 0.  1.
        1   -1    0    0  501    0  0.00000000000E+00  0.00000000000E+00 -0.30953237262E+04  0.30953237262E+04  0.50400001928E-02 0. -1.
    10030    2    1    2    0    0  0.00000000000E+00  0.00000000000E+00 -0.24143573202E+04  0.37762901323E+04  0.29036607745E+04 0.  0.
        4    1    3    3  502    0 -0.12704965628E+04 -0.55546845000E+03 -0.64764479719E+03  0.15304091320E+04  0.12699999809E+01 0. -1.
       -4    1    3    3    0  502  0.12704965628E+04  0.55546845000E+03 -0.17667125231E+04  0.22458810002E+04  0.12699999809E+01 0.  1.
</event>
<event>
 5   0  0.1001573E-05  0.2890315E+04  0.7818609E-02  0.8275765E-01
       -2   -1    0    0    0  501  0.00000000000E+00  0.00000000000E+00  0.78348668125E+03  0.78348668125E+03  0.25500000920E-02 0. -1.
        2   -1    0    0  501    0  0.00000000000E+00  0.00000000000E+00 -0.26656238739E+04  0.26656238739E+04  0.25500000920E-02 0.  1.
    10030    2    1    2    0    0  0.00000000000E+00  0.00000000000E+00 -0.18821371926E+04  0.34491105551E+04  0.28903154170E+04 0.  0.
        1    1    3    3  502    0 -0.58072620595E+03  0.12941670890E+04 -0.12708465565E+04  0.19045110529E+04  0.50400001928E-02 0.  1.
       -1    1    3    3    0  502  0.58072620595E+03 -0.12941670890E+04 -0.61129063616E+03  0.15445995022E+04  0.50400001928E-02 0. -1.
</event>
<event>
 5   0  0.3649705E-06  0.2871858E+04  0.7818609E-02  0.8281300E-01
        1   -1    0    0  501    0  0.00000000000E+00  0.00000000000E+00  0.22382114301E+04  0.22382114301E+04  0.50400001928E-02 0. -1.
       -1   -1    0    0    0  501  0.00000000000E+00  0.00000000000E+00 -0.92122299043E+03  0.92122299044E+03  0.50400001928E-02 0.  1.
    10030    2    1    2    0    0  0.00000000000E+00  0.00000000000E+00  0.13169884397E+04  0.31594344206E+04  0.28718578146E+04 0.  0.
        2    1    3    3  502    0  0.13270509829E+04  0.49631355392E+03  0.40166398788E+03  0.14726593001E+04  0.25500000920E-02 0.  1.
       -2    1    3    3    0  502 -0.13270509829E+04 -0.49631355392E+03  0.91532445181E+03  0.16867751205E+04  0.25500000920E-02 0. -1.
</event>
<event>
 5   0  0.3564340E-06  0.2925706E+04  0.7818609E-02  0.8265270E-01
        1   -1    0    0  501    0  0.00000000000E+00  0.00000000000E+00  0.23460994756E+04  0.23460994756E+04  0.50400001928E-02 0. -1.
       -1   -1    0    0    0  501  0.00000000000E+00  0.00000000000E+00 -0.91212632042E+03  0.91212632044E+03  0.50400001928E-02 0.  1.
    10030    2    1    2    0    0  0.00000000000E+00  0.00000000000E+00  0.14339731551E+04  0.32582257960E+04  0.29257061247E+04 0.  0.
        1    1    3    3  502    0  0.83604655348E+03  0.10776978981E+04  0.13057849731E+04  0.18882481286E+04  0.50400001928E-02 0. -1.
       -1    1    3    3    0  502 -0.83604655348E+03 -0.10776978981E+04  0.12818818205E+03  0.13699776674E+04  0.50400001928E-02 0.  1.
</event>
<event>
 5   0  0.3486236E-06  0.2905497E+04  0.7818609E-02  0.8271244E-01
        1   -1    0    0  501    0  0.00000000000E+00  0.00000000000E+00  0.19396092084E+04  0.19396092084E+04  0.50400001928E-02 0. -1.
       -1   -1    0    0    0  501  0.00000000000E+00  0.00000000000E+00 -0.10880946432E+04  0.10880946432E+04  0.50400001928E-02 0.  1.
    10030    2    1    2    0    0  0.00000000000E+00  0.00000000000E+00  0.85151456515E+03  0.30277038516E+04  0.29054971276E+04 0.  0.
        5    1    3    3  502    0 -0.71521646155E+03  0.12502261494E+04  0.62307932740E+03  0.15693469819E+04  0.46999998093E+01 0.  1.
       -5    1    3    3    0  502  0.71521646155E+03 -0.12502261494E+04  0.22843523775E+03  0.14583568697E+04  0.46999998093E+01 0. -1.
</event>
<event>
 5   0  0.9251510E-06  0.2980468E+04  0.7818609E-02  0.8249331E-01
       -2   -1    0    0    0  501  0.00000000000E+00  0.00000000000E+00  0.19831808194E+04  0.19831808194E+04  0.25500000920E-02 0.  1.
        2   -1    0    0  501    0  0.00000000000E+00  0.00000000000E+00 -0.11198156331E+04  0.11198156331E+04  0.25500000920E-02 0. -1.
    10030    2    1    2    0    0  0.00000000000E+00  0.00000000000E+00  0.86336518631E+03  0.31029964526E+04  0.29804676713E+04 0.  0.
        2    1    3    3  502    0  0.10727727224E+04  0.82222651343E+03 -0.22173282093E+03  0.13696945635E+04  0.25500000920E-02 0. -1.
       -2    1    3    3    0  502 -0.10727727224E+04 -0.82222651343E+03  0.10850980072E+04  0.17333018891E+04  0.25500000920E-02 0.  1.
</event>
<event>
 5   0  0.1001573E-05  0.2920387E+04  0.7818609E-02  0.8266837E-01
        2   -1    0    0  501    0  0.00000000000E+00  0.00000000000E+00  0.18328138094E+04  0.18328138094E+04  0.25500000920E-02 0.  1.
       -2   -1    0    0    0  501  0.00000000000E+00  0.00000000000E+00 -0.11633291499E+04  0.11633291499E+04  0.25500000920E-02 0. -1.
    10030    2    1    2    0    0  0.00000000000E+00  0.00000000000E+00  0.66948465952E+03  0.29961429594E+04  0.29203874612E+04 0.  0.
        1    1    3    3  502    0  0.13000005309E+04  0.13184018855E+03 -0.33391771426E+03  0.13486601705E+04  0.50400001928E-02 0.  1.
       -1    1    3    3    0  502 -0.13000005309E+04 -0.13184018855E+03  0.10034023738E+04  0.16474827888E+04  0.50400001928E-02 0. -1.
</event>
<event>
 5   0  0.9360689E-06  0.2942506E+04  0.7818609E-02  0.8260342E-01
       -2   -1    0    0    0  501  0.00000000000E+00  0.00000000000E+00  0.11903489506E+04  0.11903489506E+04  0.25500000920E-02 0.  1.
        2   -1    0    0  501    0  0.00000000000E+00  0.00000000000E+00 -0.18184464785E+04  0.18184464785E+04  0.25500000920E-02 0. -1.
    10030    2    1    2    0    0  0.00000000000E+00  0.00000000000E+00 -0.62809752793E+03  0.30087954291E+04  0.29425063177E+04 0.  0.
        5    1    3    3  502    0 -0.14634314628E+04  0.13100365604E+03 -0.23637590326E+03  0.14881832085E+04  0.46999998093E+01 0. -1.
       -5    1    3    3    0  502  0.14634314628E+04 -0.13100365604E+03 -0.39172162466E+03  0.15206122206E+04  0.46999998093E+01 0.  1.
</event>
<event>
 5   0  0.3188375E-06  0.2894191E+04  0.7818609E-02  0.8274608E-01
        3   -1    0    0  501    0  0.00000000000E+00  0.00000000000E+00  0.10127193568E+04  0.10127193618E+04  0.10100000352E+00 0.  1.
       -3   -1    0    0    0  501  0.00000000000E+00  0.00000000000E+00 -0.20677847021E+04  0.20677847046E+04  0.10100000352E+00 0. -1.
    10030    2    1    2    0    0  0.00000000000E+00  0.00000000000E+00 -0.10550653453E+04  0.30805040664E+04  0.28941911513E+04 0.  0.
        3    1    3    3  502    0  0.51186170571E+03  0.95280144065E+03  0.49573656073E+03  0.11897847448E+04  0.10100000352E+00 0.  1.
       -3    1    3    3    0  502 -0.51186170571E+03 -0.95280144065E+03 -0.15508019061E+04  0.18907193216E+04  0.10100000352E+00 0. -1.
</event>
<event>
 5   0  0.3188375E-06  0.2865242E+04  0.7818609E-02  0.8283295E-01
        4   -1    0    0  501    0  0.00000000000E+00  0.00000000000E+00  0.12999838710E+04  0.12999844914E+04  0.12699999809E+01 0.  1.
       -4   -1    0    0    0  501  0.00000000000E+00  0.00000000000E+00 -0.15787897094E+04  0.15787902202E+04  0.12699999809E+01 0. -1.
    10030    2    1    2    0    0  0.00000000000E+00  0.00000000000E+00 -0.27880583839E+03  0.28787747116E+04  0.28652418998E+04 0.  0.
        3    1    3    3  502    0  0.75257861324E+02  0.53755930778E+03  0.11926678204E+04  0.13103779207E+04  0.10100000352E+00 0.  1.
       -3    1    3    3    0  502 -0.75257861324E+02 -0.53755930778E+03 -0.14714736588E+04  0.15683967909E+04  0.10100000352E+00 0. -1.
</event>
<event>
 5   0  0.9505359E-06  0.2884372E+04  0.7818609E-02  0.8277542E-01
        2   -1    0    0  501    0  0.00000000000E+00  0.00000000000E+00  0.22844404316E+04  0.22844404316E+04  0.25500000920E-02 0.  1.
       -2   -1    0    0    0  501  0.00000000000E+00  0.00000000000E+00 -0.91046388545E+03  0.91046388545E+03  0.25500000920E-02 0. -1.
    10030    2    1    2    0    0  0.00000000000E+00  0.00000000000E+00  0.13739765461E+04  0.31949043170E+04  0.28843720366E+04 0.  0.
        4    1    3    3  502    0  0.13487754704E+04  0.24693875660E+02  0.12208822185E+03  0.13545154868E+04  0.12699999809E+01 0. -1.
       -4    1    3    3    0  502 -0.13487754704E+04 -0.24693875660E+02  0.12518883243E+04  0.18403888302E+04  0.12699999809E+01 0.  1.
</event>
<event>
 5   0  0.1001573E-05  0.2900579E+04  0.7818609E-02  0.8272705E-01
       -2   -1    0    0    0  501  0.00000000000E+00  0.00000000000E+00  0.10721533726E+04  0.10721533726E+04  0.25500000920E-02 0. -1.
        2   -1    0    0  501    0  0.00000000000E+00  0.00000000000E+00 -0.19617898038E+04  0.19617898038E+04  0.25500000920E-02 0.  1.
    10030    2    1    2    0    0  0.00000000000E+00  0.00000000000E+00 -0.88963643123E+03  0.30339431764E+04  0.29005789453E+04 0.  0.
        1    1    3    3  502    0 -0.13908777816E+04 -0.98939782230E+02 -0.27723921876E+02  0.13946679532E+04  0.50400001928E-02 0. -1.
       -1    1    3    3    0  502  0.13908777816E+04  0.98939782230E+02 -0.86191250935E+03  0.16392752232E+04  0.50400001928E-02 0.  1.
</event>
<event>
 5   0  0.3564340E-06  0.2907719E+04  0.7818609E-02  0.8270584E-01
       -1   -1    0    0    0  501  0.00000000000E+00  0.00000000000E+00  0.10727540767E+04  0.10727540768E+04  0.50400001928E-02 0.  1.
        1   -1    0    0  501    0  0.00000000000E+00  0.00000000000E+00 -0.19703565341E+04  0.19703565342E+04  0.50400001928E-02 0. -1.
    10030    2    1    2    0    0  0.00000000000E+00  0.00000000000E+00 -0.89760245741E+03  0.30431106109E+04  0.29077193844E+04 0.  0.
        1    1    3    3  502    0 -0.10562135582E+04 -0.26423681125E+03  0.55954431312E+03  0.12241315335E+04  0.50400001928E-02 0. -1.
       -1    1    3    3    0  502  0.10562135582E+04  0.26423681125E+03 -0.14571467705E+04  0.18189790774E+04  0.50400001928E-02 0.  1.
</event>
<event>
 5   0  0.3486236E-06  0.2873710E+04  0.7818609E-02  0.8280743E-01
       -1   -1    0    0    0  501  0.00000000000E+00  0.00000000000E+00  0.15903752303E+04  0.15903752303E+04  0.50400001928E-02 0.  1.
        1   -1    0    0  501    0  0.00000000000E+00  0.00000000000E+00 -0.12981543049E+04  0.12981543049E+04  0.50400001928E-02 0. -1.
    10030    2    1    2    0    0  0.00000000000E+00  0.00000000000E+00  0.29222092537E+03  0.28885295352E+04  0.28737101118E+04 0.  0.
        5    1    3    3  502    0 -0.19237164588E+03 -0.10989525489E+04 -0.76400169058E+03  0.13521923784E+04  0.46999998093E+01 0. -1.
       -5    1    3    3    0  502  0.19237164588E+03  0.10989525489E+04  0.10562226159E+04  0.15363371568E+04  0.46999998093E+01 0.  1.
</event>
<event>
 5   0  0.9360689E-06  0.2893912E+04  0.7818609E-02  0.8274691E-01
       -2   -1    0    0    0  501  0.00000000000E+00  0.00000000000E+00  0.15258203746E+04  0.15258203746E+04  0.25500000920E-02 0. -1.
        2   -1    0    0  501    0  0.00000000000E+00  0.00000000000E+00 -0.13721677966E+04  0.13721677966E+04  0.25500000920E-02 0.  1.
    10030    2    1    2    0    0  0.00000000000E+00  0.00000000000E+00  0.15365257799E+03  0.28979881711E+04  0.28939119415E+04 0.  0.
        5    1    3    3  502    0  0.11604813589E+04  0.23723012830E+03  0.90905908026E+03  0.14931194257E+04  0.46999998093E+01 0. -1.
       -5    1    3    3    0  502 -0.11604813589E+04 -0.23723012830E+03 -0.75540650227E+03  0.14048687454E+04  0.46999998093E+01 0.  1.
</event>
<event>
 5   0  0.9360689E-06  0.2953514E+04  0.7818609E-02  0.8257131E-01
       -2   -1    0    0    0  501  0.00000000000E+00  0.00000000000E+00  0.75952997152E+03  0.75952997152E+03  0.25500000920E-02 0. -1.
        2   -1    0    0  501    0  0.00000000000E+00  0.00000000000E+00 -0.28712641540E+04  0.28712641540E+04  0.25500000920E-02 0.  1.
    10030    2    1    2    0    0  0.00000000000E+00  0.00000000000E+00 -0.21117341824E+04  0.36307941255E+04  0.29535139621E+04 0.  0.
        5    1    3    3  502    0  0.67093735523E+03 -0.24480172440E+03  0.53309079731E+03  0.89123100658E+03  0.46999998093E+01 0. -1.
       -5    1    3    3    0  502 -0.67093735523E+03  0.24480172440E+03 -0.26448249797E+04  0.27395631189E+04  0.46999998093E+01 0.  1.
</event>
<event>
 5   0  0.9360689E-06  0.2900639E+04  0.7818609E-02  0.8272687E-01
        2   -1    0    0  501    0  0.00000000000E+00  0.00000000000E+00  0.15443063125E+04  0.15443063125E+04  0.25500000920E-02 0.  1.
       -2   -1    0    0    0  501  0.00000000000E+00  0.00000000000E+00 -0.13620531431E+04  0.13620531431E+04  0.25500000920E-02 0. -1.
    10030    2    1    2    0    0  0.00000000000E+00  0.00000000000E+00  0.18225316935E+03  0.29063594556E+04  0.29006394239E+04 0.  0.
        5    1    3    3  502    0  0.50373684336E+03 -0.22597790805E+03  0.14348858432E+04  0.15374447292E+04  0.46999998093E+01 0.  1.
       -5    1    3    3    0  502 -0.50373684336E+03  0.22597790805E+03 -0.12526326739E+04  0.13689147263E+04  0.46999998093E+01 0. -1.
</event>
<event>
 5   0  0.9505359E-06  0.2911229E+04  0.7818609E-02  0.8269544E-01
       -2   -1    0    0    0  501  0.00000000000E+00  0.00000000000E+00  0.19316974973E+04  0.19316974973E+04  0.25500000920E-02 0. -1.
        2   -1    0    0  501    0  0.00000000000E+00  0.00000000000E+00 -0.10968663080E+04  0.10968663080E+04  0.25500000920E-02 0.  1.
    10030    2    1    2    0    0  0.00000000000E+00  0.00000000000E+00  0.83483118936E+03  0.30285638053E+04  0.29112292263E+04 0.  0.
        4    1    3    3  502    0 -0.10019065818E+03  0.57325216371E+03  0.18054152744E+04  0.18968874867E+04  0.12699999809E+01 0. -1.
       -4    1    3    3    0  502  0.10019065818E+03 -0.57325216371E+03 -0.97058408504E+03  0.11316763187E+04  0.12699999809E+01 0.  1.
</event>
<event>
 5   0  0.9505359E-06  0.2921112E+04  0.7818609E-02  0.8266623E-01
        2   -1    0    0  501    0  0.00000000000E+00  0.00000000000E+00  0.27490339066E+04  0.27490339066E+04  0.25500000920E-02 0. -1.
       -2   -1    0    0    0  501  0.00000000000E+00  0.00000000000E+00 -0.77599063204E+03  0.77599063205E+03  0.25500000920E-02 0.  1.
    10030    2    1    2    0    0  0.00000000000E+00  0.00000000000E+00  0.19730432746E+04  0.35250245387E+04  0.29211124995E+04 0.  0.
        4    1    3    3  502    0  0.96556851230E+03  0.54402547558E+03 -0.16142832058E+03  0.11199763326E+04  0.12699999809E+01 0.  1.
       -4    1    3    3    0  502 -0.96556851230E+03 -0.54402547558E+03  0.21344715952E+04  0.24050482061E+04  0.12699999809E+01 0. -1.
</event>
<event>
 5   0  0.3486236E-06  0.2866344E+04  0.7818609E-02  0.8282962E-01
       -1   -1    0    0    0  501  0.00000000000E+00  0.00000000000E+00  0.17645202737E+04  0.17645202737E+04  0.50400001928E-02 0.  1.
        1   -1    0    0  501    0  0.00000000000E+00  0.00000000000E+00 -0.11640455489E+04  0.11640455489E+04  0.50400001928E-02 0. -1.
    10030    2    1    2    0    0  0.00000000000E+00  0.00000000000E+00  0.60047472482E+03  0.29285658226E+04  0.28663439923E+04 0.  0.
        5    1    3    3  502    0  0.53478114025E+03  0.12447805276E+04  0.77781382093E+03  0.15622054474E+04  0.46999998093E+01 0.  1.
       -5    1    3    3    0  502 -0.53478114025E+03 -0.12447805276E+04 -0.17733909611E+03  0.13663603752E+04  0.46999998093E+01 0. -1.
</event>
<event>
 5   0  0.9646321E-06  0.2718573E+04  0.7818609E-02  0.8329004E-01
        2   -1    0    0  501    0  0.00000000000E+00  0.00000000000E+00  0.19468748132E+04  0.19468748132E+04  0.25500000920E-02 0.  1.
       -2   -1    0    0    0  501  0.00000000000E+00  0.00000000000E+00 -0.94903906071E+03  0.94903906072E+03  0.25500000920E-02 0. -1.
    10030    2    1    2    0    0  0.00000000000E+00  0.00000000000E+00  0.99783575246E+03  0.28959138739E+04  0.27185733347E+04 0.  0.
        3    1    3    3  502    0  0.78528165693E+03  0.50713685638E+03 -0.55227068161E+03  0.10857522681E+04  0.10100000352E+00 0. -1.
       -3    1    3    3    0  502 -0.78528165693E+03 -0.50713685638E+03  0.15501064341E+04  0.18101616058E+04  0.10100000352E+00 0.  1.
</event>
<event>
 5   0  0.9251510E-06  0.2876964E+04  0.7818609E-02  0.8279764E-01
       -2   -1    0    0    0  501  0.00000000000E+00  0.00000000000E+00  0.12383966272E+04  0.12383966272E+04  0.25500000920E-02 0. -1.
        2   -1    0    0  501    0  0.00000000000E+00  0.00000000000E+00 -0.16708948769E+04  0.16708948769E+04  0.25500000920E-02 0.  1.
    10030    2    1    2    0    0  0.00000000000E+00  0.00000000000E+00 -0.43249824978E+03  0.29092915041E+04  0.28769640804E+04 0.  0.
        2    1    3    3  502    0  0.20620931513E+03 -0.14079927810E+04 -0.34934254126E+01  0.14230172722E+04  0.25500000920E-02 0. -1.
       -2    1    3    3    0  502 -0.20620931513E+03  0.14079927810E+04 -0.42900482437E+03  0.14862742319E+04  0.25500000920E-02 0.  1.
</event>
<event>
 5   0  0.3474078E-06  0.2928469E+04  0.7818609E-02  0.8264457E-01
        1   -1    0    0  501    0  0.00000000000E+00  0.00000000000E+00  0.12382422035E+04  0.12382422035E+04  0.50400001928E-02 0.  1.
       -1   -1    0    0    0  501  0.00000000000E+00  0.00000000000E+00 -0.17314732431E+04  0.17314732431E+04  0.50400001928E-02 0. -1.
    10030    2    1    2    0    0  0.00000000000E+00  0.00000000000E+00 -0.49323103955E+03  0.29697154466E+04  0.29284693912E+04 0.  0.
        3    1    3    3  502    0 -0.85242702155E+03 -0.25050054482E+03 -0.14268813283E+04  0.16808844949E+04  0.10100000352E+00 0. -1.
       -3    1    3    3    0  502  0.85242702155E+03  0.25050054482E+03  0.93365028875E+03  0.12888309516E+04  0.10100000352E+00 0.  1.
</event>
<event>
 5   0  0.9360689E-06  0.2930105E+04  0.7818609E-02  0.8263976E-01
        2   -1    0    0  501    0  0.00000000000E+00  0.00000000000E+00  0.17711277126E+04  0.17711277126E+04  0.25500000920E-02 0.  1.
       -2   -1    0    0    0  501  0.00000000000E+00  0.00000000000E+00 -0.12118715436E+04  0.12118715436E+04  0.25500000920E-02 0. -1.
    10030    2    1    2    0    0  0.00000000000E+00  0.00000000000E+00  0.55925616894E+03  0.29829992562E+04  0.29301053053E+04 0.  0.
        5    1    3    3  502    0  0.81675772535E+03 -0.56288775006E+03  0.13772473258E+04  0.16972825597E+04  0.46999998093E+01 0.  1.
       -5    1    3    3    0  502 -0.81675772535E+03  0.56288775006E+03 -0.81799115681E+03  0.12857166965E+04  0.46999998093E+01 0. -1.
</event>
<event>
 5   0  0.9251510E-06  0.2943008E+04  0.7818609E-02  0.8260195E-01
       -2   -1    0    0    0  501  0.00000000000E+00  0.00000000000E+00  0.13585019731E+04  0.13585019731E+04  0.25500000920E-02 0.  1.
        2   -1    0    0  501    0  0.00000000000E+00  0.00000000000E+00 -0.15939053505E+04  0.15939053505E+04  0.25500000920E-02 0. -1.
    10030    2    1    2    0    0  0.00000000000E+00  0.00000000000E+00 -0.23540337740E+03  0.29524073235E+04  0.29430076884E+04 0.  0.
        2    1    3    3  502    0 -0.10473256673E+04  0.83929190849E+03 -0.72297072301E+03  0.15244633899E+04  0.25500000920E-02 0. -1.
       -2    1    3    3    0  502  0.10473256673E+04 -0.83929190849E+03  0.48756734561E+03  0.14279439336E+04  0.25500000920E-02 0.  1.
</event>
<event>
 5   0  0.3564340E-06  0.2161084E+04  0.7818609E-02  0.8534802E-01
        1   -1    0    0  501    0  0.00000000000E+00  0.00000000000E+00  0.15088252580E+04  0.15088252580E+04  0.50400001928E-02 0. -1.
       -1   -1    0    0    0  501  0.00000000000E+00  0.00000000000E+00 -0.77382814313E+03  0.77382814314E+03  0.50400001928E-02 0.  1.
    10030    2    1    2    0    0  0.00000000000E+00  0.00000000000E+00  0.73499711491E+03  0.22826534012E+04  0.21610844016E+04 0.  0.
        1    1    3    3  502    0  0.58514040848E+03 -0.76399971487E+03  0.88655519622E+03  0.13084590089E+04  0.50400001928E-02 0. -1.
       -1    1    3    3    0  502 -0.58514040848E+03  0.76399971487E+03 -0.15155808131E+03  0.97419439230E+03  0.50400001928E-02 0.  1.
</event>
<event>
 5   0  0.9360689E-06  0.2878144E+04  0.7818609E-02  0.8279410E-01
       -2   -1    0    0    0  501  0.00000000000E+00  0.00000000000E+00  0.85989195256E+03  0.85989195256E+03  0.25500000920E-02 0. -1.
        2   -1    0    0  501    0  0.00000000000E+00  0.00000000000E+00 -0.24083586567E+04  0.24083586567E+04  0.25500000920E-02 0.  1.
    10030    2    1    2    0    0  0.00000000000E+00  0.00000000000E+00 -0.15484667041E+04  0.32682506092E+04  0.28781440046E+04 0.  0.
        5    1    3    3  502    0  0.96048446452E+03  0.99567865181E+03 -0.12241709822E+04  0.18473015639E+04  0.46999998093E+01 0. -1.
       -5    1    3    3    0  502 -0.96048446452E+03 -0.99567865181E+03 -0.32429572192E+03  0.14209490454E+04  0.46999998093E+01 0.  1.
</event>
<event>
 5   0  0.9360689E-06  0.2913858E+04  0.7818609E-02  0.8268766E-01
       -2   -1    0    0    0  501  0.00000000000E+00  0.00000000000E+00  0.13253464435E+04  0.13253464435E+04  0.25500000920E-02 0.  1.
        2   -1    0    0  501    0  0.00000000000E+00  0.00000000000E+00 -0.16015748197E+04  0.16015748197E+04  0.25500000920E-02 0. -1.
    10030    2    1    2    0    0  0.00000000000E+00  0.00000000000E+00 -0.27622837618E+03  0.29269212632E+04  0.29138575746E+04 0.  0.
        5    1    3    3  502    0  0.44910422864E+03  0.80121097965E+03 -0.12741069753E+04  0.15706700215E+04  0.46999998093E+01 0. -1.
       -5    1    3    3    0  502 -0.44910422864E+03 -0.80121097965E+03  0.99787859909E+03  0.13562512417E+04  0.46999998093E+01 0.  1.
</event>
<event>
 5   0  0.9646321E-06  0.2893388E+04  0.7818609E-02  0.8274847E-01
        2   -1    0    0  501    0  0.00000000000E+00  0.00000000000E+00  0.16538175058E+04  0.16538175058E+04  0.25500000920E-02 0.  1.
       -2   -1    0    0    0  501  0.00000000000E+00  0.00000000000E+00 -0.12655108116E+04  0.12655108116E+04  0.25500000920E-02 0. -1.
    10030    2    1    2    0    0  0.00000000000E+00  0.00000000000E+00  0.38830669420E+03  0.29193283174E+04  0.28933882795E+04 0.  0.
        3    1    3    3  502    0  0.10619770635E+04 -0.39590444052E+03 -0.71301154741E+03  0.13390000322E+04  0.10100000352E+00 0. -1.
       -3    1    3    3    0  502 -0.10619770635E+04  0.39590444052E+03  0.11013182416E+04  0.15803282852E+04  0.10100000352E+00 0.  1.
</event>
<event>
 5   0  0.3649705E-06  0.2903465E+04  0.7818609E-02  0.8271847E-01
       -1   -1    0    0    0  501  0.00000000000E+00  0.00000000000E+00  0.15925485461E+04  0.15925485461E+04  0.50400001928E-02 0. -1.
        1   -1    0    0  501    0  0.00000000000E+00  0.00000000000E+00 -0.13233678133E+04  0.13233678133E+04  0.50400001928E-02 0.  1.
    10030    2    1    2    0    0  0.00000000000E+00  0.00000000000E+00  0.26918073280E+03  0.29159163595E+04  0.29034651623E+04 0.  0.
        2    1    3    3  502    0 -0.14225453225E+04  0.27052974472E+03  0.23850364366E+03  0.14675508596E+04  0.25500000920E-02 0.  1.
       -2    1    3    3    0  502  0.14225453225E+04 -0.27052974472E+03  0.30677089137E+02  0.14483654999E+04  0.25500000920E-02 0. -1.
</event>
<event>
 5   0  0.3486236E-06  0.2885456E+04  0.7818609E-02  0.8277218E-01
        1   -1    0    0  501    0  0.00000000000E+00  0.00000000000E+00  0.17984521203E+04  0.17984521203E+04  0.50400001928E-02 0.  1.
       -1   -1    0    0    0  501  0.00000000000E+00  0.00000000000E+00 -0.11573640136E+04  0.11573640136E+04  0.50400001928E-02 0. -1.
    10030    2    1    2    0    0  0.00000000000E+00  0.00000000000E+00  0.64108810665E+03  0.29558161339E+04  0.28854557798E+04 0.  0.
        5    1    3    3  502    0  0.19835203125E+03 -0.10965423376E+04 -0.61814828046E+03  0.12743147230E+04  0.46999998093E+01 0. -1.
       -5    1    3    3    0  502 -0.19835203125E+03  0.10965423376E+04  0.12592363871E+04  0.16815014110E+04  0.46999998093E+01 0.  1.
</event>
<event>
 5   0  0.9251510E-06  0.2891574E+04  0.7818609E-02  0.8275389E-01
       -2   -1    0    0    0  501  0.00000000000E+00  0.00000000000E+00  0.16805275342E+04  0.16805275342E+04  0.25500000920E-02 0. -1.
        2   -1    0    0  501    0  0.00000000000E+00  0.00000000000E+00 -0.12438360743E+04  0.12438360743E+04  0.25500000920E-02 0.  1.
    10030    2    1    2    0    0  0.00000000000E+00  0.00000000000E+00  0.43669145990E+03  0.29243636085E+04  0.28915744991E+04 0.  0.
        2    1    3    3  502    0  0.46901272823E+03 -0.13373987659E+04 -0.70714097933E+02  0.14190168716E+04  0.25500000920E-02 0.  1.
       -2    1    3    3    0  502 -0.46901272823E+03  0.13373987659E+04  0.50740555783E+03  0.15053467369E+04  0.25500000920E-02 0. -1.
</event>
<event>
 5   0  0.1001573E-05  0.2933786E+04  0.7818609E-02  0.8262896E-01
       -2   -1    0    0    0  501  0.00000000000E+00  0.00000000000E+00  0.26480657826E+04  0.26480657826E+04  0.25500000920E-02 0.  1.
        2   -1    0    0  501    0  0.00000000000E+00  0.00000000000E+00 -0.81258374808E+03  0.81258374808E+03  0.25500000920E-02 0. -1.
    10030    2    1    2    0    0  0.00000000000E+00  0.00000000000E+00  0.18354820345E+04  0.34606495307E+04  0.29337860991E+04 0.  0.
        1    1    3    3  502    0 -0.13114561476E+04 -0.56098519183E+03  0.51399615999E+03  0.15161839153E+04  0.50400001928E-02 0.  1.
       -1    1    3    3    0  502  0.13114561476E+04  0.56098519183E+03  0.13214858745E+04  0.19444656153E+04  0.50400001928E-02 0. -1.
</event>
<event>
 5   0  0.3649705E-06  0.2478703E+04  0.7818609E-02  0.8410612E-01
        1   -1    0    0  501    0  0.00000000000E+00  0.00000000000E+00  0.17173760267E+04  0.17173760267E+04  0.50400001928E-02 0. -1.
       -1   -1    0    0    0  501  0.00000000000E+00  0.00000000000E+00 -0.89438340171E+03  0.89438340172E+03  0.50400001928E-02 0.  1.
    10030    2    1    2    0    0  0.00000000000E+00  0.00000000000E+00  0.82299262499E+03  0.26117594284E+04  0.24787033810E+04 0.  0.
        2    1    3    3  502    0 -0.49889417160E+03  0.21259117393E+03  0.15857239882E+04  0.16758910968E+04  0.25500000920E-02 0. -1.
       -2    1    3    3    0  502  0.49889417160E+03 -0.21259117393E+03 -0.76273136320E+03  0.93586833160E+03  0.25500000920E-02 0.  1.
</event>
<event>
 5   0  0.3474078E-06  0.2902548E+04  0.7818609E-02  0.8272120E-01
        1   -1    0    0  501    0  0.00000000000E+00  0.00000000000E+00  0.21109307902E+04  0.21109307902E+04  0.50400001928E-02 0. -1.
       -1   -1    0    0    0  501  0.00000000000E+00  0.00000000000E+00 -0.99775687344E+03  0.99775687346E+03  0.50400001928E-02 0.  1.
    10030    2    1    2    0    0  0.00000000000E+00  0.00000000000E+00  0.11131739168E+04  0.31086876637E+04  0.29025476432E+04 0.  0.
        3    1    3    3  502    0 -0.56783616580E+03  0.91977041299E+03  0.15937529203E+04  0.19257372367E+04  0.10100000352E+00 0. -1.
       -3    1    3    3    0  502  0.56783616580E+03 -0.91977041299E+03 -0.48057900351E+03  0.11829504270E+04  0.10100000352E+00 0.  1.
</event>
<event>
 5   0  0.9251510E-06  0.2701150E+04  0.7818609E-02  0.8334632E-01
        2   -1    0    0  501    0  0.00000000000E+00  0.00000000000E+00  0.17868482694E+04  0.17868482694E+04  0.25500000920E-02 0.  1.
       -2   -1    0    0    0  501  0.00000000000E+00  0.00000000000E+00 -0.10208211785E+04  0.10208211785E+04  0.25500000920E-02 0. -1.
    10030    2    1    2    0    0  0.00000000000E+00  0.00000000000E+00  0.76602709089E+03  0.28076694479E+04  0.27011497968E+04 0.  0.
        2    1    3    3  502    0 -0.12455638552E+04 -0.15101615989E+03  0.90254113128E+03  0.15455794032E+04  0.25500000920E-02 0.  1.
       -2    1    3    3    0  502  0.12455638552E+04  0.15101615989E+03 -0.13651404039E+03  0.12620900448E+04  0.25500000920E-02 0. -1.
</event>
<event>
 5   0  0.3564340E-06  0.2121289E+04  0.7818609E-02  0.8551923E-01
        1   -1    0    0  501    0  0.00000000000E+00  0.00000000000E+00  0.15643731881E+04  0.15643731881E+04  0.50400001928E-02 0.  1.
       -1   -1    0    0    0  501  0.00000000000E+00  0.00000000000E+00 -0.71911639281E+03  0.71911639283E+03  0.50400001928E-02 0. -1.
    10030    2    1    2    0    0  0.00000000000E+00  0.00000000000E+00  0.84525679526E+03  0.22834895809E+04  0.21212886688E+04 0.  0.
        1    1    3    3  502    0  0.57213028232E+03  0.86976877325E+02 -0.53419458648E+03  0.78756707231E+03  0.50400001928E-02 0. -1.
       -1    1    3    3    0  502 -0.57213028232E+03 -0.86976877325E+02  0.13794513817E+04  0.14959225086E+04  0.50400001928E-02 0.  1.
</event>
<event>
 5   0  0.3564340E-06  0.2921074E+04  0.7818609E-02  0.8266635E-01
        1   -1    0    0  501    0  0.00000000000E+00  0.00000000000E+00  0.99445734952E+03  0.99445734953E+03  0.50400001928E-02 0. -1.
       -1   -1    0    0    0  501  0.00000000000E+00  0.00000000000E+00 -0.21450570439E+04  0.21450570439E+04  0.50400001928E-02 0.  1.
    10030    2    1    2    0    0  0.00000000000E+00  0.00000000000E+00 -0.11505996944E+04  0.31395143935E+04  0.29210735989E+04 0.  0.
        1    1    3    3  502    0  0.10818205434E+04 -0.42572910928E+03  0.37488605246E+03  0.12215238495E+04  0.50400001928E-02 0. -1.
       -1    1    3    3    0  502 -0.10818205434E+04  0.42572910928E+03 -0.15254857469E+04  0.19179905439E+04  0.50400001928E-02 0.  1.
</event>
<event>
 5   0  0.3649705E-06  0.2798841E+04  0.7818609E-02  0.8303628E-01
        1   -1    0    0  501    0  0.00000000000E+00  0.00000000000E+00  0.16769860310E+04  0.16769860310E+04  0.50400001928E-02 0. -1.
       -1   -1    0    0    0  501  0.00000000000E+00  0.00000000000E+00 -0.11677963348E+04  0.11677963348E+04  0.50400001928E-02 0.  1.
    10030    2    1    2    0    0  0.00000000000E+00  0.00000000000E+00  0.50918969614E+03  0.28447823658E+04  0.27988412892E+04 0.  0.
        2    1    3    3  502    0 -0.75442861830E+03 -0.68599025561E+03 -0.71959093910E+03  0.12480209496E+04  0.25500000920E-02 0.  1.
       -2    1    3    3    0  502  0.75442861830E+03  0.68599025561E+03  0.12287806352E+04  0.15967614163E+04  0.25500000920E-02 0. -1.
</event>
<event>
 5   0  0.9505359E-06  0.2715639E+04  0.7818609E-02  0.8329949E-01
       -2   -1    0    0    0  501  0.00000000000E+00  0.00000000000E+00  0.83750552722E+03  0.83750552722E+03  0.25500000920E-02 0.  1.
        2   -1    0    0  501    0  0.00000000000E+00  0.00000000000E+00 -0.22013864130E+04  0.22013864130E+04  0.25500000920E-02 0. -1.
    10030    2    1    2    0    0  0.00000000000E+00  0.00000000000E+00 -0.13638808858E+04  0.30388919402E+04  0.27156386272E+04 0.  0.
        4    1    3    3  502    0 -0.46714596001E+03  0.74034841549E+03 -0.18434365747E+04  0.20407354415E+04  0.12699999809E+01 0. -1.
       -4    1    3    3    0  502  0.46714596001E+03 -0.74034841549E+03  0.47955568894E+03  0.99815649873E+03  0.12699999809E+01 0.  1.
</event>
<event>
 5   0  0.9360689E-06  0.2484038E+04  0.7818609E-02  0.8408694E-01
       -2   -1    0    0    0  501  0.00000000000E+00  0.00000000000E+00  0.20560169937E+04  0.20560169937E+04  0.25500000920E-02 0. -1.
        2   -1    0    0  501    0  0.00000000000E+00  0.00000000000E+00 -0.75029087767E+03  0.75029087767E+03  0.25500000920E-02 0.  1.
    10030    2    1    2    0    0  0.00000000000E+00  0.00000000000E+00  0.13057261160E+04  0.28063078714E+04  0.24840376766E+04 0.  0.
        5    1    3    3  502    0  0.16391064804E+03  0.77281279685E+03  0.17355740642E+04  0.19069204865E+04  0.46999998093E+01 0. -1.
       -5    1    3    3    0  502 -0.16391064804E+03 -0.77281279685E+03 -0.42984794817E+03  0.89938738487E+03  0.46999998093E+01 0.  1.
</event>
<event>
 5   0  0.9505359E-06  0.2254858E+04  0.7818609E-02  0.8495936E-01
       -2   -1    0    0    0  501  0.00000000000E+00  0.00000000000E+00  0.82681359261E+03  0.82681359261E+03  0.25500000920E-02 0. -1.
        2   -1    0    0  501    0  0.00000000000E+00  0.00000000000E+00 -0.15373434094E+04  0.15373434094E+04  0.25500000920E-02 0.  1.
    10030    2    1    2    0    0  0.00000000000E+00  0.00000000000E+00 -0.71052981677E+03  0.23641570020E+04  0.22548582460E+04 0.  0.
        4    1    3    3  502    0  0.52898181269E+03  0.93235181818E+03 -0.72147033931E+03  0.12921388217E+04  0.12699999809E+01 0. -1.
       -4    1    3    3    0  502 -0.52898181269E+03 -0.93235181818E+03  0.10940522547E+02  0.10720181803E+04  0.12699999809E+01 0.  1.
</event>
<event>
 5   0  0.1001573E-05  0.2914533E+04  0.7818609E-02  0.8268566E-01
       -2   -1    0    0    0  501  0.00000000000E+00  0.00000000000E+00  0.92654568323E+03  0.92654568323E+03  0.25500000920E-02 0.  1.
        2   -1    0    0  501    0  0.00000000000E+00  0.00000000000E+00 -0.22919822147E+04  0.22919822147E+04  0.25500000920E-02 0. -1.
    10030    2    1    2    0    0  0.00000000000E+00  0.00000000000E+00 -0.13654365315E+04  0.32185278979E+04  0.29145333946E+04 0.  0.
        1    1    3    3  502    0 -0.51405176812E+03 -0.96896844545E+03 -0.17422031137E+04  0.20587425186E+04  0.50400001928E-02 0. -1.
       -1    1    3    3    0  502  0.51405176812E+03  0.96896844545E+03  0.37676658221E+03  0.11597853793E+04  0.50400001928E-02 0.  1.
</event>
<event>
 5   0  0.9360689E-06  0.2887254E+04  0.7818609E-02  0.8276680E-01
       -2   -1    0    0    0  501  0.00000000000E+00  0.00000000000E+00  0.14081070644E+04  0.14081070644E+04  0.25500000920E-02 0.  1.
        2   -1    0    0  501    0  0.00000000000E+00  0.00000000000E+00 -0.14800429503E+04  0.14800429503E+04  0.25500000920E-02 0. -1.
    10030    2    1    2    0    0  0.00000000000E+00  0.00000000000E+00 -0.71935885923E+02  0.28881500147E+04  0.28872540130E+04 0.  0.
        5    1    3    3  502    0  0.30892319717E+03 -0.14099303053E+04 -0.62430570835E+02  0.14447341187E+04  0.46999998093E+01 0. -1.
       -5    1    3    3    0  502 -0.30892319717E+03  0.14099303053E+04 -0.95053150879E+01  0.14434158960E+04  0.46999998093E+01 0.  1.
</event>
<event>
 5   0  0.9646321E-06  0.2181858E+04  0.7818609E-02  0.8526017E-01
        2   -1    0    0  501    0  0.00000000000E+00  0.00000000000E+00  0.91532316553E+03  0.91532316553E+03  0.25500000920E-02 0. -1.
       -2   -1    0    0    0  501  0.00000000000E+00  0.00000000000E+00 -0.13002249818E+04  0.13002249818E+04  0.25500000920E-02 0.  1.
    10030    2    1    2    0    0  0.00000000000E+00  0.00000000000E+00 -0.38490181630E+03  0.22155481474E+04  0.21818579663E+04 0.  0.
        3    1    3    3  502    0 -0.75185398211E+01 -0.78852156164E+03  0.57304837489E+03  0.97478573634E+03  0.10100000352E+00 0. -1.
       -3    1    3    3    0  502  0.75185398211E+01  0.78852156164E+03 -0.95795019119E+03  0.12407624110E+04  0.10100000352E+00 0.  1.
</event>
<event>
 5   0  0.9505359E-06  0.2884174E+04  0.7818609E-02  0.8277602E-01
       -2   -1    0    0    0  501  0.00000000000E+00  0.00000000000E+00  0.14577395719E+04  0.14577395719E+04  0.25500000920E-02 0. -1.
        2   -1    0    0  501    0  0.00000000000E+00  0.00000000000E+00 -0.14266029844E+04  0.14266029844E+04  0.25500000920E-02 0.  1.
    10030    2    1    2    0    0  0.00000000000E+00  0.00000000000E+00  0.31136587541E+02  0.28843425563E+04  0.28841744911E+04 0.  0.
        4    1    3    3  502    0 -0.13452337495E+04 -0.47110900296E+03  0.23470768699E+03  0.14445368962E+04  0.12699999809E+01 0. -1.
       -4    1    3    3    0  502  0.13452337495E+04  0.47110900296E+03 -0.20357109945E+03  0.14398056601E+04  0.12699999809E+01 0.  1.
</event>
<event>
 5   0  0.3474078E-06  0.2887952E+04  0.7818609E-02  0.8276471E-01
        1   -1    0    0  501    0  0.00000000000E+00  0.00000000000E+00  0.23343713343E+04  0.23343713343E+04  0.50400001928E-02 0. -1.
       -1   -1    0    0    0  501  0.00000000000E+00  0.00000000000E+00 -0.89320295196E+03  0.89320295198E+03  0.50400001928E-02 0.  1.
    10030    2    1    2    0    0  0.00000000000E+00  0.00000000000E+00  0.14411683823E+04  0.32275742863E+04  0.28879524697E+04 0.  0.
        3    1    3    3  502    0 -0.66744462212E+03  0.22043616564E+03 -0.68909513443E+03  0.98434066319E+03  0.10100000352E+00 0.  1.
       -3    1    3    3    0  502  0.66744462212E+03 -0.22043616564E+03  0.21302635168E+04  0.22432336231E+04  0.10100000352E+00 0. -1.
</event>
<event>
 5   0  0.3649705E-06  0.2885677E+04  0.7818609E-02  0.8277152E-01
        1   -1    0    0  501    0  0.00000000000E+00  0.00000000000E+00  0.11486676415E+04  0.11486676416E+04  0.50400001928E-02 0. -1.
       -1   -1    0    0    0  501  0.00000000000E+00  0.00000000000E+00 -0.18123463874E+04  0.18123463874E+04  0.50400001928E-02 0.  1.
    10030    2    1    2    0    0  0.00000000000E+00  0.00000000000E+00 -0.66367874589E+03  0.29610140290E+04  0.28856774945E+04 0.  0.
        2    1    3    3  502    0  0.34334950898E+03  0.18288948851E+03  0.10938388768E+04  0.11609569065E+04  0.25500000920E-02 0. -1.
       -2    1    3    3    0  502 -0.34334950898E+03 -0.18288948851E+03 -0.17575176227E+04  0.18000571225E+04  0.25500000920E-02 0.  1.
</event>
<event>
 5   0  0.3486236E-06  0.2770360E+04  0.7818609E-02  0.8312530E-01
        1   -1    0    0  501    0  0.00000000000E+00  0.00000000000E+00  0.14367491723E+04  0.14367491723E+04  0.50400001928E-02 0. -1.
       -1   -1    0    0    0  501  0.00000000000E+00  0.00000000000E+00 -0.13354617985E+04  0.13354617985E+04  0.50400001928E-02 0.  1.
    10030    2    1    2    0    0  0.00000000000E+00  0.00000000000E+00  0.10128737385E+03  0.27722109708E+04  0.27703600009E+04 0.  0.
        5    1    3    3  502    0  0.63659888241E+03  0.44131973391E+03 -0.10984616156E+04  0.13441209974E+04  0.46999998093E+01 0.  1.
       -5    1    3    3    0  502 -0.63659888241E+03 -0.44131973391E+03  0.11997489894E+04  0.14280899735E+04  0.46999998093E+01 0. -1.
</event>
<event>
 5   0  0.9505359E-06  0.2877724E+04  0.7818609E-02  0.8279536E-01
       -2   -1    0    0    0  501  0.00000000000E+00  0.00000000000E+00  0.97002478269E+03  0.97002478269E+03  0.25500000920E-02 0.  1.
        2   -1    0    0  501    0  0.00000000000E+00  0.00000000000E+00 -0.21343004175E+04  0.21343004175E+04  0.25500000920E-02 0. -1.
    10030    2    1    2    0    0  0.00000000000E+00  0.00000000000E+00 -0.11642756348E+04  0.31043252002E+04  0.28777243083E+04 0.  0.
        4    1    3    3  502    0  0.10721048002E+04 -0.95623599953E+03 -0.49498835226E+03  0.15194772362E+04  0.12699999809E+01 0. -1.
       -4    1    3    3    0  502 -0.10721048002E+04  0.95623599953E+03 -0.66928728251E+03  0.15848479640E+04  0.12699999809E+01 0.  1.
</event>
<event>
 5   0  0.3564340E-06  0.2867915E+04  0.7818609E-02  0.8282488E-01
        1   -1    0    0  501    0  0.00000000000E+00  0.00000000000E+00  0.12931952686E+04  0.12931952686E+04  0.50400001928E-02 0.  1.
       -1   -1    0    0    0  501  0.00000000000E+00  0.00000000000E+00 -0.15900416716E+04  0.15900416716E+04  0.50400001928E-02 0. -1.
    10030    2    1    2    0    0  0.00000000000E+00  0.00000000000E+00 -0.29684640294E+03  0.28832369402E+04  0.28679151777E+04 0.  0.
        1    1    3    3  502    0 -0.14026979929E+04 -0.22112522616E+03  0.52082372503E+02  0.14209752279E+04  0.50400001928E-02 0.  1.
       -1    1    3    3    0  502  0.14026979929E+04  0.22112522616E+03 -0.34892877544E+03  0.14622617123E+04  0.50400001928E-02 0. -1.
</event>
<event>
 5   0  0.3486236E-06  0.2935866E+04  0.7818609E-02  0.8262286E-01
       -1   -1    0    0    0  501  0.00000000000E+00  0.00000000000E+00  0.96760432647E+03  0.96760432649E+03  0.50400001928E-02 0. -1.
        1   -1    0    0  501    0  0.00000000000E+00  0.00000000000E+00 -0.22269708551E+04  0.22269708551E+04  0.50400001928E-02 0.  1.
    10030    2    1    2    0    0  0.00000000000E+00  0.00000000000E+00 -0.12593665286E+04  0.31945751816E+04  0.29358655517E+04 0.  0.
        5    1    3    3  502    0  0.11562887739E+04  0.79187637107E+03 -0.15446902295E+03  0.14099484689E+04  0.46999998093E+01 0. -1.
       -5    1    3    3    0  502 -0.11562887739E+04 -0.79187637107E+03 -0.11048975057E+04  0.17846267128E+04  0.46999998093E+01 0.  1.
</event>
<event>
 5   0  0.3564340E-06  0.2944232E+04  0.7818609E-02  0.8259838E-01
        1   -1    0    0  501    0  0.00000000000E+00  0.00000000000E+00  0.18907781697E+04  0.18907781698E+04  0.50400001928E-02 0.  1.
       -1   -1    0    0    0  501  0.00000000000E+00  0.00000000000E+00 -0.11461553072E+04  0.11461553072E+04  0.50400001928E-02 0. -1.
    10030    2    1    2    0    0  0.00000000000E+00  0.00000000000E+00  0.74462286257E+03  0.30369334769E+04  0.29442319433E+04 0.  0.
        1    1    3    3  502    0 -0.10277569905E+04  0.32991722146E+03  0.14048259621E+04  0.17716280051E+04  0.50400001928E-02 0.  1.
       -1    1    3    3    0  502  0.10277569905E+04 -0.32991722146E+03 -0.66020309950E+03  0.12653054719E+04  0.50400001928E-02 0. -1.
</event>
<event>
 5   0  0.3649705E-06  0.2911424E+04  0.7818609E-02  0.8269487E-01
       -1   -1    0    0    0  501  0.00000000000E+00  0.00000000000E+00  0.10471282393E+04  0.10471282393E+04  0.50400001928E-02 0.  1.
        1   -1    0    0  501    0  0.00000000000E+00  0.00000000000E+00 -0.20237226915E+04  0.20237226915E+04  0.50400001928E-02 0. -1.
    10030    2    1    2    0    0  0.00000000000E+00  0.00000000000E+00 -0.97659445217E+03  0.30708509308E+04  0.29114238295E+04 0.  0.
        2    1    3    3  502    0 -0.11619817394E+04 -0.39148431259E+03 -0.13158871276E+04  0.17986162632E+04  0.25500000920E-02 0. -1.
       -2    1    3    3    0  502  0.11619817394E+04  0.39148431259E+03  0.33929267548E+03  0.12722346676E+04  0.25500000920E-02 0.  1.
</event>
<event>
 5   0  0.9360689E-06  0.2873185E+04  0.7818609E-02  0.8280901E-01
        2   -1    0    0  501    0  0.00000000000E+00  0.00000000000E+00  0.25344004991E+04  0.25344004991E+04  0.25500000920E-02 0.  1.
       -2   -1    0    0    0  501  0.00000000000E+00  0.00000000000E+00 -0.81431411650E+03  0.81431411650E+03  0.25500000920E-02 0. -1.
    10030    2    1    2    0    0  0.00000000000E+00  0.00000000000E+00  0.17200863826E+04  0.33487146156E+04  0.28731850642E+04 0.  0.
        5    1    3    3  502    0 -0.48967857670E+03 -0.18076908626E+02 -0.71389243383E+03  0.86589628719E+03  0.46999998093E+01 0. -1.
       -5    1    3    3    0  502  0.48967857670E+03  0.18076908626E+02  0.24339788165E+04  0.24828183284E+04  0.46999998093E+01 0.  1.
</event>
<event>
 5   0  0.9505359E-06  0.2946652E+04  0.7818609E-02  0.8259131E-01
        2   -1    0    0  501    0  0.00000000000E+00  0.00000000000E+00  0.13872501550E+04  0.13872501550E+04  0.25500000920E-02 0. -1.
       -2   -1    0    0    0  501  0.00000000000E+00  0.00000000000E+00 -0.15647428316E+04  0.15647428316E+04  0.25500000920E-02 0.  1.
    10030    2    1    2    0    0  0.00000000000E+00  0.00000000000E+00 -0.17749267655E+03  0.29519929866E+04  0.29466521584E+04 0.  0.
        4    1    3    3  502    0  0.10964643251E+04  0.44142915231E+03  0.79238999749E+03  0.14230169478E+04  0.12699999809E+01 0.  1.
       -4    1    3    3    0  502 -0.10964643251E+04 -0.44142915231E+03 -0.96988267404E+03  0.15289760387E+04  0.12699999809E+01 0. -1.
</event>
<event>
 5   0  0.3474078E-06  0.2907507E+04  0.7818609E-02  0.8270647E-01
        1   -1    0    0  501    0  0.00000000000E+00  0.00000000000E+00  0.14345638896E+04  0.14345638897E+04  0.50400001928E-02 0. -1.
       -1   -1    0    0    0  501  0.00000000000E+00  0.00000000000E+00 -0.14731999664E+04  0.14731999664E+04  0.50400001928E-02 0.  1.
    10030    2    1    2    0    0  0.00000000000E+00  0.00000000000E+00 -0.38636076730E+02  0.29077638560E+04  0.29075071618E+04 0.  0.
        3    1    3    3  502    0 -0.13267726112E+04  0.58444995469E+03  0.87892883043E+02  0.14524573937E+04  0.10100000352E+00 0.  1.
       -3    1    3    3    0  502  0.13267726112E+04 -0.58444995469E+03 -0.12652895977E+03  0.14553064623E+04  0.10100000352E+00 0. -1.
</event>
<event>
 5   0  0.3649705E-06  0.2679402E+04  0.7818609E-02  0.8341719E-01
       -1   -1    0    0    0  501  0.00000000000E+00  0.00000000000E+00  0.99158901057E+03  0.99158901059E+03  0.50400001928E-02 0. -1.
        1   -1    0    0  501    0  0.00000000000E+00  0.00000000000E+00 -0.18100225058E+04  0.18100225058E+04  0.50400001928E-02 0.  1.
    10030    2    1    2    0    0  0.00000000000E+00  0.00000000000E+00 -0.81843349526E+03  0.28016115164E+04  0.26794017435E+04 0.  0.
        2    1    3    3  502    0 -0.12936288575E+04 -0.12929684953E+03 -0.71037799305E+02  0.13020136962E+04  0.25500000920E-02 0. -1.
       -2    1    3    3    0  502  0.12936288575E+04  0.12929684953E+03 -0.74739569596E+03  0.14995978202E+04  0.25500000920E-02 0.  1.
</event>
<event>
 5   0  0.9505359E-06  0.2901884E+04  0.7818609E-02  0.8272317E-01
       -2   -1    0    0    0  501  0.00000000000E+00  0.00000000000E+00  0.11387561832E+04  0.11387561832E+04  0.25500000920E-02 0. -1.
        2   -1    0    0  501    0  0.00000000000E+00  0.00000000000E+00 -0.18487130002E+04  0.18487130002E+04  0.25500000920E-02 0.  1.
    10030    2    1    2    0    0  0.00000000000E+00  0.00000000000E+00 -0.70995681702E+03  0.29874691834E+04  0.29018844636E+04 0.  0.
        4    1    3    3  502    0  0.14274677635E+03  0.10197929483E+04  0.69736138815E+03  0.12436514054E+04  0.12699999809E+01 0. -1.
       -4    1    3    3    0  502 -0.14274677635E+03 -0.10197929483E+04 -0.14073182052E+04  0.17438177780E+04  0.12699999809E+01 0.  1.
</event>
<event>
 5   0  0.3564340E-06  0.2862002E+04  0.7818609E-02  0.8284274E-01
       -1   -1    0    0    0  501  0.00000000000E+00  0.00000000000E+00  0.88506026580E+03  0.88506026581E+03  0.50400001928E-02 0.  1.
        1   -1    0    0  501    0  0.00000000000E+00  0.00000000000E+00 -0.23136996181E+04  0.23136996181E+04  0.50400001928E-02 0. -1.
    10030    2    1    2    0    0  0.00000000000E+00  0.00000000000E+00 -0.14286393523E+04  0.31987598839E+04  0.28620018162E+04 0.  0.
        1    1    3    3  502    0 -0.11614834099E+04 -0.73050841442E+03 -0.26021552478E+03  0.13965666380E+04  0.50400001928E-02 0.  1.
       -1    1    3    3    0  502  0.11614834099E+04  0.73050841442E+03 -0.11684238276E+04  0.18021932460E+04  0.50400001928E-02 0. -1.
</event>
<event>
 5   0  0.9505359E-06  0.2901041E+04  0.7818609E-02  0.8272568E-01
        2   -1    0    0  501    0  0.00000000000E+00  0.00000000000E+00  0.15917663085E+04  0.15917663085E+04  0.25500000920E-02 0.  1.
       -2   -1    0    0    0  501  0.00000000000E+00  0.00000000000E+00 -0.13218083905E+04  0.13218083905E+04  0.25500000920E-02 0. -1.
    10030    2    1    2    0    0  0.00000000000E+00  0.00000000000E+00  0.26995791801E+03  0.29135746991E+04  0.29010412354E+04 0.  0.
        4    1    3    3  502    0  0.75146426238E+03  0.93918601058E+03  0.94918458667E+03  0.15322277548E+04  0.12699999809E+01 0.  1.
       -4    1    3    3    0  502 -0.75146426238E+03 -0.93918601058E+03 -0.67922666865E+03  0.13813469443E+04  0.12699999809E+01 0. -1.
</event>
<event>
 5   0  0.3564340E-06  0.2893482E+04  0.7818609E-02  0.8274819E-01
       -1   -1    0    0    0  501  0.00000000000E+00  0.00000000000E+00  0.20115955279E+04  0.20115955279E+04  0.50400001928E-02 0.  1.
        1   -1    0    0  501    0  0.00000000000E+00  0.00000000000E+00 -0.10404973244E+04  0.10404973244E+04  0.50400001928E-02 0. -1.
    10030    2    1    2    0    0  0.00000000000E+00  0.00000000000E+00  0.97109820352E+03  0.30520928523E+04  0.28934821683E+04 0.  0.
        1    1    3    3  502    0  0.62766999696E+03  0.12991480189E+04  0.59770028230E+03  0.15617300751E+04  0.50400001928E-02 0. -1.
       -1    1    3    3    0  502 -0.62766999696E+03 -0.12991480189E+04  0.37339792122E+03  0.14903627772E+04  0.50400001928E-02 0.  1.
</event>
<event>
 5   0  0.3564340E-06  0.2840138E+04  0.7818609E-02  0.8290914E-01
        1   -1    0    0  501    0  0.00000000000E+00  0.00000000000E+00  0.10950003571E+04  0.10950003572E+04  0.50400001928E-02 0.  1.
       -1   -1    0    0    0  501  0.00000000000E+00  0.00000000000E+00 -0.18416400108E+04  0.18416400108E+04  0.50400001928E-02 0. -1.
    10030    2    1    2    0    0  0.00000000000E+00  0.00000000000E+00 -0.74663965368E+03  0.29366403680E+04  0.28401383555E+04 0.  0.
        1    1    3    3  502    0  0.41828852720E+03  0.82810445335E+03  0.73832627913E+03  0.11856846006E+04  0.50400001928E-02 0.  1.
       -1    1    3    3    0  502 -0.41828852720E+03 -0.82810445335E+03 -0.14849659328E+04  0.17509557674E+04  0.50400001928E-02 0. -1.
</event>
<event>
 5   0  0.9646321E-06  0.2923057E+04  0.7818609E-02  0.8266050E-01
       -2   -1    0    0    0  501  0.00000000000E+00  0.00000000000E+00  0.13478457983E+04  0.13478457983E+04  0.25500000920E-02 0. -1.
        2   -1    0    0  501    0  0.00000000000E+00  0.00000000000E+00 -0.15848001389E+04  0.15848001389E+04  0.25500000920E-02 0.  1.
    10030    2    1    2    0    0  0.00000000000E+00  0.00000000000E+00 -0.23695434055E+03  0.29326459372E+04  0.29230574461E+04 0.  0.
        3    1    3    3  502    0 -0.11519199449E+04 -0.83580663730E+03  0.21514016092E+03  0.14393670808E+04  0.10100000352E+00 0. -1.
       -3    1    3    3    0  502  0.11519199449E+04  0.83580663730E+03 -0.45209450147E+03  0.14932788564E+04  0.10100000352E+00 0.  1.
</event>
<event>
 5   0  0.3486236E-06  0.2906739E+04  0.7818609E-02  0.8270875E-01
        1   -1    0    0  501    0  0.00000000000E+00  0.00000000000E+00  0.16553060064E+04  0.16553060064E+04  0.50400001928E-02 0. -1.
       -1   -1    0    0    0  501  0.00000000000E+00  0.00000000000E+00 -0.12760678488E+04  0.12760678488E+04  0.50400001928E-02 0.  1.
    10030    2    1    2    0    0  0.00000000000E+00  0.00000000000E+00  0.37923815758E+03  0.29313738552E+04  0.29067389113E+04 0.  0.
        5    1    3    3  502    0 -0.23037014611E+03 -0.50173651329E+03 -0.11661896389E+04  0.12902830298E+04  0.46999998093E+01 0.  1.
       -5    1    3    3    0  502  0.23037014611E+03  0.50173651329E+03  0.15454277965E+04  0.16410908254E+04  0.46999998093E+01 0. -1.
</event>
<event>
 5   0  0.9646321E-06  0.2889221E+04  0.7818609E-02  0.8276092E-01
       -2   -1    0    0    0  501  0.00000000000E+00  0.00000000000E+00  0.88302220238E+03  0.88302220238E+03  0.25500000920E-02 0.  1.
        2   -1    0    0  501    0  0.00000000000E+00  0.00000000000E+00 -0.23633597331E+04  0.23633597331E+04  0.25500000920E-02 0. -1.
    10030    2    1    2    0    0  0.00000000000E+00  0.00000000000E+00 -0.14803375307E+04  0.32463819355E+04  0.28892207368E+04 0.  0.
        3    1    3    3  502    0 -0.10659736660E+04  0.24438953025E+03  0.32037059157E+03  0.11395891476E+04  0.10100000352E+00 0.  1.
       -3    1    3    3    0  502  0.10659736660E+04 -0.24438953025E+03 -0.18007081223E+04  0.21067927879E+04  0.10100000352E+00 0. -1.
</event>
<event>
 5   0  0.9505359E-06  0.2879548E+04  0.7818609E-02  0.8278989E-01
       -2   -1    0    0    0  501  0.00000000000E+00  0.00000000000E+00  0.10294049166E+04  0.10294049166E+04  0.25500000920E-02 0.  1.
        2   -1    0    0  501    0  0.00000000000E+00  0.00000000000E+00 -0.20137347650E+04  0.20137347650E+04  0.25500000920E-02 0. -1.
    10030    2    1    2    0    0  0.00000000000E+00  0.00000000000E+00 -0.98432984832E+03  0.30431396816E+04  0.28795475116E+04 0.  0.
        4    1    3    3  502    0 -0.75689316780E+02 -0.13232276025E+04  0.10217937259E+03  0.13293240379E+04  0.12699999809E+01 0.  1.
       -4    1    3    3    0  502  0.75689316780E+02  0.13232276025E+04 -0.10865092209E+04  0.17138156437E+04  0.12699999809E+01 0. -1.
</event>
<event>
 5   0  0.9646321E-06  0.2900287E+04  0.7818609E-02  0.8272792E-01
        2   -1    0    0  501    0  0.00000000000E+00  0.00000000000E+00  0.20694205559E+04  0.20694205559E+04  0.25500000920E-02 0. -1.
       -2   -1    0    0    0  501  0.00000000000E+00  0.00000000000E+00 -0.10161857169E+04  0.10161857169E+04  0.25500000920E-02 0.  1.
    10030    2    1    2    0    0  0.00000000000E+00  0.00000000000E+00  0.10532348390E+04  0.30856062727E+04  0.29002866141E+04 0.  0.
        3    1    3    3  502    0  0.12249608449E+04  0.53598433234E+03 -0.70595012814E+02  0.13389518072E+04  0.10100000352E+00 0.  1.
       -3    1    3    3    0  502 -0.12249608449E+04 -0.53598433234E+03  0.11238298518E+04  0.17466544655E+04  0.10100000352E+00 0. -1.
</event>
<event>
 5   0  0.1001573E-05  0.2877370E+04  0.7818609E-02  0.8279643E-01
       -2   -1    0    0    0  501  0.00000000000E+00  0.00000000000E+00  0.13208833099E+04  0.13208833099E+04  0.25500000920E-02 0.  1.
        2   -1    0    0  501    0  0.00000000000E+00  0.00000000000E+00 -0.15669929033E+04  0.15669929033E+04  0.25500000920E-02 0. -1.
    10030    2    1    2    0    0  0.00000000000E+00  0.00000000000E+00 -0.24610959342E+03  0.28878762133E+04  0.28773701693E+04 0.  0.
        1    1    3    3  502    0  0.55614833871E+03 -0.87893761175E+03  0.87454753789E+03  0.13589207836E+04  0.50400001928E-02 0.  1.
       -1    1    3    3    0  502 -0.55614833871E+03  0.87893761175E+03 -0.11206571313E+04  0.15289554297E+04  0.50400001928E-02 0. -1.
</event>
<event>
 5   0  0.3649705E-06  0.2796406E+04  0.7818609E-02  0.8304385E-01
        1   -1    0    0  501    0  0.00000000000E+00  0.00000000000E+00  0.19269777021E+04  0.19269777021E+04  0.50400001928E-02 0. -1.
       -1   -1    0    0    0  501  0.00000000000E+00  0.00000000000E+00 -0.10145276638E+04  0.10145276638E+04  0.50400001928E-02 0.  1.
    10030    2    1    2    0    0  0.00000000000E+00  0.00000000000E+00  0.91245003832E+03  0.29415053660E+04  0.27964063985E+04 0.  0.
        2    1    3    3  502    0 -0.64806448994E+03  0.52515885578E+03  0.16365877001E+04  0.18368992098E+04  0.25500000920E-02 0. -1.
       -2    1    3    3    0  502  0.64806448994E+03 -0.52515885578E+03 -0.72413766181E+03  0.11046061561E+04  0.25500000920E-02 0.  1.
</event>
<event>
 5   0  0.3746518E-06  0.2677536E+04  0.7818609E-02  0.8342331E-01
        1   -1    0    0  501    0  0.00000000000E+00  0.00000000000E+00  0.16620871866E+04  0.16620871866E+04  0.50400001928E-02 0.  1.
       -1   -1    0    0    0  501  0.00000000000E+00  0.00000000000E+00 -0.10783429514E+04  0.10783429515E+04  0.50400001928E-02 0. -1.
    10030    2    1    2    0    0  0.00000000000E+00  0.00000000000E+00  0.58374423516E+03  0.27404301381E+04  0.26775361827E+04 0.  0.
        4    1    3    3  502    0 -0.10604263827E+04  0.43654151644E+02  0.11270599793E+04  0.15481200237E+04  0.12699999809E+01 0.  1.
       -4    1    3    3    0  502  0.10604263827E+04 -0.43654151644E+02 -0.54331574415E+03  0.11923101143E+04  0.12699999809E+01 0. -1.
</event>
<event>
 5   0  0.9360689E-06  0.2886209E+04  0.7818609E-02  0.8276993E-01
        2   -1    0    0  501    0  0.00000000000E+00  0.00000000000E+00  0.15296412577E+04  0.15296412577E+04  0.25500000920E-02 0. -1.
       -2   -1    0    0    0  501  0.00000000000E+00  0.00000000000E+00 -0.13614630251E+04  0.13614630251E+04  0.25500000920E-02 0.  1.
    10030    2    1    2    0    0  0.00000000000E+00  0.00000000000E+00  0.16817823256E+03  0.28911042828E+04  0.28862085953E+04 0.  0.
        5    1    3    3  502    0 -0.50720996849E+03  0.15762874778E+03  0.14281621043E+04  0.15237381207E+04  0.46999998093E+01 0. -1.
       -5    1    3    3    0  502  0.50720996849E+03 -0.15762874778E+03 -0.12599838717E+04  0.13673661621E+04  0.46999998093E+01 0.  1.
</event>
<event>
 5   0  0.3564340E-06  0.2921354E+04  0.7818609E-02  0.8266552E-01
       -1   -1    0    0    0  501  0.00000000000E+00  0.00000000000E+00  0.15980479466E+04  0.15980479466E+04  0.50400001928E-02 0. -1.
        1   -1    0    0  501    0  0.00000000000E+00  0.00000000000E+00 -0.13351148651E+04  0.13351148651E+04  0.50400001928E-02 0.  1.
    10030    2    1    2    0    0  0.00000000000E+00  0.00000000000E+00  0.26293308146E+03  0.29331628117E+04  0.29213541851E+04 0.  0.
        1    1    3    3  502    0 -0.91126789913E+03  0.11221961753E+04 -0.78769746368E+02  0.14477355121E+04  0.50400001928E-02 0.  1.
       -1    1    3    3    0  502  0.91126789913E+03 -0.11221961753E+04  0.34170282783E+03  0.14854272996E+04  0.50400001928E-02 0. -1.
</event>
<event>
 5   0  0.3746518E-06  0.2909125E+04  0.7818609E-02  0.8270168E-01
       -1   -1    0    0    0  501  0.00000000000E+00  0.00000000000E+00  0.12305432910E+04  0.12305432910E+04  0.50400001928E-02 0.  1.
        1   -1    0    0  501    0  0.00000000000E+00  0.00000000000E+00 -0.17193640954E+04  0.17193640954E+04  0.50400001928E-02 0. -1.
    10030    2    1    2    0    0  0.00000000000E+00  0.00000000000E+00 -0.48882080448E+03  0.29499073864E+04  0.29091249216E+04 0.  0.
        4    1    3    3  502    0 -0.12257090378E+04 -0.55248613008E+03 -0.80730207068E+03  0.15682288785E+04  0.12699999809E+01 0. -1.
       -4    1    3    3    0  502  0.12257090378E+04  0.55248613008E+03  0.31848126620E+03  0.13816785079E+04  0.12699999809E+01 0.  1.
</event>
<event>
 5   0  0.3486236E-06  0.2840806E+04  0.7818609E-02  0.8290711E-01
        1   -1    0    0  501    0  0.00000000000E+00  0.00000000000E+00  0.15029043391E+04  0.15029043391E+04  0.50400001928E-02 0.  1.
       -1   -1    0    0    0  501  0.00000000000E+00  0.00000000000E+00 -0.13424304705E+04  0.13424304705E+04  0.50400001928E-02 0. -1.
    10030    2    1    2    0    0  0.00000000000E+00  0.00000000000E+00  0.16047386860E+03  0.28453348096E+04  0.28408059272E+04 0.  0.
        5    1    3    3  502    0  0.11464858994E+04 -0.18826700475E+03 -0.73816306882E+03  0.13765105117E+04  0.46999998093E+01 0. -1.
       -5    1    3    3    0  502 -0.11464858994E+04  0.18826700475E+03  0.89863693742E+03  0.14688242979E+04  0.46999998093E+01 0.  1.
</event>
<event>
 5   0  0.9505359E-06  0.3284450E+04  0.7818609E-02  0.8166863E-01
        2   -1    0    0  501    0  0.00000000000E+00  0.00000000000E+00  0.14443376777E+04  0.14443376777E+04  0.25500000920E-02 0. -1.
       -2   -1    0    0    0  501  0.00000000000E+00  0.00000000000E+00 -0.18672243924E+04  0.18672243924E+04  0.25500000920E-02 0.  1.
    10030    2    1    2    0    0  0.00000000000E+00  0.00000000000E+00 -0.42288671475E+03  0.33115620701E+04  0.32844497515E+04 0.  0.
        4    1    3    3  502    0  0.92524240154E+03  0.12398220118E+04  0.34416704661E+03  0.15848295464E+04  0.12699999809E+01 0. -1.
       -4    1    3    3    0  502 -0.92524240154E+03 -0.12398220118E+04 -0.76705376135E+03  0.17267325236E+04  0.12699999809E+01 0.  1.
</event>
<event>
 5   0  0.3564340E-06  0.2825025E+04  0.7818609E-02  0.8295541E-01
       -1   -1    0    0    0  501  0.00000000000E+00  0.00000000000E+00  0.13393997155E+04  0.13393997155E+04  0.50400001928E-02 0.  1.
        1   -1    0    0  501    0  0.00000000000E+00  0.00000000000E+00 -0.14896159079E+04  0.14896159079E+04  0.50400001928E-02 0. -1.
    10030    2    1    2    0    0  0.00000000000E+00  0.00000000000E+00 -0.15021619234E+03  0.28290156234E+04  0.28250246889E+04 0.  0.
        1    1    3    3  502    0 -0.82672017271E+03 -0.11233015952E+04  0.14863180949E+03  0.14026275816E+04  0.50400001928E-02 0. -1.
       -1    1    3    3    0  502  0.82672017271E+03  0.11233015952E+04 -0.29884800182E+03  0.14263880419E+04  0.50400001928E-02 0.  1.
</event>
<event>
 5   0  0.9251510E-06  0.2588386E+04  0.7818609E-02  0.8372157E-01
       -2   -1    0    0    0  501  0.00000000000E+00  0.00000000000E+00  0.15258134443E+04  0.15258134443E+04  0.25500000920E-02 0. -1.
        2   -1    0    0  501    0  0.00000000000E+00  0.00000000000E+00 -0.10977327285E+04  0.10977327285E+04  0.25500000920E-02 0.  1.
    10030    2    1    2    0    0  0.00000000000E+00  0.00000000000E+00  0.42808071578E+03  0.26235461728E+04  0.25883858718E+04 0.  0.
        2    1    3    3  502    0 -0.74352989587E+03 -0.55849489120E+03  0.11263683806E+04  0.14606364977E+04  0.25500000920E-02 0.  1.
       -2    1    3    3    0  502  0.74352989587E+03  0.55849489120E+03 -0.69828766483E+03  0.11629096751E+04  0.25500000920E-02 0. -1.
</event>
<event>
 5   0  0.9360689E-06  0.2764550E+04  0.7818609E-02  0.8314359E-01
       -2   -1    0    0    0  501  0.00000000000E+00  0.00000000000E+00  0.76326613044E+03  0.76326613045E+03  0.25500000920E-02 0. -1.
        2   -1    0    0  501    0  0.00000000000E+00  0.00000000000E+00 -0.25033003342E+04  0.25033003342E+04  0.25500000920E-02 0.  1.
    10030    2    1    2    0    0  0.00000000000E+00  0.00000000000E+00 -0.17400342037E+04  0.32665664646E+04  0.27645501330E+04 0.  0.
        5    1    3    3  502    0 -0.73456802882E+03  0.85119003173E+03  0.80078449677E+02  0.11271864563E+04  0.46999998093E+01 0. -1.
       -5    1    3    3    0  502  0.73456802882E+03 -0.85119003173E+03 -0.18201126534E+04  0.21393800084E+04  0.46999998093E+01 0.  1.
</event>
<event>
 5   0  0.3474078E-06  0.2873210E+04  0.7818609E-02  0.8280893E-01
        1   -1    0    0  501    0  0.00000000000E+00  0.00000000000E+00  0.16991795387E+04  0.16991795387E+04  0.50400001928E-02 0.  1.
       -1   -1    0    0    0  501  0.00000000000E+00  0.00000000000E+00 -0.12146065560E+04  0.12146065560E+04  0.50400001928E-02 0. -1.
    10030    2    1    2    0    0  0.00000000000E+00  0.00000000000E+00  0.48457298273E+03  0.29137860947E+04  0.28732104744E+04 0.  0.
        3    1    3    3  502    0  0.90097813119E+03  0.93689694622E+03  0.86272460134E+03  0.15600741100E+04  0.10100000352E+00 0.  1.
       -3    1    3    3    0  502 -0.90097813119E+03 -0.93689694622E+03 -0.37815161862E+03  0.13537119847E+04  0.10100000352E+00 0. -1.
</event>
<event>
 5   0  0.3486236E-06  0.2912935E+04  0.7818609E-02  0.8269039E-01
        1   -1    0    0  501    0  0.00000000000E+00  0.00000000000E+00  0.10391398028E+04  0.10391398028E+04  0.50400001928E-02 0.  1.
       -1   -1    0    0    0  501  0.00000000000E+00  0.00000000000E+00 -0.20413976897E+04  0.20413976897E+04  0.50400001928E-02 0. -1.
    10030    2    1    2    0    0  0.00000000000E+00  0.00000000000E+00 -0.10022578869E+04  0.30805374925E+04  0.29129350097E+04 0.  0.
        5    1    3    3  502    0 -0.68925331390E+03  0.56433490505E+03 -0.17196999225E+04  0.19367327976E+04  0.46999998093E+01 0. -1.
       -5    1    3    3    0  502  0.68925331390E+03 -0.56433490505E+03  0.71744203558E+03  0.11438046950E+04  0.46999998093E+01 0.  1.
</event>
<event>
 5   0  0.9251510E-06  0.2872792E+04  0.7818609E-02  0.8281019E-01
       -2   -1    0    0    0  501  0.00000000000E+00  0.00000000000E+00  0.14416726406E+04  0.14416726406E+04  0.25500000920E-02 0. -1.
        2   -1    0    0  501    0  0.00000000000E+00  0.00000000000E+00 -0.14311385151E+04  0.14311385151E+04  0.25500000920E-02 0.  1.
    10030    2    1    2    0    0  0.00000000000E+00  0.00000000000E+00  0.10534125511E+02  0.28728111558E+04  0.28727918422E+04 0.  0.
        2    1    3    3  502    0 -0.15172203156E+03  0.64565570870E+03  0.12793801662E+04  0.14410775409E+04  0.25500000920E-02 0. -1.
       -2    1    3    3    0  502  0.15172203156E+03 -0.64565570870E+03 -0.12688460407E+04  0.14317336149E+04  0.25500000920E-02 0.  1.
</event>
<event>
 5   0  0.3746518E-06  0.2888254E+04  0.7818609E-02  0.8276381E-01
        1   -1    0    0  501    0  0.00000000000E+00  0.00000000000E+00  0.14129660233E+04  0.14129660233E+04  0.50400001928E-02 0.  1.
       -1   -1    0    0    0  501  0.00000000000E+00  0.00000000000E+00 -0.14759754981E+04  0.14759754981E+04  0.50400001928E-02 0. -1.
    10030    2    1    2    0    0  0.00000000000E+00  0.00000000000E+00 -0.63009474770E+02  0.28889415215E+04  0.28882543033E+04 0.  0.
        4    1    3    3  502    0  0.52094282268E+03  0.70942978090E+03 -0.11766918132E+04  0.14694479490E+04  0.12699999809E+01 0. -1.
       -4    1    3    3    0  502 -0.52094282268E+03 -0.70942978090E+03  0.11136823384E+04  0.14194935725E+04  0.12699999809E+01 0.  1.
</event>
<event>
 5   0  0.9646321E-06  0.2859061E+04  0.7818609E-02  0.8285163E-01
       -2   -1    0    0    0  501  0.00000000000E+00  0.00000000000E+00  0.96476520104E+03  0.96476520104E+03  0.25500000920E-02 0. -1.
        2   -1    0    0  501    0  0.00000000000E+00  0.00000000000E+00 -0.21181910895E+04  0.21181910895E+04  0.25500000920E-02 0.  1.
    10030    2    1    2    0    0  0.00000000000E+00  0.00000000000E+00 -0.11534258885E+04  0.30829562906E+04  0.28590607215E+04 0.  0.
        3    1    3    3  502    0 -0.11040324943E+04  0.52787082549E+02  0.40085947222E+03  0.11757391510E+04  0.10100000352E+00 0. -1.
       -3    1    3    3    0  502  0.11040324943E+04 -0.52787082549E+02 -0.15542853607E+04  0.19072171395E+04  0.10100000352E+00 0.  1.
</event>
<event>
 5   0  0.9360689E-06  0.2885812E+04  0.7818609E-02  0.8277111E-01
        2   -1    0    0  501    0  0.00000000000E+00  0.00000000000E+00  0.17344992171E+04  0.17344992171E+04  0.25500000920E-02 0. -1.
       -2   -1    0    0    0  501  0.00000000000E+00  0.00000000000E+00 -0.12003336496E+04  0.12003336496E+04  0.25500000920E-02 0.  1.
    10030    2    1    2    0    0  0.00000000000E+00  0.00000000000E+00  0.53416556749E+03  0.29348328666E+04  0.28858120350E+04 0.  0.
        5    1    3    3  502    0 -0.19095736446E+03  0.76312041542E+03 -0.96306703961E+03  0.12435182734E+04  0.46999998093E+01 0.  1.
       -5    1    3    3    0  502  0.19095736446E+03 -0.76312041542E+03  0.14972326071E+04  0.16913145932E+04  0.46999998093E+01 0. -1.
</event>
<event>
 5   0  0.9505359E-06  0.2911838E+04  0.7818609E-02  0.8269364E-01
        2   -1    0    0  501    0  0.00000000000E+00  0.00000000000E+00  0.17485315810E+04  0.17485315810E+04  0.25500000920E-02 0.  1.
       -2   -1    0    0    0  501  0.00000000000E+00  0.00000000000E+00 -0.12122748234E+04  0.12122748234E+04  0.25500000920E-02 0. -1.
    10030    2    1    2    0    0  0.00000000000E+00  0.00000000000E+00  0.53625675765E+03  0.29608064044E+04  0.29118384664E+04 0.  0.
        4    1    3    3  502    0 -0.12960467044E+04 -0.33452354550E+03  0.85052227765E+03  0.15858855003E+04  0.12699999809E+01 0.  1.
       -4    1    3    3    0  502  0.12960467044E+04  0.33452354550E+03 -0.31426551999E+03  0.13749209041E+04  0.12699999809E+01 0. -1.
</event>
<event>
 5   0  0.3746518E-06  0.2916508E+04  0.7818609E-02  0.8267983E-01
       -1   -1    0    0    0  501  0.00000000000E+00  0.00000000000E+00  0.18049924254E+04  0.18049924254E+04  0.50400001928E-02 0.  1.
        1   -1    0    0  501    0  0.00000000000E+00  0.00000000000E+00 -0.11781237291E+04  0.11781237291E+04  0.50400001928E-02 0. -1.
    10030    2    1    2    0    0  0.00000000000E+00  0.00000000000E+00  0.62686869628E+03  0.29831161545E+04  0.29165077797E+04 0.  0.
        4    1    3    3  502    0 -0.21884493657E+03 -0.12342347656E+03 -0.11558175051E+04  0.11828111341E+04  0.12699999809E+01 0. -1.
       -4    1    3    3    0  502  0.21884493657E+03  0.12342347656E+03  0.17826862014E+04  0.18003050204E+04  0.12699999809E+01 0.  1.
</event>
<event>
 5   0  0.1001573E-05  0.3565085E+04  0.7818609E-02  0.8098537E-01
       -2   -1    0    0    0  501  0.00000000000E+00  0.00000000000E+00  0.17144702436E+04  0.17144702436E+04  0.25500000920E-02 0.  1.
        2   -1    0    0  501    0  0.00000000000E+00  0.00000000000E+00 -0.18533176434E+04  0.18533176434E+04  0.25500000920E-02 0. -1.
    10030    2    1    2    0    0  0.00000000000E+00  0.00000000000E+00 -0.13884739979E+03  0.35677878870E+04  0.35650851051E+04 0.  0.
        1    1    3    3  502    0 -0.34272061078E+03 -0.99360084231E+03  0.13713753539E+04  0.17278224481E+04  0.50400001928E-02 0.  1.
       -1    1    3    3    0  502  0.34272061078E+03  0.99360084231E+03 -0.15102227536E+04  0.18399654390E+04  0.50400001928E-02 0. -1.
</event>
<event>
 5   0  0.3564340E-06  0.2825172E+04  0.7818609E-02  0.8295496E-01
        1   -1    0    0  501    0  0.00000000000E+00  0.00000000000E+00  0.19861642078E+04  0.19861642078E+04  0.50400001928E-02 0.  1.
       -1   -1    0    0    0  501  0.00000000000E+00  0.00000000000E+00 -0.10046493948E+04  0.10046493948E+04  0.50400001928E-02 0. -1.
    10030    2    1    2    0    0  0.00000000000E+00  0.00000000000E+00  0.98151481298E+03  0.29908136026E+04  0.28251716191E+04 0.  0.
        1    1    3    3  502    0  0.13627856422E+04  0.74356894526E+02  0.87637376711E+03  0.16219570383E+04  0.50400001928E-02 0.  1.
       -1    1    3    3    0  502 -0.13627856422E+04 -0.74356894526E+02  0.10514104588E+03  0.13688565644E+04  0.50400001928E-02 0. -1.
</event>
<event>
 5   0  0.9505359E-06  0.2935409E+04  0.7818609E-02  0.8262420E-01
       -2   -1    0    0    0  501  0.00000000000E+00  0.00000000000E+00  0.12359571354E+04  0.12359571354E+04  0.25500000920E-02 0. -1.
        2   -1    0    0  501    0  0.00000000000E+00  0.00000000000E+00 -0.17429052330E+04  0.17429052330E+04  0.25500000920E-02 0.  1.
    10030    2    1    2    0    0  0.00000000000E+00  0.00000000000E+00 -0.50694809763E+03  0.29788623684E+04  0.29354087682E+04 0.  0.
        4    1    3    3  502    0 -0.46333779210E+03  0.38656808606E+03 -0.16112025854E+04  0.17204918421E+04  0.12699999809E+01 0.  1.
       -4    1    3    3    0  502  0.46333779210E+03 -0.38656808606E+03  0.11042544878E+04  0.12583705263E+04  0.12699999809E+01 0. -1.
</event>
<event>
 5   0  0.3564340E-06  0.2881301E+04  0.7818609E-02  0.8278463E-01
       -1   -1    0    0    0  501  0.00000000000E+00  0.00000000000E+00  0.76336655859E+03  0.76336655860E+03  0.50400001928E-02 0. -1.
        1   -1    0    0  501    0  0.00000000000E+00  0.00000000000E+00 -0.27188431740E+04  0.27188431740E+04  0.50400001928E-02 0.  1.
    10030    2    1    2    0    0  0.00000000000E+00  0.00000000000E+00 -0.19554766154E+04  0.34822097326E+04  0.28813010652E+04 0.  0.
        1    1    3    3  502    0  0.13679624200E+01  0.14236956605E+04 -0.12440669839E+04  0.18906649268E+04  0.50400001928E-02 0.  1.
       -1    1    3    3    0  502 -0.13679624200E+01 -0.14236956605E+04 -0.71140963152E+03  0.15915448058E+04  0.50400001928E-02 0. -1.
</event>
<event>
 5   0  0.9360689E-06  0.2871362E+04  0.7818609E-02  0.8281450E-01
        2   -1    0    0  501    0  0.00000000000E+00  0.00000000000E+00  0.10890690722E+04  0.10890690722E+04  0.25500000920E-02 0.  1.
       -2   -1    0    0    0  501  0.00000000000E+00  0.00000000000E+00 -0.18926067802E+04  0.18926067802E+04  0.25500000920E-02 0. -1.
    10030    2    1    2    0    0  0.00000000000E+00  0.00000000000E+00 -0.80353770802E+03  0.29816758525E+04  0.28713617050E+04 0.  0.
        5    1    3    3  502    0  0.44540957180E+03  0.18154781042E+03 -0.18064420658E+04  0.18693860814E+04  0.46999998093E+01 0. -1.
       -5    1    3    3    0  502 -0.44540957180E+03 -0.18154781042E+03  0.10029043578E+04  0.11122897711E+04  0.46999998093E+01 0.  1.
</event>
<event>
 5   0  0.9360689E-06  0.2928108E+04  0.7818609E-02  0.8264563E-01
       -2   -1    0    0    0  501  0.00000000000E+00  0.00000000000E+00  0.12070868487E+04  0.12070868487E+04  0.25500000920E-02 0.  1.
        2   -1    0    0  501    0  0.00000000000E+00  0.00000000000E+00 -0.17757254322E+04  0.17757254322E+04  0.25500000920E-02 0. -1.
    10030    2    1    2    0    0  0.00000000000E+00  0.00000000000E+00 -0.56863858347E+03  0.29828122809E+04  0.29281084790E+04 0.  0.
        5    1    3    3  502    0 -0.57832710888E+03  0.94958657915E+03 -0.12546139475E+04  0.16763815686E+04  0.46999998093E+01 0. -1.
       -5    1    3    3    0  502  0.57832710888E+03 -0.94958657915E+03  0.68597536403E+03  0.13064307124E+04  0.46999998093E+01 0.  1.
</event>
<event>
 5   0  0.9251510E-06  0.2875866E+04  0.7818609E-02  0.8280095E-01
       -2   -1    0    0    0  501  0.00000000000E+00  0.00000000000E+00  0.14523704685E+04  0.14523704685E+04  0.25500000920E-02 0.  1.
        2   -1    0    0  501    0  0.00000000000E+00  0.00000000000E+00 -0.14236386994E+04  0.14236386994E+04  0.25500000920E-02 0. -1.
    10030    2    1    2    0    0  0.00000000000E+00  0.00000000000E+00  0.28731769136E+02  0.28760091680E+04  0.28758656470E+04 0.  0.
        2    1    3    3  502    0  0.94089773032E+03  0.53968863056E+03 -0.92966133502E+03  0.14285736084E+04  0.25500000920E-02 0. -1.
       -2    1    3    3    0  502 -0.94089773032E+03 -0.53968863056E+03  0.95839310416E+03  0.14474355595E+04  0.25500000920E-02 0.  1.
</event>
<event>
 5   0  0.9251510E-06  0.2742711E+04  0.7818609E-02  0.8321278E-01
       -2   -1    0    0    0  501  0.00000000000E+00  0.00000000000E+00  0.79518374246E+03  0.79518374246E+03  0.25500000920E-02 0. -1.
        2   -1    0    0  501    0  0.00000000000E+00  0.00000000000E+00 -0.23650074563E+04  0.23650074563E+04  0.25500000920E-02 0.  1.
    10030    2    1    2    0    0  0.00000000000E+00  0.00000000000E+00 -0.15698237138E+04  0.31601911988E+04  0.27427106884E+04 0.  0.
        2    1    3    3  502    0 -0.13024737303E+04  0.19852256488E+03 -0.34651510534E+03  0.13623221884E+04  0.25500000920E-02 0.  1.
       -2    1    3    3    0  502  0.13024737303E+04 -0.19852256488E+03 -0.12233086085E+04  0.17978690104E+04  0.25500000920E-02 0. -1.
</event>
<event>
 5   0  0.1001573E-05  0.2934485E+04  0.7818609E-02  0.8262690E-01
       -2   -1    0    0    0  501  0.00000000000E+00  0.00000000000E+00  0.97251896106E+03  0.97251896107E+03  0.25500000920E-02 0.  1.
        2   -1    0    0  501    0  0.00000000000E+00  0.00000000000E+00 -0.22136339407E+04  0.22136339407E+04  0.25500000920E-02 0. -1.
    10030    2    1    2    0    0  0.00000000000E+00  0.00000000000E+00 -0.12411149796E+04  0.31861529017E+04  0.29344852906E+04 0.  0.
        1    1    3    3  502    0  0.33405115960E+03  0.13338601888E+04 -0.11763444606E+04  0.18095743894E+04  0.50400001928E-02 0. -1.
       -1    1    3    3    0  502 -0.33405115960E+03 -0.13338601888E+04 -0.64770518975E+02  0.13765785124E+04  0.50400001928E-02 0.  1.
</event>
<event>
 5   0  0.3486236E-06  0.3520147E+04  0.7818609E-02  0.8109032E-01
       -1   -1    0    0    0  501  0.00000000000E+00  0.00000000000E+00  0.15485301354E+04  0.15485301354E+04  0.50400001928E-02 0. -1.
        1   -1    0    0  501    0  0.00000000000E+00  0.00000000000E+00 -0.20005154766E+04  0.20005154766E+04  0.50400001928E-02 0.  1.
    10030    2    1    2    0    0  0.00000000000E+00  0.00000000000E+00 -0.45198534123E+03  0.35490456120E+04  0.35201468730E+04 0.  0.
        5    1    3    3  502    0 -0.95841845567E+02  0.11526376798E+04  0.11115777216E+04  0.16041777960E+04  0.46999998093E+01 0. -1.
       -5    1    3    3    0  502  0.95841845567E+02 -0.11526376798E+04 -0.15635630628E+04  0.19448678160E+04  0.46999998093E+01 0.  1.
</event>
<event>
 5   0  0.3474078E-06  0.2916047E+04  0.7818609E-02  0.8268119E-01
       -1   -1    0    0    0  501  0.00000000000E+00  0.00000000000E+00  0.12806850092E+04  0.12806850093E+04  0.50400001928E-02 0.  1.
        1   -1    0    0  501    0  0.00000000000E+00  0.00000000000E+00 -0.16599180041E+04  0.16599180041E+04  0.50400001928E-02 0. -1.
    10030    2    1    2    0    0  0.00000000000E+00  0.00000000000E+00 -0.37923299484E+03  0.29406030133E+04  0.29160467105E+04 0.  0.
        3    1    3    3  502    0  0.69153853011E+03  0.74038397776E+03  0.86775431295E+03  0.13339383535E+04  0.10100000352E+00 0.  1.
       -3    1    3    3    0  502 -0.69153853011E+03 -0.74038397776E+03 -0.12469873078E+04  0.16066646598E+04  0.10100000352E+00 0. -1.
</event>
<event>
 5   0  0.9646321E-06  0.2914571E+04  0.7818609E-02  0.8268555E-01
       -2   -1    0    0    0  501  0.00000000000E+00  0.00000000000E+00  0.17437225319E+04  0.17437225319E+04  0.25500000920E-02 0. -1.
        2   -1    0    0  501    0  0.00000000000E+00  0.00000000000E+00 -0.12179006910E+04  0.12179006910E+04  0.25500000920E-02 0.  1.
    10030    2    1    2    0    0  0.00000000000E+00  0.00000000000E+00  0.52582184094E+03  0.29616232229E+04  0.29145708957E+04 0.  0.
        3    1    3    3  502    0 -0.75997615020E+03  0.81467573337E+02 -0.99787755400E+03  0.12569647319E+04  0.10100000352E+00 0.  1.
       -3    1    3    3    0  502  0.75997615020E+03 -0.81467573337E+02  0.15236993949E+04  0.17046584909E+04  0.10100000352E+00 0. -1.
</event>
<event>
 5   0  0.3564340E-06  0.2927330E+04  0.7818609E-02  0.8264792E-01
       -1   -1    0    0    0  501  0.00000000000E+00  0.00000000000E+00  0.11120573435E+04  0.11120573435E+04  0.50400001928E-02 0.  1.
        1   -1    0    0  501    0  0.00000000000E+00  0.00000000000E+00 -0.19264430236E+04  0.19264430236E+04  0.50400001928E-02 0. -1.
    10030    2    1    2    0    0  0.00000000000E+00  0.00000000000E+00 -0.81438568010E+03  0.30385003671E+04  0.29273299173E+04 0.  0.
        1    1    3    3  502    0 -0.47486880506E+03  0.51028779056E+03 -0.17430899150E+04  0.18773003124E+04  0.50400001928E-02 0. -1.
       -1    1    3    3    0  502  0.47486880506E+03 -0.51028779056E+03  0.92870423485E+03  0.11612000547E+04  0.50400001928E-02 0.  1.
</event>
<event>
 5   0  0.9251510E-06  0.2909024E+04  0.7818609E-02  0.8270198E-01
        2   -1    0    0  501    0  0.00000000000E+00  0.00000000000E+00  0.20658598433E+04  0.20658598433E+04  0.25500000920E-02 0. -1.
       -2   -1    0    0    0  501  0.00000000000E+00  0.00000000000E+00 -0.10240798643E+04  0.10240798643E+04  0.25500000920E-02 0.  1.
    10030    2    1    2    0    0  0.00000000000E+00  0.00000000000E+00  0.10417799790E+04  0.30899397076E+04  0.29090242130E+04 0.  0.
        2    1    3    3  502    0  0.34893469009E+03  0.89719667552E+03  0.16790622878E+04  0.19354501954E+04  0.25500000920E-02 0. -1.
       -2    1    3    3    0  502 -0.34893469009E+03 -0.89719667552E+03 -0.63728230879E+03  0.11544895121E+04  0.25500000920E-02 0.  1.
</event>
<event>
 5   0  0.3746518E-06  0.2916638E+04  0.7818609E-02  0.8267944E-01
        1   -1    0    0  501    0  0.00000000000E+00  0.00000000000E+00  0.26775408549E+04  0.26775408549E+04  0.50400001928E-02 0. -1.
       -1   -1    0    0    0  501  0.00000000000E+00  0.00000000000E+00 -0.79427123902E+03  0.79427123903E+03  0.50400001928E-02 0.  1.
    10030    2    1    2    0    0  0.00000000000E+00  0.00000000000E+00  0.18832696159E+04  0.34718120940E+04  0.29166375794E+04 0.  0.
        4    1    3    3  502    0 -0.13723241522E+04 -0.47087065434E+03  0.11169812200E+04  0.18310219580E+04  0.12699999809E+01 0. -1.
       -4    1    3    3    0  502  0.13723241522E+04  0.47087065434E+03  0.76628839591E+03  0.16407901360E+04  0.12699999809E+01 0.  1.
</event>
<event>
 5   0  0.3564340E-06  0.2879424E+04  0.7818609E-02  0.8279026E-01
        1   -1    0    0  501    0  0.00000000000E+00  0.00000000000E+00  0.16666329003E+04  0.16666329003E+04  0.50400001928E-02 0.  1.
       -1   -1    0    0    0  501  0.00000000000E+00  0.00000000000E+00 -0.12436875509E+04  0.12436875510E+04  0.50400001928E-02 0. -1.
    10030    2    1    2    0    0  0.00000000000E+00  0.00000000000E+00  0.42294534938E+03  0.29103204513E+04  0.28794239633E+04 0.  0.
        1    1    3    3  502    0 -0.42426662990E+03  0.88408660214E+03  0.12768988411E+04  0.16099943924E+04  0.50400001928E-02 0.  1.
       -1    1    3    3    0  502  0.42426662990E+03 -0.88408660214E+03 -0.85395349169E+03  0.13003260588E+04  0.50400001928E-02 0. -1.
</event>
<event>
 5   0  0.3649705E-06  0.2406401E+04  0.7818609E-02  0.8437111E-01
       -1   -1    0    0    0  501  0.00000000000E+00  0.00000000000E+00  0.69563528462E+03  0.69563528464E+03  0.50400001928E-02 0.  1.
        1   -1    0    0  501    0  0.00000000000E+00  0.00000000000E+00 -0.20811074130E+04  0.20811074130E+04  0.50400001928E-02 0. -1.
    10030    2    1    2    0    0  0.00000000000E+00  0.00000000000E+00 -0.13854721284E+04  0.27767426977E+04  0.24064012530E+04 0.  0.
        2    1    3    3  502    0  0.85317563294E+03  0.16847870978E+03 -0.16522066305E+04  0.18671048407E+04  0.25500000920E-02 0. -1.
       -2    1    3    3    0  502 -0.85317563294E+03 -0.16847870978E+03  0.26673450206E+03  0.90963785700E+03  0.25500000920E-02 0.  1.
</event>
<event>
 5   0  0.3474078E-06  0.2964577E+04  0.7818609E-02  0.8253919E-01
       -1   -1    0    0    0  501  0.00000000000E+00  0.00000000000E+00  0.19658305918E+04  0.19658305918E+04  0.50400001928E-02 0.  1.
        1   -1    0    0  501    0  0.00000000000E+00  0.00000000000E+00 -0.11176845776E+04  0.11176845776E+04  0.50400001928E-02 0. -1.
    10030    2    1    2    0    0  0.00000000000E+00  0.00000000000E+00  0.84814601423E+03  0.30835151694E+04  0.29645765529E+04 0.  0.
        3    1    3    3  502    0  0.10789690172E+04 -0.44766287460E+03  0.13731517189E+04  0.18028094305E+04  0.10100000352E+00 0.  1.
       -3    1    3    3    0  502 -0.10789690172E+04  0.44766287460E+03 -0.52500570466E+03  0.12807057389E+04  0.10100000352E+00 0. -1.
</event>
<event>
 5   0  0.9505359E-06  0.2743888E+04  0.7818609E-02  0.8320904E-01
       -2   -1    0    0    0  501  0.00000000000E+00  0.00000000000E+00  0.15912050954E+04  0.15912050954E+04  0.25500000920E-02 0.  1.
        2   -1    0    0  501    0  0.00000000000E+00  0.00000000000E+00 -0.11828961813E+04  0.11828961813E+04  0.25500000920E-02 0. -1.
    10030    2    1    2    0    0  0.00000000000E+00  0.00000000000E+00  0.40830891406E+03  0.27741012767E+04  0.27438880670E+04 0.  0.
        4    1    3    3  502    0  0.35245383778E+03 -0.11262126335E+04  0.91160957996E+03  0.14911781392E+04  0.12699999809E+01 0.  1.
       -4    1    3    3    0  502 -0.35245383778E+03  0.11262126335E+04 -0.50330066589E+03  0.12829231375E+04  0.12699999809E+01 0. -1.
</event>
<event>
 5   0  0.9505359E-06  0.2922394E+04  0.7818609E-02  0.8266246E-01
        2   -1    0    0  501    0  0.00000000000E+00  0.00000000000E+00  0.26334432613E+04  0.26334432613E+04  0.25500000920E-02 0. -1.
       -2   -1    0    0    0  501  0.00000000000E+00  0.00000000000E+00 -0.81076242945E+03  0.81076242945E+03  0.25500000920E-02 0.  1.
    10030    2    1    2    0    0  0.00000000000E+00  0.00000000000E+00  0.18226808318E+04  0.34442056907E+04  0.29223941256E+04 0.  0.
        4    1    3    3  502    0  0.70878976781E+03  0.55765525224E+03  0.22662869194E+04  0.24391433597E+04  0.12699999809E+01 0. -1.
       -4    1    3    3    0  502 -0.70878976781E+03 -0.55765525224E+03 -0.44360608761E+03  0.10050623310E+04  0.12699999809E+01 0.  1.
</event>
<event>
 5   0  0.3649705E-06  0.2914289E+04  0.7818609E-02  0.8268639E-01
        1   -1    0    0  501    0  0.00000000000E+00  0.00000000000E+00  0.19329920179E+04  0.19329920179E+04  0.50400001928E-02 0. -1.
       -1   -1    0    0    0  501  0.00000000000E+00  0.00000000000E+00 -0.10984372096E+04  0.10984372096E+04  0.50400001928E-02 0.  1.
    10030    2    1    2    0    0  0.00000000000E+00  0.00000000000E+00  0.83455480835E+03  0.30314292275E+04  0.29142891815E+04 0.  0.
        2    1    3    3  502    0 -0.14542903387E+04  0.90097236369E+02  0.40284689627E+03  0.15117418838E+04  0.25500000920E-02 0. -1.
       -2    1    3    3    0  502  0.14542903387E+04 -0.90097236369E+02  0.43170791208E+03  0.15196873437E+04  0.25500000920E-02 0.  1.
</event>
<event>
 5   0  0.9505359E-06  0.2913897E+04  0.7818609E-02  0.8268755E-01
       -2   -1    0    0    0  501  0.00000000000E+00  0.00000000000E+00  0.84433924572E+03  0.84433924572E+03  0.25500000920E-02 0.  1.
        2   -1    0    0  501    0  0.00000000000E+00  0.00000000000E+00 -0.25140354474E+04  0.25140354474E+04  0.25500000920E-02 0. -1.
    10030    2    1    2    0    0  0.00000000000E+00  0.00000000000E+00 -0.16696962017E+04  0.33583746931E+04  0.29138969051E+04 0.  0.
        4    1    3    3  502    0  0.98967783500E+02 -0.29382322039E+03 -0.24755732002E+04  0.24949130225E+04  0.12699999809E+01 0. -1.
       -4    1    3    3    0  502 -0.98967783500E+02  0.29382322039E+03  0.80587699855E+03  0.86346167066E+03  0.12699999809E+01 0.  1.
</event>
<event>
 5   0  0.1001573E-05  0.2874503E+04  0.7818609E-02  0.8280504E-01
       -2   -1    0    0    0  501  0.00000000000E+00  0.00000000000E+00  0.15683433993E+04  0.15683433993E+04  0.25500000920E-02 0.  1.
        2   -1    0    0  501    0  0.00000000000E+00  0.00000000000E+00 -0.13171168015E+04  0.13171168015E+04  0.25500000920E-02 0. -1.
    10030    2    1    2    0    0  0.00000000000E+00  0.00000000000E+00  0.25122659787E+03  0.28854602008E+04  0.28745026991E+04 0.  0.
        1    1    3    3  502    0 -0.58739288133E+03 -0.10886070919E+04 -0.60902046682E+03  0.13787681918E+04  0.50400001928E-02 0. -1.
       -1    1    3    3    0  502  0.58739288133E+03  0.10886070919E+04  0.86024706469E+03  0.15066920090E+04  0.50400001928E-02 0.  1.
</event>
<event>
 5   0  0.9505359E-06  0.2907450E+04  0.7818609E-02  0.8270664E-01
       -2   -1    0    0    0  501  0.00000000000E+00  0.00000000000E+00  0.12081911005E+04  0.12081911005E+04  0.25500000920E-02 0.  1.
        2   -1    0    0  501    0  0.00000000000E+00  0.00000000000E+00 -0.17491579141E+04  0.17491579141E+04  0.25500000920E-02 0. -1.
    10030    2    1    2    0    0  0.00000000000E+00  0.00000000000E+00 -0.54096681362E+03  0.29573490146E+04  0.29074504469E+04 0.  0.
        4    1    3    3  502    0  0.11045886898E+04 -0.74260664449E+03 -0.86509687577E+03  0.15874429185E+04  0.12699999809E+01 0. -1.
       -4    1    3    3    0  502 -0.11045886898E+04  0.74260664449E+03  0.32413006215E+03  0.13699060961E+04  0.12699999809E+01 0.  1.
</event>
<event>
 5   0  0.3474078E-06  0.2708902E+04  0.7818609E-02  0.8332122E-01
        1   -1    0    0  501    0  0.00000000000E+00  0.00000000000E+00  0.17379481780E+04  0.17379481780E+04  0.50400001928E-02 0.  1.
       -1   -1    0    0    0  501  0.00000000000E+00  0.00000000000E+00 -0.10555766313E+04  0.10555766313E+04  0.50400001928E-02 0. -1.
    10030    2    1    2    0    0  0.00000000000E+00  0.00000000000E+00  0.68237154674E+03  0.27935248093E+04  0.27089019791E+04 0.  0.
        3    1    3    3  502    0 -0.82539686078E+03 -0.44431973507E+03  0.13493963927E+04  0.16430370171E+04  0.10100000352E+00 0.  1.
       -3    1    3    3    0  502  0.82539686078E+03  0.44431973507E+03 -0.66702484594E+03  0.11504877922E+04  0.10100000352E+00 0. -1.
</event>
<event>
 5   0  0.9360689E-06  0.2901540E+04  0.7818609E-02  0.8272419E-01
       -2   -1    0    0    0  501  0.00000000000E+00  0.00000000000E+00  0.13943112495E+04  0.13943112495E+04  0.25500000920E-02 0. -1.
        2   -1    0    0  501    0  0.00000000000E+00  0.00000000000E+00 -0.15095151684E+04  0.15095151684E+04  0.25500000920E-02 0.  1.
    10030    2    1    2    0    0  0.00000000000E+00  0.00000000000E+00 -0.11520391886E+03  0.29038264179E+04  0.29015402673E+04 0.  0.
        5    1    3    3  502    0 -0.48791881763E+03 -0.54768455571E+03 -0.13102625421E+04  0.15016101906E+04  0.46999998093E+01 0.  1.
       -5    1    3    3    0  502  0.48791881763E+03  0.54768455571E+03  0.11950586233E+04  0.14022162273E+04  0.46999998093E+01 0. -1.
</event>
<event>
 5   0  0.3486236E-06  0.2824940E+04  0.7818609E-02  0.8295567E-01
       -1   -1    0    0    0  501  0.00000000000E+00  0.00000000000E+00  0.10835345481E+04  0.10835345481E+04  0.50400001928E-02 0.  1.
        1   -1    0    0  501    0  0.00000000000E+00  0.00000000000E+00 -0.18412625201E+04  0.18412625201E+04  0.50400001928E-02 0. -1.
    10030    2    1    2    0    0  0.00000000000E+00  0.00000000000E+00 -0.75772797194E+03  0.29247970682E+04  0.28249400367E+04 0.  0.
        5    1    3    3  502    0 -0.12626705549E+04  0.60868828892E+03 -0.19890656135E+03  0.14157769152E+04  0.46999998093E+01 0. -1.
       -5    1    3    3    0  502  0.12626705549E+04 -0.60868828892E+03 -0.55882141059E+03  0.15090201530E+04  0.46999998093E+01 0.  1.
</event>
<event>
 5   0  0.3474078E-06  0.2981630E+04  0.7818609E-02  0.8248996E-01
        1   -1    0    0  501    0  0.00000000000E+00  0.00000000000E+00  0.20090565750E+04  0.20090565751E+04  0.50400001928E-02 0. -1.
       -1   -1    0    0    0  501  0.00000000000E+00  0.00000000000E+00 -0.11062549528E+04  0.11062549528E+04  0.50400001928E-02 0.  1.
    10030    2    1    2    0    0  0.00000000000E+00  0.00000000000E+00  0.90280162225E+03  0.31153115279E+04  0.29816296125E+04 0.  0.
        3    1    3    3  502    0 -0.27136393626E+02 -0.59316778238E+03  0.18801701869E+04  0.19717059476E+04  0.10100000352E+00 0. -1.
       -3    1    3    3    0  502  0.27136393626E+02  0.59316778238E+03 -0.97736856462E+03  0.11436055803E+04  0.10100000352E+00 0.  1.
</event>
<event>
 5   0  0.9646321E-06  0.2834526E+04  0.7818609E-02  0.8292629E-01
       -2   -1    0    0    0  501  0.00000000000E+00  0.00000000000E+00  0.17336640046E+04  0.17336640046E+04  0.25500000920E-02 0.  1.
        2   -1    0    0  501    0  0.00000000000E+00  0.00000000000E+00 -0.11586064316E+04  0.11586064316E+04  0.25500000920E-02 0. -1.
    10030    2    1    2    0    0  0.00000000000E+00  0.00000000000E+00  0.57505757302E+03  0.28922704361E+04  0.28345258975E+04 0.  0.
        3    1    3    3  502    0 -0.46437575358E+03 -0.12434547539E+04  0.79444895738E+03  0.15469239547E+04  0.10100000352E+00 0.  1.
       -3    1    3    3    0  502  0.46437575358E+03  0.12434547539E+04 -0.21939138435E+03  0.13453464815E+04  0.10100000352E+00 0. -1.
</event>
<event>
 5   0  0.3564340E-06  0.2904448E+04  0.7818609E-02  0.8271555E-01
       -1   -1    0    0    0  501  0.00000000000E+00  0.00000000000E+00  0.72423704333E+03  0.72423704335E+03  0.50400001928E-02 0. -1.
        1   -1    0    0  501    0  0.00000000000E+00  0.00000000000E+00 -0.29119665456E+04  0.29119665456E+04  0.50400001928E-02 0.  1.
    10030    2    1    2    0    0  0.00000000000E+00  0.00000000000E+00 -0.21877295023E+04  0.36362035890E+04  0.29044476523E+04 0.  0.
        1    1    3    3  502    0  0.11543811441E+03  0.75877394910E+02  0.71599260233E+03  0.72919732853E+03  0.50400001928E-02 0. -1.
       -1    1    3    3    0  502 -0.11543811441E+03 -0.75877394910E+02 -0.29037221046E+04  0.29070062604E+04  0.50400001928E-02 0.  1.
</event>
<event>
 5   0  0.3746518E-06  0.2876133E+04  0.7818609E-02  0.8280014E-01
        1   -1    0    0  501    0  0.00000000000E+00  0.00000000000E+00  0.18706339797E+04  0.18706339797E+04  0.50400001928E-02 0. -1.
       -1   -1    0    0    0  501  0.00000000000E+00  0.00000000000E+00 -0.11055266033E+04  0.11055266033E+04  0.50400001928E-02 0.  1.
    10030    2    1    2    0    0  0.00000000000E+00  0.00000000000E+00  0.76510737643E+03  0.29761605831E+04  0.28761332582E+04 0.  0.
        4    1    3    3  502    0 -0.16607767800E+03 -0.12464080663E+04 -0.33951046614E+03  0.13024530059E+04  0.12699999809E+01 0.  1.
       -4    1    3    3    0  502  0.16607767800E+03  0.12464080663E+04  0.11046178426E+04  0.16737075772E+04  0.12699999809E+01 0. -1.
</event>
<event>
 5   0  0.3486236E-06  0.2782552E+04  0.7818609E-02  0.8308706E-01
       -1   -1    0    0    0  501  0.00000000000E+00  0.00000000000E+00  0.13670032881E+04  0.13670032881E+04  0.50400001928E-02 0. -1.
        1   -1    0    0  501    0  0.00000000000E+00  0.00000000000E+00 -0.14159796163E+04  0.14159796163E+04  0.50400001928E-02 0.  1.
    10030    2    1    2    0    0  0.00000000000E+00  0.00000000000E+00 -0.48976328186E+02  0.27829829045E+04  0.27825519161E+04 0.  0.
        5    1    3    3  502    0 -0.60151162894E+03 -0.12523716544E+04  0.48842364038E+02  0.13902009448E+04  0.46999998093E+01 0. -1.
       -5    1    3    3    0  502  0.60151162894E+03  0.12523716544E+04 -0.97818692224E+02  0.13927819596E+04  0.46999998093E+01 0.  1.
</event>
<event>
 5   0  0.3564340E-06  0.2888787E+04  0.7818609E-02  0.8276222E-01
        1   -1    0    0  501    0  0.00000000000E+00  0.00000000000E+00  0.16355202366E+04  0.16355202366E+04  0.50400001928E-02 0. -1.
       -1   -1    0    0    0  501  0.00000000000E+00  0.00000000000E+00 -0.12756016778E+04  0.12756016778E+04  0.50400001928E-02 0.  1.
    10030    2    1    2    0    0  0.00000000000E+00  0.00000000000E+00  0.35991855886E+03  0.29111219144E+04  0.28887868443E+04 0.  0.
        1    1    3    3  502    0 -0.11929203205E+04  0.45579298595E+03  0.86005960497E+03  0.15396456284E+04  0.50400001928E-02 0. -1.
       -1    1    3    3    0  502  0.11929203205E+04 -0.45579298595E+03 -0.50014104612E+03  0.13714762860E+04  0.50400001928E-02 0.  1.
</event>
<event>
 5   0  0.3564340E-06  0.2920112E+04  0.7818609E-02  0.8266919E-01
       -1   -1    0    0    0  501  0.00000000000E+00  0.00000000000E+00  0.94145986469E+03  0.94145986470E+03  0.50400001928E-02 0. -1.
        1   -1    0    0  501    0  0.00000000000E+00  0.00000000000E+00 -0.22643163342E+04  0.22643163342E+04  0.50400001928E-02 0.  1.
    10030    2    1    2    0    0  0.00000000000E+00  0.00000000000E+00 -0.13228564695E+04  0.32057761989E+04  0.29201116072E+04 0.  0.
        1    1    3    3  502    0 -0.52943409528E+03 -0.13552194292E+04 -0.52767894674E+03  0.15476967511E+04  0.50400001928E-02 0. -1.
       -1    1    3    3    0  502  0.52943409528E+03  0.13552194292E+04 -0.79517752274E+03  0.16580794478E+04  0.50400001928E-02 0.  1.
</event>
<event>
 5   0  0.9505359E-06  0.2918333E+04  0.7818609E-02  0.8267444E-01
        2   -1    0    0  501    0  0.00000000000E+00  0.00000000000E+00  0.21195107012E+04  0.21195107012E+04  0.25500000920E-02 0. -1.
       -2   -1    0    0    0  501  0.00000000000E+00  0.00000000000E+00 -0.10045559387E+04  0.10045559387E+04  0.25500000920E-02 0.  1.
    10030    2    1    2    0    0  0.00000000000E+00  0.00000000000E+00  0.11149547625E+04  0.31240666399E+04  0.29183331283E+04 0.  0.
        4    1    3    3  502    0 -0.10238660622E+04  0.10384249817E+04  0.61139997044E+03  0.15812778670E+04  0.12699999809E+01 0. -1.
       -4    1    3    3    0  502  0.10238660622E+04 -0.10384249817E+04  0.50355479208E+03  0.15427887728E+04  0.12699999809E+01 0.  1.
</event>
<event>
 5   0  0.3746518E-06  0.2904713E+04  0.7818609E-02  0.8271477E-01
        1   -1    0    0  501    0  0.00000000000E+00  0.00000000000E+00  0.18322925195E+04  0.18322925195E+04  0.50400001928E-02 0. -1.
       -1   -1    0    0    0  501  0.00000000000E+00  0.00000000000E+00 -0.11512023840E+04  0.11512023840E+04  0.50400001928E-02 0.  1.
    10030    2    1    2    0    0  0.00000000000E+00  0.00000000000E+00  0.68109013552E+03  0.29834949034E+04  0.29047130781E+04 0.  0.
        4    1    3    3  502    0 -0.77181678384E+03  0.12288485864E+04  0.40189708545E+03  0.15057532588E+04  0.12699999809E+01 0. -1.
       -4    1    3    3    0  502  0.77181678384E+03 -0.12288485864E+04  0.27919305006E+03  0.14777416446E+04  0.12699999809E+01 0.  1.
</event>
<event>
 5   0  0.3564340E-06  0.2916303E+04  0.7818609E-02  0.8268043E-01
       -1   -1    0    0    0  501  0.00000000000E+00  0.00000000000E+00  0.10632154162E+04  0.10632154162E+04  0.50400001928E-02 0.  1.
        1   -1    0    0  501    0  0.00000000000E+00  0.00000000000E+00 -0.19997880094E+04  0.19997880094E+04  0.50400001928E-02 0. -1.
    10030    2    1    2    0    0  0.00000000000E+00  0.00000000000E+00 -0.93657259322E+03  0.30630034256E+04  0.29163027556E+04 0.  0.
        1    1    3    3  502    0  0.79632910431E+03  0.12187306450E+04 -0.55464791313E+03  0.15579084489E+04  0.50400001928E-02 0. -1.
       -1    1    3    3    0  502 -0.79632910431E+03 -0.12187306450E+04 -0.38192468009E+03  0.15050949767E+04  0.50400001928E-02 0.  1.
</event>
<event>
 5   0  0.3474078E-06  0.2906241E+04  0.7818609E-02  0.8271023E-01
       -1   -1    0    0    0  501  0.00000000000E+00  0.00000000000E+00  0.11994099284E+04  0.11994099284E+04  0.50400001928E-02 0. -1.
        1   -1    0    0  501    0  0.00000000000E+00  0.00000000000E+00 -0.17604985013E+04  0.17604985013E+04  0.50400001928E-02 0.  1.
    10030    2    1    2    0    0  0.00000000000E+00  0.00000000000E+00 -0.56108857286E+03  0.29599084297E+04  0.29062411334E+04 0.  0.
        3    1    3    3  502    0  0.66159204342E+03 -0.12797745305E+04 -0.87216726285E+02  0.14433064984E+04  0.10100000352E+00 0.  1.
       -3    1    3    3    0  502 -0.66159204342E+03  0.12797745305E+04 -0.47387184657E+03  0.15166019313E+04  0.10100000352E+00 0. -1.
</event>
<event>
 5   0  0.3474078E-06  0.2899921E+04  0.7818609E-02  0.8272901E-01
       -1   -1    0    0    0  501  0.00000000000E+00  0.00000000000E+00  0.13764560861E+04  0.13764560861E+04  0.50400001928E-02 0. -1.
        1   -1    0    0  501    0  0.00000000000E+00  0.00000000000E+00 -0.15273897937E+04  0.15273897937E+04  0.50400001928E-02 0.  1.
    10030    2    1    2    0    0  0.00000000000E+00  0.00000000000E+00 -0.15093370767E+03  0.29038458798E+04  0.28999206730E+04 0.  0.
        3    1    3    3  502    0  0.67158027536E+03  0.82481620850E+03 -0.10622158725E+04  0.15032113671E+04  0.10100000352E+00 0.  1.
       -3    1    3    3    0  502 -0.67158027536E+03 -0.82481620850E+03  0.91128216487E+03  0.14006345127E+04  0.10100000352E+00 0. -1.
</event>
<event>
 5   0  0.9505359E-06  0.2883023E+04  0.7818609E-02  0.8277947E-01
        2   -1    0    0  501    0  0.00000000000E+00  0.00000000000E+00  0.23332087367E+04  0.23332087367E+04  0.25500000920E-02 0. -1.
       -2   -1    0    0    0  501  0.00000000000E+00  0.00000000000E+00 -0.89059972214E+03  0.89059972215E+03  0.25500000920E-02 0.  1.
    10030    2    1    2    0    0  0.00000000000E+00  0.00000000000E+00  0.14426090146E+04  0.32238084589E+04  0.28830227558E+04 0.  0.
        4    1    3    3  502    0 -0.59734380200E+03  0.46333762872E+03  0.20937617347E+04  0.22260595658E+04  0.12699999809E+01 0. -1.
       -4    1    3    3    0  502  0.59734380200E+03 -0.46333762872E+03 -0.65115272006E+03  0.99774889311E+03  0.12699999809E+01 0.  1.
</event>
<event>
 5   0  0.3649705E-06  0.2649438E+04  0.7818609E-02  0.8351600E-01
       -1   -1    0    0    0  501  0.00000000000E+00  0.00000000000E+00  0.10971673515E+04  0.10971673515E+04  0.50400001928E-02 0.  1.
        1   -1    0    0  501    0  0.00000000000E+00  0.00000000000E+00 -0.15994641940E+04  0.15994641940E+04  0.50400001928E-02 0. -1.
    10030    2    1    2    0    0  0.00000000000E+00  0.00000000000E+00 -0.50229684249E+03  0.26966315455E+04  0.26494375958E+04 0.  0.
        2    1    3    3  502    0  0.53867191906E+03  0.62433142094E+03  0.80410444381E+03  0.11517556668E+04  0.25500000920E-02 0.  1.
       -2    1    3    3    0  502 -0.53867191906E+03 -0.62433142094E+03 -0.13064012863E+04  0.15448758786E+04  0.25500000920E-02 0. -1.
</event>
<event>
 5   0  0.3746518E-06  0.2922301E+04  0.7818609E-02  0.8266273E-01
       -1   -1    0    0    0  501  0.00000000000E+00  0.00000000000E+00  0.12152534247E+04  0.12152534247E+04  0.50400001928E-02 0. -1.
        1   -1    0    0  501    0  0.00000000000E+00  0.00000000000E+00 -0.17568023348E+04  0.17568023348E+04  0.50400001928E-02 0.  1.
    10030    2    1    2    0    0  0.00000000000E+00  0.00000000000E+00 -0.54154891009E+03  0.29720557596E+04  0.29223005006E+04 0.  0.
        4    1    3    3  502    0  0.13090735156E+04  0.15647741414E+03 -0.91141998148E+03  0.16027621926E+04  0.12699999809E+01 0.  1.
       -4    1    3    3    0  502 -0.13090735156E+04 -0.15647741414E+03  0.36987107139E+03  0.13692935670E+04  0.12699999809E+01 0. -1.
</event>
<event>
 5   0  0.9505359E-06  0.2900982E+04  0.7818609E-02  0.8272585E-01
       -2   -1    0    0    0  501  0.00000000000E+00  0.00000000000E+00  0.10937427780E+04  0.10937427780E+04  0.25500000920E-02 0.  1.
        2   -1    0    0  501    0  0.00000000000E+00  0.00000000000E+00 -0.19236009315E+04  0.19236009315E+04  0.25500000920E-02 0. -1.
    10030    2    1    2    0    0  0.00000000000E+00  0.00000000000E+00 -0.82985815346E+03  0.30173437095E+04  0.29009823347E+04 0.  0.
        4    1    3    3  502    0  0.64928486396E+02 -0.19802240812E+03  0.10780902252E+04  0.10980476898E+04  0.12699999809E+01 0.  1.
       -4    1    3    3    0  502 -0.64928486396E+02  0.19802240812E+03 -0.19079483787E+04  0.19192960197E+04  0.12699999809E+01 0. -1.
</event>
<event>
 5   0  0.9360689E-06  0.2873985E+04  0.7818609E-02  0.8280660E-01
        2   -1    0    0  501    0  0.00000000000E+00  0.00000000000E+00  0.31619835835E+04  0.31619835835E+04  0.25500000920E-02 0.  1.
       -2   -1    0    0    0  501  0.00000000000E+00  0.00000000000E+00 -0.65305467517E+03  0.65305467518E+03  0.25500000920E-02 0. -1.
    10030    2    1    2    0    0  0.00000000000E+00  0.00000000000E+00  0.25089289084E+04  0.38150382587E+04  0.28739854990E+04 0.  0.
        5    1    3    3  502    0  0.45633700875E+03  0.74707673832E+03  0.27671378214E+04  0.29023164768E+04  0.46999998093E+01 0.  1.
       -5    1    3    3    0  502 -0.45633700875E+03 -0.74707673832E+03 -0.25820891306E+03  0.91272178196E+03  0.46999998093E+01 0. -1.
</event>
<event>
 5   0  0.3746518E-06  0.2918374E+04  0.7818609E-02  0.8267432E-01
        1   -1    0    0  501    0  0.00000000000E+00  0.00000000000E+00  0.17485651397E+04  0.17485651397E+04  0.50400001928E-02 0. -1.
       -1   -1    0    0    0  501  0.00000000000E+00  0.00000000000E+00 -0.12176995723E+04  0.12176995723E+04  0.50400001928E-02 0.  1.
    10030    2    1    2    0    0  0.00000000000E+00  0.00000000000E+00  0.53086556738E+03  0.29662647120E+04  0.29183742205E+04 0.  0.
        4    1    3    3  502    0  0.32367530242E+03 -0.56814854049E+03  0.15913188486E+04  0.17204231329E+04  0.12699999809E+01 0. -1.
       -4    1    3    3    0  502 -0.32367530242E+03  0.56814854049E+03 -0.10604532812E+04  0.12458415790E+04  0.12699999809E+01 0.  1.
</event>
<event>
 5   0  0.9505359E-06  0.2829124E+04  0.7818609E-02  0.8294283E-01
       -2   -1    0    0    0  501  0.00000000000E+00  0.00000000000E+00  0.13070160173E+04  0.13070160173E+04  0.25500000920E-02 0. -1.
        2   -1    0    0  501    0  0.00000000000E+00  0.00000000000E+00 -0.15309567572E+04  0.15309567572E+04  0.25500000920E-02 0.  1.
    10030    2    1    2    0    0  0.00000000000E+00  0.00000000000E+00 -0.22394073984E+03  0.28379727745E+04  0.28291235416E+04 0.  0.
        4    1    3    3  502    0 -0.20998896782E+03  0.89065186687E+03 -0.11940600586E+04  0.15043726769E+04  0.12699999809E+01 0.  1.
       -4    1    3    3    0  502  0.20998896782E+03 -0.89065186687E+03  0.97011931880E+03  0.13336000975E+04  0.12699999809E+01 0. -1.
</event>
<event>
 5   0  0.9646321E-06  0.2818499E+04  0.7818609E-02  0.8297548E-01
       -2   -1    0    0    0  501  0.00000000000E+00  0.00000000000E+00  0.91757903881E+03  0.91757903881E+03  0.25500000920E-02 0.  1.
        2   -1    0    0  501    0  0.00000000000E+00  0.00000000000E+00 -0.21643742299E+04  0.21643742299E+04  0.25500000920E-02 0. -1.
    10030    2    1    2    0    0  0.00000000000E+00  0.00000000000E+00 -0.12467951911E+04  0.30819532687E+04  0.28184991932E+04 0.  0.
        3    1    3    3  502    0 -0.10778573668E+04 -0.26668424033E+03 -0.15723202898E+04  0.19248605381E+04  0.10100000352E+00 0. -1.
       -3    1    3    3    0  502  0.10778573668E+04  0.26668424033E+03  0.32552509866E+03  0.11570927306E+04  0.10100000352E+00 0.  1.
</event>
<event>
 5   0  0.3486236E-06  0.2846645E+04  0.7818609E-02  0.8288932E-01
        1   -1    0    0  501    0  0.00000000000E+00  0.00000000000E+00  0.98328425045E+03  0.98328425046E+03  0.50400001928E-02 0. -1.
       -1   -1    0    0    0  501  0.00000000000E+00  0.00000000000E+00 -0.20602858442E+04  0.20602858443E+04  0.50400001928E-02 0.  1.
    10030    2    1    2    0    0  0.00000000000E+00  0.00000000000E+00 -0.10770015938E+04  0.30435700947E+04  0.28466447773E+04 0.  0.
        5    1    3    3  502    0 -0.37347347673E+03 -0.98174750760E+03 -0.15654205248E+04  0.18851721714E+04  0.46999998093E+01 0.  1.
       -5    1    3    3    0  502  0.37347347673E+03  0.98174750760E+03  0.48841893099E+03  0.11583979233E+04  0.46999998093E+01 0. -1.
</event>
<event>
 5   0  0.9251510E-06  0.2260835E+04  0.7818609E-02  0.8493525E-01
       -2   -1    0    0    0  501  0.00000000000E+00  0.00000000000E+00  0.58186987939E+03  0.58186987940E+03  0.25500000920E-02 0.  1.
        2   -1    0    0  501    0  0.00000000000E+00  0.00000000000E+00 -0.21960989587E+04  0.21960989587E+04  0.25500000920E-02 0. -1.
    10030    2    1    2    0    0  0.00000000000E+00  0.00000000000E+00 -0.16142290793E+04  0.27779688381E+04  0.22608350990E+04 0.  0.
        2    1    3    3  502    0  0.58736522028E+02  0.24707819307E+03  0.54636237981E+03  0.60250266605E+03  0.25500000920E-02 0.  1.
       -2    1    3    3    0  502 -0.58736522028E+02 -0.24707819307E+03 -0.21605914592E+04  0.21754661721E+04  0.25500000920E-02 0. -1.
</event>
<event>
 5   0  0.3486236E-06  0.2884158E+04  0.7818609E-02  0.8277607E-01
       -1   -1    0    0    0  501  0.00000000000E+00  0.00000000000E+00  0.19902159744E+04  0.19902159744E+04  0.50400001928E-02 0. -1.
        1   -1    0    0  501    0  0.00000000000E+00  0.00000000000E+00 -0.10449073547E+04  0.10449073547E+04  0.50400001928E-02 0.  1.
    10030    2    1    2    0    0  0.00000000000E+00  0.00000000000E+00  0.94530861965E+03  0.30351233291E+04  0.28841576303E+04 0.  0.
        5    1    3    3  502    0 -0.29394731506E+03 -0.36579237627E+03  0.19076120386E+04  0.19644884490E+04  0.46999998093E+01 0. -1.
       -5    1    3    3    0  502  0.29394731506E+03  0.36579237627E+03 -0.96230341890E+03  0.10706348801E+04  0.46999998093E+01 0.  1.
</event>
<event>
 5   0  0.9251510E-06  0.2896767E+04  0.7818609E-02  0.8273840E-01
       -2   -1    0    0    0  501  0.00000000000E+00  0.00000000000E+00  0.10499312528E+04  0.10499312528E+04  0.25500000920E-02 0. -1.
        2   -1    0    0  501    0  0.00000000000E+00  0.00000000000E+00 -0.19980499199E+04  0.19980499199E+04  0.25500000920E-02 0.  1.
    10030    2    1    2    0    0  0.00000000000E+00  0.00000000000E+00 -0.94811866708E+03  0.30479811727E+04  0.28967672020E+04 0.  0.
        2    1    3    3  502    0 -0.71236546873E+03 -0.12309485088E+04 -0.18567897806E+03  0.14342857021E+04  0.25500000920E-02 0. -1.
       -2    1    3    3    0  502  0.71236546873E+03  0.12309485088E+04 -0.76243968902E+03  0.16136954706E+04  0.25500000920E-02 0.  1.
</event>
<event>
 5   0  0.3474078E-06  0.2852049E+04  0.7818609E-02  0.8287289E-01
       -1   -1    0    0    0  501  0.00000000000E+00  0.00000000000E+00  0.19360916924E+04  0.19360916924E+04  0.50400001928E-02 0. -1.
        1   -1    0    0  501    0  0.00000000000E+00  0.00000000000E+00 -0.10503356868E+04  0.10503356868E+04  0.50400001928E-02 0.  1.
    10030    2    1    2    0    0  0.00000000000E+00  0.00000000000E+00  0.88575600558E+03  0.29864273792E+04  0.28520492264E+04 0.  0.
        3    1    3    3  502    0  0.40322091429E+03  0.24512257971E+02 -0.98916921845E+03  0.10684772854E+04  0.10100000352E+00 0.  1.
       -3    1    3    3    0  502 -0.40322091429E+03 -0.24512257971E+02  0.18749252240E+04  0.19179500938E+04  0.10100000352E+00 0. -1.
</event>
<event>
 5   0  0.9646321E-06  0.2871464E+04  0.7818609E-02  0.8281419E-01
        2   -1    0    0  501    0  0.00000000000E+00  0.00000000000E+00  0.12135139465E+04  0.12135139465E+04  0.25500000920E-02 0.  1.
       -2   -1    0    0    0  501  0.00000000000E+00  0.00000000000E+00 -0.16986422059E+04  0.16986422059E+04  0.25500000920E-02 0. -1.
    10030    2    1    2    0    0  0.00000000000E+00  0.00000000000E+00 -0.48512825944E+03  0.29121561524E+04  0.28714637431E+04 0.  0.
        3    1    3    3  502    0  0.31212975139E+03  0.13993298842E+04 -0.31964708803E+03  0.14689191189E+04  0.10100000352E+00 0.  1.
       -3    1    3    3    0  502 -0.31212975139E+03 -0.13993298842E+04 -0.16548117141E+03  0.14432370335E+04  0.10100000352E+00 0. -1.
</event>
<event>
 5   0  0.3746518E-06  0.2269300E+04  0.7818609E-02  0.8490125E-01
       -1   -1    0    0    0  501  0.00000000000E+00  0.00000000000E+00  0.19868393643E+04  0.19868393643E+04  0.50400001928E-02 0. -1.
        1   -1    0    0  501    0  0.00000000000E+00  0.00000000000E+00 -0.64797893995E+03  0.64797893997E+03  0.50400001928E-02 0.  1.
    10030    2    1    2    0    0  0.00000000000E+00  0.00000000000E+00  0.13388604243E+04  0.26348183042E+04  0.22692995088E+04 0.  0.
        4    1    3    3  502    0 -0.18646237194E+03  0.70978445900E+03 -0.33532665725E+03  0.80685052789E+03  0.12699999809E+01 0.  1.
       -4    1    3    3    0  502  0.18646237194E+03 -0.70978445900E+03  0.16741870816E+04  0.18279677763E+04  0.12699999809E+01 0. -1.
</event>
<event>
 5   0  0.3564340E-06  0.2908417E+04  0.7818609E-02  0.8270378E-01
       -1   -1    0    0    0  501  0.00000000000E+00  0.00000000000E+00  0.18552139690E+04  0.18552139690E+04  0.50400001928E-02 0.  1.
        1   -1    0    0  501    0  0.00000000000E+00  0.00000000000E+00 -0.11398807056E+04  0.11398807056E+04  0.50400001928E-02 0. -1.
    10030    2    1    2    0    0  0.00000000000E+00  0.00000000000E+00  0.71533326339E+03  0.29950946746E+04  0.29084171695E+04 0.  0.
        1    1    3    3  502    0 -0.16790219358E+03 -0.12121799502E+04 -0.45133547859E+03  0.13043293651E+04  0.50400001928E-02 0. -1.
       -1    1    3    3    0  502  0.16790219358E+03  0.12121799502E+04  0.11666687420E+04  0.16907653095E+04  0.50400001928E-02 0.  1.
</event>
<event>
 5   0  0.9251510E-06  0.2881652E+04  0.7818609E-02  0.8278358E-01
        2   -1    0    0  501    0  0.00000000000E+00  0.00000000000E+00  0.77563142949E+03  0.77563142949E+03  0.25500000920E-02 0. -1.
       -2   -1    0    0    0  501  0.00000000000E+00  0.00000000000E+00 -0.26765023742E+04  0.26765023742E+04  0.25500000920E-02 0.  1.
    10030    2    1    2    0    0  0.00000000000E+00  0.00000000000E+00 -0.19008709447E+04  0.34521338037E+04  0.28816518614E+04 0.  0.
        2    1    3    3  502    0  0.30106681070E+03  0.76638940592E+03  0.46600207090E+03  0.94612466203E+03  0.25500000920E-02 0. -1.
       -2    1    3    3    0  502 -0.30106681070E+03 -0.76638940592E+03 -0.23668730156E+04  0.25060091416E+04  0.25500000920E-02 0.  1.
</event>
<event>
 5   0  0.3474078E-06  0.2983499E+04  0.7818609E-02  0.8248458E-01
        1   -1    0    0  501    0  0.00000000000E+00  0.00000000000E+00  0.77385645825E+03  0.77385645827E+03  0.50400001928E-02 0.  1.
       -1   -1    0    0    0  501  0.00000000000E+00  0.00000000000E+00 -0.28756201695E+04  0.28756201695E+04  0.50400001928E-02 0. -1.
    10030    2    1    2    0    0  0.00000000000E+00  0.00000000000E+00 -0.21017637112E+04  0.36494766278E+04  0.29834994484E+04 0.  0.
        3    1    3    3  502    0  0.12842666727E+03  0.61236001695E+03  0.60559445976E+03  0.87075993197E+03  0.10100000352E+00 0.  1.
       -3    1    3    3    0  502 -0.12842666727E+03 -0.61236001695E+03 -0.27073581710E+04  0.27787166958E+04  0.10100000352E+00 0. -1.
</event>
<event>
 5   0  0.9505359E-06  0.2871239E+04  0.7818609E-02  0.8281486E-01
       -2   -1    0    0    0  501  0.00000000000E+00  0.00000000000E+00  0.12343809443E+04  0.12343809443E+04  0.25500000920E-02 0. -1.
        2   -1    0    0  501    0  0.00000000000E+00  0.00000000000E+00 -0.16696660560E+04  0.16696660560E+04  0.25500000920E-02 0.  1.
    10030    2    1    2    0    0  0.00000000000E+00  0.00000000000E+00 -0.43528511170E+03  0.29040470002E+04  0.28712394277E+04 0.  0.
        4    1    3    3  502    0  0.27760472783E+03 -0.35761526524E+03  0.11602932457E+04  0.12454858858E+04  0.12699999809E+01 0. -1.
       -4    1    3    3    0  502 -0.27760472783E+03  0.35761526524E+03 -0.15955783574E+04  0.16585611144E+04  0.12699999809E+01 0.  1.
</event>
<event>
 5   0  0.9646321E-06  0.2882566E+04  0.7818609E-02  0.8278084E-01
        2   -1    0    0  501    0  0.00000000000E+00  0.00000000000E+00  0.70911298876E+03  0.70911298876E+03  0.25500000920E-02 0.  1.
       -2   -1    0    0    0  501  0.00000000000E+00  0.00000000000E+00 -0.29294288065E+04  0.29294288065E+04  0.25500000920E-02 0. -1.
    10030    2    1    2    0    0  0.00000000000E+00  0.00000000000E+00 -0.22203158177E+04  0.36385417952E+04  0.28825655353E+04 0.  0.
        3    1    3    3  502    0  0.50197266215E+03 -0.26968939746E+03  0.56088645990E+03  0.79956397852E+03  0.10100000352E+00 0.  1.
       -3    1    3    3    0  502 -0.50197266215E+03  0.26968939746E+03 -0.27812022776E+04  0.28389778167E+04  0.10100000352E+00 0. -1.
</event>
<event>
 5   0  0.9360689E-06  0.2886730E+04  0.7818609E-02  0.8276837E-01
       -2   -1    0    0    0  501  0.00000000000E+00  0.00000000000E+00  0.13016107174E+04  0.13016107174E+04  0.25500000920E-02 0.  1.
        2   -1    0    0  501    0  0.00000000000E+00  0.00000000000E+00 -0.16005572654E+04  0.16005572654E+04  0.25500000920E-02 0. -1.
    10030    2    1    2    0    0  0.00000000000E+00  0.00000000000E+00 -0.29894654800E+03  0.29021679828E+04  0.28867299773E+04 0.  0.
        5    1    3    3  502    0  0.79248896305E+03 -0.10515241230E+04  0.44490646174E+03  0.13898581178E+04  0.46999998093E+01 0.  1.
       -5    1    3    3    0  502 -0.79248896305E+03  0.10515241230E+04 -0.74385300973E+03  0.15123098651E+04  0.46999998093E+01 0. -1.
</event>
<event>
 5   0  0.3746518E-06  0.3002702E+04  0.7818609E-02  0.8242960E-01
        1   -1    0    0  501    0  0.00000000000E+00  0.00000000000E+00  0.23982278999E+04  0.23982278999E+04  0.50400001928E-02 0. -1.
       -1   -1    0    0    0  501  0.00000000000E+00  0.00000000000E+00 -0.93988375511E+03  0.93988375512E+03  0.50400001928E-02 0.  1.
    10030    2    1    2    0    0  0.00000000000E+00  0.00000000000E+00  0.14583441448E+04  0.33381116551E+04  0.30027024123E+04 0.  0.
        4    1    3    3  502    0  0.12415973129E+04  0.48877833544E+03  0.14942186004E+04  0.20032870456E+04  0.12699999809E+01 0. -1.
       -4    1    3    3    0  502 -0.12415973129E+04 -0.48877833544E+03 -0.35874455556E+02  0.13348246094E+04  0.12699999809E+01 0.  1.
</event>
<event>
 5   0  0.3474078E-06  0.2906864E+04  0.7818609E-02  0.8270838E-01
        1   -1    0    0  501    0  0.00000000000E+00  0.00000000000E+00  0.14619847852E+04  0.14619847852E+04  0.50400001928E-02 0.  1.
       -1   -1    0    0    0  501  0.00000000000E+00  0.00000000000E+00 -0.14449292282E+04  0.14449292282E+04  0.50400001928E-02 0. -1.
    10030    2    1    2    0    0  0.00000000000E+00  0.00000000000E+00  0.17055556991E+02  0.29069140133E+04  0.29068639784E+04 0.  0.
        3    1    3    3  502    0 -0.16542079470E+03  0.14171651042E+04  0.28555883641E+03  0.14550824139E+04  0.10100000352E+00 0.  1.
       -3    1    3    3    0  502  0.16542079470E+03 -0.14171651042E+04 -0.26850327941E+03  0.14518315995E+04  0.10100000352E+00 0. -1.
</event>
<event>
 5   0  0.3486236E-06  0.2892668E+04  0.7818609E-02  0.8275062E-01
        1   -1    0    0  501    0  0.00000000000E+00  0.00000000000E+00  0.18255770889E+04  0.18255770889E+04  0.50400001928E-02 0. -1.
       -1   -1    0    0    0  501  0.00000000000E+00  0.00000000000E+00 -0.11458746430E+04  0.11458746430E+04  0.50400001928E-02 0.  1.
    10030    2    1    2    0    0  0.00000000000E+00  0.00000000000E+00  0.67970244582E+03  0.29714517319E+04  0.28926683149E+04 0.  0.
        5    1    3    3  502    0  0.61663364521E+03 -0.10550392873E+04  0.11345594813E+04  0.16675107966E+04  0.46999998093E+01 0. -1.
       -5    1    3    3    0  502 -0.61663364521E+03  0.10550392873E+04 -0.45485703546E+03  0.13039409353E+04  0.46999998093E+01 0.  1.
</event>
<event>
 5   0  0.9251510E-06  0.3087329E+04  0.7818609E-02  0.8219224E-01
       -2   -1    0    0    0  501  0.00000000000E+00  0.00000000000E+00  0.88900941499E+03  0.88900941499E+03  0.25500000920E-02 0. -1.
        2   -1    0    0  501    0  0.00000000000E+00  0.00000000000E+00 -0.26803999250E+04  0.26803999250E+04  0.25500000920E-02 0.  1.
    10030    2    1    2    0    0  0.00000000000E+00  0.00000000000E+00 -0.17913905100E+04  0.35694093400E+04  0.30873294410E+04 0.  0.
        2    1    3    3  502    0 -0.40076510086E+03 -0.14091259093E+04 -0.14581255725E+04  0.20669733137E+04  0.25500000920E-02 0.  1.
       -2    1    3    3    0  502  0.40076510086E+03  0.14091259093E+04 -0.33326493749E+03  0.15024360263E+04  0.25500000920E-02 0. -1.
</event>
<event>
 5   0  0.9505359E-06  0.2969529E+04  0.7818609E-02  0.8252486E-01
       -2   -1    0    0    0  501  0.00000000000E+00  0.00000000000E+00  0.22734158668E+04  0.22734158668E+04  0.25500000920E-02 0.  1.
        2   -1    0    0  501    0  0.00000000000E+00  0.00000000000E+00 -0.96969751689E+03  0.96969751689E+03  0.25500000920E-02 0. -1.
    10030    2    1    2    0    0  0.00000000000E+00  0.00000000000E+00  0.13037183499E+04  0.32431133837E+04  0.29695290676E+04 0.  0.
        4    1    3    3  502    0 -0.13347898073E+04  0.40576603905E+03  0.12068229204E+04  0.18446498535E+04  0.12699999809E+01 0.  1.
       -4    1    3    3    0  502  0.13347898073E+04 -0.40576603905E+03  0.96895429469E+02  0.13984635301E+04  0.12699999809E+01 0. -1.
</event>
<event>
 5   0  0.9360689E-06  0.2884966E+04  0.7818609E-02  0.8277365E-01
       -2   -1    0    0    0  501  0.00000000000E+00  0.00000000000E+00  0.12769203562E+04  0.12769203562E+04  0.25500000920E-02 0. -1.
        2   -1    0    0  501    0  0.00000000000E+00  0.00000000000E+00 -0.16295121133E+04  0.16295121133E+04  0.25500000920E-02 0.  1.
    10030    2    1    2    0    0  0.00000000000E+00  0.00000000000E+00 -0.35259175715E+03  0.29064324695E+04  0.28849659881E+04 0.  0.
        5    1    3    3  502    0  0.35495044401E+03  0.53533432431E+03 -0.14774798615E+04  0.16110684304E+04  0.46999998093E+01 0.  1.
       -5    1    3    3    0  502 -0.35495044401E+03 -0.53533432431E+03  0.11248881043E+04  0.12953640391E+04  0.46999998093E+01 0. -1.
</event>
<event>
 5   0  0.9505359E-06  0.2904020E+04  0.7818609E-02  0.8271682E-01
       -2   -1    0    0    0  501  0.00000000000E+00  0.00000000000E+00  0.11166620485E+04  0.11166620485E+04  0.25500000920E-02 0. -1.
        2   -1    0    0  501    0  0.00000000000E+00  0.00000000000E+00 -0.18880675950E+04  0.18880675950E+04  0.25500000920E-02 0.  1.
    10030    2    1    2    0    0  0.00000000000E+00  0.00000000000E+00 -0.77140554647E+03  0.30047296435E+04  0.29040202674E+04 0.  0.
        4    1    3    3  502    0  0.90989025125E+03  0.11261098206E+03  0.77928836490E+03  0.12032761409E+04  0.12699999809E+01 0. -1.
       -4    1    3    3    0  502 -0.90989025125E+03 -0.11261098206E+03 -0.15506939114E+04  0.18014535027E+04  0.12699999809E+01 0.  1.
</event>
<event>
 5   0  0.9251510E-06  0.2873889E+04  0.7818609E-02  0.8280689E-01
        2   -1    0    0  501    0  0.00000000000E+00  0.00000000000E+00  0.15446095405E+04  0.15446095405E+04  0.25500000920E-02 0.  1.
       -2   -1    0    0    0  501  0.00000000000E+00  0.00000000000E+00 -0.13367844802E+04  0.13367844802E+04  0.25500000920E-02 0. -1.
    10030    2    1    2    0    0  0.00000000000E+00  0.00000000000E+00  0.20782506025E+03  0.28813940207E+04  0.28738893937E+04 0.  0.
        2    1    3    3  502    0  0.16262574503E+03 -0.40505932681E+03  0.14765346082E+04  0.15396995293E+04  0.25500000920E-02 0.  1.
       -2    1    3    3    0  502 -0.16262574503E+03  0.40505932681E+03 -0.12687095480E+04  0.13416944914E+04  0.25500000920E-02 0. -1.
</event>
<event>
 5   0  0.9360689E-06  0.2922044E+04  0.7818609E-02  0.8266349E-01
        2   -1    0    0  501    0  0.00000000000E+00  0.00000000000E+00  0.18976165630E+04  0.18976165630E+04  0.25500000920E-02 0. -1.
       -2   -1    0    0    0  501  0.00000000000E+00  0.00000000000E+00 -0.11248771624E+04  0.11248771624E+04  0.25500000920E-02 0.  1.
    10030    2    1    2    0    0  0.00000000000E+00  0.00000000000E+00  0.77273940059E+03  0.30224937253E+04  0.29220441712E+04 0.  0.
        5    1    3    3  502    0  0.78978625261E+03  0.11920280054E+04  0.69645905515E+03  0.15905251950E+04  0.46999998093E+01 0. -1.
       -5    1    3    3    0  502 -0.78978625261E+03 -0.11920280054E+04  0.76280345436E+02  0.14319685303E+04  0.46999998093E+01 0.  1.
</event>
<event>
 5   0  0.9360689E-06  0.2886657E+04  0.7818609E-02  0.8276858E-01
       -2   -1    0    0    0  501  0.00000000000E+00  0.00000000000E+00  0.11077314535E+04  0.11077314535E+04  0.25500000920E-02 0.  1.
        2   -1    0    0  501    0  0.00000000000E+00  0.00000000000E+00 -0.18805978124E+04  0.18805978124E+04  0.25500000920E-02 0. -1.
    10030    2    1    2    0    0  0.00000000000E+00  0.00000000000E+00 -0.77286635900E+03  0.29883292659E+04  0.28866571311E+04 0.  0.
        5    1    3    3  502    0  0.14410646036E+04  0.20422760635E+02 -0.46722673754E+03  0.15150601292E+04  0.46999998093E+01 0. -1.
       -5    1    3    3    0  502 -0.14410646036E+04 -0.20422760635E+02 -0.30563962146E+03  0.14732691367E+04  0.46999998093E+01 0.  1.
</event>
<event>
 5   0  0.3649705E-06  0.2911878E+04  0.7818609E-02  0.8269352E-01
       -1   -1    0    0    0  501  0.00000000000E+00  0.00000000000E+00  0.18563806560E+04  0.18563806561E+04  0.50400001928E-02 0.  1.
        1   -1    0    0  501    0  0.00000000000E+00  0.00000000000E+00 -0.11418766506E+04  0.11418766506E+04  0.50400001928E-02 0. -1.
    10030    2    1    2    0    0  0.00000000000E+00  0.00000000000E+00  0.71450400548E+03  0.29982573066E+04  0.29118775563E+04 0.  0.
        2    1    3    3  502    0 -0.85588165200E+03 -0.10665537746E+04 -0.15725830353E+03  0.13765175372E+04  0.25500000920E-02 0. -1.
       -2    1    3    3    0  502  0.85588165200E+03  0.10665537746E+04  0.87176230901E+03  0.16217397694E+04  0.25500000920E-02 0.  1.
</event>
<event>
 5   0  0.3649705E-06  0.2882207E+04  0.7818609E-02  0.8278191E-01
        1   -1    0    0  501    0  0.00000000000E+00  0.00000000000E+00  0.20185162152E+04  0.20185162152E+04  0.50400001928E-02 0. -1.
       -1   -1    0    0    0  501  0.00000000000E+00  0.00000000000E+00 -0.10288644734E+04  0.10288644734E+04  0.50400001928E-02 0.  1.
    10030    2    1    2    0    0  0.00000000000E+00  0.00000000000E+00  0.98965174175E+03  0.30473806886E+04  0.28822072256E+04 0.  0.
        2    1    3    3  502    0 -0.52215191831E+03 -0.12853962424E+04  0.90689596708E+03  0.16575121179E+04  0.25500000920E-02 0.  1.
       -2    1    3    3    0  502  0.52215191831E+03  0.12853962424E+04  0.82755774666E+02  0.13898685708E+04  0.25500000920E-02 0. -1.
</event>
<event>
 5   0  0.3188375E-06  0.2990682E+04  0.7818609E-02  0.8246397E-01
       -4   -1    0    0    0  501  0.00000000000E+00  0.00000000000E+00  0.29165625295E+04  0.29165628060E+04  0.12699999809E+01 0.  1.
        4   -1    0    0  501    0  0.00000000000E+00  0.00000000000E+00 -0.76667058292E+03  0.76667163481E+03  0.12699999809E+01 0. -1.
    10030    2    1    2    0    0  0.00000000000E+00  0.00000000000E+00  0.21498919466E+04  0.36832344408E+04  0.29906822907E+04 0.  0.
        5    1    3    3  502    0  0.11956181132E+04 -0.57009167941E+03  0.22034303834E+03  0.13427882708E+04  0.46999998093E+01 0. -1.
       -5    1    3    3    0  502 -0.11956181132E+04  0.57009167941E+03  0.19295489082E+04  0.23404461700E+04  0.46999998093E+01 0.  1.
</event>
<event>
 5   0  0.3486236E-06  0.2894958E+04  0.7818609E-02  0.8274379E-01
       -1   -1    0    0    0  501  0.00000000000E+00  0.00000000000E+00  0.10618799929E+04  0.10618799929E+04  0.50400001928E-02 0. -1.
        1   -1    0    0  501    0  0.00000000000E+00  0.00000000000E+00 -0.19731007182E+04  0.19731007182E+04  0.50400001928E-02 0.  1.
    10030    2    1    2    0    0  0.00000000000E+00  0.00000000000E+00 -0.91122072534E+03  0.30349807111E+04  0.28949584982E+04 0.  0.
        5    1    3    3  502    0  0.12833625883E+04 -0.27787697420E+03  0.18289537888E+03  0.13257857879E+04  0.46999998093E+01 0. -1.
       -5    1    3    3    0  502 -0.12833625883E+04  0.27787697420E+03 -0.10941161042E+04  0.17091949232E+04  0.46999998093E+01 0.  1.
</event>
<event>
 5   0  0.9646321E-06  0.2913019E+04  0.7818609E-02  0.8269015E-01
       -2   -1    0    0    0  501  0.00000000000E+00  0.00000000000E+00  0.15758293958E+04  0.15758293958E+04  0.25500000920E-02 0.  1.
        2   -1    0    0  501    0  0.00000000000E+00  0.00000000000E+00 -0.13462240740E+04  0.13462240740E+04  0.25500000920E-02 0. -1.
    10030    2    1    2    0    0  0.00000000000E+00  0.00000000000E+00  0.22960532176E+03  0.29220534698E+04  0.29130186880E+04 0.  0.
        3    1    3    3  502    0 -0.19250471657E+03  0.50863881041E+03 -0.12405534096E+04  0.13545273262E+04  0.10100000352E+00 0. -1.
       -3    1    3    3    0  502  0.19250471657E+03 -0.50863881041E+03  0.14701587313E+04  0.15675261436E+04  0.10100000352E+00 0.  1.
</event>
<event>
 5   0  0.3564340E-06  0.2900218E+04  0.7818609E-02  0.8272813E-01
        1   -1    0    0  501    0  0.00000000000E+00  0.00000000000E+00  0.12628689801E+04  0.12628689801E+04  0.50400001928E-02 0.  1.
       -1   -1    0    0    0  501  0.00000000000E+00  0.00000000000E+00 -0.16651098569E+04  0.16651098569E+04  0.50400001928E-02 0. -1.
    10030    2    1    2    0    0  0.00000000000E+00  0.00000000000E+00 -0.40224087676E+03  0.29279788370E+04  0.29002176379E+04 0.  0.
        1    1    3    3  502    0 -0.12836802555E+04  0.52570974695E+03 -0.62778841389E+03  0.15226043574E+04  0.50400001928E-02 0. -1.
       -1    1    3    3    0  502  0.12836802555E+04 -0.52570974695E+03  0.22554753713E+03  0.14053744796E+04  0.50400001928E-02 0.  1.
</event>
<event>
 5   0  0.3649705E-06  0.2887559E+04  0.7818609E-02  0.8276589E-01
        1   -1    0    0  501    0  0.00000000000E+00  0.00000000000E+00  0.13829329507E+04  0.13829329508E+04  0.50400001928E-02 0.  1.
       -1   -1    0    0    0  501  0.00000000000E+00  0.00000000000E+00 -0.15073029397E+04  0.15073029397E+04  0.50400001928E-02 0. -1.
    10030    2    1    2    0    0  0.00000000000E+00  0.00000000000E+00 -0.12436998896E+03  0.28902358905E+04  0.28875587628E+04 0.  0.
        2    1    3    3  502    0 -0.11447372106E+03 -0.77594245410E+03 -0.12754589554E+04  0.14973264413E+04  0.25500000920E-02 0. -1.
       -2    1    3    3    0  502  0.11447372106E+03  0.77594245410E+03  0.11510889665E+04  0.13929094492E+04  0.25500000920E-02 0.  1.
</event>
<event>
 5   0  0.3486236E-06  0.2955322E+04  0.7818609E-02  0.8256605E-01
       -1   -1    0    0    0  501  0.00000000000E+00  0.00000000000E+00  0.13575858031E+04  0.13575858031E+04  0.50400001928E-02 0. -1.
        1   -1    0    0  501    0  0.00000000000E+00  0.00000000000E+00 -0.16083565282E+04  0.16083565282E+04  0.50400001928E-02 0.  1.
    10030    2    1    2    0    0  0.00000000000E+00  0.00000000000E+00 -0.25077072513E+03  0.29659423313E+04  0.29553219717E+04 0.  0.
        5    1    3    3  502    0 -0.96357831049E+03  0.82576220050E+03 -0.88513526229E+03  0.15472080968E+04  0.46999998093E+01 0.  1.
       -5    1    3    3    0  502  0.96357831049E+03 -0.82576220050E+03  0.63436453716E+03  0.14187342345E+04  0.46999998093E+01 0. -1.
</event>
<event>
 5   0  0.9251510E-06  0.2877888E+04  0.7818609E-02  0.8279487E-01
       -2   -1    0    0    0  501  0.00000000000E+00  0.00000000000E+00  0.15740420930E+04  0.15740420930E+04  0.25500000920E-02 0. -1.
        2   -1    0    0  501    0  0.00000000000E+00  0.00000000000E+00 -0.13154408154E+04  0.13154408154E+04  0.25500000920E-02 0.  1.
    10030    2    1    2    0    0  0.00000000000E+00  0.00000000000E+00  0.25860127759E+03  0.28894829084E+04  0.28778875686E+04 0.  0.
        2    1    3    3  502    0 -0.51528689421E+03  0.11774404338E+04  0.77895686557E+03  0.15028840131E+04  0.25500000920E-02 0. -1.
       -2    1    3    3    0  502  0.51528689421E+03 -0.11774404338E+04 -0.52035558798E+03  0.13865988953E+04  0.25500000920E-02 0.  1.
</event>
<event>
 5   0  0.9505359E-06  0.2775975E+04  0.7818609E-02  0.8310766E-01
       -2   -1    0    0    0  501  0.00000000000E+00  0.00000000000E+00  0.80111202247E+03  0.80111202247E+03  0.25500000920E-02 0.  1.
        2   -1    0    0  501    0  0.00000000000E+00  0.00000000000E+00 -0.24047941765E+04  0.24047941765E+04  0.25500000920E-02 0. -1.
    10030    2    1    2    0    0  0.00000000000E+00  0.00000000000E+00 -0.16036821541E+04  0.32059061990E+04  0.27759751630E+04 0.  0.
        4    1    3    3  502    0 -0.10038230836E+04  0.91373081633E+03 -0.11364425149E+04  0.17703299101E+04  0.12699999809E+01 0. -1.
       -4    1    3    3    0  502  0.10038230836E+04 -0.91373081633E+03 -0.46723963912E+03  0.14355762889E+04  0.12699999809E+01 0.  1.
</event>
<event>
 5   0  0.3474078E-06  0.3106220E+04  0.7818609E-02  0.8214033E-01
        1   -1    0    0  501    0  0.00000000000E+00  0.00000000000E+00  0.12196099142E+04  0.12196099142E+04  0.50400001928E-02 0.  1.
       -1   -1    0    0    0  501  0.00000000000E+00  0.00000000000E+00 -0.19778051142E+04  0.19778051142E+04  0.50400001928E-02 0. -1.
    10030    2    1    2    0    0  0.00000000000E+00  0.00000000000E+00 -0.75819520001E+03  0.31974150285E+04  0.31062200345E+04 0.  0.
        3    1    3    3  502    0  0.15439616248E+04 -0.92439392870E+02 -0.52389796940E+03  0.16330436714E+04  0.10100000352E+00 0. -1.
       -3    1    3    3    0  502 -0.15439616248E+04  0.92439392870E+02 -0.23429723061E+03  0.15643713570E+04  0.10100000352E+00 0.  1.
</event>
<event>
 5   0  0.9251510E-06  0.2956658E+04  0.7818609E-02  0.8256217E-01
       -2   -1    0    0    0  501  0.00000000000E+00  0.00000000000E+00  0.14534194602E+04  0.14534194602E+04  0.25500000920E-02 0. -1.
        2   -1    0    0  501    0  0.00000000000E+00  0.00000000000E+00 -0.15036657437E+04  0.15036657437E+04  0.25500000920E-02 0.  1.
    10030    2    1    2    0    0  0.00000000000E+00  0.00000000000E+00 -0.50246283521E+02  0.29570852038E+04  0.29566582849E+04 0.  0.
        2    1    3    3  502    0  0.23007237326E+03 -0.14497328654E+04 -0.20064314121E+03  0.14815250076E+04  0.25500000920E-02 0.  1.
       -2    1    3    3    0  502 -0.23007237326E+03  0.14497328654E+04  0.15039685769E+03  0.14755601963E+04  0.25500000920E-02 0. -1.
</event>
<event>
 5   0  0.3486236E-06  0.2871078E+04  0.7818609E-02  0.8281535E-01
       -1   -1    0    0    0  501  0.00000000000E+00  0.00000000000E+00  0.11055479560E+04  0.11055479561E+04  0.50400001928E-02 0. -1.
        1   -1    0    0  501    0  0.00000000000E+00  0.00000000000E+00 -0.18640283094E+04  0.18640283094E+04  0.50400001928E-02 0.  1.
    10030    2    1    2    0    0  0.00000000000E+00  0.00000000000E+00 -0.75848035339E+03  0.29695762655E+04  0.28710783253E+04 0.  0.
        5    1    3    3  502    0  0.94553305746E+03 -0.27087992375E+03  0.70226210275E+03  0.12085540314E+04  0.46999998093E+01 0. -1.
       -5    1    3    3    0  502 -0.94553305746E+03  0.27087992375E+03 -0.14607424561E+04  0.17610222341E+04  0.46999998093E+01 0.  1.
</event>
<event>
 5   0  0.3746518E-06  0.2876449E+04  0.7818609E-02  0.8279919E-01
       -1   -1    0    0    0  501  0.00000000000E+00  0.00000000000E+00  0.18506636011E+04  0.18506636011E+04  0.50400001928E-02 0. -1.
        1   -1    0    0  501    0  0.00000000000E+00  0.00000000000E+00 -0.11177014697E+04  0.11177014697E+04  0.50400001928E-02 0.  1.
    10030    2    1    2    0    0  0.00000000000E+00  0.00000000000E+00  0.73296213132E+03  0.29683650708E+04  0.28764488015E+04 0.  0.
        4    1    3    3  502    0  0.83239701681E+03 -0.86803819440E+03  0.11804263334E+04  0.16851655830E+04  0.12699999809E+01 0. -1.
       -4    1    3    3    0  502 -0.83239701681E+03  0.86803819440E+03 -0.44746420209E+03  0.12831994878E+04  0.12699999809E+01 0.  1.
</event>
<event>
 5   0  0.3649705E-06  0.2832922E+04  0.7818609E-02  0.8293120E-01
       -1   -1    0    0    0  501  0.00000000000E+00  0.00000000000E+00  0.12127220850E+04  0.12127220851E+04  0.50400001928E-02 0. -1.
        1   -1    0    0  501    0  0.00000000000E+00  0.00000000000E+00 -0.16544281816E+04  0.16544281816E+04  0.50400001928E-02 0.  1.
    10030    2    1    2    0    0  0.00000000000E+00  0.00000000000E+00 -0.44170609659E+03  0.28671502667E+04  0.28329218796E+04 0.  0.
        2    1    3    3  502    0 -0.11352791433E+04 -0.72256610074E+03 -0.66823591526E+03  0.15024978341E+04  0.25500000920E-02 0. -1.
       -2    1    3    3    0  502  0.11352791433E+04  0.72256610074E+03  0.22652981867E+03  0.13646524326E+04  0.25500000920E-02 0.  1.
</event>
<event>
 5   0  0.3486236E-06  0.2934400E+04  0.7818609E-02  0.8262715E-01
        1   -1    0    0  501    0  0.00000000000E+00  0.00000000000E+00  0.78260344116E+03  0.78260344118E+03  0.50400001928E-02 0. -1.
       -1   -1    0    0    0  501  0.00000000000E+00  0.00000000000E+00 -0.27506596825E+04  0.27506596826E+04  0.50400001928E-02 0.  1.
    10030    2    1    2    0    0  0.00000000000E+00  0.00000000000E+00 -0.19680562414E+04  0.35332631237E+04  0.29343999271E+04 0.  0.
        5    1    3    3  502    0 -0.14004564130E+04  0.10110215167E+03 -0.14965122748E+04  0.20520893958E+04  0.46999998093E+01 0. -1.
       -5    1    3    3    0  502  0.14004564130E+04 -0.10110215167E+03 -0.47154396659E+03  0.14811737279E+04  0.46999998093E+01 0.  1.
</event>
<event>
 5   0  0.3564340E-06  0.2819803E+04  0.7818609E-02  0.8297146E-01
       -1   -1    0    0    0  501  0.00000000000E+00  0.00000000000E+00  0.10672032222E+04  0.10672032222E+04  0.50400001928E-02 0.  1.
        1   -1    0    0  501    0  0.00000000000E+00  0.00000000000E+00 -0.18626469891E+04  0.18626469891E+04  0.50400001928E-02 0. -1.
    10030    2    1    2    0    0  0.00000000000E+00  0.00000000000E+00 -0.79544376685E+03  0.29298502113E+04  0.28198034461E+04 0.  0.
        1    1    3    3  502    0 -0.11885077087E+04  0.58998923838E+03 -0.89296266613E+03  0.15993811923E+04  0.50400001928E-02 0. -1.
       -1    1    3    3    0  502  0.11885077087E+04 -0.58998923838E+03  0.97518899276E+02  0.13304690191E+04  0.50400001928E-02 0.  1.
</event>
<event>
 5   0  0.9646321E-06  0.2190908E+04  0.7818609E-02  0.8522222E-01
       -2   -1    0    0    0  501  0.00000000000E+00  0.00000000000E+00  0.76372025352E+03  0.76372025352E+03  0.25500000920E-02 0. -1.
        2   -1    0    0  501    0  0.00000000000E+00  0.00000000000E+00 -0.15712807960E+04  0.15712807960E+04  0.25500000920E-02 0.  1.
    10030    2    1    2    0    0  0.00000000000E+00  0.00000000000E+00 -0.80756054247E+03  0.23350010495E+04  0.21909075452E+04 0.  0.
        3    1    3    3  502    0 -0.34439454301E+03  0.27528363589E+03  0.66498466987E+03  0.79786797329E+03  0.10100000352E+00 0. -1.
       -3    1    3    3    0  502  0.34439454301E+03 -0.27528363589E+03 -0.14725452123E+04  0.15371330762E+04  0.10100000352E+00 0.  1.
</event>
<event>
 5   0  0.9646321E-06  0.2617757E+04  0.7818609E-02  0.8362194E-01
        2   -1    0    0  501    0  0.00000000000E+00  0.00000000000E+00  0.16266635238E+04  0.16266635238E+04  0.25500000920E-02 0.  1.
       -2   -1    0    0    0  501  0.00000000000E+00  0.00000000000E+00 -0.10531759554E+04  0.10531759554E+04  0.25500000920E-02 0. -1.
    10030    2    1    2    0    0  0.00000000000E+00  0.00000000000E+00  0.57348756841E+03  0.26798394791E+04  0.26177569869E+04 0.  0.
        3    1    3    3  502    0 -0.39325549594E+03 -0.60677588117E+03 -0.83015609992E+03  0.11009023642E+04  0.10100000352E+00 0. -1.
       -3    1    3    3    0  502  0.39325549594E+03  0.60677588117E+03  0.14036436683E+04  0.15789371149E+04  0.10100000352E+00 0.  1.
</event>
<event>
 5   0  0.3486236E-06  0.2878200E+04  0.7818609E-02  0.8279393E-01
       -1   -1    0    0    0  501  0.00000000000E+00  0.00000000000E+00  0.14493157527E+04  0.14493157527E+04  0.50400001928E-02 0.  1.
        1   -1    0    0  501    0  0.00000000000E+00  0.00000000000E+00 -0.14289565383E+04  0.14289565383E+04  0.50400001928E-02 0. -1.
    10030    2    1    2    0    0  0.00000000000E+00  0.00000000000E+00  0.20359214410E+02  0.28782722910E+04  0.28782002856E+04 0.  0.
        5    1    3    3  502    0  0.36229695374E+03 -0.12312231648E+04 -0.64084940349E+03  0.14345311472E+04  0.46999998093E+01 0. -1.
       -5    1    3    3    0  502 -0.36229695374E+03  0.12312231648E+04  0.66120861790E+03  0.14437411439E+04  0.46999998093E+01 0.  1.
</event>
<event>
 5   0  0.3474078E-06  0.2845106E+04  0.7818609E-02  0.8289400E-01
       -1   -1    0    0    0  501  0.00000000000E+00  0.00000000000E+00  0.86464392304E+03  0.86464392306E+03  0.50400001928E-02 0. -1.
        1   -1    0    0  501    0  0.00000000000E+00  0.00000000000E+00 -0.23404513192E+04  0.23404513192E+04  0.50400001928E-02 0.  1.
    10030    2    1    2    0    0  0.00000000000E+00  0.00000000000E+00 -0.14758073962E+04  0.32050952423E+04  0.28451059807E+04 0.  0.
        3    1    3    3  502    0 -0.47006975074E+03 -0.10020245594E+04  0.26883678722E+03  0.11389872768E+04  0.10100000352E+00 0. -1.
       -3    1    3    3    0  502  0.47006975074E+03  0.10020245594E+04 -0.17446441834E+04  0.20661079655E+04  0.10100000352E+00 0.  1.
</event>
<event>
 5   0  0.3474078E-06  0.2868763E+04  0.7818609E-02  0.8282233E-01
        1   -1    0    0  501    0  0.00000000000E+00  0.00000000000E+00  0.28270322499E+04  0.28270322499E+04  0.50400001928E-02 0.  1.
       -1   -1    0    0    0  501  0.00000000000E+00  0.00000000000E+00 -0.72777738992E+03  0.72777738993E+03  0.50400001928E-02 0. -1.
    10030    2    1    2    0    0  0.00000000000E+00  0.00000000000E+00  0.20992548600E+04  0.35548096398E+04  0.28687629056E+04 0.  0.
        3    1    3    3  502    0 -0.72001576440E+03 -0.11356829233E+04  0.43098345068E+03  0.14120712263E+04  0.10100000352E+00 0. -1.
       -3    1    3    3    0  502  0.72001576440E+03  0.11356829233E+04  0.16682714093E+04  0.21427384135E+04  0.10100000352E+00 0.  1.
</event>
<event>
 5   0  0.9251510E-06  0.2401021E+04  0.7818609E-02  0.8439121E-01
       -2   -1    0    0    0  501  0.00000000000E+00  0.00000000000E+00  0.13798298177E+04  0.13798298177E+04  0.25500000920E-02 0.  1.
        2   -1    0    0  501    0  0.00000000000E+00  0.00000000000E+00 -0.10444949396E+04  0.10444949396E+04  0.25500000920E-02 0. -1.
    10030    2    1    2    0    0  0.00000000000E+00  0.00000000000E+00  0.33533487813E+03  0.24243247574E+04  0.24010208347E+04 0.  0.
        2    1    3    3  502    0 -0.75187327863E+03 -0.58319648966E+03  0.90675120838E+03  0.13143931400E+04  0.25500000920E-02 0.  1.
       -2    1    3    3    0  502  0.75187327863E+03  0.58319648966E+03 -0.57141633025E+03  0.11099316173E+04  0.25500000920E-02 0. -1.
</event>
<event>
 5   0  0.9251510E-06  0.2897863E+04  0.7818609E-02  0.8273513E-01
        2   -1    0    0  501    0  0.00000000000E+00  0.00000000000E+00  0.15326646374E+04  0.15326646374E+04  0.25500000920E-02 0. -1.
       -2   -1    0    0    0  501  0.00000000000E+00  0.00000000000E+00 -0.13697732052E+04  0.13697732052E+04  0.25500000920E-02 0.  1.
    10030    2    1    2    0    0  0.00000000000E+00  0.00000000000E+00  0.16289143224E+03  0.29024378426E+04  0.28978633183E+04 0.  0.
        2    1    3    3  502    0 -0.95467850857E+03  0.53438203200E+03 -0.87001584854E+03  0.13978207280E+04  0.25500000920E-02 0.  1.
       -2    1    3    3    0  502  0.95467850857E+03 -0.53438203200E+03  0.10329072808E+04  0.15046171146E+04  0.25500000920E-02 0. -1.
</event>
<event>
 5   0  0.3746518E-06  0.2976463E+04  0.7818609E-02  0.8250484E-01
        1   -1    0    0  501    0  0.00000000000E+00  0.00000000000E+00  0.12834387988E+04  0.12834387988E+04  0.50400001928E-02 0.  1.
       -1   -1    0    0    0  501  0.00000000000E+00  0.00000000000E+00 -0.17257016803E+04  0.17257016803E+04  0.50400001928E-02 0. -1.
    10030    2    1    2    0    0  0.00000000000E+00  0.00000000000E+00 -0.44226288157E+03  0.30091404791E+04  0.29764626600E+04 0.  0.
        4    1    3    3  502    0  0.31127993242E+03 -0.25581035703E+03 -0.16695139200E+04  0.17174435877E+04  0.12699999809E+01 0. -1.
       -4    1    3    3    0  502 -0.31127993242E+03  0.25581035703E+03  0.12272510384E+04  0.12916968914E+04  0.12699999809E+01 0.  1.
</event>
<event>
 5   0  0.1001573E-05  0.2865507E+04  0.7818609E-02  0.8283215E-01
        2   -1    0    0  501    0  0.00000000000E+00  0.00000000000E+00  0.23808644978E+04  0.23808644978E+04  0.25500000920E-02 0. -1.
       -2   -1    0    0    0  501  0.00000000000E+00  0.00000000000E+00 -0.86220030465E+03  0.86220030466E+03  0.25500000920E-02 0.  1.
    10030    2    1    2    0    0  0.00000000000E+00  0.00000000000E+00  0.15186641932E+04  0.32430648025E+04  0.28655066535E+04 0.  0.
        1    1    3    3  502    0 -0.24446419886E+03 -0.77510373488E+03  0.20947286571E+04  0.22468726469E+04  0.50400001928E-02 0. -1.
       -1    1    3    3    0  502  0.24446419886E+03  0.77510373488E+03 -0.57606446391E+03  0.99619215564E+03  0.50400001928E-02 0.  1.
</event>
<event>
 5   0  0.3188375E-06  0.2915881E+04  0.7818609E-02  0.8268168E-01
       -3   -1    0    0    0  501  0.00000000000E+00  0.00000000000E+00  0.19392111180E+04  0.19392111207E+04  0.10100000352E+00 0. -1.
        3   -1    0    0  501    0  0.00000000000E+00  0.00000000000E+00 -0.10961107724E+04  0.10961107770E+04  0.10100000352E+00 0.  1.
    10030    2    1    2    0    0  0.00000000000E+00  0.00000000000E+00  0.84310034569E+03  0.30353218977E+04  0.29158807983E+04 0.  0.
        5    1    3    3  502    0 -0.42015888381E+03 -0.59060541401E+03  0.17383653369E+04  0.18834235788E+04  0.46999998093E+01 0. -1.
       -5    1    3    3    0  502  0.42015888381E+03  0.59060541401E+03 -0.89526499117E+03  0.11518983189E+04  0.46999998093E+01 0.  1.
</event>
<event>
 5   0  0.9360689E-06  0.2690797E+04  0.7818609E-02  0.8337997E-01
       -2   -1    0    0    0  501  0.00000000000E+00  0.00000000000E+00  0.11655876964E+04  0.11655876964E+04  0.25500000920E-02 0. -1.
        2   -1    0    0  501    0  0.00000000000E+00  0.00000000000E+00 -0.15529479256E+04  0.15529479256E+04  0.25500000920E-02 0.  1.
    10030    2    1    2    0    0  0.00000000000E+00  0.00000000000E+00 -0.38736022920E+03  0.27185356219E+04  0.26907969044E+04 0.  0.
        5    1    3    3  502    0 -0.79565217460E+03  0.33286359059E+03  0.84954100557E+03  0.12106207346E+04  0.46999998093E+01 0. -1.
       -5    1    3    3    0  502  0.79565217460E+03 -0.33286359059E+03 -0.12369012348E+04  0.15079148873E+04  0.46999998093E+01 0.  1.
</event>
<event>
 5   0  0.9360689E-06  0.2925250E+04  0.7818609E-02  0.8265404E-01
       -2   -1    0    0    0  501  0.00000000000E+00  0.00000000000E+00  0.10244120202E+04  0.10244120202E+04  0.25500000920E-02 0.  1.
        2   -1    0    0  501    0  0.00000000000E+00  0.00000000000E+00 -0.20882921469E+04  0.20882921469E+04  0.25500000920E-02 0. -1.
    10030    2    1    2    0    0  0.00000000000E+00  0.00000000000E+00 -0.10638801268E+04  0.31127041671E+04  0.29252497855E+04 0.  0.
        5    1    3    3  502    0  0.10438717255E+04  0.10192255986E+04 -0.42155994692E+03  0.15186256547E+04  0.46999998093E+01 0. -1.
       -5    1    3    3    0  502 -0.10438717255E+04 -0.10192255986E+04 -0.64232017985E+03  0.15940785124E+04  0.46999998093E+01 0.  1.
</event>
<event>
 5   0  0.9251510E-06  0.2837595E+04  0.7818609E-02  0.8291691E-01
       -2   -1    0    0    0  501  0.00000000000E+00  0.00000000000E+00  0.13817719136E+04  0.13817719136E+04  0.25500000920E-02 0.  1.
        2   -1    0    0  501    0  0.00000000000E+00  0.00000000000E+00 -0.14568156504E+04  0.14568156504E+04  0.25500000920E-02 0. -1.
    10030    2    1    2    0    0  0.00000000000E+00  0.00000000000E+00 -0.75043736759E+02  0.28385875640E+04  0.28375954250E+04 0.  0.
        2    1    3    3  502    0 -0.12929563792E+04 -0.57883902225E+03  0.41221197732E+02  0.14172120516E+04  0.25500000920E-02 0. -1.
       -2    1    3    3    0  502  0.12929563792E+04  0.57883902225E+03 -0.11626493449E+03  0.14213755123E+04  0.25500000920E-02 0.  1.
</event>
<event>
 5   0  0.3486236E-06  0.2854912E+04  0.7818609E-02  0.8286420E-01
       -1   -1    0    0    0  501  0.00000000000E+00  0.00000000000E+00  0.83071979142E+03  0.83071979144E+03  0.50400001928E-02 0. -1.
        1   -1    0    0  501    0  0.00000000000E+00  0.00000000000E+00 -0.24528492424E+04  0.24528492424E+04  0.50400001928E-02 0.  1.
    10030    2    1    2    0    0  0.00000000000E+00  0.00000000000E+00 -0.16221294509E+04  0.32835690338E+04  0.28549118453E+04 0.  0.
        5    1    3    3  502    0  0.24561610269E+03 -0.18463948065E+03 -0.24143507447E+04  0.24338304411E+04  0.46999998093E+01 0.  1.
       -5    1    3    3    0  502 -0.24561610269E+03  0.18463948065E+03  0.79222129373E+03  0.84973859271E+03  0.46999998093E+01 0. -1.
</event>
<event>
 5   0  0.9646321E-06  0.2873134E+04  0.7818609E-02  0.8280916E-01
        2   -1    0    0  501    0  0.00000000000E+00  0.00000000000E+00  0.21429145638E+04  0.21429145638E+04  0.25500000920E-02 0. -1.
       -2   -1    0    0    0  501  0.00000000000E+00  0.00000000000E+00 -0.96304585031E+03  0.96304585031E+03  0.25500000920E-02 0.  1.
    10030    2    1    2    0    0  0.00000000000E+00  0.00000000000E+00  0.11798687135E+04  0.31059604141E+04  0.28731341620E+04 0.  0.
        3    1    3    3  502    0  0.51425890964E+03  0.20585560905E+03 -0.84295226314E+03  0.10086660925E+04  0.10100000352E+00 0.  1.
       -3    1    3    3    0  502 -0.51425890964E+03 -0.20585560905E+03  0.20228209767E+04  0.20972943217E+04  0.10100000352E+00 0. -1.
</event>
<event>
 5   0  0.3474078E-06  0.2880671E+04  0.7818609E-02  0.8278652E-01
        1   -1    0    0  501    0  0.00000000000E+00  0.00000000000E+00  0.20925265755E+04  0.20925265755E+04  0.50400001928E-02 0.  1.
       -1   -1    0    0    0  501  0.00000000000E+00  0.00000000000E+00 -0.99141719301E+03  0.99141719303E+03  0.50400001928E-02 0. -1.
    10030    2    1    2    0    0  0.00000000000E+00  0.00000000000E+00  0.11011093825E+04  0.30839437686E+04  0.28806713272E+04 0.  0.
        3    1    3    3  502    0  0.64016280454E+03  0.81508125733E+03  0.16213335468E+04  0.19242890512E+04  0.10100000352E+00 0.  1.
       -3    1    3    3    0  502 -0.64016280454E+03 -0.81508125733E+03 -0.52022416424E+03  0.11596547174E+04  0.10100000352E+00 0. -1.
</event>
<event>
 5   0  0.9505359E-06  0.2915795E+04  0.7818609E-02  0.8268193E-01
       -2   -1    0    0    0  501  0.00000000000E+00  0.00000000000E+00  0.12829952427E+04  0.12829952427E+04  0.25500000920E-02 0. -1.
        2   -1    0    0  501    0  0.00000000000E+00  0.00000000000E+00 -0.16566433808E+04  0.16566433808E+04  0.25500000920E-02 0.  1.
    10030    2    1    2    0    0  0.00000000000E+00  0.00000000000E+00 -0.37364813809E+03  0.29396386235E+04  0.29157953127E+04 0.  0.
        4    1    3    3  502    0  0.46113362569E+03  0.51081299604E+03  0.11089445279E+04  0.13051182768E+04  0.12699999809E+01 0. -1.
       -4    1    3    3    0  502 -0.46113362569E+03 -0.51081299604E+03 -0.14825926660E+04  0.16345203467E+04  0.12699999809E+01 0.  1.
</event>
<event>
 5   0  0.3649705E-06  0.2891472E+04  0.7818609E-02  0.8275419E-01
       -1   -1    0    0    0  501  0.00000000000E+00  0.00000000000E+00  0.10091974478E+04  0.10091974478E+04  0.50400001928E-02 0.  1.
        1   -1    0    0  501    0  0.00000000000E+00  0.00000000000E+00 -0.20711041465E+04  0.20711041465E+04  0.50400001928E-02 0. -1.
    10030    2    1    2    0    0  0.00000000000E+00  0.00000000000E+00 -0.10619066987E+04  0.30803015943E+04  0.28914723023E+04 0.  0.
        2    1    3    3  502    0  0.73393279777E+03 -0.49773057053E+03 -0.17473438544E+04  0.19594906527E+04  0.25500000920E-02 0. -1.
       -2    1    3    3    0  502 -0.73393279777E+03  0.49773057053E+03  0.68543715563E+03  0.11208109416E+04  0.25500000920E-02 0.  1.
</event>
<event>
 5   0  0.3564340E-06  0.2867018E+04  0.7818609E-02  0.8282759E-01
        1   -1    0    0  501    0  0.00000000000E+00  0.00000000000E+00  0.16846254529E+04  0.16846254529E+04  0.50400001928E-02 0.  1.
       -1   -1    0    0    0  501  0.00000000000E+00  0.00000000000E+00 -0.12198250709E+04  0.12198250709E+04  0.50400001928E-02 0. -1.
    10030    2    1    2    0    0  0.00000000000E+00  0.00000000000E+00  0.46480038196E+03  0.29044505238E+04  0.28670182159E+04 0.  0.
        1    1    3    3  502    0 -0.13763529269E+04  0.35031923115E+03  0.35237960585E+02  0.14206733111E+04  0.50400001928E-02 0. -1.
       -1    1    3    3    0  502  0.13763529269E+04 -0.35031923115E+03  0.42956242137E+03  0.14837772127E+04  0.50400001928E-02 0.  1.
</event>
<event>
 5   0  0.9360689E-06  0.2877650E+04  0.7818609E-02  0.8279558E-01
        2   -1    0    0  501    0  0.00000000000E+00  0.00000000000E+00  0.13832568379E+04  0.13832568379E+04  0.25500000920E-02 0. -1.
       -2   -1    0    0    0  501  0.00000000000E+00  0.00000000000E+00 -0.14966257830E+04  0.14966257830E+04  0.25500000920E-02 0.  1.
    10030    2    1    2    0    0  0.00000000000E+00  0.00000000000E+00 -0.11336894510E+03  0.28798826209E+04  0.28776503249E+04 0.  0.
        5    1    3    3  502    0  0.77633819254E+03  0.11904269091E+04  0.16794129223E+03  0.14310987327E+04  0.46999998093E+01 0. -1.
       -5    1    3    3    0  502 -0.77633819254E+03 -0.11904269091E+04 -0.28131023733E+03  0.14487838882E+04  0.46999998093E+01 0.  1.
</event>
<event>
 5   0  0.3486236E-06  0.2902451E+04  0.7818609E-02  0.8272149E-01
       -1   -1    0    0    0  501  0.00000000000E+00  0.00000000000E+00  0.18958083106E+04  0.18958083106E+04  0.50400001928E-02 0.  1.
        1   -1    0    0  501    0  0.00000000000E+00  0.00000000000E+00 -0.11109009811E+04  0.11109009812E+04  0.50400001928E-02 0. -1.
    10030    2    1    2    0    0  0.00000000000E+00  0.00000000000E+00  0.78490732943E+03  0.30067092918E+04  0.29024509039E+04 0.  0.
        5    1    3    3  502    0 -0.66984824076E+02  0.50561668019E+03 -0.10149880230E+04  0.11359392461E+04  0.46999998093E+01 0. -1.
       -5    1    3    3    0  502  0.66984824076E+02 -0.50561668019E+03  0.17998953525E+04  0.18707700457E+04  0.46999998093E+01 0.  1.
</event>
<event>
 5   0  0.9646321E-06  0.2878808E+04  0.7818609E-02  0.8279211E-01
       -2   -1    0    0    0  501  0.00000000000E+00  0.00000000000E+00  0.13931363530E+04  0.13931363530E+04  0.25500000920E-02 0.  1.
        2   -1    0    0  501    0  0.00000000000E+00  0.00000000000E+00 -0.14872086816E+04  0.14872086816E+04  0.25500000920E-02 0. -1.
    10030    2    1    2    0    0  0.00000000000E+00  0.00000000000E+00 -0.94072328639E+02  0.28803450347E+04  0.28788084194E+04 0.  0.
        3    1    3    3  502    0  0.13260891186E+04 -0.43419316245E+03  0.30649138988E+03  0.14286262755E+04  0.10100000352E+00 0.  1.
       -3    1    3    3    0  502 -0.13260891186E+04  0.43419316245E+03 -0.40056371852E+03  0.14517187591E+04  0.10100000352E+00 0. -1.
</event>
<event>
 5   0  0.1001573E-05  0.2900177E+04  0.7818609E-02  0.8272825E-01
       -2   -1    0    0    0  501  0.00000000000E+00  0.00000000000E+00  0.13477847583E+04  0.13477847583E+04  0.25500000920E-02 0. -1.
        2   -1    0    0  501    0  0.00000000000E+00  0.00000000000E+00 -0.15601571927E+04  0.15601571927E+04  0.25500000920E-02 0.  1.
    10030    2    1    2    0    0  0.00000000000E+00  0.00000000000E+00 -0.21237243433E+03  0.29079419510E+04  0.29001766049E+04 0.  0.
        1    1    3    3  502    0  0.86749401210E+03  0.11574643845E+04 -0.20886364090E+03  0.14614696996E+04  0.50400001928E-02 0.  1.
       -1    1    3    3    0  502 -0.86749401210E+03 -0.11574643845E+04 -0.35087934308E+01  0.14464722514E+04  0.50400001928E-02 0. -1.
</event>
<event>
 5   0  0.3649705E-06  0.2911053E+04  0.7818609E-02  0.8269596E-01
       -1   -1    0    0    0  501  0.00000000000E+00  0.00000000000E+00  0.10756482513E+04  0.10756482513E+04  0.50400001928E-02 0.  1.
        1   -1    0    0  501    0  0.00000000000E+00  0.00000000000E+00 -0.19695640287E+04  0.19695640287E+04  0.50400001928E-02 0. -1.
    10030    2    1    2    0    0  0.00000000000E+00  0.00000000000E+00 -0.89391577742E+03  0.30452122801E+04  0.29110534886E+04 0.  0.
        2    1    3    3  502    0 -0.11813642207E+04 -0.17106193373E+03 -0.13182128231E+04  0.17783612272E+04  0.25500000920E-02 0. -1.
       -2    1    3    3    0  502  0.11813642207E+04  0.17106193373E+03  0.42429704573E+03  0.12668510529E+04  0.25500000920E-02 0.  1.
</event>
<event>
 5   0  0.3649705E-06  0.2871276E+04  0.7818609E-02  0.8281475E-01
        1   -1    0    0  501    0  0.00000000000E+00  0.00000000000E+00  0.14256525541E+04  0.14256525541E+04  0.50400001928E-02 0. -1.
       -1   -1    0    0    0  501  0.00000000000E+00  0.00000000000E+00 -0.14456938027E+04  0.14456938027E+04  0.50400001928E-02 0.  1.
    10030    2    1    2    0    0  0.00000000000E+00  0.00000000000E+00 -0.20041248623E+02  0.28713463567E+04  0.28712764145E+04 0.  0.
        2    1    3    3  502    0  0.48231444438E+03  0.13052972830E+04 -0.36305732738E+03  0.14381372825E+04  0.25500000920E-02 0.  1.
       -2    1    3    3    0  502 -0.48231444438E+03 -0.13052972830E+04  0.34301607876E+03  0.14332090743E+04  0.25500000920E-02 0. -1.
</event>
<event>
 5   0  0.9646321E-06  0.2957358E+04  0.7818609E-02  0.8256013E-01
       -2   -1    0    0    0  501  0.00000000000E+00  0.00000000000E+00  0.10398883755E+04  0.10398883755E+04  0.25500000920E-02 0.  1.
        2   -1    0    0  501    0  0.00000000000E+00  0.00000000000E+00 -0.21026214126E+04  0.21026214126E+04  0.25500000920E-02 0. -1.
    10030    2    1    2    0    0  0.00000000000E+00  0.00000000000E+00 -0.10627330371E+04  0.31425097881E+04  0.29573579865E+04 0.  0.
        3    1    3    3  502    0 -0.11512055570E+04  0.41339126665E+03  0.35150912355E+03  0.12726842687E+04  0.10100000352E+00 0.  1.
       -3    1    3    3    0  502  0.11512055570E+04 -0.41339126665E+03 -0.14142421606E+04  0.18698255194E+04  0.10100000352E+00 0. -1.
</event>
<event>
 5   0  0.9646321E-06  0.2903689E+04  0.7818609E-02  0.8271781E-01
       -2   -1    0    0    0  501  0.00000000000E+00  0.00000000000E+00  0.94653594869E+03  0.94653594869E+03  0.25500000920E-02 0. -1.
        2   -1    0    0  501    0  0.00000000000E+00  0.00000000000E+00 -0.22269129118E+04  0.22269129119E+04  0.25500000920E-02 0.  1.
    10030    2    1    2    0    0  0.00000000000E+00  0.00000000000E+00 -0.12803769632E+04  0.31734488605E+04  0.29036894639E+04 0.  0.
        3    1    3    3  502    0  0.13552879327E+04 -0.45200384865E+03 -0.35784662341E+03  0.14728092462E+04  0.10100000352E+00 0. -1.
       -3    1    3    3    0  502 -0.13552879327E+04  0.45200384865E+03 -0.92253033976E+03  0.17006396143E+04  0.10100000352E+00 0.  1.
</event>
<event>
 5   0  0.3746518E-06  0.2885936E+04  0.7818609E-02  0.8277074E-01
        1   -1    0    0  501    0  0.00000000000E+00  0.00000000000E+00  0.84226918811E+03  0.84226918813E+03  0.50400001928E-02 0.  1.
       -1   -1    0    0    0  501  0.00000000000E+00  0.00000000000E+00 -0.24720796755E+04  0.24720796755E+04  0.50400001928E-02 0. -1.
    10030    2    1    2    0    0  0.00000000000E+00  0.00000000000E+00 -0.16298104874E+04  0.33143488637E+04  0.28859359253E+04 0.  0.
        4    1    3    3  502    0  0.38245393638E+03  0.13504789783E+04 -0.43040569865E+03  0.14680991665E+04  0.12699999809E+01 0. -1.
       -4    1    3    3    0  502 -0.38245393638E+03 -0.13504789783E+04 -0.11994047887E+04  0.18462496972E+04  0.12699999809E+01 0.  1.
</event>
<event>
 5   0  0.3746518E-06  0.2815027E+04  0.7818609E-02  0.8298618E-01
        1   -1    0    0  501    0  0.00000000000E+00  0.00000000000E+00  0.14395222603E+04  0.14395222603E+04  0.50400001928E-02 0.  1.
       -1   -1    0    0    0  501  0.00000000000E+00  0.00000000000E+00 -0.13762166031E+04  0.13762166031E+04  0.50400001928E-02 0. -1.
    10030    2    1    2    0    0  0.00000000000E+00  0.00000000000E+00  0.63305657137E+02  0.28157388634E+04  0.28150271296E+04 0.  0.
        4    1    3    3  502    0 -0.94552049292E+03  0.29976373205E+03  0.10305171101E+04  0.14303266846E+04  0.12699999809E+01 0.  1.
       -4    1    3    3    0  502  0.94552049292E+03 -0.29976373205E+03 -0.96721145295E+03  0.13854121788E+04  0.12699999809E+01 0. -1.
</event>
<event>
 5   0  0.3564340E-06  0.2838166E+04  0.7818609E-02  0.8291516E-01
       -1   -1    0    0    0  501  0.00000000000E+00  0.00000000000E+00  0.12177769668E+04  0.12177769668E+04  0.50400001928E-02 0. -1.
        1   -1    0    0  501    0  0.00000000000E+00  0.00000000000E+00 -0.16536658489E+04  0.16536658489E+04  0.50400001928E-02 0.  1.
    10030    2    1    2    0    0  0.00000000000E+00  0.00000000000E+00 -0.43588888208E+03  0.28714428158E+04  0.28381657328E+04 0.  0.
        1    1    3    3  502    0  0.11705204579E+04 -0.78398959685E+03 -0.39034886150E+03  0.14618926308E+04  0.50400001928E-02 0.  1.
       -1    1    3    3    0  502 -0.11705204579E+04  0.78398959685E+03 -0.45540020585E+02  0.14095501849E+04  0.50400001928E-02 0. -1.
</event>
<event>
 5   0  0.3564340E-06  0.2899239E+04  0.7818609E-02  0.8273104E-01
        1   -1    0    0  501    0  0.00000000000E+00  0.00000000000E+00  0.12589428316E+04  0.12589428316E+04  0.50400001928E-02 0.  1.
       -1   -1    0    0    0  501  0.00000000000E+00  0.00000000000E+00 -0.16691758806E+04  0.16691758806E+04  0.50400001928E-02 0. -1.
    10030    2    1    2    0    0  0.00000000000E+00  0.00000000000E+00 -0.41023304906E+03  0.29281187122E+04  0.28992392172E+04 0.  0.
        1    1    3    3  502    0 -0.46564190553E+03 -0.13271109424E+04  0.14959579277E+03  0.14143637222E+04  0.50400001928E-02 0.  1.
       -1    1    3    3    0  502  0.46564190553E+03  0.13271109424E+04 -0.55982884183E+03  0.15137549900E+04  0.50400001928E-02 0. -1.
</event>
<event>
 5   0  0.3649705E-06  0.2870195E+04  0.7818609E-02  0.8281801E-01
        1   -1    0    0  501    0  0.00000000000E+00  0.00000000000E+00  0.18855653363E+04  0.18855653363E+04  0.50400001928E-02 0. -1.
       -1   -1    0    0    0  501  0.00000000000E+00  0.00000000000E+00 -0.10922477472E+04  0.10922477472E+04  0.50400001928E-02 0.  1.
    10030    2    1    2    0    0  0.00000000000E+00  0.00000000000E+00  0.79331758911E+03  0.29778130834E+04  0.28701947604E+04 0.  0.
        2    1    3    3  502    0 -0.52782840955E+03 -0.70432471398E+03  0.15726623187E+04  0.18022050109E+04  0.25500000920E-02 0. -1.
       -2    1    3    3    0  502  0.52782840955E+03  0.70432471398E+03 -0.77934472960E+03  0.11756080725E+04  0.25500000920E-02 0.  1.
</event>
<event>
 5   0  0.3486236E-06  0.2766842E+04  0.7818609E-02  0.8313637E-01
        1   -1    0    0  501    0  0.00000000000E+00  0.00000000000E+00  0.13595503121E+04  0.13595503121E+04  0.50400001928E-02 0.  1.
       -1   -1    0    0    0  501  0.00000000000E+00  0.00000000000E+00 -0.14077111242E+04  0.14077111242E+04  0.50400001928E-02 0. -1.
    10030    2    1    2    0    0  0.00000000000E+00  0.00000000000E+00 -0.48160812088E+02  0.27672614362E+04  0.27668423144E+04 0.  0.
        5    1    3    3  502    0  0.55140640144E+03 -0.10385478057E+04 -0.75302648710E+03  0.13963171361E+04  0.46999998093E+01 0. -1.
       -5    1    3    3    0  502 -0.55140640144E+03  0.10385478057E+04  0.70486567501E+03  0.13709443001E+04  0.46999998093E+01 0.  1.
</event>
<event>
 5   0  0.3649705E-06  0.2898813E+04  0.7818609E-02  0.8273231E-01
        1   -1    0    0  501    0  0.00000000000E+00  0.00000000000E+00  0.77896391081E+03  0.77896391082E+03  0.50400001928E-02 0.  1.
       -1   -1    0    0    0  501  0.00000000000E+00  0.00000000000E+00 -0.26968881313E+04  0.26968881313E+04  0.50400001928E-02 0. -1.
    10030    2    1    2    0    0  0.00000000000E+00  0.00000000000E+00 -0.19179242205E+04  0.34758520421E+04  0.28988125333E+04 0.  0.
        2    1    3    3  502    0 -0.44041928369E+03 -0.10508558146E+04 -0.20331166452E+04  0.23306287524E+04  0.25500000920E-02 0. -1.
       -2    1    3    3    0  502  0.44041928369E+03  0.10508558146E+04  0.11519242473E+03  0.11452232897E+04  0.25500000920E-02 0.  1.
</event>
<event>
 5   0  0.1001573E-05  0.2895583E+04  0.7818609E-02  0.8274193E-01
       -2   -1    0    0    0  501  0.00000000000E+00  0.00000000000E+00  0.13033079688E+04  0.13033079688E+04  0.25500000920E-02 0.  1.
        2   -1    0    0  501    0  0.00000000000E+00  0.00000000000E+00 -0.16082924354E+04  0.16082924354E+04  0.25500000920E-02 0. -1.
    10030    2    1    2    0    0  0.00000000000E+00  0.00000000000E+00 -0.30498446659E+03  0.29116004042E+04  0.28955830827E+04 0.  0.
        1    1    3    3  502    0  0.44232166941E+03  0.76768645792E+03  0.99887854874E+03  0.13351963571E+04  0.50400001928E-02 0.  1.
       -1    1    3    3    0  502 -0.44232166941E+03 -0.76768645792E+03 -0.13038630153E+04  0.15764040471E+04  0.50400001928E-02 0. -1.
</event>
<event>
 5   0  0.1001573E-05  0.2681254E+04  0.7818609E-02  0.8341113E-01
        2   -1    0    0  501    0  0.00000000000E+00  0.00000000000E+00  0.17631541646E+04  0.17631541646E+04  0.25500000920E-02 0.  1.
       -2   -1    0    0    0  501  0.00000000000E+00  0.00000000000E+00 -0.10193557294E+04  0.10193557294E+04  0.25500000920E-02 0. -1.
    10030    2    1    2    0    0  0.00000000000E+00  0.00000000000E+00  0.74379843516E+03  0.27825098940E+04  0.26812544075E+04 0.  0.
        1    1    3    3  502    0  0.31622697918E+03 -0.12123171692E+04 -0.12315769410E+03  0.12589202671E+04  0.50400001928E-02 0.  1.
       -1    1    3    3    0  502 -0.31622697918E+03  0.12123171692E+04  0.86695612926E+03  0.15235896269E+04  0.50400001928E-02 0. -1.
</event>
<event>
 5   0  0.9251510E-06  0.2304894E+04  0.7818609E-02  0.8475994E-01
        2   -1    0    0  501    0  0.00000000000E+00  0.00000000000E+00  0.11349933076E+04  0.11349933076E+04  0.25500000920E-02 0.  1.
       -2   -1    0    0    0  501  0.00000000000E+00  0.00000000000E+00 -0.11701694343E+04  0.11701694343E+04  0.25500000920E-02 0. -1.
    10030    2    1    2    0    0  0.00000000000E+00  0.00000000000E+00 -0.35176126717E+02  0.23051627419E+04  0.23048943375E+04 0.  0.
        2    1    3    3  502    0  0.72482241078E+03 -0.75160824422E+03 -0.50534558062E+03  0.11600244117E+04  0.25500000920E-02 0. -1.
       -2    1    3    3    0  502 -0.72482241078E+03  0.75160824422E+03  0.47016945390E+03  0.11451383302E+04  0.25500000920E-02 0.  1.
</event>
<event>
 5   0  0.3746518E-06  0.2898857E+04  0.7818609E-02  0.8273218E-01
       -1   -1    0    0    0  501  0.00000000000E+00  0.00000000000E+00  0.11063711919E+04  0.11063711919E+04  0.50400001928E-02 0.  1.
        1   -1    0    0  501    0  0.00000000000E+00  0.00000000000E+00 -0.18988587469E+04  0.18988587469E+04  0.50400001928E-02 0. -1.
    10030    2    1    2    0    0  0.00000000000E+00  0.00000000000E+00 -0.79248755508E+03  0.30052299388E+04  0.28988567505E+04 0.  0.
        4    1    3    3  502    0  0.69865546831E+02  0.64324424762E+03 -0.17408320938E+04  0.18571866758E+04  0.12699999809E+01 0. -1.
       -4    1    3    3    0  502 -0.69865546831E+02 -0.64324424762E+03  0.94834453877E+03  0.11480432631E+04  0.12699999809E+01 0.  1.
</event>
<event>
 5   0  0.3746518E-06  0.2876514E+04  0.7818609E-02  0.8279900E-01
        1   -1    0    0  501    0  0.00000000000E+00  0.00000000000E+00  0.88040617886E+03  0.88040617887E+03  0.50400001928E-02 0.  1.
       -1   -1    0    0    0  501  0.00000000000E+00  0.00000000000E+00 -0.23495775475E+04  0.23495775475E+04  0.50400001928E-02 0. -1.
    10030    2    1    2    0    0  0.00000000000E+00  0.00000000000E+00 -0.14691713687E+04  0.32299837264E+04  0.28765135776E+04 0.  0.
        4    1    3    3  502    0  0.12551800369E+04 -0.10168351692E+03  0.45606465269E+02  0.12601182585E+04  0.12699999809E+01 0.  1.
       -4    1    3    3    0  502 -0.12551800369E+04  0.10168351692E+03 -0.15147778339E+04  0.19698654679E+04  0.12699999809E+01 0. -1.
</event>
<event>
 5   0  0.3564340E-06  0.2897835E+04  0.7818609E-02  0.8273522E-01
       -1   -1    0    0    0  501  0.00000000000E+00  0.00000000000E+00  0.11925689239E+04  0.11925689239E+04  0.50400001928E-02 0.  1.
        1   -1    0    0  501    0  0.00000000000E+00  0.00000000000E+00 -0.17603688622E+04  0.17603688622E+04  0.50400001928E-02 0. -1.
    10030    2    1    2    0    0  0.00000000000E+00  0.00000000000E+00 -0.56779993828E+03  0.29529377862E+04  0.28978345017E+04 0.  0.
        1    1    3    3  502    0  0.86853139525E+03 -0.11373250516E+04 -0.51516513885E+03  0.15209372695E+04  0.50400001928E-02 0. -1.
       -1    1    3    3    0  502 -0.86853139525E+03  0.11373250516E+04 -0.52634799421E+02  0.14320005166E+04  0.50400001928E-02 0.  1.
</event>
<event>
 5   0  0.3649705E-06  0.2981969E+04  0.7818609E-02  0.8248899E-01
        1   -1    0    0  501    0  0.00000000000E+00  0.00000000000E+00  0.23567451710E+04  0.23567451710E+04  0.50400001928E-02 0.  1.
       -1   -1    0    0    0  501  0.00000000000E+00  0.00000000000E+00 -0.94326477833E+03  0.94326477835E+03  0.50400001928E-02 0. -1.
    10030    2    1    2    0    0  0.00000000000E+00  0.00000000000E+00  0.14134803927E+04  0.33000099494E+04  0.29819689545E+04 0.  0.
        2    1    3    3  502    0 -0.10038673254E+04 -0.89927996616E+03  0.14123839195E+04  0.19522505988E+04  0.25500000920E-02 0.  1.
       -2    1    3    3    0  502  0.10038673254E+04  0.89927996616E+03  0.10964731833E+01  0.13477593505E+04  0.25500000920E-02 0. -1.
</event>
<event>
 5   0  0.3649705E-06  0.2919896E+04  0.7818609E-02  0.8266982E-01
        1   -1    0    0  501    0  0.00000000000E+00  0.00000000000E+00  0.11985799183E+04  0.11985799184E+04  0.50400001928E-02 0. -1.
       -1   -1    0    0    0  501  0.00000000000E+00  0.00000000000E+00 -0.17783116647E+04  0.17783116647E+04  0.50400001928E-02 0.  1.
    10030    2    1    2    0    0  0.00000000000E+00  0.00000000000E+00 -0.57973174635E+03  0.29768915831E+04  0.29198963337E+04 0.  0.
        2    1    3    3  502    0 -0.73555568530E+03 -0.90117294644E+03  0.60956413270E+03  0.13132872030E+04  0.25500000920E-02 0. -1.
       -2    1    3    3    0  502  0.73555568530E+03  0.90117294644E+03 -0.11892958791E+04  0.16636043801E+04  0.25500000920E-02 0.  1.
</event>
<event>
 5   0  0.9646321E-06  0.3677033E+04  0.7818609E-02  0.8073071E-01
        2   -1    0    0  501    0  0.00000000000E+00  0.00000000000E+00  0.11366619162E+04  0.11366619162E+04  0.25500000920E-02 0.  1.
       -2   -1    0    0    0  501  0.00000000000E+00  0.00000000000E+00 -0.29737452234E+04  0.29737452234E+04  0.25500000920E-02 0. -1.
    10030    2    1    2    0    0  0.00000000000E+00  0.00000000000E+00 -0.18370833072E+04  0.41104071396E+04  0.36770330125E+04 0.  0.
        3    1    3    3  502    0  0.39154793878E+03  0.13477228023E+04  0.40906745454E+03  0.14618490800E+04  0.10100000352E+00 0.  1.
       -3    1    3    3    0  502 -0.39154793878E+03 -0.13477228023E+04 -0.22461507618E+04  0.26485580596E+04  0.10100000352E+00 0. -1.
</event>
<event>
 5   0  0.1001573E-05  0.2700262E+04  0.7818609E-02  0.8334920E-01
       -2   -1    0    0    0  501  0.00000000000E+00  0.00000000000E+00  0.15230706707E+04  0.15230706707E+04  0.25500000920E-02 0.  1.
        2   -1    0    0  501    0  0.00000000000E+00  0.00000000000E+00 -0.11968282963E+04  0.11968282963E+04  0.25500000920E-02 0. -1.
    10030    2    1    2    0    0  0.00000000000E+00  0.00000000000E+00  0.32624237444E+03  0.27198989670E+04  0.27002622658E+04 0.  0.
        1    1    3    3  502    0 -0.10873396649E+04 -0.78227842157E+03  0.33342764525E+03  0.13803771479E+04  0.50400001928E-02 0.  1.
       -1    1    3    3    0  502  0.10873396649E+04  0.78227842157E+03 -0.71852708086E+01  0.13395218191E+04  0.50400001928E-02 0. -1.
</event>
<event>
 5   0  0.9646321E-06  0.2325530E+04  0.7818609E-02  0.8467923E-01
        2   -1    0    0  501    0  0.00000000000E+00  0.00000000000E+00  0.11081818718E+04  0.11081818718E+04  0.25500000920E-02 0. -1.
       -2   -1    0    0    0  501  0.00000000000E+00  0.00000000000E+00 -0.12200365928E+04  0.12200365928E+04  0.25500000920E-02 0.  1.
    10030    2    1    2    0    0  0.00000000000E+00  0.00000000000E+00 -0.11185472106E+03  0.23282184646E+04  0.23255299912E+04 0.  0.
        3    1    3    3  502    0 -0.66363016888E+03 -0.90546464148E+03  0.24732743482E+03  0.11495399463E+04  0.10100000352E+00 0. -1.
       -3    1    3    3    0  502  0.66363016888E+03  0.90546464148E+03 -0.35918215588E+03  0.11786785182E+04  0.10100000352E+00 0.  1.
</event>
<event>
 5   0  0.3564340E-06  0.2911354E+04  0.7818609E-02  0.8269507E-01
        1   -1    0    0  501    0  0.00000000000E+00  0.00000000000E+00  0.18171272573E+04  0.18171272573E+04  0.50400001928E-02 0. -1.
       -1   -1    0    0    0  501  0.00000000000E+00  0.00000000000E+00 -0.11661237698E+04  0.11661237698E+04  0.50400001928E-02 0.  1.
    10030    2    1    2    0    0  0.00000000000E+00  0.00000000000E+00  0.65100348748E+03  0.29832510271E+04  0.29113538346E+04 0.  0.
        1    1    3    3  502    0  0.22724009146E+03 -0.40187163903E+02 -0.11472612757E+04  0.11702399335E+04  0.50400001928E-02 0.  1.
       -1    1    3    3    0  502 -0.22724009146E+03  0.40187163903E+02  0.17982647631E+04  0.18130110936E+04  0.50400001928E-02 0. -1.
</event>
<event>
 5   0  0.9251510E-06  0.2916521E+04  0.7818609E-02  0.8267979E-01
        2   -1    0    0  501    0  0.00000000000E+00  0.00000000000E+00  0.23953713639E+04  0.23953713639E+04  0.25500000920E-02 0.  1.
       -2   -1    0    0    0  501  0.00000000000E+00  0.00000000000E+00 -0.88776356496E+03  0.88776356496E+03  0.25500000920E-02 0. -1.
    10030    2    1    2    0    0  0.00000000000E+00  0.00000000000E+00  0.15076077989E+04  0.32831349288E+04  0.29165208186E+04 0.  0.
        2    1    3    3  502    0  0.12566416638E+04 -0.84322122445E+02  0.15812258523E+04  0.20215176693E+04  0.25500000920E-02 0.  1.
       -2    1    3    3    0  502 -0.12566416638E+04  0.84322122445E+02 -0.73618053364E+02  0.12616172595E+04  0.25500000920E-02 0. -1.
</event>
<event>
 5   0  0.9251510E-06  0.2500933E+04  0.7818609E-02  0.8402653E-01
        2   -1    0    0  501    0  0.00000000000E+00  0.00000000000E+00  0.20104242964E+04  0.20104242964E+04  0.25500000920E-02 0.  1.
       -2   -1    0    0    0  501  0.00000000000E+00  0.00000000000E+00 -0.77777926716E+03  0.77777926716E+03  0.25500000920E-02 0. -1.
    10030    2    1    2    0    0  0.00000000000E+00  0.00000000000E+00  0.12326450292E+04  0.27882035636E+04  0.25009328947E+04 0.  0.
        2    1    3    3  502    0 -0.23385673483E+03 -0.10646184600E+03 -0.74803008958E+03  0.79093116767E+03  0.25500000920E-02 0. -1.
       -2    1    3    3    0  502  0.23385673483E+03  0.10646184600E+03  0.19806751188E+04  0.19972723959E+04  0.25500000920E-02 0.  1.
</event>
<event>
 5   0  0.3564340E-06  0.2890837E+04  0.7818609E-02  0.8275609E-01
       -1   -1    0    0    0  501  0.00000000000E+00  0.00000000000E+00  0.24161290270E+04  0.24161290270E+04  0.50400001928E-02 0.  1.
        1   -1    0    0  501    0  0.00000000000E+00  0.00000000000E+00 -0.86470299730E+03  0.86470299731E+03  0.50400001928E-02 0. -1.
    10030    2    1    2    0    0  0.00000000000E+00  0.00000000000E+00  0.15514260297E+04  0.32808320244E+04  0.28908365651E+04 0.  0.
        1    1    3    3  502    0 -0.76626335337E+03 -0.23908962742E+02  0.21663812539E+04  0.22980293519E+04  0.50400001928E-02 0.  1.
       -1    1    3    3    0  502  0.76626335337E+03  0.23908962742E+02 -0.61495522412E+03  0.98280267242E+03  0.50400001928E-02 0. -1.
</event>
<event>
 5   0  0.3746518E-06  0.2909876E+04  0.7818609E-02  0.8269945E-01
        1   -1    0    0  501    0  0.00000000000E+00  0.00000000000E+00  0.26615574214E+04  0.26615574214E+04  0.50400001928E-02 0. -1.
       -1   -1    0    0    0  501  0.00000000000E+00  0.00000000000E+00 -0.79534050487E+03  0.79534050489E+03  0.50400001928E-02 0.  1.
    10030    2    1    2    0    0  0.00000000000E+00  0.00000000000E+00  0.18662169165E+04  0.34568979263E+04  0.29098758897E+04 0.  0.
        4    1    3    3  502    0  0.67648432613E+03  0.74249245265E+03  0.21835564954E+04  0.24035071598E+04  0.12699999809E+01 0. -1.
       -4    1    3    3    0  502 -0.67648432613E+03 -0.74249245265E+03 -0.31733957886E+03  0.10533907665E+04  0.12699999809E+01 0.  1.
</event>
<event>
 5   0  0.3486236E-06  0.2910153E+04  0.7818609E-02  0.8269863E-01
       -1   -1    0    0    0  501  0.00000000000E+00  0.00000000000E+00  0.16882337196E+04  0.16882337196E+04  0.50400001928E-02 0. -1.
        1   -1    0    0  501    0  0.00000000000E+00  0.00000000000E+00 -0.12541203264E+04  0.12541203264E+04  0.50400001928E-02 0.  1.
    10030    2    1    2    0    0  0.00000000000E+00  0.00000000000E+00  0.43411339323E+03  0.29423540460E+04  0.29101534141E+04 0.  0.
        5    1    3    3  502    0 -0.52354707054E+03 -0.12447908495E+04  0.76491987535E+03  0.15520084729E+04  0.46999998093E+01 0. -1.
       -5    1    3    3    0  502  0.52354707054E+03  0.12447908495E+04 -0.33080648212E+03  0.13903455731E+04  0.46999998093E+01 0.  1.
</event>
<event>
 5   0  0.9505359E-06  0.2900115E+04  0.7818609E-02  0.8272843E-01
        2   -1    0    0  501    0  0.00000000000E+00  0.00000000000E+00  0.18975550443E+04  0.18975550443E+04  0.25500000920E-02 0. -1.
       -2   -1    0    0    0  501  0.00000000000E+00  0.00000000000E+00 -0.11080926128E+04  0.11080926128E+04  0.25500000920E-02 0.  1.
    10030    2    1    2    0    0  0.00000000000E+00  0.00000000000E+00  0.78946243151E+03  0.30056476570E+04  0.29001149818E+04 0.  0.
        4    1    3    3  502    0 -0.20944096518E+03  0.51752519006E+01 -0.10923238940E+04  0.11122344193E+04  0.12699999809E+01 0.  1.
       -4    1    3    3    0  502  0.20944096518E+03 -0.51752519006E+01  0.18817863255E+04  0.18934132378E+04  0.12699999809E+01 0. -1.
</event>
<event>
 5   0  0.3486236E-06  0.2915470E+04  0.7818609E-02  0.8268289E-01
        1   -1    0    0  501    0  0.00000000000E+00  0.00000000000E+00  0.20681555264E+04  0.20681555264E+04  0.50400001928E-02 0.  1.
       -1   -1    0    0    0  501  0.00000000000E+00  0.00000000000E+00 -0.10274816255E+04  0.10274816255E+04  0.50400001928E-02 0. -1.
    10030    2    1    2    0    0  0.00000000000E+00  0.00000000000E+00  0.10406739010E+04  0.30956371519E+04  0.29154703236E+04 0.  0.
        5    1    3    3  502    0 -0.12255952779E+02  0.44913097077E+03 -0.95211949597E+03  0.10528164426E+04  0.46999998093E+01 0. -1.
       -5    1    3    3    0  502  0.12255952779E+02 -0.44913097077E+03  0.19927933969E+04  0.20428207092E+04  0.46999998093E+01 0.  1.
</event>
<event>
 5   0  0.1001573E-05  0.3295066E+04  0.7818609E-02  0.8164152E-01
        2   -1    0    0  501    0  0.00000000000E+00  0.00000000000E+00  0.15942793272E+04  0.15942793272E+04  0.25500000920E-02 0. -1.
       -2   -1    0    0    0  501  0.00000000000E+00  0.00000000000E+00 -0.17025653783E+04  0.17025653783E+04  0.25500000920E-02 0.  1.
    10030    2    1    2    0    0  0.00000000000E+00  0.00000000000E+00 -0.10828605108E+03  0.32968447056E+04  0.32950658785E+04 0.  0.
        1    1    3    3  502    0  0.15364339980E+04 -0.27521279077E+03  0.47339228472E+03  0.16310952656E+04  0.50400001928E-02 0. -1.
       -1    1    3    3    0  502 -0.15364339980E+04  0.27521279077E+03 -0.58167833579E+03  0.16657494399E+04  0.50400001928E-02 0.  1.
</event>
<event>
 5   0  0.3486236E-06  0.2709229E+04  0.7818609E-02  0.8332017E-01
       -1   -1    0    0    0  501  0.00000000000E+00  0.00000000000E+00  0.12851875828E+04  0.12851875828E+04  0.50400001928E-02 0.  1.
        1   -1    0    0  501    0  0.00000000000E+00  0.00000000000E+00 -0.14277918818E+04  0.14277918818E+04  0.50400001928E-02 0. -1.
    10030    2    1    2    0    0  0.00000000000E+00  0.00000000000E+00 -0.14260429905E+03  0.27129794646E+04  0.27092289659E+04 0.  0.
        5    1    3    3  502    0 -0.41094837183E+03  0.34942064376E+03 -0.13155942058E+04  0.14218943544E+04  0.46999998093E+01 0. -1.
       -5    1    3    3    0  502  0.41094837183E+03 -0.34942064376E+03  0.11729899068E+04  0.12910851103E+04  0.46999998093E+01 0.  1.
</event>
<event>
 5   0  0.3474078E-06  0.2873803E+04  0.7818609E-02  0.8280715E-01
        1   -1    0    0  501    0  0.00000000000E+00  0.00000000000E+00  0.98877624068E+03  0.98877624069E+03  0.50400001928E-02 0. -1.
       -1   -1    0    0    0  501  0.00000000000E+00  0.00000000000E+00 -0.20881225418E+04  0.20881225418E+04  0.50400001928E-02 0.  1.
    10030    2    1    2    0    0  0.00000000000E+00  0.00000000000E+00 -0.10993463012E+04  0.30768987825E+04  0.28738030253E+04 0.  0.
        3    1    3    3  502    0  0.12981000465E+04  0.53392258361E+03 -0.22045449919E+03  0.14208227379E+04  0.10100000352E+00 0. -1.
       -3    1    3    3    0  502 -0.12981000465E+04 -0.53392258361E+03 -0.87889180197E+03  0.16560760447E+04  0.10100000352E+00 0.  1.
</event>
<event>
 5   0  0.3474078E-06  0.2889361E+04  0.7818609E-02  0.8276050E-01
        1   -1    0    0  501    0  0.00000000000E+00  0.00000000000E+00  0.24558778298E+04  0.24558778298E+04  0.50400001928E-02 0. -1.
       -1   -1    0    0    0  501  0.00000000000E+00  0.00000000000E+00 -0.84983966599E+03  0.84983966600E+03  0.50400001928E-02 0.  1.
    10030    2    1    2    0    0  0.00000000000E+00  0.00000000000E+00  0.16060381638E+04  0.33057174958E+04  0.28893614482E+04 0.  0.
        3    1    3    3  502    0  0.22815453761E+03 -0.12652280578E+04  0.15569502580E+04  0.20191460193E+04  0.10100000352E+00 0. -1.
       -3    1    3    3    0  502 -0.22815453761E+03  0.12652280578E+04  0.49087905840E+02  0.12865714765E+04  0.10100000352E+00 0.  1.
</event>
<event>
 5   0  0.3486236E-06  0.2921329E+04  0.7818609E-02  0.8266560E-01
       -1   -1    0    0    0  501  0.00000000000E+00  0.00000000000E+00  0.12013806853E+04  0.12013806853E+04  0.50400001928E-02 0. -1.
        1   -1    0    0  501    0  0.00000000000E+00  0.00000000000E+00 -0.17759078616E+04  0.17759078616E+04  0.50400001928E-02 0.  1.
    10030    2    1    2    0    0  0.00000000000E+00  0.00000000000E+00 -0.57452717635E+03  0.29772885469E+04  0.29213294260E+04 0.  0.
        5    1    3    3  502    0  0.91387509323E+03 -0.83005587548E+03  0.50830378225E+03  0.13351236900E+04  0.46999998093E+01 0. -1.
       -5    1    3    3    0  502 -0.91387509323E+03  0.83005587548E+03 -0.10828309586E+04  0.16421648569E+04  0.46999998093E+01 0.  1.
</event>
<event>
 5   0  0.9505359E-06  0.2844959E+04  0.7818609E-02  0.8289445E-01
       -2   -1    0    0    0  501  0.00000000000E+00  0.00000000000E+00  0.15901085486E+04  0.15901085486E+04  0.25500000920E-02 0.  1.
        2   -1    0    0  501    0  0.00000000000E+00  0.00000000000E+00 -0.12725221393E+04  0.12725221393E+04  0.25500000920E-02 0. -1.
    10030    2    1    2    0    0  0.00000000000E+00  0.00000000000E+00  0.31758640934E+03  0.28626306879E+04  0.28449592840E+04 0.  0.
        4    1    3    3  502    0  0.43343830736E+03  0.93394464949E+03  0.11463811053E+04  0.15408804711E+04  0.12699999809E+01 0.  1.
       -4    1    3    3    0  502 -0.43343830736E+03 -0.93394464949E+03 -0.82879469597E+03  0.13217502168E+04  0.12699999809E+01 0. -1.
</event>
<event>
 5   0  0.9646321E-06  0.2849313E+04  0.7818609E-02  0.8288120E-01
        2   -1    0    0  501    0  0.00000000000E+00  0.00000000000E+00  0.17806425531E+04  0.17806425531E+04  0.25500000920E-02 0. -1.
       -2   -1    0    0    0  501  0.00000000000E+00  0.00000000000E+00 -0.11398389563E+04  0.11398389563E+04  0.25500000920E-02 0.  1.
    10030    2    1    2    0    0  0.00000000000E+00  0.00000000000E+00  0.64080359676E+03  0.29204815094E+04  0.28493127236E+04 0.  0.
        3    1    3    3  502    0  0.71169263098E+03  0.77366423690E+03 -0.66516778604E+03  0.12439899301E+04  0.10100000352E+00 0.  1.
       -3    1    3    3    0  502 -0.71169263098E+03 -0.77366423690E+03  0.13059713828E+04  0.16764915793E+04  0.10100000352E+00 0. -1.
</event>
<event>
 5   0  0.9251510E-06  0.2894767E+04  0.7818609E-02  0.8274436E-01
       -2   -1    0    0    0  501  0.00000000000E+00  0.00000000000E+00  0.82930573244E+03  0.82930573244E+03  0.25500000920E-02 0.  1.
        2   -1    0    0  501    0  0.00000000000E+00  0.00000000000E+00 -0.25261119366E+04  0.25261119366E+04  0.25500000920E-02 0. -1.
    10030    2    1    2    0    0  0.00000000000E+00  0.00000000000E+00 -0.16968062042E+04  0.33554176691E+04  0.28947670786E+04 0.  0.
        2    1    3    3  502    0  0.12910437958E+04 -0.32591264061E+03 -0.15060571281E+04  0.20102788874E+04  0.25500000920E-02 0. -1.
       -2    1    3    3    0  502 -0.12910437958E+04  0.32591264061E+03 -0.19074907611E+03  0.13451387817E+04  0.25500000920E-02 0.  1.
</event>
<event>
 5   0  0.1001573E-05  0.2890134E+04  0.7818609E-02  0.8275819E-01
       -2   -1    0    0    0  501  0.00000000000E+00  0.00000000000E+00  0.71175347665E+03  0.71175347666E+03  0.25500000920E-02 0.  1.
        2   -1    0    0  501    0  0.00000000000E+00  0.00000000000E+00 -0.29339062811E+04  0.29339062811E+04  0.25500000920E-02 0. -1.
    10030    2    1    2    0    0  0.00000000000E+00  0.00000000000E+00 -0.22221528045E+04  0.36456597578E+04  0.28901335580E+04 0.  0.
        1    1    3    3  502    0  0.14345452905E+04 -0.16308323529E+03 -0.10343302341E+04  0.17760504963E+04  0.50400001928E-02 0.  1.
       -1    1    3    3    0  502 -0.14345452905E+04  0.16308323529E+03 -0.11878225704E+04  0.18696092615E+04  0.50400001928E-02 0. -1.
</event>
<event>
 5   0  0.9360689E-06  0.2910176E+04  0.7818609E-02  0.8269856E-01
       -2   -1    0    0    0  501  0.00000000000E+00  0.00000000000E+00  0.91163095459E+03  0.91163095459E+03  0.25500000920E-02 0.  1.
        2   -1    0    0  501    0  0.00000000000E+00  0.00000000000E+00 -0.23225203971E+04  0.23225203971E+04  0.25500000920E-02 0. -1.
    10030    2    1    2    0    0  0.00000000000E+00  0.00000000000E+00 -0.14108894425E+04  0.32341513517E+04  0.29101762742E+04 0.  0.
        5    1    3    3  502    0  0.20447872589E+03  0.50242785293E+03  0.79505548089E+03  0.96248667754E+03  0.46999998093E+01 0.  1.
       -5    1    3    3    0  502 -0.20447872589E+03 -0.50242785293E+03 -0.22059449234E+04  0.22716646742E+04  0.46999998093E+01 0. -1.
</event>
<event>
 5   0  0.9646321E-06  0.2896676E+04  0.7818609E-02  0.8273867E-01
        2   -1    0    0  501    0  0.00000000000E+00  0.00000000000E+00  0.21884155490E+04  0.21884155490E+04  0.25500000920E-02 0. -1.
       -2   -1    0    0    0  501  0.00000000000E+00  0.00000000000E+00 -0.95853935347E+03  0.95853935347E+03  0.25500000920E-02 0.  1.
    10030    2    1    2    0    0  0.00000000000E+00  0.00000000000E+00  0.12298761955E+04  0.31469549025E+04  0.28966756294E+04 0.  0.
        3    1    3    3  502    0  0.40867577781E+03  0.94165793035E+03  0.17249556630E+04  0.20072886187E+04  0.10100000352E+00 0. -1.
       -3    1    3    3    0  502 -0.40867577781E+03 -0.94165793035E+03 -0.49507946745E+03  0.11396662838E+04  0.10100000352E+00 0.  1.
</event>
<event>
 5   0  0.3564340E-06  0.2867845E+04  0.7818609E-02  0.8282509E-01
       -1   -1    0    0    0  501  0.00000000000E+00  0.00000000000E+00  0.88339051384E+03  0.88339051385E+03  0.50400001928E-02 0. -1.
        1   -1    0    0  501    0  0.00000000000E+00  0.00000000000E+00 -0.23275472569E+04  0.23275472569E+04  0.50400001928E-02 0.  1.
    10030    2    1    2    0    0  0.00000000000E+00  0.00000000000E+00 -0.14441567430E+04  0.32109377707E+04  0.28678446034E+04 0.  0.
        1    1    3    3  502    0 -0.34365234560E+03 -0.13664616999E+04 -0.42412375993E+03  0.14714603208E+04  0.50400001928E-02 0.  1.
       -1    1    3    3    0  502  0.34365234560E+03  0.13664616999E+04 -0.10200329831E+04  0.17394774499E+04  0.50400001928E-02 0. -1.
</event>
<event>
 5   0  0.3474078E-06  0.2414539E+04  0.7818609E-02  0.8434080E-01
        1   -1    0    0  501    0  0.00000000000E+00  0.00000000000E+00  0.14782634983E+04  0.14782634983E+04  0.50400001928E-02 0. -1.
       -1   -1    0    0    0  501  0.00000000000E+00  0.00000000000E+00 -0.98595385190E+03  0.98595385191E+03  0.50400001928E-02 0.  1.
    10030    2    1    2    0    0  0.00000000000E+00  0.00000000000E+00  0.49230964644E+03  0.24642173503E+04  0.24145389542E+04 0.  0.
        3    1    3    3  502    0 -0.49819399214E+03  0.13927488354E+03 -0.86711620977E+03  0.10096956365E+04  0.10100000352E+00 0.  1.
       -3    1    3    3    0  502  0.49819399214E+03 -0.13927488354E+03  0.13594258562E+04  0.14545217137E+04  0.10100000352E+00 0. -1.
</event>
<event>
 5   0  0.3486236E-06  0.2908790E+04  0.7818609E-02  0.8270267E-01
        1   -1    0    0  501    0  0.00000000000E+00  0.00000000000E+00  0.21327548353E+04  0.21327548353E+04  0.50400001928E-02 0.  1.
       -1   -1    0    0    0  501  0.00000000000E+00  0.00000000000E+00 -0.99179949823E+03  0.99179949825E+03  0.50400001928E-02 0. -1.
    10030    2    1    2    0    0  0.00000000000E+00  0.00000000000E+00  0.11409553370E+04  0.31245543335E+04  0.29087902472E+04 0.  0.
        5    1    3    3  502    0  0.83708414494E+03  0.96669851104E+03  0.13147101198E+04  0.18340394396E+04  0.46999998093E+01 0.  1.
       -5    1    3    3    0  502 -0.83708414494E+03 -0.96669851104E+03 -0.17375478273E+03  0.12905148939E+04  0.46999998093E+01 0. -1.
</event>
<event>
 5   0  0.3474078E-06  0.2759618E+04  0.7818609E-02  0.8315916E-01
        1   -1    0    0  501    0  0.00000000000E+00  0.00000000000E+00  0.12481120109E+04  0.12481120109E+04  0.50400001928E-02 0.  1.
       -1   -1    0    0    0  501  0.00000000000E+00  0.00000000000E+00 -0.15254026992E+04  0.15254026992E+04  0.50400001928E-02 0. -1.
    10030    2    1    2    0    0  0.00000000000E+00  0.00000000000E+00 -0.27729068827E+03  0.27735147101E+04  0.27596184014E+04 0.  0.
        3    1    3    3  502    0 -0.11694326728E+04  0.11050161766E+03  0.58894075504E+03  0.13140146905E+04  0.10100000352E+00 0.  1.
       -3    1    3    3    0  502  0.11694326728E+04 -0.11050161766E+03 -0.86623144331E+03  0.14595000196E+04  0.10100000352E+00 0. -1.
</event>
<event>
 5   0  0.9251510E-06  0.2902763E+04  0.7818609E-02  0.8272056E-01
        2   -1    0    0  501    0  0.00000000000E+00  0.00000000000E+00  0.19898865516E+04  0.19898865516E+04  0.25500000920E-02 0. -1.
       -2   -1    0    0    0  501  0.00000000000E+00  0.00000000000E+00 -0.10586071134E+04  0.10586071134E+04  0.25500000920E-02 0.  1.
    10030    2    1    2    0    0  0.00000000000E+00  0.00000000000E+00  0.93127943823E+03  0.30484936649E+04  0.29027628620E+04 0.  0.
        2    1    3    3  502    0  0.14183971723E+03 -0.62064472055E+03  0.18354174739E+04  0.19426980409E+04  0.25500000920E-02 0. -1.
       -2    1    3    3    0  502 -0.14183971723E+03  0.62064472055E+03 -0.90413803570E+03  0.11057956240E+04  0.25500000920E-02 0.  1.
</event>
<event>
 5   0  0.9646321E-06  0.2897567E+04  0.7818609E-02  0.8273602E-01
       -2   -1    0    0    0  501  0.00000000000E+00  0.00000000000E+00  0.11827304949E+04  0.11827304949E+04  0.25500000920E-02 0. -1.
        2   -1    0    0  501    0  0.00000000000E+00  0.00000000000E+00 -0.17746845821E+04  0.17746845821E+04  0.25500000920E-02 0.  1.
    10030    2    1    2    0    0  0.00000000000E+00  0.00000000000E+00 -0.59195408720E+03  0.29574150770E+04  0.28975669615E+04 0.  0.
        3    1    3    3  502    0 -0.89726700350E+03 -0.18770643482E+03 -0.14410458900E+04  0.17079037000E+04  0.10100000352E+00 0.  1.
       -3    1    3    3    0  502  0.89726700350E+03  0.18770643482E+03  0.84909180284E+03  0.12495113769E+04  0.10100000352E+00 0. -1.
</event>
<event>
 5   0  0.3474078E-06  0.2914914E+04  0.7818609E-02  0.8268454E-01
        1   -1    0    0  501    0  0.00000000000E+00  0.00000000000E+00  0.10999167026E+04  0.10999167026E+04  0.50400001928E-02 0.  1.
       -1   -1    0    0    0  501  0.00000000000E+00  0.00000000000E+00 -0.19312200677E+04  0.19312200677E+04  0.50400001928E-02 0. -1.
    10030    2    1    2    0    0  0.00000000000E+00  0.00000000000E+00 -0.83130336517E+03  0.30311367703E+04  0.29149142072E+04 0.  0.
        3    1    3    3  502    0 -0.27628889442E+03  0.26103468326E+03 -0.18787724168E+04  0.19168360554E+04  0.10100000352E+00 0. -1.
       -3    1    3    3    0  502  0.27628889442E+03 -0.26103468326E+03  0.10474690516E+04  0.11143007149E+04  0.10100000352E+00 0.  1.
</event>
<event>
 5   0  0.3649705E-06  0.2102980E+04  0.7818609E-02  0.8559932E-01
        1   -1    0    0  501    0  0.00000000000E+00  0.00000000000E+00  0.93218095788E+03  0.93218095789E+03  0.50400001928E-02 0.  1.
       -1   -1    0    0    0  501  0.00000000000E+00  0.00000000000E+00 -0.11860696463E+04  0.11860696463E+04  0.50400001928E-02 0. -1.
    10030    2    1    2    0    0  0.00000000000E+00  0.00000000000E+00 -0.25388868845E+03  0.21182506042E+04  0.21029803033E+04 0.  0.
        2    1    3    3  502    0  0.92742633139E+02  0.35408406862E+03  0.86593879916E+03  0.94012059202E+03  0.25500000920E-02 0.  1.
       -2    1    3    3    0  502 -0.92742633139E+02 -0.35408406862E+03 -0.11198274876E+04  0.11781300122E+04  0.25500000920E-02 0. -1.
</event>
<event>
 5   0  0.9251510E-06  0.2909888E+04  0.7818609E-02  0.8269942E-01
       -2   -1    0    0    0  501  0.00000000000E+00  0.00000000000E+00  0.22479959560E+04  0.22479959560E+04  0.25500000920E-02 0. -1.
        2   -1    0    0  501    0  0.00000000000E+00  0.00000000000E+00 -0.94166640504E+03  0.94166640504E+03  0.25500000920E-02 0.  1.
    10030    2    1    2    0    0  0.00000000000E+00  0.00000000000E+00  0.13063295509E+04  0.31896623610E+04  0.29098881562E+04 0.  0.
        2    1    3    3  502    0  0.33668689425E+03 -0.59897884546E+03  0.20589388577E+04  0.21705674240E+04  0.25500000920E-02 0. -1.
       -2    1    3    3    0  502 -0.33668689425E+03  0.59897884546E+03 -0.75260930679E+03  0.10190949371E+04  0.25500000920E-02 0.  1.
</event>
<event>
 5   0  0.3746518E-06  0.2856019E+04  0.7818609E-02  0.8286085E-01
        1   -1    0    0  501    0  0.00000000000E+00  0.00000000000E+00  0.17686567638E+04  0.17686567638E+04  0.50400001928E-02 0.  1.
       -1   -1    0    0    0  501  0.00000000000E+00  0.00000000000E+00 -0.11529715732E+04  0.11529715733E+04  0.50400001928E-02 0. -1.
    10030    2    1    2    0    0  0.00000000000E+00  0.00000000000E+00  0.61568519056E+03  0.29216283371E+04  0.28560188875E+04 0.  0.
        4    1    3    3  502    0  0.11633930272E+04  0.82577968849E+03  0.37101831372E+03  0.14741274137E+04  0.12699999809E+01 0.  1.
       -4    1    3    3    0  502 -0.11633930272E+04 -0.82577968849E+03  0.24466687684E+03  0.14475009234E+04  0.12699999809E+01 0. -1.
</event>
<event>
 5   0  0.1001573E-05  0.2555923E+04  0.7818609E-02  0.8383329E-01
        2   -1    0    0  501    0  0.00000000000E+00  0.00000000000E+00  0.13701055789E+04  0.13701055789E+04  0.25500000920E-02 0. -1.
       -2   -1    0    0    0  501  0.00000000000E+00  0.00000000000E+00 -0.11920148184E+04  0.11920148184E+04  0.25500000920E-02 0.  1.
    10030    2    1    2    0    0  0.00000000000E+00  0.00000000000E+00  0.17809076049E+03  0.25621203973E+04  0.25559234361E+04 0.  0.
        1    1    3    3  502    0  0.60975747699E+03  0.70443109170E+03  0.96589977914E+03  0.13420095853E+04  0.50400001928E-02 0. -1.
       -1    1    3    3    0  502 -0.60975747699E+03 -0.70443109170E+03 -0.78780901865E+03  0.12201108120E+04  0.50400001928E-02 0.  1.
</event>
<event>
 5   0  0.3746518E-06  0.2444819E+04  0.7818609E-02  0.8422912E-01
       -1   -1    0    0    0  501  0.00000000000E+00  0.00000000000E+00  0.11209240258E+04  0.11209240258E+04  0.50400001928E-02 0. -1.
        1   -1    0    0  501    0  0.00000000000E+00  0.00000000000E+00 -0.13330830553E+04  0.13330830553E+04  0.50400001928E-02 0.  1.
    10030    2    1    2    0    0  0.00000000000E+00  0.00000000000E+00 -0.21215902948E+03  0.24540070811E+04  0.24448188686E+04 0.  0.
        4    1    3    3  502    0 -0.31764824233E+03 -0.17398699334E+03  0.10658319071E+04  0.11256869666E+04  0.12699999809E+01 0. -1.
       -4    1    3    3    0  502  0.31764824233E+03  0.17398699334E+03 -0.12779909365E+04  0.13283201145E+04  0.12699999809E+01 0.  1.
</event>
<event>
 5   0  0.3474078E-06  0.2908822E+04  0.7818609E-02  0.8270258E-01
       -1   -1    0    0    0  501  0.00000000000E+00  0.00000000000E+00  0.17947283557E+04  0.17947283557E+04  0.50400001928E-02 0. -1.
        1   -1    0    0  501    0  0.00000000000E+00  0.00000000000E+00 -0.11786247017E+04  0.11786247017E+04  0.50400001928E-02 0.  1.
    10030    2    1    2    0    0  0.00000000000E+00  0.00000000000E+00  0.61610365402E+03  0.29733530574E+04  0.29088218734E+04 0.  0.
        3    1    3    3  502    0  0.58408643461E+02 -0.95668777530E+03  0.14262340408E+04  0.17183732477E+04  0.10100000352E+00 0. -1.
       -3    1    3    3    0  502 -0.58408643461E+02  0.95668777530E+03 -0.81013038674E+03  0.12549798097E+04  0.10100000352E+00 0.  1.
</event>
<event>
 5   0  0.3649705E-06  0.2905704E+04  0.7818609E-02  0.8271182E-01
        1   -1    0    0  501    0  0.00000000000E+00  0.00000000000E+00  0.20477864254E+04  0.20477864254E+04  0.50400001928E-02 0.  1.
       -1   -1    0    0    0  501  0.00000000000E+00  0.00000000000E+00 -0.10307614153E+04  0.10307614153E+04  0.50400001928E-02 0. -1.
    10030    2    1    2    0    0  0.00000000000E+00  0.00000000000E+00  0.10170250100E+04  0.30785478407E+04  0.29057042067E+04 0.  0.
        2    1    3    3  502    0 -0.12307133923E+04  0.33606442221E+03 -0.22795060027E+03  0.12959769389E+04  0.25500000920E-02 0. -1.
       -2    1    3    3    0  502  0.12307133923E+04 -0.33606442221E+03  0.12449756103E+04  0.17825709019E+04  0.25500000920E-02 0.  1.
</event>
<event>
 5   0  0.1001573E-05  0.2912583E+04  0.7818609E-02  0.8269144E-01
        2   -1    0    0  501    0  0.00000000000E+00  0.00000000000E+00  0.18200571384E+04  0.18200571384E+04  0.25500000920E-02 0. -1.
       -2   -1    0    0    0  501  0.00000000000E+00  0.00000000000E+00 -0.11652296109E+04  0.11652296109E+04  0.25500000920E-02 0.  1.
    10030    2    1    2    0    0  0.00000000000E+00  0.00000000000E+00  0.65482752750E+03  0.29852867493E+04  0.29125826830E+04 0.  0.
        1    1    3    3  502    0  0.84724256847E+03  0.10760755449E+04  0.83477093949E+03  0.16039330004E+04  0.50400001928E-02 0. -1.
       -1    1    3    3    0  502 -0.84724256847E+03 -0.10760755449E+04 -0.17994341199E+03  0.13813537490E+04  0.50400001928E-02 0.  1.
</event>
<event>
 5   0  0.9360689E-06  0.2808530E+04  0.7818609E-02  0.8300625E-01
       -2   -1    0    0    0  501  0.00000000000E+00  0.00000000000E+00  0.68971962917E+03  0.68971962917E+03  0.25500000920E-02 0. -1.
        2   -1    0    0  501    0  0.00000000000E+00  0.00000000000E+00 -0.28590753156E+04  0.28590753156E+04  0.25500000920E-02 0.  1.
    10030    2    1    2    0    0  0.00000000000E+00  0.00000000000E+00 -0.21693556864E+04  0.35487949447E+04  0.28085301255E+04 0.  0.
        5    1    3    3  502    0  0.48246047422E+03  0.13058437794E+04 -0.85188385759E+03  0.16320919956E+04  0.46999998093E+01 0. -1.
       -5    1    3    3    0  502 -0.48246047422E+03 -0.13058437794E+04 -0.13174718288E+04  0.19167029491E+04  0.46999998093E+01 0.  1.
</event>
<event>
 5   0  0.3486236E-06  0.2816685E+04  0.7818609E-02  0.8298107E-01
        1   -1    0    0  501    0  0.00000000000E+00  0.00000000000E+00  0.75105793200E+03  0.75105793202E+03  0.50400001928E-02 0.  1.
       -1   -1    0    0    0  501  0.00000000000E+00  0.00000000000E+00 -0.26408466869E+04  0.26408466869E+04  0.50400001928E-02 0. -1.
    10030    2    1    2    0    0  0.00000000000E+00  0.00000000000E+00 -0.18897887549E+04  0.33919046190E+04  0.28166851805E+04 0.  0.
        5    1    3    3  502    0 -0.85439751045E+03 -0.46959760846E+03 -0.21687559663E+04  0.23778228595E+04  0.46999998093E+01 0. -1.
       -5    1    3    3    0  502  0.85439751045E+03  0.46959760846E+03  0.27896721142E+03  0.10140817594E+04  0.46999998093E+01 0.  1.
</event>
<event>
 5   0  0.9505359E-06  0.2908687E+04  0.7818609E-02  0.8270297E-01
        2   -1    0    0  501    0  0.00000000000E+00  0.00000000000E+00  0.15498637522E+04  0.15498637522E+04  0.25500000920E-02 0.  1.
       -2   -1    0    0    0  501  0.00000000000E+00  0.00000000000E+00 -0.13647107341E+04  0.13647107341E+04  0.25500000920E-02 0. -1.
    10030    2    1    2    0    0  0.00000000000E+00  0.00000000000E+00  0.18515301813E+03  0.29145744862E+04  0.29086874696E+04 0.  0.
        4    1    3    3  502    0 -0.13005079651E+04 -0.49474989287E+03 -0.33138225121E+03  0.14303545830E+04  0.12699999809E+01 0. -1.
       -4    1    3    3    0  502  0.13005079651E+04  0.49474989287E+03  0.51653526934E+03  0.14842199032E+04  0.12699999809E+01 0.  1.
</event>
<event>
 5   0  0.3564340E-06  0.2867107E+04  0.7818609E-02  0.8282732E-01
       -1   -1    0    0    0  501  0.00000000000E+00  0.00000000000E+00  0.82554983819E+03  0.82554983820E+03  0.50400001928E-02 0.  1.
        1   -1    0    0  501    0  0.00000000000E+00  0.00000000000E+00 -0.24893412990E+04  0.24893412990E+04  0.50400001928E-02 0. -1.
    10030    2    1    2    0    0  0.00000000000E+00  0.00000000000E+00 -0.16637914608E+04  0.33148911372E+04  0.28671067693E+04 0.  0.
        1    1    3    3  502    0 -0.29813839435E+03 -0.35499550252E+03 -0.24002855810E+04  0.24446429554E+04  0.50400001928E-02 0. -1.
       -1    1    3    3    0  502  0.29813839435E+03  0.35499550252E+03  0.73649412014E+03  0.87024818186E+03  0.50400001928E-02 0.  1.
</event>
<event>
 5   0  0.3486236E-06  0.2875425E+04  0.7818609E-02  0.8280227E-01
       -1   -1    0    0    0  501  0.00000000000E+00  0.00000000000E+00  0.23647592572E+04  0.23647592572E+04  0.50400001928E-02 0. -1.
        1   -1    0    0  501    0  0.00000000000E+00  0.00000000000E+00 -0.87409196384E+03  0.87409196386E+03  0.50400001928E-02 0.  1.
    10030    2    1    2    0    0  0.00000000000E+00  0.00000000000E+00  0.14906672933E+04  0.32388512210E+04  0.28754248821E+04 0.  0.
        5    1    3    3  502    0  0.75158717658E+03  0.29651369104E+03  0.20848346893E+04  0.22359251832E+04  0.46999998093E+01 0. -1.
       -5    1    3    3    0  502 -0.75158717658E+03 -0.29651369104E+03 -0.59416739598E+03  0.10029260379E+04  0.46999998093E+01 0.  1.
</event>
<event>
 5   0  0.3649705E-06  0.2862348E+04  0.7818609E-02  0.8284169E-01
       -1   -1    0    0    0  501  0.00000000000E+00  0.00000000000E+00  0.72172090064E+03  0.72172090066E+03  0.50400001928E-02 0. -1.
        1   -1    0    0  501    0  0.00000000000E+00  0.00000000000E+00 -0.28380217257E+04  0.28380217257E+04  0.50400001928E-02 0.  1.
    10030    2    1    2    0    0  0.00000000000E+00  0.00000000000E+00 -0.21163008250E+04  0.35597426263E+04  0.28623484036E+04 0.  0.
        2    1    3    3  502    0 -0.10741430016E+04 -0.29287236827E+03 -0.21765330401E+04  0.24447604150E+04  0.25500000920E-02 0.  1.
       -2    1    3    3    0  502  0.10741430016E+04  0.29287236827E+03  0.60232215091E+02  0.11149822114E+04  0.25500000920E-02 0. -1.
</event>
<event>
 5   0  0.3649705E-06  0.2882678E+04  0.7818609E-02  0.8278050E-01
        1   -1    0    0  501    0  0.00000000000E+00  0.00000000000E+00  0.23716250453E+04  0.23716250453E+04  0.50400001928E-02 0. -1.
       -1   -1    0    0    0  501  0.00000000000E+00  0.00000000000E+00 -0.87596375911E+03  0.87596375913E+03  0.50400001928E-02 0.  1.
    10030    2    1    2    0    0  0.00000000000E+00  0.00000000000E+00  0.14956612862E+04  0.32475888044E+04  0.28826776372E+04 0.  0.
        2    1    3    3  502    0  0.10176106586E+04 -0.27507311199E+03  0.18552501372E+04  0.21338110837E+04  0.25500000920E-02 0. -1.
       -2    1    3    3    0  502 -0.10176106586E+04  0.27507311199E+03 -0.35958885104E+03  0.11137777207E+04  0.25500000920E-02 0.  1.
</event>
<event>
 5   0  0.3486236E-06  0.2774757E+04  0.7818609E-02  0.8311148E-01
        1   -1    0    0  501    0  0.00000000000E+00  0.00000000000E+00  0.21159577320E+04  0.21159577320E+04  0.50400001928E-02 0. -1.
       -1   -1    0    0    0  501  0.00000000000E+00  0.00000000000E+00 -0.90966799292E+03  0.90966799293E+03  0.50400001928E-02 0.  1.
    10030    2    1    2    0    0  0.00000000000E+00  0.00000000000E+00  0.12062897391E+04  0.30256257250E+04  0.27747569430E+04 0.  0.
        5    1    3    3  502    0  0.56411525005E+03  0.79960186130E+03  0.16755284313E+04  0.19403625347E+04  0.46999998093E+01 0. -1.
       -5    1    3    3    0  502 -0.56411525005E+03 -0.79960186130E+03 -0.46923869218E+03  0.10852631903E+04  0.46999998093E+01 0.  1.
</event>
<event>
 5   0  0.3486236E-06  0.2889926E+04  0.7818609E-02  0.8275881E-01
        1   -1    0    0  501    0  0.00000000000E+00  0.00000000000E+00  0.15481044939E+04  0.15481044939E+04  0.50400001928E-02 0. -1.
       -1   -1    0    0    0  501  0.00000000000E+00  0.00000000000E+00 -0.13486929824E+04  0.13486929824E+04  0.50400001928E-02 0.  1.
    10030    2    1    2    0    0  0.00000000000E+00  0.00000000000E+00  0.19941151150E+03  0.28967974762E+04  0.28899257201E+04 0.  0.
        5    1    3    3  502    0 -0.59801821320E+02  0.15310081588E+03  0.15386956652E+04  0.15474568032E+04  0.46999998093E+01 0. -1.
       -5    1    3    3    0  502  0.59801821320E+02 -0.15310081588E+03 -0.13392841537E+04  0.13493406731E+04  0.46999998093E+01 0.  1.
</event>
<event>
 5   0  0.3649705E-06  0.2909481E+04  0.7818609E-02  0.8270062E-01
       -1   -1    0    0    0  501  0.00000000000E+00  0.00000000000E+00  0.13580686242E+04  0.13580686243E+04  0.50400001928E-02 0. -1.
        1   -1    0    0  501    0  0.00000000000E+00  0.00000000000E+00 -0.15582942155E+04  0.15582942156E+04  0.50400001928E-02 0.  1.
    10030    2    1    2    0    0  0.00000000000E+00  0.00000000000E+00 -0.20022559130E+03  0.29163628398E+04  0.29094813844E+04 0.  0.
        2    1    3    3  502    0  0.54106036970E+03  0.47306027095E+03 -0.13679118465E+04  0.15452233377E+04  0.25500000920E-02 0.  1.
       -2    1    3    3    0  502 -0.54106036970E+03 -0.47306027095E+03  0.11676862552E+04  0.13711395021E+04  0.25500000920E-02 0. -1.
</event>
<event>
 5   0  0.3649705E-06  0.2936604E+04  0.7818609E-02  0.8262069E-01
       -1   -1    0    0    0  501  0.00000000000E+00  0.00000000000E+00  0.29274102244E+04  0.29274102244E+04  0.50400001928E-02 0. -1.
        1   -1    0    0  501    0  0.00000000000E+00  0.00000000000E+00 -0.73645676275E+03  0.73645676276E+03  0.50400001928E-02 0.  1.
    10030    2    1    2    0    0  0.00000000000E+00  0.00000000000E+00  0.21909534616E+04  0.36638669871E+04  0.29366042002E+04 0.  0.
        2    1    3    3  502    0 -0.64458756374E+03 -0.21276159850E+03  0.27198970205E+04  0.28033195372E+04  0.25500000920E-02 0. -1.
       -2    1    3    3    0  502  0.64458756374E+03  0.21276159850E+03 -0.52894355892E+03  0.86054744997E+03  0.25500000920E-02 0.  1.
</event>
<event>
 5   0  0.3188375E-06  0.2415579E+04  0.7818609E-02  0.8433694E-01
        4   -1    0    0  501    0  0.00000000000E+00  0.00000000000E+00  0.15746654047E+04  0.15746659169E+04  0.12699999809E+01 0.  1.
       -4   -1    0    0    0  501  0.00000000000E+00  0.00000000000E+00 -0.92638945513E+03  0.92639032566E+03  0.12699999809E+01 0. -1.
    10030    2    1    2    0    0  0.00000000000E+00  0.00000000000E+00  0.64827594960E+03  0.25010562425E+04  0.24155787343E+04 0.  0.
        3    1    3    3  502    0 -0.10135990420E+03  0.97637346397E+03  0.10527261699E+04  0.14393788140E+04  0.10100000352E+00 0.  1.
       -3    1    3    3    0  502  0.10135990420E+03 -0.97637346397E+03 -0.40445022027E+03  0.10616774285E+04  0.10100000352E+00 0. -1.
</event>
<event>
 5   0  0.1001573E-05  0.3049124E+04  0.7818609E-02  0.8229841E-01
        2   -1    0    0  501    0  0.00000000000E+00  0.00000000000E+00  0.97220850596E+03  0.97220850596E+03  0.25500000920E-02 0. -1.
       -2   -1    0    0    0  501  0.00000000000E+00  0.00000000000E+00 -0.23907313062E+04  0.23907313062E+04  0.25500000920E-02 0.  1.
    10030    2    1    2    0    0  0.00000000000E+00  0.00000000000E+00 -0.14185228002E+04  0.33629398121E+04  0.30491240128E+04 0.  0.
        1    1    3    3  502    0  0.19120105046E+03  0.24112258463E+03  0.93759845748E+03  0.98680738243E+03  0.50400001928E-02 0. -1.
       -1    1    3    3    0  502 -0.19120105046E+03 -0.24112258463E+03 -0.23561212577E+04  0.23761324297E+04  0.50400001928E-02 0.  1.
</event>
<event>
 5   0  0.3486236E-06  0.2907475E+04  0.7818609E-02  0.8270657E-01
        1   -1    0    0  501    0  0.00000000000E+00  0.00000000000E+00  0.14821602211E+04  0.14821602211E+04  0.50400001928E-02 0. -1.
       -1   -1    0    0    0  501  0.00000000000E+00  0.00000000000E+00 -0.14258597463E+04  0.14258597463E+04  0.50400001928E-02 0.  1.
    10030    2    1    2    0    0  0.00000000000E+00  0.00000000000E+00  0.56300474792E+02  0.29080199674E+04  0.29074749161E+04 0.  0.
        5    1    3    3  502    0 -0.29306990718E+03  0.34288524175E+03  0.14103898636E+04  0.14807707172E+04  0.46999998093E+01 0. -1.
       -5    1    3    3    0  502  0.29306990718E+03 -0.34288524175E+03 -0.13540893888E+04  0.14272492503E+04  0.46999998093E+01 0.  1.
</event>
<event>
 5   0  0.3649705E-06  0.2899539E+04  0.7818609E-02  0.8273015E-01
        1   -1    0    0  501    0  0.00000000000E+00  0.00000000000E+00  0.18853012056E+04  0.18853012056E+04  0.50400001928E-02 0.  1.
       -1   -1    0    0    0  501  0.00000000000E+00  0.00000000000E+00 -0.11148522150E+04  0.11148522150E+04  0.50400001928E-02 0. -1.
    10030    2    1    2    0    0  0.00000000000E+00  0.00000000000E+00  0.77044899059E+03  0.30001534207E+04  0.28995394290E+04 0.  0.
        2    1    3    3  502    0  0.38814914181E+03  0.11235221641E+04 -0.47355805653E+03  0.12795386053E+04  0.25500000920E-02 0. -1.
       -2    1    3    3    0  502 -0.38814914181E+03 -0.11235221641E+04  0.12440070471E+04  0.17206148154E+04  0.25500000920E-02 0.  1.
</event>
<event>
 5   0  0.3564340E-06  0.2894594E+04  0.7818609E-02  0.8274488E-01
       -1   -1    0    0    0  501  0.00000000000E+00  0.00000000000E+00  0.10810283572E+04  0.10810283572E+04  0.50400001928E-02 0.  1.
        1   -1    0    0  501    0  0.00000000000E+00  0.00000000000E+00 -0.19376634785E+04  0.19376634785E+04  0.50400001928E-02 0. -1.
    10030    2    1    2    0    0  0.00000000000E+00  0.00000000000E+00 -0.85663512126E+03  0.30186918357E+04  0.28945943875E+04 0.  0.
        1    1    3    3  502    0 -0.17515681710E+03  0.13036875135E+03  0.10637526827E+04  0.10859307952E+04  0.50400001928E-02 0.  1.
       -1    1    3    3    0  502  0.17515681710E+03 -0.13036875135E+03 -0.19203878040E+04  0.19327610405E+04  0.50400001928E-02 0. -1.
</event>
<event>
 5   0  0.9360689E-06  0.2869504E+04  0.7818609E-02  0.8282009E-01
        2   -1    0    0  501    0  0.00000000000E+00  0.00000000000E+00  0.20847728233E+04  0.20847728233E+04  0.25500000920E-02 0. -1.
       -2   -1    0    0    0  501  0.00000000000E+00  0.00000000000E+00 -0.98740381195E+03  0.98740381195E+03  0.25500000920E-02 0.  1.
    10030    2    1    2    0    0  0.00000000000E+00  0.00000000000E+00  0.10973690113E+04  0.30721766352E+04  0.28695035339E+04 0.  0.
        5    1    3    3  502    0 -0.31467537001E+03 -0.55659546194E+03  0.19237967420E+04  0.20272728211E+04  0.46999998093E+01 0. -1.
       -5    1    3    3    0  502  0.31467537001E+03  0.55659546194E+03 -0.82642773066E+03  0.10449038141E+04  0.46999998093E+01 0.  1.
</event>
<event>
 5   0  0.9360689E-06  0.2945542E+04  0.7818609E-02  0.8259455E-01
       -2   -1    0    0    0  501  0.00000000000E+00  0.00000000000E+00  0.12572795014E+04  0.12572795014E+04  0.25500000920E-02 0.  1.
        2   -1    0    0  501    0  0.00000000000E+00  0.00000000000E+00 -0.17251964944E+04  0.17251964944E+04  0.25500000920E-02 0. -1.
    10030    2    1    2    0    0  0.00000000000E+00  0.00000000000E+00 -0.46791699293E+03  0.29824759958E+04  0.29455418437E+04 0.  0.
        5    1    3    3  502    0 -0.42662589883E+03  0.86378815143E+02 -0.16585692569E+04  0.17147434290E+04  0.46999998093E+01 0. -1.
       -5    1    3    3    0  502  0.42662589883E+03 -0.86378815143E+02  0.11906522640E+04  0.12677325668E+04  0.46999998093E+01 0.  1.
</event>
<event>
 5   0  0.9505359E-06  0.2888408E+04  0.7818609E-02  0.8276335E-01
        2   -1    0    0  501    0  0.00000000000E+00  0.00000000000E+00  0.21455463887E+04  0.21455463887E+04  0.25500000920E-02 0.  1.
       -2   -1    0    0    0  501  0.00000000000E+00  0.00000000000E+00 -0.97211856359E+03  0.97211856359E+03  0.25500000920E-02 0. -1.
    10030    2    1    2    0    0  0.00000000000E+00  0.00000000000E+00  0.11734278251E+04  0.31176649523E+04  0.28884081938E+04 0.  0.
        4    1    3    3  502    0  0.95267267402E+03  0.39190070740E+03 -0.50582766983E+03  0.11476212933E+04  0.12699999809E+01 0. -1.
       -4    1    3    3    0  502 -0.95267267402E+03 -0.39190070740E+03  0.16792554949E+04  0.19700436590E+04  0.12699999809E+01 0.  1.
</event>
<event>
 5   0  0.3486236E-06  0.2860247E+04  0.7818609E-02  0.8284804E-01
        1   -1    0    0  501    0  0.00000000000E+00  0.00000000000E+00  0.26311584851E+04  0.26311584851E+04  0.50400001928E-02 0. -1.
       -1   -1    0    0    0  501  0.00000000000E+00  0.00000000000E+00 -0.77732050064E+03  0.77732050065E+03  0.50400001928E-02 0.  1.
    10030    2    1    2    0    0  0.00000000000E+00  0.00000000000E+00  0.18538379845E+04  0.34084789858E+04  0.28602471438E+04 0.  0.
        5    1    3    3  502    0 -0.61977467611E+01  0.10994702571E+04  0.20167350165E+04  0.22969796419E+04  0.46999998093E+01 0. -1.
       -5    1    3    3    0  502  0.61977467611E+01 -0.10994702571E+04 -0.16289703208E+03  0.11114993439E+04  0.46999998093E+01 0.  1.
</event>
<event>
 5   0  0.9251510E-06  0.2864474E+04  0.7818609E-02  0.8283527E-01
       -2   -1    0    0    0  501  0.00000000000E+00  0.00000000000E+00  0.82884899729E+03  0.82884899729E+03  0.25500000920E-02 0. -1.
        2   -1    0    0  501    0  0.00000000000E+00  0.00000000000E+00 -0.24748809431E+04  0.24748809431E+04  0.25500000920E-02 0.  1.
    10030    2    1    2    0    0  0.00000000000E+00  0.00000000000E+00 -0.16460319458E+04  0.33037299404E+04  0.28644738352E+04 0.  0.
        2    1    3    3  502    0 -0.14277366826E+03  0.71756945076E+03 -0.22430902125E+04  0.23593948246E+04  0.25500000920E-02 0.  1.
       -2    1    3    3    0  502  0.14277366826E+03 -0.71756945076E+03  0.59705826671E+03  0.94433511576E+03  0.25500000920E-02 0. -1.
</event>
<event>
 5   0  0.3649705E-06  0.2933209E+04  0.7818609E-02  0.8263065E-01
        1   -1    0    0  501    0  0.00000000000E+00  0.00000000000E+00  0.12270898142E+04  0.12270898142E+04  0.50400001928E-02 0. -1.
       -1   -1    0    0    0  501  0.00000000000E+00  0.00000000000E+00 -0.17528699383E+04  0.17528699383E+04  0.50400001928E-02 0.  1.
    10030    2    1    2    0    0  0.00000000000E+00  0.00000000000E+00 -0.52578012413E+03  0.29799597525E+04  0.29332090596E+04 0.  0.
        2    1    3    3  502    0  0.51510401312E+03  0.11978637063E+04  0.41916656216E+03  0.13696387152E+04  0.25500000920E-02 0. -1.
       -2    1    3    3    0  502 -0.51510401312E+03 -0.11978637063E+04 -0.94494668629E+03  0.16103210373E+04  0.25500000920E-02 0.  1.
</event>
<event>
 5   0  0.9251510E-06  0.2917841E+04  0.7818609E-02  0.8267589E-01
       -2   -1    0    0    0  501  0.00000000000E+00  0.00000000000E+00  0.12438162412E+04  0.12438162412E+04  0.25500000920E-02 0. -1.
        2   -1    0    0  501    0  0.00000000000E+00  0.00000000000E+00 -0.17112246868E+04  0.17112246868E+04  0.25500000920E-02 0.  1.
    10030    2    1    2    0    0  0.00000000000E+00  0.00000000000E+00 -0.46740844561E+03  0.29550409281E+04  0.29178410223E+04 0.  0.
        2    1    3    3  502    0  0.14502750147E+04 -0.42889852428E+02 -0.38833313908E+03  0.15019786232E+04  0.25500000920E-02 0.  1.
       -2    1    3    3    0  502 -0.14502750147E+04  0.42889852428E+02 -0.79075306532E+02  0.14530623049E+04  0.25500000920E-02 0. -1.
</event>
<event>
 5   0  0.3486236E-06  0.2959299E+04  0.7818609E-02  0.8255450E-01
        1   -1    0    0  501    0  0.00000000000E+00  0.00000000000E+00  0.22333594921E+04  0.22333594921E+04  0.50400001928E-02 0. -1.
       -1   -1    0    0    0  501  0.00000000000E+00  0.00000000000E+00 -0.98030033362E+03  0.98030033364E+03  0.50400001928E-02 0.  1.
    10030    2    1    2    0    0  0.00000000000E+00  0.00000000000E+00  0.12530591585E+04  0.32136598258E+04  0.29592992787E+04 0.  0.
        5    1    3    3  502    0 -0.89754698914E+03 -0.34170431883E+03 -0.59582542918E+03  0.11302134627E+04  0.46999998093E+01 0.  1.
       -5    1    3    3    0  502  0.89754698914E+03  0.34170431883E+03  0.18488845877E+04  0.20834463631E+04  0.46999998093E+01 0. -1.
</event>
<event>
 5   0  0.9505359E-06  0.2919524E+04  0.7818609E-02  0.8267092E-01
       -2   -1    0    0    0  501  0.00000000000E+00  0.00000000000E+00  0.87893707118E+03  0.87893707118E+03  0.25500000920E-02 0.  1.
        2   -1    0    0  501    0  0.00000000000E+00  0.00000000000E+00 -0.24244116482E+04  0.24244116482E+04  0.25500000920E-02 0. -1.
    10030    2    1    2    0    0  0.00000000000E+00  0.00000000000E+00 -0.15454745770E+04  0.33033487194E+04  0.29195241211E+04 0.  0.
        4    1    3    3  502    0 -0.59306570173E+03  0.10468264761E+04  0.16257779162E+03  0.12140863844E+04  0.12699999809E+01 0.  1.
       -4    1    3    3    0  502  0.59306570173E+03 -0.10468264761E+04 -0.17080523687E+04  0.20892623350E+04  0.12699999809E+01 0. -1.
</event>
<event>
 5   0  0.3564340E-06  0.2832139E+04  0.7818609E-02  0.8293359E-01
        1   -1    0    0  501    0  0.00000000000E+00  0.00000000000E+00  0.17139966906E+04  0.17139966906E+04  0.50400001928E-02 0. -1.
       -1   -1    0    0    0  501  0.00000000000E+00  0.00000000000E+00 -0.11699280824E+04  0.11699280824E+04  0.50400001928E-02 0.  1.
    10030    2    1    2    0    0  0.00000000000E+00  0.00000000000E+00  0.54406860817E+03  0.28839247730E+04  0.28321390230E+04 0.  0.
        1    1    3    3  502    0  0.58625988118E+03  0.96918766972E+03  0.11374133244E+04  0.16052209997E+04  0.50400001928E-02 0. -1.
       -1    1    3    3    0  502 -0.58625988118E+03 -0.96918766972E+03 -0.59334471624E+03  0.12787037733E+04  0.50400001928E-02 0.  1.
</event>
<event>
 5   0  0.3486236E-06  0.2820857E+04  0.7818609E-02  0.8296822E-01
       -1   -1    0    0    0  501  0.00000000000E+00  0.00000000000E+00  0.10078255093E+04  0.10078255093E+04  0.50400001928E-02 0. -1.
        1   -1    0    0  501    0  0.00000000000E+00  0.00000000000E+00 -0.19738625278E+04  0.19738625278E+04  0.50400001928E-02 0.  1.
    10030    2    1    2    0    0  0.00000000000E+00  0.00000000000E+00 -0.96603701851E+03  0.29816880370E+04  0.28208573216E+04 0.  0.
        5    1    3    3  502    0  0.33311721014E+03  0.25202435816E+03 -0.19069722948E+04  0.19521907632E+04  0.46999998093E+01 0.  1.
       -5    1    3    3    0  502 -0.33311721014E+03 -0.25202435816E+03  0.94093527626E+03  0.10294972739E+04  0.46999998093E+01 0. -1.
</event>
<event>
 5   0  0.3564340E-06  0.2864409E+04  0.7818609E-02  0.8283546E-01
       -1   -1    0    0    0  501  0.00000000000E+00  0.00000000000E+00  0.15566654361E+04  0.15566654361E+04  0.50400001928E-02 0.  1.
        1   -1    0    0  501    0  0.00000000000E+00  0.00000000000E+00 -0.13176946384E+04  0.13176946384E+04  0.50400001928E-02 0. -1.
    10030    2    1    2    0    0  0.00000000000E+00  0.00000000000E+00  0.23897079766E+03  0.28743600745E+04  0.28644089785E+04 0.  0.
        1    1    3    3  502    0 -0.12162434659E+04  0.74424473796E+03 -0.15373824897E+02  0.14259680056E+04  0.50400001928E-02 0. -1.
       -1    1    3    3    0  502  0.12162434659E+04 -0.74424473796E+03  0.25434462255E+03  0.14483920690E+04  0.50400001928E-02 0.  1.
</event>
<event>
 5   0  0.9251510E-06  0.2917130E+04  0.7818609E-02  0.8267799E-01
        2   -1    0    0  501    0  0.00000000000E+00  0.00000000000E+00  0.21770493372E+04  0.21770493372E+04  0.25500000920E-02 0. -1.
       -2   -1    0    0    0  501  0.00000000000E+00  0.00000000000E+00 -0.97719971619E+03  0.97719971620E+03  0.25500000920E-02 0.  1.
    10030    2    1    2    0    0  0.00000000000E+00  0.00000000000E+00  0.11998496210E+04  0.31542490534E+04  0.29171300927E+04 0.  0.
        2    1    3    3  502    0 -0.86409861059E+03  0.38422630047E+03 -0.60079618283E+03  0.11203804319E+04  0.25500000920E-02 0.  1.
       -2    1    3    3    0  502  0.86409861059E+03 -0.38422630047E+03  0.18006458038E+04  0.20338686215E+04  0.25500000920E-02 0. -1.
</event>
<event>
 5   0  0.9646321E-06  0.2891549E+04  0.7818609E-02  0.8275396E-01
        2   -1    0    0  501    0  0.00000000000E+00  0.00000000000E+00  0.30977603780E+04  0.30977603780E+04  0.25500000920E-02 0.  1.
       -2   -1    0    0    0  501  0.00000000000E+00  0.00000000000E+00 -0.67476616629E+03  0.67476616630E+03  0.25500000920E-02 0. -1.
    10030    2    1    2    0    0  0.00000000000E+00  0.00000000000E+00  0.24229942117E+04  0.37725265443E+04  0.28915489927E+04 0.  0.
        3    1    3    3  502    0 -0.93875451340E+03  0.98944954960E+03  0.18371874751E+04  0.22881276792E+04  0.10100000352E+00 0.  1.
       -3    1    3    3    0  502  0.93875451340E+03 -0.98944954960E+03  0.58580673656E+03  0.14843988650E+04  0.10100000352E+00 0. -1.
</event>
<event>
 5   0  0.3486236E-06  0.2891856E+04  0.7818609E-02  0.8275305E-01
       -1   -1    0    0    0  501  0.00000000000E+00  0.00000000000E+00  0.10750347850E+04  0.10750347850E+04  0.50400001928E-02 0.  1.
        1   -1    0    0  501    0  0.00000000000E+00  0.00000000000E+00 -0.19447813628E+04  0.19447813628E+04  0.50400001928E-02 0. -1.
    10030    2    1    2    0    0  0.00000000000E+00  0.00000000000E+00 -0.86974657782E+03  0.30198161478E+04  0.28918558845E+04 0.  0.
        5    1    3    3  502    0 -0.98969404202E+03 -0.10214632115E+04 -0.70678752567E+03  0.15882229332E+04  0.46999998093E+01 0.  1.
       -5    1    3    3    0  502  0.98969404202E+03  0.10214632115E+04 -0.16295905215E+03  0.14315932145E+04  0.46999998093E+01 0. -1.
</event>
<event>
 5   0  0.9360689E-06  0.2718136E+04  0.7818609E-02  0.8329144E-01
       -2   -1    0    0    0  501  0.00000000000E+00  0.00000000000E+00  0.11667297648E+04  0.11667297648E+04  0.25500000920E-02 0.  1.
        2   -1    0    0  501    0  0.00000000000E+00  0.00000000000E+00 -0.15831133509E+04  0.15831133509E+04  0.25500000920E-02 0. -1.
    10030    2    1    2    0    0  0.00000000000E+00  0.00000000000E+00 -0.41638358608E+03  0.27498431158E+04  0.27181357344E+04 0.  0.
        5    1    3    3  502    0  0.48571318714E+02  0.55961846291E+03  0.10437867656E+04  0.11853458985E+04  0.46999998093E+01 0.  1.
       -5    1    3    3    0  502 -0.48571318714E+02 -0.55961846291E+03 -0.14601703517E+04  0.15644972173E+04  0.46999998093E+01 0. -1.
</event>
<event>
 5   0  0.9360689E-06  0.2856719E+04  0.7818609E-02  0.8285872E-01
        2   -1    0    0  501    0  0.00000000000E+00  0.00000000000E+00  0.11472554050E+04  0.11472554051E+04  0.25500000920E-02 0. -1.
       -2   -1    0    0    0  501  0.00000000000E+00  0.00000000000E+00 -0.17783411496E+04  0.17783411496E+04  0.25500000920E-02 0.  1.
    10030    2    1    2    0    0  0.00000000000E+00  0.00000000000E+00 -0.63108574453E+03  0.29255965546E+04  0.28567194443E+04 0.  0.
        5    1    3    3  502    0 -0.38946873418E+03  0.13490384629E+04 -0.47314383033E+02  0.14049382229E+04  0.46999998093E+01 0.  1.
       -5    1    3    3    0  502  0.38946873418E+03 -0.13490384629E+04 -0.58377136150E+03  0.15206583317E+04  0.46999998093E+01 0. -1.
</event>
<event>
 5   0  0.9360689E-06  0.2923151E+04  0.7818609E-02  0.8266023E-01
       -2   -1    0    0    0  501  0.00000000000E+00  0.00000000000E+00  0.10308828553E+04  0.10308828553E+04  0.25500000920E-02 0.  1.
        2   -1    0    0  501    0  0.00000000000E+00  0.00000000000E+00 -0.20722072694E+04  0.20722072694E+04  0.25500000920E-02 0. -1.
    10030    2    1    2    0    0  0.00000000000E+00  0.00000000000E+00 -0.10413244141E+04  0.31030901247E+04  0.29231510030E+04 0.  0.
        5    1    3    3  502    0  0.57454436909E+03  0.10674740607E+04  0.34603794412E+03  0.12607007778E+04  0.46999998093E+01 0.  1.
       -5    1    3    3    0  502 -0.57454436909E+03 -0.10674740607E+04 -0.13873623582E+04  0.18423893469E+04  0.46999998093E+01 0. -1.
</event>
<event>
 5   0  0.3564340E-06  0.2967861E+04  0.7818609E-02  0.8252968E-01
        1   -1    0    0  501    0  0.00000000000E+00  0.00000000000E+00  0.29927738522E+04  0.29927738522E+04  0.50400001928E-02 0. -1.
       -1   -1    0    0    0  501  0.00000000000E+00  0.00000000000E+00 -0.73578909199E+03  0.73578909201E+03  0.50400001928E-02 0.  1.
    10030    2    1    2    0    0  0.00000000000E+00  0.00000000000E+00  0.22569847602E+04  0.37285629442E+04  0.29678614222E+04 0.  0.
        1    1    3    3  502    0  0.31170305996E+03  0.49897026196E+03  0.28399947858E+04  0.29002931754E+04  0.50400001928E-02 0. -1.
       -1    1    3    3    0  502 -0.31170305996E+03 -0.49897026196E+03 -0.58301002561E+03  0.82826976879E+03  0.50400001928E-02 0.  1.
</event>
<event>
 5   0  0.9505359E-06  0.2936588E+04  0.7818609E-02  0.8262074E-01
        2   -1    0    0  501    0  0.00000000000E+00  0.00000000000E+00  0.15144145916E+04  0.15144145916E+04  0.25500000920E-02 0. -1.
       -2   -1    0    0    0  501  0.00000000000E+00  0.00000000000E+00 -0.14235775425E+04  0.14235775425E+04  0.25500000920E-02 0.  1.
    10030    2    1    2    0    0  0.00000000000E+00  0.00000000000E+00  0.90837049060E+02  0.29379921341E+04  0.29365875452E+04 0.  0.
        4    1    3    3  502    0 -0.12482420598E+04 -0.30405169031E+03  0.75662372673E+03  0.14909851599E+04  0.12699999809E+01 0. -1.
       -4    1    3    3    0  502  0.12482420598E+04  0.30405169031E+03 -0.66578667767E+03  0.14470069742E+04  0.12699999809E+01 0.  1.
</event>
<event>
 5   0  0.3564340E-06  0.2880724E+04  0.7818609E-02  0.8278636E-01
       -1   -1    0    0    0  501  0.00000000000E+00  0.00000000000E+00  0.13291021754E+04  0.13291021754E+04  0.50400001928E-02 0. -1.
        1   -1    0    0  501    0  0.00000000000E+00  0.00000000000E+00 -0.15609349749E+04  0.15609349749E+04  0.50400001928E-02 0.  1.
    10030    2    1    2    0    0  0.00000000000E+00  0.00000000000E+00 -0.23183279948E+03  0.28900371503E+04  0.28807235694E+04 0.  0.
        1    1    3    3  502    0  0.18736065568E+03 -0.11622307278E+04  0.71668109875E+03  0.13782293268E+04  0.50400001928E-02 0. -1.
       -1    1    3    3    0  502 -0.18736065568E+03  0.11622307278E+04 -0.94851389823E+03  0.15118078235E+04  0.50400001928E-02 0.  1.
</event>
<event>
 5   0  0.3474078E-06  0.2484261E+04  0.7818609E-02  0.8408614E-01
       -1   -1    0    0    0  501  0.00000000000E+00  0.00000000000E+00  0.15618639640E+04  0.15618639640E+04  0.50400001928E-02 0. -1.
        1   -1    0    0  501    0  0.00000000000E+00  0.00000000000E+00 -0.98785090799E+03  0.98785090800E+03  0.50400001928E-02 0.  1.
    10030    2    1    2    0    0  0.00000000000E+00  0.00000000000E+00  0.57401305601E+03  0.25497148720E+04  0.24842614476E+04 0.  0.
        3    1    3    3  502    0  0.12025293850E+04  0.14606149362E+03  0.50357788896E+01  0.12113778316E+04  0.10100000352E+00 0.  1.
       -3    1    3    3    0  502 -0.12025293850E+04 -0.14606149362E+03  0.56897727712E+03  0.13383370404E+04  0.10100000352E+00 0. -1.
</event>
<event>
 5   0  0.3649705E-06  0.2613494E+04  0.7818609E-02  0.8363632E-01
       -1   -1    0    0    0  501  0.00000000000E+00  0.00000000000E+00  0.61030595971E+03  0.61030595973E+03  0.50400001928E-02 0. -1.
        1   -1    0    0  501    0  0.00000000000E+00  0.00000000000E+00 -0.27979209547E+04  0.27979209547E+04  0.50400001928E-02 0.  1.
    10030    2    1    2    0    0  0.00000000000E+00  0.00000000000E+00 -0.21876149950E+04  0.34082269144E+04  0.26134940853E+04 0.  0.
        2    1    3    3  502    0  0.33556814726E+03  0.12510377338E+04 -0.86836069598E+03  0.15594074808E+04  0.25500000920E-02 0. -1.
       -2    1    3    3    0  502 -0.33556814726E+03 -0.12510377338E+04 -0.13192542990E+04  0.18488194337E+04  0.25500000920E-02 0.  1.
</event>
<event>
 5   0  0.9505359E-06  0.2938740E+04  0.7818609E-02  0.8261444E-01
       -2   -1    0    0    0  501  0.00000000000E+00  0.00000000000E+00  0.19512592649E+04  0.19512592649E+04  0.25500000920E-02 0. -1.
        2   -1    0    0  501    0  0.00000000000E+00  0.00000000000E+00 -0.11064894132E+04  0.11064894133E+04  0.25500000920E-02 0.  1.
    10030    2    1    2    0    0  0.00000000000E+00  0.00000000000E+00  0.84476985163E+03  0.30577486781E+04  0.29387396748E+04 0.  0.
        4    1    3    3  502    0 -0.38155562319E+02  0.98258916529E+03  0.15584379869E+04  0.18427338079E+04  0.12699999809E+01 0. -1.
       -4    1    3    3    0  502  0.38155562319E+02 -0.98258916529E+03 -0.71366813530E+03  0.12150148703E+04  0.12699999809E+01 0.  1.
</event>
<event>
 5   0  0.3746518E-06  0.2796302E+04  0.7818609E-02  0.8304417E-01
        1   -1    0    0  501    0  0.00000000000E+00  0.00000000000E+00  0.21352440607E+04  0.21352440607E+04  0.50400001928E-02 0. -1.
       -1   -1    0    0    0  501  0.00000000000E+00  0.00000000000E+00 -0.91550481268E+03  0.91550481270E+03  0.50400001928E-02 0.  1.
    10030    2    1    2    0    0  0.00000000000E+00  0.00000000000E+00  0.12197392480E+04  0.30507488734E+04  0.27963019965E+04 0.  0.
        4    1    3    3  502    0  0.12049729825E+04  0.67474665342E+03  0.37188866567E+03  0.14302257610E+04  0.12699999809E+01 0. -1.
       -4    1    3    3    0  502 -0.12049729825E+04 -0.67474665342E+03  0.84785058236E+03  0.16205231124E+04  0.12699999809E+01 0.  1.
</event>
<event>
 5   0  0.3474078E-06  0.2926546E+04  0.7818609E-02  0.8265023E-01
       -1   -1    0    0    0  501  0.00000000000E+00  0.00000000000E+00  0.16739662752E+04  0.16739662752E+04  0.50400001928E-02 0. -1.
        1   -1    0    0  501    0  0.00000000000E+00  0.00000000000E+00 -0.12790983539E+04  0.12790983539E+04  0.50400001928E-02 0.  1.
    10030    2    1    2    0    0  0.00000000000E+00  0.00000000000E+00  0.39486792129E+03  0.29530646291E+04  0.29265457502E+04 0.  0.
        3    1    3    3  502    0 -0.80344629614E+03  0.37986240987E+03 -0.97557391936E+03  0.13196840090E+04  0.10100000352E+00 0.  1.
       -3    1    3    3    0  502  0.80344629614E+03 -0.37986240987E+03  0.13704418407E+04  0.16333806201E+04  0.10100000352E+00 0. -1.
</event>
<event>
 5   0  0.1001573E-05  0.2600549E+04  0.7818609E-02  0.8368015E-01
        2   -1    0    0  501    0  0.00000000000E+00  0.00000000000E+00  0.18657549012E+04  0.18657549012E+04  0.25500000920E-02 0.  1.
       -2   -1    0    0    0  501  0.00000000000E+00  0.00000000000E+00 -0.90618211428E+03  0.90618211428E+03  0.25500000920E-02 0. -1.
    10030    2    1    2    0    0  0.00000000000E+00  0.00000000000E+00  0.95957278697E+03  0.27719370155E+04  0.26005489583E+04 0.  0.
        1    1    3    3  502    0 -0.10093598316E+04 -0.11372649646E+03  0.13450571912E+04  0.16855028429E+04  0.50400001928E-02 0.  1.
       -1    1    3    3    0  502  0.10093598316E+04  0.11372649646E+03 -0.38548440425E+03  0.10864341727E+04  0.50400001928E-02 0. -1.
</event>
<event>
 5   0  0.9360689E-06  0.2823807E+04  0.7818609E-02  0.8295915E-01
       -2   -1    0    0    0  501  0.00000000000E+00  0.00000000000E+00  0.13362138255E+04  0.13362138255E+04  0.25500000920E-02 0.  1.
        2   -1    0    0  501    0  0.00000000000E+00  0.00000000000E+00 -0.14918802921E+04  0.14918802921E+04  0.25500000920E-02 0. -1.
    10030    2    1    2    0    0  0.00000000000E+00  0.00000000000E+00 -0.15566646664E+03  0.28280941176E+04  0.28238067018E+04 0.  0.
        5    1    3    3  502    0 -0.75075321144E+03 -0.11785815572E+04 -0.28004102253E+03  0.14251771594E+04  0.46999998093E+01 0.  1.
       -5    1    3    3    0  502  0.75075321144E+03  0.11785815572E+04  0.12437455589E+03  0.14029169582E+04  0.46999998093E+01 0. -1.
</event>
<event>
 5   0  0.3746518E-06  0.2148824E+04  0.7818609E-02  0.8540036E-01
        1   -1    0    0  501    0  0.00000000000E+00  0.00000000000E+00  0.16949448228E+04  0.16949448228E+04  0.50400001928E-02 0. -1.
       -1   -1    0    0    0  501  0.00000000000E+00  0.00000000000E+00 -0.68106120272E+03  0.68106120274E+03  0.50400001928E-02 0.  1.
    10030    2    1    2    0    0  0.00000000000E+00  0.00000000000E+00  0.10138836201E+04  0.23760060255E+04  0.21488240129E+04 0.  0.
        4    1    3    3  502    0 -0.10798970031E+03 -0.26700346875E+03  0.16514631969E+04  0.16763904472E+04  0.12699999809E+01 0. -1.
       -4    1    3    3    0  502  0.10798970031E+03  0.26700346875E+03 -0.63757957687E+03  0.69961557833E+03  0.12699999809E+01 0.  1.
</event>
<event>
 5   0  0.9505359E-06  0.2294923E+04  0.7818609E-02  0.8479926E-01
        2   -1    0    0  501    0  0.00000000000E+00  0.00000000000E+00  0.23342095302E+04  0.23342095302E+04  0.25500000920E-02 0.  1.
       -2   -1    0    0    0  501  0.00000000000E+00  0.00000000000E+00 -0.56407440331E+03  0.56407440332E+03  0.25500000920E-02 0. -1.
    10030    2    1    2    0    0  0.00000000000E+00  0.00000000000E+00  0.17701351269E+04  0.28982839335E+04  0.22949229599E+04 0.  0.
        4    1    3    3  502    0 -0.69454167526E+02 -0.45169724751E+03  0.22143150300E+04  0.22609836244E+04  0.12699999809E+01 0.  1.
       -4    1    3    3    0  502  0.69454167526E+02  0.45169724751E+03 -0.44417990310E+03  0.63730030913E+03  0.12699999809E+01 0. -1.
</event>
<event>
 5   0  0.9251510E-06  0.2884571E+04  0.7818609E-02  0.8277483E-01
       -2   -1    0    0    0  501  0.00000000000E+00  0.00000000000E+00  0.12383642341E+04  0.12383642341E+04  0.25500000920E-02 0. -1.
        2   -1    0    0  501    0  0.00000000000E+00  0.00000000000E+00 -0.16797868133E+04  0.16797868133E+04  0.25500000920E-02 0.  1.
    10030    2    1    2    0    0  0.00000000000E+00  0.00000000000E+00 -0.44142257925E+03  0.29181510474E+04  0.28845713099E+04 0.  0.
        2    1    3    3  502    0  0.13825137889E+04 -0.30860126046E+03  0.53756475152E+02  0.14175573614E+04  0.25500000920E-02 0.  1.
       -2    1    3    3    0  502 -0.13825137889E+04  0.30860126046E+03 -0.49517905440E+03  0.15005936859E+04  0.25500000920E-02 0. -1.
</event>
<event>
 5   0  0.3564340E-06  0.2899259E+04  0.7818609E-02  0.8273098E-01
        1   -1    0    0  501    0  0.00000000000E+00  0.00000000000E+00  0.20891322234E+04  0.20891322234E+04  0.50400001928E-02 0.  1.
       -1   -1    0    0    0  501  0.00000000000E+00  0.00000000000E+00 -0.10058845104E+04  0.10058845105E+04  0.50400001928E-02 0. -1.
    10030    2    1    2    0    0  0.00000000000E+00  0.00000000000E+00  0.10832477129E+04  0.30950167338E+04  0.28992590390E+04 0.  0.
        1    1    3    3  502    0  0.20993913242E+03 -0.16281312169E+03 -0.97967373372E+03  0.10150582133E+04  0.50400001928E-02 0. -1.
       -1    1    3    3    0  502 -0.20993913242E+03  0.16281312169E+03  0.20629214466E+04  0.20799585205E+04  0.50400001928E-02 0.  1.
</event>
<event>
 5   0  0.9251510E-06  0.2110380E+04  0.7818609E-02  0.8556685E-01
       -2   -1    0    0    0  501  0.00000000000E+00  0.00000000000E+00  0.10794904668E+04  0.10794904668E+04  0.25500000920E-02 0. -1.
        2   -1    0    0  501    0  0.00000000000E+00  0.00000000000E+00 -0.10314364327E+04  0.10314364327E+04  0.25500000920E-02 0.  1.
    10030    2    1    2    0    0  0.00000000000E+00  0.00000000000E+00  0.48054034093E+02  0.21109268996E+04  0.21103798675E+04 0.  0.
        2    1    3    3  502    0  0.67364065631E+03  0.69679815029E+03  0.44139576552E+03  0.10649646088E+04  0.25500000920E-02 0. -1.
       -2    1    3    3    0  502 -0.67364065631E+03 -0.69679815029E+03 -0.39334173143E+03  0.10459622908E+04  0.25500000920E-02 0.  1.
</event>
<event>
 5   0  0.3649705E-06  0.2847225E+04  0.7818609E-02  0.8288755E-01
        1   -1    0    0  501    0  0.00000000000E+00  0.00000000000E+00  0.14681836753E+04  0.14681836753E+04  0.50400001928E-02 0.  1.
       -1   -1    0    0    0  501  0.00000000000E+00  0.00000000000E+00 -0.13803946909E+04  0.13803946909E+04  0.50400001928E-02 0. -1.
    10030    2    1    2    0    0  0.00000000000E+00  0.00000000000E+00  0.87788984331E+02  0.28485783662E+04  0.28472252813E+04 0.  0.
        2    1    3    3  502    0 -0.71330403625E+03  0.45573133221E+02 -0.11878662124E+04  0.13863281347E+04  0.25500000920E-02 0. -1.
       -2    1    3    3    0  502  0.71330403625E+03 -0.45573133221E+02  0.12756551967E+04  0.14622502315E+04  0.25500000920E-02 0.  1.
</event>
<event>
 5   0  0.3746518E-06  0.2892080E+04  0.7818609E-02  0.8275238E-01
        1   -1    0    0  501    0  0.00000000000E+00  0.00000000000E+00  0.28666548855E+04  0.28666548855E+04  0.50400001928E-02 0. -1.
       -1   -1    0    0    0  501  0.00000000000E+00  0.00000000000E+00 -0.72943288675E+03  0.72943288677E+03  0.50400001928E-02 0.  1.
    10030    2    1    2    0    0  0.00000000000E+00  0.00000000000E+00  0.21372219988E+04  0.35960877723E+04  0.28920804612E+04 0.  0.
        4    1    3    3  502    0 -0.57505961710E+03 -0.99182734601E+03 -0.27168047095E+02  0.11468019721E+04  0.12699999809E+01 0.  1.
       -4    1    3    3    0  502  0.57505961710E+03  0.99182734601E+03  0.21643900459E+04  0.24492858002E+04  0.12699999809E+01 0. -1.
</event>
<event>
 5   0  0.1001573E-05  0.2923989E+04  0.7818609E-02  0.8265776E-01
        2   -1    0    0  501    0  0.00000000000E+00  0.00000000000E+00  0.14057561957E+04  0.14057561957E+04  0.25500000920E-02 0.  1.
       -2   -1    0    0    0  501  0.00000000000E+00  0.00000000000E+00 -0.15204823469E+04  0.15204823469E+04  0.25500000920E-02 0. -1.
    10030    2    1    2    0    0  0.00000000000E+00  0.00000000000E+00 -0.11472615112E+03  0.29262385426E+04  0.29239887001E+04 0.  0.
        1    1    3    3  502    0  0.62911651200E+03 -0.87522600860E+03  0.93113137168E+03  0.14243643435E+04  0.50400001928E-02 0.  1.
       -1    1    3    3    0  502 -0.62911651200E+03  0.87522600860E+03 -0.10458575228E+04  0.15018741991E+04  0.50400001928E-02 0. -1.
</event>
<event>
 5   0  0.9251510E-06  0.3012627E+04  0.7818609E-02  0.8240134E-01
        2   -1    0    0  501    0  0.00000000000E+00  0.00000000000E+00  0.18145622690E+04  0.18145622690E+04  0.25500000920E-02 0. -1.
       -2   -1    0    0    0  501  0.00000000000E+00  0.00000000000E+00 -0.12504283930E+04  0.12504283930E+04  0.25500000920E-02 0.  1.
    10030    2    1    2    0    0  0.00000000000E+00  0.00000000000E+00  0.56413387597E+03  0.30649906620E+04  0.30126268816E+04 0.  0.
        2    1    3    3  502    0  0.14455598188E+04  0.87080376089E+02  0.70370250565E+03  0.16101004311E+04  0.25500000920E-02 0. -1.
       -2    1    3    3    0  502 -0.14455598188E+04 -0.87080376089E+02 -0.13956862969E+03  0.14548902309E+04  0.25500000920E-02 0.  1.
</event>
<event>
 5   0  0.3564340E-06  0.2885620E+04  0.7818609E-02  0.8277169E-01
       -1   -1    0    0    0  501  0.00000000000E+00  0.00000000000E+00  0.13463025238E+04  0.13463025238E+04  0.50400001928E-02 0. -1.
        1   -1    0    0  501    0  0.00000000000E+00  0.00000000000E+00 -0.15462359138E+04  0.15462359138E+04  0.50400001928E-02 0.  1.
    10030    2    1    2    0    0  0.00000000000E+00  0.00000000000E+00 -0.19993338999E+03  0.28925384375E+04  0.28856204276E+04 0.  0.
        1    1    3    3  502    0  0.71772092464E+03  0.12166944313E+04  0.19439127354E+03  0.14259230807E+04  0.50400001928E-02 0. -1.
       -1    1    3    3    0  502 -0.71772092464E+03 -0.12166944313E+04 -0.39432466354E+03  0.14666153569E+04  0.50400001928E-02 0.  1.
</event>
<event>
 5   0  0.3649705E-06  0.2890662E+04  0.7818609E-02  0.8275661E-01
       -1   -1    0    0    0  501  0.00000000000E+00  0.00000000000E+00  0.11297352408E+04  0.11297352408E+04  0.50400001928E-02 0.  1.
        1   -1    0    0  501    0  0.00000000000E+00  0.00000000000E+00 -0.18490901090E+04  0.18490901090E+04  0.50400001928E-02 0. -1.
    10030    2    1    2    0    0  0.00000000000E+00  0.00000000000E+00 -0.71935486826E+03  0.29788253498E+04  0.28906623875E+04 0.  0.
        2    1    3    3  502    0  0.47179987181E+03  0.10329108144E+04 -0.12810857352E+04  0.17119230504E+04  0.25500000920E-02 0. -1.
       -2    1    3    3    0  502 -0.47179987181E+03 -0.10329108144E+04  0.56173086696E+03  0.12669022994E+04  0.25500000920E-02 0.  1.
</event>
<event>
 5   0  0.1001573E-05  0.2821107E+04  0.7818609E-02  0.8296745E-01
       -2   -1    0    0    0  501  0.00000000000E+00  0.00000000000E+00  0.11869577981E+04  0.11869577981E+04  0.25500000920E-02 0.  1.
        2   -1    0    0  501    0  0.00000000000E+00  0.00000000000E+00 -0.16762695290E+04  0.16762695291E+04  0.25500000920E-02 0. -1.
    10030    2    1    2    0    0  0.00000000000E+00  0.00000000000E+00 -0.48931173095E+03  0.28632273272E+04  0.28211070091E+04 0.  0.
        1    1    3    3  502    0 -0.11100232604E+04  0.86580117063E+03 -0.15445896060E+03  0.14161994479E+04  0.50400001928E-02 0.  1.
       -1    1    3    3    0  502  0.11100232604E+04 -0.86580117063E+03 -0.33485277034E+03  0.14470278793E+04  0.50400001928E-02 0. -1.
</event>
<event>
 5   0  0.3649705E-06  0.2947777E+04  0.7818609E-02  0.8258803E-01
       -1   -1    0    0    0  501  0.00000000000E+00  0.00000000000E+00  0.12994486589E+04  0.12994486589E+04  0.50400001928E-02 0. -1.
        1   -1    0    0  501    0  0.00000000000E+00  0.00000000000E+00 -0.16717449194E+04  0.16717449194E+04  0.50400001928E-02 0.  1.
    10030    2    1    2    0    0  0.00000000000E+00  0.00000000000E+00 -0.37229626044E+03  0.29711935783E+04  0.29477765814E+04 0.  0.
        2    1    3    3  502    0 -0.18737553934E+03  0.14520029251E+04 -0.35757153284E+03  0.15070764706E+04  0.25500000920E-02 0. -1.
       -2    1    3    3    0  502  0.18737553934E+03 -0.14520029251E+04 -0.14724727605E+02  0.14641171076E+04  0.25500000920E-02 0.  1.
</event>
<event>
 5   0  0.3474078E-06  0.2808558E+04  0.7818609E-02  0.8300616E-01
       -1   -1    0    0    0  501  0.00000000000E+00  0.00000000000E+00  0.18151122129E+04  0.18151122129E+04  0.50400001928E-02 0.  1.
        1   -1    0    0  501    0  0.00000000000E+00  0.00000000000E+00 -0.10864343186E+04  0.10864343186E+04  0.50400001928E-02 0. -1.
    10030    2    1    2    0    0  0.00000000000E+00  0.00000000000E+00  0.72867789426E+03  0.29015465315E+04  0.28085584916E+04 0.  0.
        3    1    3    3  502    0 -0.55710192849E+02 -0.81474491850E+03  0.15445667615E+04  0.17471689669E+04  0.10100000352E+00 0.  1.
       -3    1    3    3    0  502  0.55710192849E+02  0.81474491850E+03 -0.81588886727E+03  0.11543775646E+04  0.10100000352E+00 0. -1.
</event>
<event>
 5   0  0.9505359E-06  0.2876234E+04  0.7818609E-02  0.8279984E-01
        2   -1    0    0  501    0  0.00000000000E+00  0.00000000000E+00  0.12750265564E+04  0.12750265564E+04  0.25500000920E-02 0. -1.
       -2   -1    0    0    0  501  0.00000000000E+00  0.00000000000E+00 -0.16220686290E+04  0.16220686290E+04  0.25500000920E-02 0.  1.
    10030    2    1    2    0    0  0.00000000000E+00  0.00000000000E+00 -0.34704207253E+03  0.28970951854E+04  0.28762340505E+04 0.  0.
        4    1    3    3  502    0  0.12690471031E+04  0.47542575333E+03  0.31128976386E+03  0.13904722675E+04  0.12699999809E+01 0. -1.
       -4    1    3    3    0  502 -0.12690471031E+04 -0.47542575333E+03 -0.65833183639E+03  0.15066229178E+04  0.12699999809E+01 0.  1.
</event>
<event>
 5   0  0.9505359E-06  0.2900327E+04  0.7818609E-02  0.8272780E-01
       -2   -1    0    0    0  501  0.00000000000E+00  0.00000000000E+00  0.27403762492E+04  0.27403762492E+04  0.25500000920E-02 0. -1.
        2   -1    0    0  501    0  0.00000000000E+00  0.00000000000E+00 -0.76740354758E+03  0.76740354758E+03  0.25500000920E-02 0.  1.
    10030    2    1    2    0    0  0.00000000000E+00  0.00000000000E+00  0.19729727016E+04  0.35077797968E+04  0.29003271921E+04 0.  0.
        4    1    3    3  502    0 -0.96890505693E+03  0.19747094242E+03 -0.29643606791E+03  0.10323021543E+04  0.12699999809E+01 0.  1.
       -4    1    3    3    0  502  0.96890505693E+03 -0.19747094242E+03  0.22694087695E+04  0.24754776425E+04  0.12699999809E+01 0. -1.
</event>
<event>
 5   0  0.9505359E-06  0.2941107E+04  0.7818609E-02  0.8260751E-01
        2   -1    0    0  501    0  0.00000000000E+00  0.00000000000E+00  0.30338013286E+04  0.30338013286E+04  0.25500000920E-02 0. -1.
       -2   -1    0    0    0  501  0.00000000000E+00  0.00000000000E+00 -0.71281101965E+03  0.71281101965E+03  0.25500000920E-02 0.  1.
    10030    2    1    2    0    0  0.00000000000E+00  0.00000000000E+00  0.23209903089E+04  0.37466123482E+04  0.29411066070E+04 0.  0.
        4    1    3    3  502    0 -0.92014531902E+03  0.66875018411E+03 -0.26764480849E+02  0.11378102510E+04  0.12699999809E+01 0.  1.
       -4    1    3    3    0  502  0.92014531902E+03 -0.66875018411E+03  0.23477547898E+04  0.26088020973E+04  0.12699999809E+01 0. -1.
</event>
<event>
 5   0  0.9646321E-06  0.2880912E+04  0.7818609E-02  0.8278579E-01
        2   -1    0    0  501    0  0.00000000000E+00  0.00000000000E+00  0.10787760122E+04  0.10787760122E+04  0.25500000920E-02 0.  1.
       -2   -1    0    0    0  501  0.00000000000E+00  0.00000000000E+00 -0.19233966832E+04  0.19233966832E+04  0.25500000920E-02 0. -1.
    10030    2    1    2    0    0  0.00000000000E+00  0.00000000000E+00 -0.84462067105E+03  0.30021726954E+04  0.28809124970E+04 0.  0.
        3    1    3    3  502    0 -0.49038784668E+01 -0.11871499516E+04  0.42785009224E+03  0.12619052133E+04  0.10100000352E+00 0.  1.
       -3    1    3    3    0  502  0.49038784668E+01  0.11871499516E+04 -0.12724707633E+04  0.17402674821E+04  0.10100000352E+00 0. -1.
</event>
<event>
 5   0  0.3564340E-06  0.2888770E+04  0.7818609E-02  0.8276227E-01
       -1   -1    0    0    0  501  0.00000000000E+00  0.00000000000E+00  0.12657277320E+04  0.12657277320E+04  0.50400001928E-02 0. -1.
        1   -1    0    0  501    0  0.00000000000E+00  0.00000000000E+00 -0.16482597716E+04  0.16482597716E+04  0.50400001928E-02 0.  1.
    10030    2    1    2    0    0  0.00000000000E+00  0.00000000000E+00 -0.38253203964E+03  0.29139875036E+04  0.28887700514E+04 0.  0.
        1    1    3    3  502    0  0.11899573123E+04 -0.78512200164E+03  0.42779088200E+02  0.14262696144E+04  0.50400001928E-02 0. -1.
       -1    1    3    3    0  502 -0.11899573123E+04  0.78512200164E+03 -0.42531112784E+03  0.14877178892E+04  0.50400001928E-02 0.  1.
</event>
<event>
 5   0  0.9251510E-06  0.2890628E+04  0.7818609E-02  0.8275671E-01
        2   -1    0    0  501    0  0.00000000000E+00  0.00000000000E+00  0.13127892936E+04  0.13127892936E+04  0.25500000920E-02 0.  1.
       -2   -1    0    0    0  501  0.00000000000E+00  0.00000000000E+00 -0.15912171856E+04  0.15912171856E+04  0.25500000920E-02 0. -1.
    10030    2    1    2    0    0  0.00000000000E+00  0.00000000000E+00 -0.27842789199E+03  0.29040064791E+04  0.28906282258E+04 0.  0.
        2    1    3    3  502    0 -0.61679300807E+03 -0.14141139524E+03  0.11662237306E+04  0.13268415834E+04  0.25500000920E-02 0.  1.
       -2    1    3    3    0  502  0.61679300807E+03  0.14141139524E+03 -0.14446516226E+04  0.15771648957E+04  0.25500000920E-02 0. -1.
</event>
<event>
 5   0  0.1001573E-05  0.2882484E+04  0.7818609E-02  0.8278108E-01
        2   -1    0    0  501    0  0.00000000000E+00  0.00000000000E+00  0.11293719110E+04  0.11293719110E+04  0.25500000920E-02 0.  1.
       -2   -1    0    0    0  501  0.00000000000E+00  0.00000000000E+00 -0.18392339841E+04  0.18392339841E+04  0.25500000920E-02 0. -1.
    10030    2    1    2    0    0  0.00000000000E+00  0.00000000000E+00 -0.70986207312E+03  0.29686058951E+04  0.28824844834E+04 0.  0.
        1    1    3    3  502    0  0.42989993666E+02  0.14277831120E+04 -0.55240570200E+03  0.15315236903E+04  0.50400001928E-02 0. -1.
       -1    1    3    3    0  502 -0.42989993666E+02 -0.14277831120E+04 -0.15745637112E+03  0.14370822047E+04  0.50400001928E-02 0.  1.
</event>
<event>
 5   0  0.3649705E-06  0.2909050E+04  0.7818609E-02  0.8270190E-01
        1   -1    0    0  501    0  0.00000000000E+00  0.00000000000E+00  0.17625456656E+04  0.17625456656E+04  0.50400001928E-02 0.  1.
       -1   -1    0    0    0  501  0.00000000000E+00  0.00000000000E+00 -0.12003336500E+04  0.12003336500E+04  0.50400001928E-02 0. -1.
    10030    2    1    2    0    0  0.00000000000E+00  0.00000000000E+00  0.56221201560E+03  0.29628793156E+04  0.29090499289E+04 0.  0.
        2    1    3    3  502    0  0.32889698522E+03  0.81059569692E+03 -0.90246600402E+03  0.12568546054E+04  0.25500000920E-02 0. -1.
       -2    1    3    3    0  502 -0.32889698522E+03 -0.81059569692E+03  0.14646780196E+04  0.17060247102E+04  0.25500000920E-02 0.  1.
</event>
<event>
 5   0  0.3649705E-06  0.2450311E+04  0.7818609E-02  0.8420904E-01
        1   -1    0    0  501    0  0.00000000000E+00  0.00000000000E+00  0.20364984047E+04  0.20364984047E+04  0.50400001928E-02 0.  1.
       -1   -1    0    0    0  501  0.00000000000E+00  0.00000000000E+00 -0.73705248536E+03  0.73705248538E+03  0.50400001928E-02 0. -1.
    10030    2    1    2    0    0  0.00000000000E+00  0.00000000000E+00  0.12994459194E+04  0.27735508901E+04  0.24503111726E+04 0.  0.
        2    1    3    3  502    0  0.56292549841E+03  0.23397574407E+03 -0.55319015952E+03  0.82319445952E+03  0.25500000920E-02 0. -1.
       -2    1    3    3    0  502 -0.56292549841E+03 -0.23397574407E+03  0.18526360789E+04  0.19503564306E+04  0.25500000920E-02 0.  1.
</event>
<event>
 5   0  0.9505359E-06  0.3061545E+04  0.7818609E-02  0.8226371E-01
       -2   -1    0    0    0  501  0.00000000000E+00  0.00000000000E+00  0.89171061952E+03  0.89171061953E+03  0.25500000920E-02 0.  1.
        2   -1    0    0  501    0  0.00000000000E+00  0.00000000000E+00 -0.26278306449E+04  0.26278306449E+04  0.25500000920E-02 0. -1.
    10030    2    1    2    0    0  0.00000000000E+00  0.00000000000E+00 -0.17361200254E+04  0.35195412645E+04  0.30615450298E+04 0.  0.
        4    1    3    3  502    0 -0.13267142344E+04  0.75416840742E+03 -0.10056385780E+04  0.18276354147E+04  0.12699999809E+01 0. -1.
       -4    1    3    3    0  502  0.13267142344E+04 -0.75416840742E+03 -0.73048144738E+03  0.16919058498E+04  0.12699999809E+01 0.  1.
</event>
<event>
 5   0  0.9505359E-06  0.2923525E+04  0.7818609E-02  0.8265912E-01
        2   -1    0    0  501    0  0.00000000000E+00  0.00000000000E+00  0.17084705130E+04  0.17084705130E+04  0.25500000920E-02 0. -1.
       -2   -1    0    0    0  501  0.00000000000E+00  0.00000000000E+00 -0.12506800867E+04  0.12506800867E+04  0.25500000920E-02 0.  1.
    10030    2    1    2    0    0  0.00000000000E+00  0.00000000000E+00  0.45779042639E+03  0.29591505997E+04  0.29235253030E+04 0.  0.
        4    1    3    3  502    0 -0.58808514479E+03  0.19361759876E+02 -0.11255172517E+04  0.12700431929E+04  0.12699999809E+01 0.  1.
       -4    1    3    3    0  502  0.58808514479E+03 -0.19361759876E+02  0.15833076780E+04  0.16891074067E+04  0.12699999809E+01 0. -1.
</event>
<event>
 5   0  0.9505359E-06  0.2893179E+04  0.7818609E-02  0.8274910E-01
        2   -1    0    0  501    0  0.00000000000E+00  0.00000000000E+00  0.11066477422E+04  0.11066477422E+04  0.25500000920E-02 0.  1.
       -2   -1    0    0    0  501  0.00000000000E+00  0.00000000000E+00 -0.18909546858E+04  0.18909546858E+04  0.25500000920E-02 0. -1.
    10030    2    1    2    0    0  0.00000000000E+00  0.00000000000E+00 -0.78430694366E+03  0.29976024280E+04  0.28931786903E+04 0.  0.
        4    1    3    3  502    0  0.17799971379E+03 -0.72928038182E+03 -0.16733467089E+04  0.18340187007E+04  0.12699999809E+01 0. -1.
       -4    1    3    3    0  502 -0.17799971379E+03  0.72928038182E+03  0.88903976521E+03  0.11635837273E+04  0.12699999809E+01 0.  1.
</event>
<event>
 5   0  0.3474078E-06  0.2736065E+04  0.7818609E-02  0.8323397E-01
        1   -1    0    0  501    0  0.00000000000E+00  0.00000000000E+00  0.23758554395E+04  0.23758554395E+04  0.50400001928E-02 0.  1.
       -1   -1    0    0    0  501  0.00000000000E+00  0.00000000000E+00 -0.78772186639E+03  0.78772186641E+03  0.50400001928E-02 0. -1.
    10030    2    1    2    0    0  0.00000000000E+00  0.00000000000E+00  0.15881335731E+04  0.31635773059E+04  0.27360652632E+04 0.  0.
        3    1    3    3  502    0 -0.21765009623E+03 -0.74033072443E+03  0.21001961908E+04  0.22374729487E+04  0.10100000352E+00 0.  1.
       -3    1    3    3    0  502  0.21765009623E+03  0.74033072443E+03 -0.51206261768E+03  0.92610435727E+03  0.10100000352E+00 0. -1.
</event>
<event>
 5   0  0.3486236E-06  0.2417055E+04  0.7818609E-02  0.8433146E-01
       -1   -1    0    0    0  501  0.00000000000E+00  0.00000000000E+00  0.12355204460E+04  0.12355204460E+04  0.50400001928E-02 0. -1.
        1   -1    0    0  501    0  0.00000000000E+00  0.00000000000E+00 -0.11821238653E+04  0.11821238653E+04  0.50400001928E-02 0.  1.
    10030    2    1    2    0    0  0.00000000000E+00  0.00000000000E+00  0.53396580662E+02  0.24176443113E+04  0.24170545755E+04 0.  0.
        5    1    3    3  502    0  0.41470061009E+03 -0.21788214504E+02 -0.11085080425E+04  0.11837497592E+04  0.46999998093E+01 0.  1.
       -5    1    3    3    0  502 -0.41470061009E+03  0.21788214504E+02  0.11619046231E+04  0.12338945520E+04  0.46999998093E+01 0. -1.
</event>
<event>
 5   0  0.9251510E-06  0.2876368E+04  0.7818609E-02  0.8279944E-01
       -2   -1    0    0    0  501  0.00000000000E+00  0.00000000000E+00  0.18271061245E+04  0.18271061245E+04  0.25500000920E-02 0.  1.
        2   -1    0    0  501    0  0.00000000000E+00  0.00000000000E+00 -0.11320489125E+04  0.11320489125E+04  0.25500000920E-02 0. -1.
    10030    2    1    2    0    0  0.00000000000E+00  0.00000000000E+00  0.69505721196E+03  0.29591550370E+04  0.28763681970E+04 0.  0.
        2    1    3    3  502    0 -0.18387973493E+03  0.14015089539E+04  0.74689182203E+02  0.14154919918E+04  0.25500000920E-02 0. -1.
       -2    1    3    3    0  502  0.18387973493E+03 -0.14015089539E+04  0.62036802976E+03  0.15436630452E+04  0.25500000920E-02 0.  1.
</event>
<event>
 5   0  0.3649705E-06  0.2574015E+04  0.7818609E-02  0.8377082E-01
        1   -1    0    0  501    0  0.00000000000E+00  0.00000000000E+00  0.12165178735E+04  0.12165178735E+04  0.50400001928E-02 0.  1.
       -1   -1    0    0    0  501  0.00000000000E+00  0.00000000000E+00 -0.13615816754E+04  0.13615816754E+04  0.50400001928E-02 0. -1.
    10030    2    1    2    0    0  0.00000000000E+00  0.00000000000E+00 -0.14506380189E+03  0.25780995489E+04  0.25740151083E+04 0.  0.
        2    1    3    3  502    0  0.16748126226E+03  0.28527163040E+03 -0.13182734002E+04  0.13591448172E+04  0.25500000920E-02 0. -1.
       -2    1    3    3    0  502 -0.16748126226E+03 -0.28527163040E+03  0.11732095984E+04  0.12189547317E+04  0.25500000920E-02 0.  1.
</event>
<event>
 5   0  0.3649705E-06  0.2927189E+04  0.7818609E-02  0.8264834E-01
       -1   -1    0    0    0  501  0.00000000000E+00  0.00000000000E+00  0.16193725497E+04  0.16193725497E+04  0.50400001928E-02 0.  1.
        1   -1    0    0  501    0  0.00000000000E+00  0.00000000000E+00 -0.13228013423E+04  0.13228013423E+04  0.50400001928E-02 0. -1.
    10030    2    1    2    0    0  0.00000000000E+00  0.00000000000E+00  0.29657120737E+03  0.29421738920E+04  0.29271885367E+04 0.  0.
        2    1    3    3  502    0  0.73656931362E+02 -0.14342949297E+04  0.43165243374E+03  0.14996503301E+04  0.25500000920E-02 0.  1.
       -2    1    3    3    0  502 -0.73656931362E+02  0.14342949297E+04 -0.13508122638E+03  0.14425235619E+04  0.25500000920E-02 0. -1.
</event>
<event>
 5   0  0.3564340E-06  0.2856350E+04  0.7818609E-02  0.8285984E-01
        1   -1    0    0  501    0  0.00000000000E+00  0.00000000000E+00  0.20242983998E+04  0.20242983998E+04  0.50400001928E-02 0. -1.
       -1   -1    0    0    0  501  0.00000000000E+00  0.00000000000E+00 -0.10076002303E+04  0.10076002303E+04  0.50400001928E-02 0.  1.
    10030    2    1    2    0    0  0.00000000000E+00  0.00000000000E+00  0.10166981695E+04  0.30318986301E+04  0.28563497922E+04 0.  0.
        1    1    3    3  502    0 -0.24127313172E+03  0.13433877753E+04  0.95464197413E+03  0.16656064174E+04  0.50400001928E-02 0. -1.
       -1    1    3    3    0  502  0.24127313172E+03 -0.13433877753E+04  0.62056195354E+02  0.13662922127E+04  0.50400001928E-02 0.  1.
</event>
<event>
 5   0  0.9251510E-06  0.2110603E+04  0.7818609E-02  0.8556587E-01
        2   -1    0    0  501    0  0.00000000000E+00  0.00000000000E+00  0.99458562326E+03  0.99458562326E+03  0.25500000920E-02 0. -1.
       -2   -1    0    0    0  501  0.00000000000E+00  0.00000000000E+00 -0.11197242938E+04  0.11197242938E+04  0.25500000920E-02 0.  1.
    10030    2    1    2    0    0  0.00000000000E+00  0.00000000000E+00 -0.12513867050E+03  0.21143099170E+04  0.21106034062E+04 0.  0.
        2    1    3    3  502    0 -0.65289864206E+03  0.58020410095E+03 -0.65584941697E+03  0.10922691488E+04  0.25500000920E-02 0.  1.
       -2    1    3    3    0  502  0.65289864206E+03 -0.58020410095E+03  0.53071074648E+03  0.10220407683E+04  0.25500000920E-02 0. -1.
</event>
<event>
 5   0  0.9505359E-06  0.2888750E+04  0.7818609E-02  0.8276233E-01
        2   -1    0    0  501    0  0.00000000000E+00  0.00000000000E+00  0.13682845534E+04  0.13682845534E+04  0.25500000920E-02 0. -1.
       -2   -1    0    0    0  501  0.00000000000E+00  0.00000000000E+00 -0.15246966253E+04  0.15246966253E+04  0.25500000920E-02 0.  1.
    10030    2    1    2    0    0  0.00000000000E+00  0.00000000000E+00 -0.15641207184E+03  0.28929811787E+04  0.28887497926E+04 0.  0.
        4    1    3    3  502    0 -0.12531996327E+04  0.71350871080E+03  0.32348411937E+01  0.14420874026E+04  0.12699999809E+01 0. -1.
       -4    1    3    3    0  502  0.12531996327E+04 -0.71350871080E+03 -0.15964691303E+03  0.14508937761E+04  0.12699999809E+01 0.  1.
</event>
<event>
 5   0  0.3564340E-06  0.2870208E+04  0.7818609E-02  0.8281797E-01
        1   -1    0    0  501    0  0.00000000000E+00  0.00000000000E+00  0.21879937436E+04  0.21879937436E+04  0.50400001928E-02 0. -1.
       -1   -1    0    0    0  501  0.00000000000E+00  0.00000000000E+00 -0.94128373620E+03  0.94128373622E+03  0.50400001928E-02 0.  1.
    10030    2    1    2    0    0  0.00000000000E+00  0.00000000000E+00  0.12467100074E+04  0.31292774798E+04  0.28702076063E+04 0.  0.
        1    1    3    3  502    0 -0.43305229395E+03 -0.96948484717E+02 -0.86459847730E+03  0.97183528695E+03  0.50400001928E-02 0.  1.
       -1    1    3    3    0  502  0.43305229395E+03  0.96948484717E+02  0.21113084847E+04  0.21574421928E+04  0.50400001928E-02 0. -1.
</event>
<event>
 5   0  0.1001573E-05  0.2939427E+04  0.7818609E-02  0.8261242E-01
       -2   -1    0    0    0  501  0.00000000000E+00  0.00000000000E+00  0.12503761621E+04  0.12503761621E+04  0.25500000920E-02 0. -1.
        2   -1    0    0  501    0  0.00000000000E+00  0.00000000000E+00 -0.17275267103E+04  0.17275267103E+04  0.25500000920E-02 0.  1.
    10030    2    1    2    0    0  0.00000000000E+00  0.00000000000E+00 -0.47715054825E+03  0.29779028724E+04  0.29394273034E+04 0.  0.
        1    1    3    3  502    0 -0.10629144659E+04  0.65399455165E+03 -0.10249847546E+04  0.16149581365E+04  0.50400001928E-02 0.  1.
       -1    1    3    3    0  502  0.10629144659E+04 -0.65399455165E+03  0.54783420637E+03  0.13629447359E+04  0.50400001928E-02 0. -1.
</event>
<event>
 5   0  0.3649705E-06  0.2897449E+04  0.7818609E-02  0.8273637E-01
        1   -1    0    0  501    0  0.00000000000E+00  0.00000000000E+00  0.17681139626E+04  0.17681139626E+04  0.50400001928E-02 0.  1.
       -1   -1    0    0    0  501  0.00000000000E+00  0.00000000000E+00 -0.11870289330E+04  0.11870289330E+04  0.50400001928E-02 0. -1.
    10030    2    1    2    0    0  0.00000000000E+00  0.00000000000E+00  0.58108502959E+03  0.29551428956E+04  0.28974488299E+04 0.  0.
        2    1    3    3  502    0 -0.60129209756E+03 -0.56350004093E+03  0.15057872476E+04  0.17165313041E+04  0.25500000920E-02 0.  1.
       -2    1    3    3    0  502  0.60129209756E+03  0.56350004093E+03 -0.92470221804E+03  0.12386115916E+04  0.25500000920E-02 0. -1.
</event>
<event>
 5   0  0.3564340E-06  0.2894693E+04  0.7818609E-02  0.8274458E-01
        1   -1    0    0  501    0  0.00000000000E+00  0.00000000000E+00  0.16587766976E+04  0.16587766976E+04  0.50400001928E-02 0.  1.
       -1   -1    0    0    0  501  0.00000000000E+00  0.00000000000E+00 -0.12628658074E+04  0.12628658074E+04  0.50400001928E-02 0. -1.
    10030    2    1    2    0    0  0.00000000000E+00  0.00000000000E+00  0.39591089027E+03  0.29216425050E+04  0.28946933333E+04 0.  0.
        1    1    3    3  502    0 -0.15719281462E+03 -0.13887810593E+04 -0.18156379875E+03  0.14093927148E+04  0.50400001928E-02 0.  1.
       -1    1    3    3    0  502  0.15719281462E+03  0.13887810593E+04  0.57747468902E+03  0.15122497902E+04  0.50400001928E-02 0. -1.
</event>
<event>
 5   0  0.3474078E-06  0.2861489E+04  0.7818609E-02  0.8284429E-01
        1   -1    0    0  501    0  0.00000000000E+00  0.00000000000E+00  0.21285039037E+04  0.21285039037E+04  0.50400001928E-02 0.  1.
       -1   -1    0    0    0  501  0.00000000000E+00  0.00000000000E+00 -0.96172210214E+03  0.96172210216E+03  0.50400001928E-02 0. -1.
    10030    2    1    2    0    0  0.00000000000E+00  0.00000000000E+00  0.11667818015E+04  0.30902260058E+04  0.28614885977E+04 0.  0.
        3    1    3    3  502    0 -0.37078239557E+03 -0.84361892974E+03  0.17653451504E+04  0.19913854458E+04  0.10100000352E+00 0.  1.
       -3    1    3    3    0  502  0.37078239557E+03  0.84361892974E+03 -0.59856334890E+03  0.10988405600E+04  0.10100000352E+00 0. -1.
</event>
<event>
 5   0  0.3564340E-06  0.2867089E+04  0.7818609E-02  0.8282737E-01
       -1   -1    0    0    0  501  0.00000000000E+00  0.00000000000E+00  0.12436357419E+04  0.12436357420E+04  0.50400001928E-02 0.  1.
        1   -1    0    0  501    0  0.00000000000E+00  0.00000000000E+00 -0.16524527472E+04  0.16524527472E+04  0.50400001928E-02 0. -1.
    10030    2    1    2    0    0  0.00000000000E+00  0.00000000000E+00 -0.40881700520E+03  0.28960884891E+04  0.28670886267E+04 0.  0.
        1    1    3    3  502    0 -0.44699449507E+03 -0.57877053452E+03  0.10410551460E+04  0.12722323794E+04  0.50400001928E-02 0.  1.
       -1    1    3    3    0  502  0.44699449507E+03  0.57877053452E+03 -0.14498721512E+04  0.16238561097E+04  0.50400001928E-02 0. -1.
</event>
<event>
 5   0  0.3564340E-06  0.2814333E+04  0.7818609E-02  0.8298832E-01
        1   -1    0    0  501    0  0.00000000000E+00  0.00000000000E+00  0.15802973064E+04  0.15802973064E+04  0.50400001928E-02 0. -1.
       -1   -1    0    0    0  501  0.00000000000E+00  0.00000000000E+00 -0.12530028547E+04  0.12530028547E+04  0.50400001928E-02 0.  1.
    10030    2    1    2    0    0  0.00000000000E+00  0.00000000000E+00  0.32729445167E+03  0.28333001611E+04  0.28143326287E+04 0.  0.
        1    1    3    3  502    0 -0.59985642981E+03  0.12340690646E+04 -0.15048593573E+03  0.13803623472E+04  0.50400001928E-02 0.  1.
       -1    1    3    3    0  502  0.59985642981E+03 -0.12340690646E+04  0.47778038740E+03  0.14529378139E+04  0.50400001928E-02 0. -1.
</event>
<event>
 5   0  0.3649705E-06  0.2817188E+04  0.7818609E-02  0.8297952E-01
       -1   -1    0    0    0  501  0.00000000000E+00  0.00000000000E+00  0.16415037221E+04  0.16415037221E+04  0.50400001928E-02 0.  1.
        1   -1    0    0  501    0  0.00000000000E+00  0.00000000000E+00 -0.12087314677E+04  0.12087314677E+04  0.50400001928E-02 0. -1.
    10030    2    1    2    0    0  0.00000000000E+00  0.00000000000E+00  0.43277225442E+03  0.28502351898E+04  0.28171881040E+04 0.  0.
        2    1    3    3  502    0 -0.45087309606E+03 -0.62341707257E+03 -0.97737092052E+03  0.12438606479E+04  0.25500000920E-02 0. -1.
       -2    1    3    3    0  502  0.45087309606E+03  0.62341707257E+03  0.14101431749E+04  0.16063745419E+04  0.25500000920E-02 0.  1.
</event>
<event>
 5   0  0.3564340E-06  0.2870473E+04  0.7818609E-02  0.8281717E-01
       -1   -1    0    0    0  501  0.00000000000E+00  0.00000000000E+00  0.80034815891E+03  0.80034815893E+03  0.50400001928E-02 0.  1.
        1   -1    0    0  501    0  0.00000000000E+00  0.00000000000E+00 -0.25737593329E+04  0.25737593329E+04  0.50400001928E-02 0. -1.
    10030    2    1    2    0    0  0.00000000000E+00  0.00000000000E+00 -0.17734111740E+04  0.33741074918E+04  0.28704728137E+04 0.  0.
        1    1    3    3  502    0  0.59556470737E+03  0.99123324430E+03  0.11254255496E+03  0.11618547637E+04  0.50400001928E-02 0.  1.
       -1    1    3    3    0  502 -0.59556470737E+03 -0.99123324430E+03 -0.18859537290E+04  0.22122527281E+04  0.50400001928E-02 0. -1.
</event>
<event>
 5   0  0.9251510E-06  0.2887051E+04  0.7818609E-02  0.8276741E-01
       -2   -1    0    0    0  501  0.00000000000E+00  0.00000000000E+00  0.10187747314E+04  0.10187747314E+04  0.25500000920E-02 0.  1.
        2   -1    0    0  501    0  0.00000000000E+00  0.00000000000E+00 -0.20453642912E+04  0.20453642912E+04  0.25500000920E-02 0. -1.
    10030    2    1    2    0    0  0.00000000000E+00  0.00000000000E+00 -0.10265895598E+04  0.30641390227E+04  0.28870507141E+04 0.  0.
        2    1    3    3  502    0 -0.30187242171E+03 -0.39292903905E+03  0.92568861107E+03  0.10499617104E+04  0.25500000920E-02 0.  1.
       -2    1    3    3    0  502  0.30187242171E+03  0.39292903905E+03 -0.19522781708E+04  0.20141773122E+04  0.25500000920E-02 0. -1.
</event>
<event>
 5   0  0.3649705E-06  0.2940758E+04  0.7818609E-02  0.8260853E-01
       -1   -1    0    0    0  501  0.00000000000E+00  0.00000000000E+00  0.19515328772E+04  0.19515328772E+04  0.50400001928E-02 0. -1.
        1   -1    0    0  501    0  0.00000000000E+00  0.00000000000E+00 -0.11078541142E+04  0.11078541142E+04  0.50400001928E-02 0.  1.
    10030    2    1    2    0    0  0.00000000000E+00  0.00000000000E+00  0.84367876305E+03  0.30593869914E+04  0.29407575398E+04 0.  0.
        2    1    3    3  502    0  0.11281131489E+04 -0.59840609263E+03  0.11801354594E+04  0.17388067262E+04  0.25500000920E-02 0. -1.
       -2    1    3    3    0  502 -0.11281131489E+04  0.59840609263E+03 -0.33645669638E+03  0.13205802652E+04  0.25500000920E-02 0.  1.
</event>
<event>
 5   0  0.3486236E-06  0.2134023E+04  0.7818609E-02  0.8546402E-01
        1   -1    0    0  501    0  0.00000000000E+00  0.00000000000E+00  0.12112971012E+04  0.12112971012E+04  0.50400001928E-02 0. -1.
       -1   -1    0    0    0  501  0.00000000000E+00  0.00000000000E+00 -0.93991290153E+03  0.93991290155E+03  0.50400001928E-02 0.  1.
    10030    2    1    2    0    0  0.00000000000E+00  0.00000000000E+00  0.27138419968E+03  0.21512100028E+04  0.21340232173E+04 0.  0.
        5    1    3    3  502    0  0.95249970890E+03  0.13614349149E+03  0.60060154602E+03  0.11342552856E+04  0.46999998093E+01 0. -1.
       -5    1    3    3    0  502 -0.95249970890E+03 -0.13614349149E+03 -0.32921734634E+03  0.10169547172E+04  0.46999998093E+01 0.  1.
</event>
<event>
 5   0  0.1001573E-05  0.2900416E+04  0.7818609E-02  0.8272754E-01
        2   -1    0    0  501    0  0.00000000000E+00  0.00000000000E+00  0.18799815136E+04  0.18799815136E+04  0.25500000920E-02 0.  1.
       -2   -1    0    0    0  501  0.00000000000E+00  0.00000000000E+00 -0.11186829222E+04  0.11186829222E+04  0.25500000920E-02 0. -1.
    10030    2    1    2    0    0  0.00000000000E+00  0.00000000000E+00  0.76129859135E+03  0.29986644358E+04  0.29004159794E+04 0.  0.
        1    1    3    3  502    0  0.12582713904E+04 -0.63768290357E+03  0.32774401899E+02  0.14110140108E+04  0.50400001928E-02 0.  1.
       -1    1    3    3    0  502 -0.12582713904E+04  0.63768290357E+03  0.72852418945E+03  0.15876504250E+04  0.50400001928E-02 0. -1.
</event>
<event>
 5   0  0.1001573E-05  0.2883911E+04  0.7818609E-02  0.8277681E-01
        2   -1    0    0  501    0  0.00000000000E+00  0.00000000000E+00  0.21186997800E+04  0.21186997800E+04  0.25500000920E-02 0.  1.
       -2   -1    0    0    0  501  0.00000000000E+00  0.00000000000E+00 -0.98137324279E+03  0.98137324279E+03  0.25500000920E-02 0. -1.
    10030    2    1    2    0    0  0.00000000000E+00  0.00000000000E+00  0.11373265372E+04  0.31000730228E+04  0.28839107293E+04 0.  0.
        1    1    3    3  502    0  0.71808013070E+03 -0.83366709787E+03 -0.43317788104E+03  0.11824901610E+04  0.50400001928E-02 0. -1.
       -1    1    3    3    0  502 -0.71808013070E+03  0.83366709787E+03  0.15705044183E+04  0.19175828618E+04  0.50400001928E-02 0.  1.
</event>
<event>
 5   0  0.9251510E-06  0.2896598E+04  0.7818609E-02  0.8273890E-01
        2   -1    0    0  501    0  0.00000000000E+00  0.00000000000E+00  0.14262136745E+04  0.14262136745E+04  0.25500000920E-02 0. -1.
       -2   -1    0    0    0  501  0.00000000000E+00  0.00000000000E+00 -0.14707263119E+04  0.14707263119E+04  0.25500000920E-02 0.  1.
    10030    2    1    2    0    0  0.00000000000E+00  0.00000000000E+00 -0.44512637409E+02  0.28969399863E+04  0.28965979889E+04 0.  0.
        2    1    3    3  502    0  0.97217670920E+03  0.10393057828E+04  0.24663582256E+03  0.14443383582E+04  0.25500000920E-02 0.  1.
       -2    1    3    3    0  502 -0.97217670920E+03 -0.10393057828E+04 -0.29114845997E+03  0.14526016281E+04  0.25500000920E-02 0. -1.
</event>
<event>
 5   0  0.9360689E-06  0.2838008E+04  0.7818609E-02  0.8291565E-01
       -2   -1    0    0    0  501  0.00000000000E+00  0.00000000000E+00  0.16628742852E+04  0.16628742852E+04  0.25500000920E-02 0. -1.
        2   -1    0    0  501    0  0.00000000000E+00  0.00000000000E+00 -0.12108989086E+04  0.12108989086E+04  0.25500000920E-02 0.  1.
    10030    2    1    2    0    0  0.00000000000E+00  0.00000000000E+00  0.45197537658E+03  0.28737731937E+04  0.28380082149E+04 0.  0.
        5    1    3    3  502    0 -0.45650295008E+03 -0.12848316522E+04  0.62382984140E+03  0.14994575949E+04  0.46999998093E+01 0. -1.
       -5    1    3    3    0  502  0.45650295008E+03  0.12848316522E+04 -0.17185446483E+03  0.13743155988E+04  0.46999998093E+01 0.  1.
</event>
<event>
 5   0  0.3746518E-06  0.2845564E+04  0.7818609E-02  0.8289260E-01
        1   -1    0    0  501    0  0.00000000000E+00  0.00000000000E+00  0.12036324767E+04  0.12036324767E+04  0.50400001928E-02 0. -1.
       -1   -1    0    0    0  501  0.00000000000E+00  0.00000000000E+00 -0.16818329783E+04  0.16818329783E+04  0.50400001928E-02 0.  1.
    10030    2    1    2    0    0  0.00000000000E+00  0.00000000000E+00 -0.47820050155E+03  0.28854654550E+04  0.28455641220E+04 0.  0.
        4    1    3    3  502    0  0.14263445344E+03  0.14114236438E+04 -0.12873525266E+03  0.14244422305E+04  0.12699999809E+01 0. -1.
       -4    1    3    3    0  502 -0.14263445344E+03 -0.14114236438E+04 -0.34946524888E+03  0.14610232246E+04  0.12699999809E+01 0.  1.
</event>
<event>
 5   0  0.1001573E-05  0.2923008E+04  0.7818609E-02  0.8266065E-01
       -2   -1    0    0    0  501  0.00000000000E+00  0.00000000000E+00  0.11727110077E+04  0.11727110077E+04  0.25500000920E-02 0.  1.
        2   -1    0    0  501    0  0.00000000000E+00  0.00000000000E+00 -0.18214149744E+04  0.18214149744E+04  0.25500000920E-02 0. -1.
    10030    2    1    2    0    0  0.00000000000E+00  0.00000000000E+00 -0.64870396665E+03  0.29941259821E+04  0.29230076224E+04 0.  0.
        1    1    3    3  502    0 -0.61297560020E+03 -0.41540795852E+03  0.96634129843E+03  0.12174228368E+04  0.50400001928E-02 0.  1.
       -1    1    3    3    0  502  0.61297560020E+03  0.41540795852E+03 -0.16150452651E+04  0.17767031454E+04  0.50400001928E-02 0. -1.
</event>
<event>
 5   0  0.3564340E-06  0.2888928E+04  0.7818609E-02  0.8276179E-01
        1   -1    0    0  501    0  0.00000000000E+00  0.00000000000E+00  0.11375487558E+04  0.11375487558E+04  0.50400001928E-02 0. -1.
       -1   -1    0    0    0  501  0.00000000000E+00  0.00000000000E+00 -0.18341859297E+04  0.18341859297E+04  0.50400001928E-02 0.  1.
    10030    2    1    2    0    0  0.00000000000E+00  0.00000000000E+00 -0.69663717386E+03  0.29717346856E+04  0.28889277750E+04 0.  0.
        1    1    3    3  502    0 -0.13715398188E+04  0.15537802459E+02 -0.81419419015E+03  0.15950783922E+04  0.50400001928E-02 0.  1.
       -1    1    3    3    0  502  0.13715398188E+04 -0.15537802459E+02  0.11755701629E+03  0.13766562934E+04  0.50400001928E-02 0. -1.
</event>
<event>
 5   0  0.3649705E-06  0.2886156E+04  0.7818609E-02  0.8277008E-01
       -1   -1    0    0    0  501  0.00000000000E+00  0.00000000000E+00  0.12544831054E+04  0.12544831054E+04  0.50400001928E-02 0. -1.
        1   -1    0    0  501    0  0.00000000000E+00  0.00000000000E+00 -0.16600255882E+04  0.16600255882E+04  0.50400001928E-02 0.  1.
    10030    2    1    2    0    0  0.00000000000E+00  0.00000000000E+00 -0.40554248277E+03  0.29145086937E+04  0.28861559591E+04 0.  0.
        2    1    3    3  502    0 -0.92910370396E+02 -0.45492914419E+03  0.11769898693E+04  0.12652659861E+04  0.25500000920E-02 0. -1.
       -2    1    3    3    0  502  0.92910370396E+02  0.45492914419E+03 -0.15825323521E+04  0.16492427076E+04  0.25500000920E-02 0.  1.
</event>
<event>
 5   0  0.3564340E-06  0.2907148E+04  0.7818609E-02  0.8270754E-01
       -1   -1    0    0    0  501  0.00000000000E+00  0.00000000000E+00  0.14790546053E+04  0.14790546053E+04  0.50400001928E-02 0.  1.
        1   -1    0    0  501    0  0.00000000000E+00  0.00000000000E+00 -0.14285321161E+04  0.14285321161E+04  0.50400001928E-02 0. -1.
    10030    2    1    2    0    0  0.00000000000E+00  0.00000000000E+00  0.50522489193E+02  0.29075867214E+04  0.29071477466E+04 0.  0.
        1    1    3    3  502    0  0.14623001210E+03 -0.34722996907E+03  0.14293696434E+04  0.14781912749E+04  0.50400001928E-02 0.  1.
       -1    1    3    3    0  502 -0.14623001210E+03  0.34722996907E+03 -0.13788471542E+04  0.14293954465E+04  0.50400001928E-02 0. -1.
</event>
<event>
 5   0  0.3486236E-06  0.2912848E+04  0.7818609E-02  0.8269065E-01
       -1   -1    0    0    0  501  0.00000000000E+00  0.00000000000E+00  0.13391828127E+04  0.13391828127E+04  0.50400001928E-02 0. -1.
        1   -1    0    0  501    0  0.00000000000E+00  0.00000000000E+00 -0.15839293896E+04  0.15839293896E+04  0.50400001928E-02 0.  1.
    10030    2    1    2    0    0  0.00000000000E+00  0.00000000000E+00 -0.24474657696E+03  0.29231122023E+04  0.29128481011E+04 0.  0.
        5    1    3    3  502    0  0.35697742375E+03 -0.51695985918E+03  0.11962082282E+04  0.13511538003E+04  0.46999998093E+01 0. -1.
       -5    1    3    3    0  502 -0.35697742375E+03  0.51695985918E+03 -0.14409548051E+04  0.15719584019E+04  0.46999998093E+01 0.  1.
</event>
<event>
 5   0  0.3649705E-06  0.2973022E+04  0.7818609E-02  0.8251477E-01
        1   -1    0    0  501    0  0.00000000000E+00  0.00000000000E+00  0.15217127988E+04  0.15217127988E+04  0.50400001928E-02 0. -1.
       -1   -1    0    0    0  501  0.00000000000E+00  0.00000000000E+00 -0.14521237990E+04  0.14521237991E+04  0.50400001928E-02 0.  1.
    10030    2    1    2    0    0  0.00000000000E+00  0.00000000000E+00  0.69588999743E+02  0.29738365978E+04  0.29730222807E+04 0.  0.
        2    1    3    3  502    0 -0.11893361611E+04 -0.61316724512E+02 -0.85507556741E+03  0.14660949733E+04  0.25500000920E-02 0.  1.
       -2    1    3    3    0  502  0.11893361611E+04  0.61316724512E+02  0.92466456715E+03  0.15077416246E+04  0.25500000920E-02 0. -1.
</event>
<event>
 5   0  0.1001573E-05  0.2892876E+04  0.7818609E-02  0.8275000E-01
        2   -1    0    0  501    0  0.00000000000E+00  0.00000000000E+00  0.12645357056E+04  0.12645357056E+04  0.25500000920E-02 0.  1.
       -2   -1    0    0    0  501  0.00000000000E+00  0.00000000000E+00 -0.16545067066E+04  0.16545067066E+04  0.25500000920E-02 0. -1.
    10030    2    1    2    0    0  0.00000000000E+00  0.00000000000E+00 -0.38997100098E+03  0.29190424122E+04  0.28928759432E+04 0.  0.
        1    1    3    3  502    0  0.73034496159E+03  0.22992692668E+03  0.10432706279E+04  0.12940957297E+04  0.50400001928E-02 0.  1.
       -1    1    3    3    0  502 -0.73034496159E+03 -0.22992692668E+03 -0.14332416288E+04  0.16249466826E+04  0.50400001928E-02 0. -1.
</event>
<event>
 5   0  0.9646321E-06  0.2531458E+04  0.7818609E-02  0.8391863E-01
        2   -1    0    0  501    0  0.00000000000E+00  0.00000000000E+00  0.13660356478E+04  0.13660356478E+04  0.25500000920E-02 0.  1.
       -2   -1    0    0    0  501  0.00000000000E+00  0.00000000000E+00 -0.11727878695E+04  0.11727878695E+04  0.25500000920E-02 0. -1.
    10030    2    1    2    0    0  0.00000000000E+00  0.00000000000E+00  0.19324777828E+03  0.25388235173E+04  0.25314581071E+04 0.  0.
        3    1    3    3  502    0 -0.51463717715E+03 -0.11417552515E+03 -0.10574555359E+04  0.11815666275E+04  0.10100000352E+00 0. -1.
       -3    1    3    3    0  502  0.51463717715E+03  0.11417552515E+03  0.12507033142E+04  0.13572568898E+04  0.10100000352E+00 0.  1.
</event>
<event>
 5   0  0.3564340E-06  0.2898627E+04  0.7818609E-02  0.8273286E-01
       -1   -1    0    0    0  501  0.00000000000E+00  0.00000000000E+00  0.12364585140E+04  0.12364585140E+04  0.50400001928E-02 0. -1.
        1   -1    0    0  501    0  0.00000000000E+00  0.00000000000E+00 -0.16988115441E+04  0.16988115441E+04  0.50400001928E-02 0.  1.
    10030    2    1    2    0    0  0.00000000000E+00  0.00000000000E+00 -0.46235303009E+03  0.29352700581E+04  0.28986272595E+04 0.  0.
        1    1    3    3  502    0 -0.72546708713E+03 -0.82373246794E+03 -0.11895400258E+04  0.16185929526E+04  0.50400001928E-02 0.  1.
       -1    1    3    3    0  502  0.72546708713E+03  0.82373246794E+03  0.72718699576E+03  0.13166771055E+04  0.50400001928E-02 0. -1.
</event>
<event>
 5   0  0.3649705E-06  0.2523417E+04  0.7818609E-02  0.8394690E-01
       -1   -1    0    0    0  501  0.00000000000E+00  0.00000000000E+00  0.12145697557E+04  0.12145697557E+04  0.50400001928E-02 0. -1.
        1   -1    0    0  501    0  0.00000000000E+00  0.00000000000E+00 -0.13106770180E+04  0.13106770180E+04  0.50400001928E-02 0.  1.
    10030    2    1    2    0    0  0.00000000000E+00  0.00000000000E+00 -0.96107262360E+02  0.25252467737E+04  0.25234172588E+04 0.  0.
        2    1    3    3  502    0  0.78089298033E+03 -0.85960728368E+03  0.44544702471E+03  0.12438414612E+04  0.25500000920E-02 0. -1.
       -2    1    3    3    0  502 -0.78089298033E+03  0.85960728368E+03 -0.54155428707E+03  0.12814053124E+04  0.25500000920E-02 0.  1.
</event>
<event>
 5   0  0.3564340E-06  0.2881728E+04  0.7818609E-02  0.8278335E-01
        1   -1    0    0  501    0  0.00000000000E+00  0.00000000000E+00  0.15484063093E+04  0.15484063093E+04  0.50400001928E-02 0. -1.
       -1   -1    0    0    0  501  0.00000000000E+00  0.00000000000E+00 -0.13407911433E+04  0.13407911433E+04  0.50400001928E-02 0.  1.
    10030    2    1    2    0    0  0.00000000000E+00  0.00000000000E+00  0.20761516604E+03  0.28891974526E+04  0.28817282771E+04 0.  0.
        1    1    3    3  502    0  0.87403700592E+03  0.68414265098E+02 -0.10426019100E+04  0.13622187571E+04  0.50400001928E-02 0.  1.
       -1    1    3    3    0  502 -0.87403700592E+03 -0.68414265098E+02  0.12502170760E+04  0.15269786956E+04  0.50400001928E-02 0. -1.
</event>
<event>
 5   0  0.3649705E-06  0.2883831E+04  0.7818609E-02  0.8277704E-01
       -1   -1    0    0    0  501  0.00000000000E+00  0.00000000000E+00  0.89067879625E+03  0.89067879627E+03  0.50400001928E-02 0.  1.
        1   -1    0    0  501    0  0.00000000000E+00  0.00000000000E+00 -0.23343104745E+04  0.23343104745E+04  0.50400001928E-02 0. -1.
    10030    2    1    2    0    0  0.00000000000E+00  0.00000000000E+00 -0.14436316783E+04  0.32249892708E+04  0.28838313706E+04 0.  0.
        2    1    3    3  502    0 -0.88010183645E+03 -0.23106510124E+03 -0.19726887650E+04  0.21724344150E+04  0.25500000920E-02 0. -1.
       -2    1    3    3    0  502  0.88010183645E+03  0.23106510124E+03  0.52905708676E+03  0.10525548559E+04  0.25500000920E-02 0.  1.
</event>
<event>
 5   0  0.3474078E-06  0.2864737E+04  0.7818609E-02  0.8283447E-01
        1   -1    0    0  501    0  0.00000000000E+00  0.00000000000E+00  0.24920892949E+04  0.24920892949E+04  0.50400001928E-02 0.  1.
       -1   -1    0    0    0  501  0.00000000000E+00  0.00000000000E+00 -0.82327696684E+03  0.82327696686E+03  0.50400001928E-02 0. -1.
    10030    2    1    2    0    0  0.00000000000E+00  0.00000000000E+00  0.16688123281E+04  0.33153662618E+04  0.28647371369E+04 0.  0.
        3    1    3    3  502    0 -0.12557367258E+04  0.78542883135E+02  0.42151950249E+02  0.12588965431E+04  0.10100000352E+00 0. -1.
       -3    1    3    3    0  502  0.12557367258E+04 -0.78542883135E+02  0.16266603778E+04  0.20564697187E+04  0.10100000352E+00 0.  1.
</event>
<event>
 5   0  0.1001573E-05  0.2901137E+04  0.7818609E-02  0.8272539E-01
        2   -1    0    0  501    0  0.00000000000E+00  0.00000000000E+00  0.87940082896E+03  0.87940082896E+03  0.25500000920E-02 0.  1.
       -2   -1    0    0    0  501  0.00000000000E+00  0.00000000000E+00 -0.23927068462E+04  0.23927068462E+04  0.25500000920E-02 0. -1.
    10030    2    1    2    0    0  0.00000000000E+00  0.00000000000E+00 -0.15133060172E+04  0.32721076751E+04  0.29011365938E+04 0.  0.
        1    1    3    3  502    0 -0.11381347882E+04  0.78558995060E+03 -0.26290050748E+03  0.14076999125E+04  0.50400001928E-02 0.  1.
       -1    1    3    3    0  502  0.11381347882E+04 -0.78558995060E+03 -0.12504055097E+04  0.18644077627E+04  0.50400001928E-02 0. -1.
</event>
<event>
 5   0  0.3486236E-06  0.2908093E+04  0.7818609E-02  0.8270474E-01
        1   -1    0    0  501    0  0.00000000000E+00  0.00000000000E+00  0.12125680280E+04  0.12125680281E+04  0.50400001928E-02 0. -1.
       -1   -1    0    0    0  501  0.00000000000E+00  0.00000000000E+00 -0.17436150619E+04  0.17436150620E+04  0.50400001928E-02 0.  1.
    10030    2    1    2    0    0  0.00000000000E+00  0.00000000000E+00 -0.53104703391E+03  0.29561830900E+04  0.29080934492E+04 0.  0.
        5    1    3    3  502    0 -0.99517258710E+03  0.72002371022E+03 -0.10564824264E+04  0.16201789496E+04  0.46999998093E+01 0.  1.
       -5    1    3    3    0  502  0.99517258710E+03 -0.72002371022E+03  0.52543539254E+03  0.13360041404E+04  0.46999998093E+01 0. -1.
</event>
<event>
 5   0  0.9251510E-06  0.2915307E+04  0.7818609E-02  0.8268338E-01
       -2   -1    0    0    0  501  0.00000000000E+00  0.00000000000E+00  0.11280079819E+04  0.11280079819E+04  0.25500000920E-02 0. -1.
        2   -1    0    0  501    0  0.00000000000E+00  0.00000000000E+00 -0.18836335688E+04  0.18836335688E+04  0.25500000920E-02 0.  1.
    10030    2    1    2    0    0  0.00000000000E+00  0.00000000000E+00 -0.75562558691E+03  0.30116415507E+04  0.29153069825E+04 0.  0.
        2    1    3    3  502    0 -0.87919897582E+03 -0.14315656929E+03 -0.15697459655E+04  0.18048786770E+04  0.25500000920E-02 0.  1.
       -2    1    3    3    0  502  0.87919897582E+03  0.14315656929E+03  0.81412037863E+03  0.12067628737E+04  0.25500000920E-02 0. -1.
</event>
<event>
 5   0  0.3649705E-06  0.2812336E+04  0.7818609E-02  0.8299449E-01
        1   -1    0    0  501    0  0.00000000000E+00  0.00000000000E+00  0.16105055060E+04  0.16105055060E+04  0.50400001928E-02 0.  1.
       -1   -1    0    0    0  501  0.00000000000E+00  0.00000000000E+00 -0.12277562770E+04  0.12277562770E+04  0.50400001928E-02 0. -1.
    10030    2    1    2    0    0  0.00000000000E+00  0.00000000000E+00  0.38274922891E+03  0.28382617830E+04  0.28123358577E+04 0.  0.
        2    1    3    3  502    0 -0.12052964588E+04  0.65160408292E+03  0.51048694817E+03  0.14621642721E+04  0.25500000920E-02 0.  1.
       -2    1    3    3    0  502  0.12052964588E+04 -0.65160408292E+03 -0.12773771926E+03  0.13760975109E+04  0.25500000920E-02 0. -1.
</event>
<event>
 5   0  0.9646321E-06  0.2933309E+04  0.7818609E-02  0.8263036E-01
       -2   -1    0    0    0  501  0.00000000000E+00  0.00000000000E+00  0.92489305049E+03  0.92489305049E+03  0.25500000920E-02 0. -1.
        2   -1    0    0  501    0  0.00000000000E+00  0.00000000000E+00 -0.23257557830E+04  0.23257557830E+04  0.25500000920E-02 0.  1.
    10030    2    1    2    0    0  0.00000000000E+00  0.00000000000E+00 -0.14008627325E+04  0.32506488335E+04  0.29333089581E+04 0.  0.
        3    1    3    3  502    0 -0.11528002939E+04  0.86889856240E+03 -0.98758199813E+03  0.17490715944E+04  0.10100000352E+00 0.  1.
       -3    1    3    3    0  502  0.11528002939E+04 -0.86889856240E+03 -0.41328073438E+03  0.15015772391E+04  0.10100000352E+00 0. -1.
</event>
<event>
 5   0  0.3564340E-06  0.2903795E+04  0.7818609E-02  0.8271749E-01
       -1   -1    0    0    0  501  0.00000000000E+00  0.00000000000E+00  0.18431628902E+04  0.18431628902E+04  0.50400001928E-02 0.  1.
        1   -1    0    0  501    0  0.00000000000E+00  0.00000000000E+00 -0.11436899032E+04  0.11436899033E+04  0.50400001928E-02 0. -1.
    10030    2    1    2    0    0  0.00000000000E+00  0.00000000000E+00  0.69947298691E+03  0.29868527934E+04  0.29037953010E+04 0.  0.
        1    1    3    3  502    0  0.17210789393E+03 -0.21148362680E+03 -0.11171179813E+04  0.11499126209E+04  0.50400001928E-02 0. -1.
       -1    1    3    3    0  502 -0.17210789393E+03  0.21148362680E+03  0.18165909682E+04  0.18369401725E+04  0.50400001928E-02 0.  1.
</event>
<event>
 5   0  0.9646321E-06  0.2865052E+04  0.7818609E-02  0.8283352E-01
        2   -1    0    0  501    0  0.00000000000E+00  0.00000000000E+00  0.18703395744E+04  0.18703395744E+04  0.25500000920E-02 0. -1.
       -2   -1    0    0    0  501  0.00000000000E+00  0.00000000000E+00 -0.10971967623E+04  0.10971967623E+04  0.25500000920E-02 0.  1.
    10030    2    1    2    0    0  0.00000000000E+00  0.00000000000E+00  0.77314281207E+03  0.29675363366E+04  0.28650518497E+04 0.  0.
        3    1    3    3  502    0  0.46880123421E+03  0.15801362361E+03 -0.10059093766E+04  0.11209801901E+04  0.10100000352E+00 0.  1.
       -3    1    3    3    0  502 -0.46880123421E+03 -0.15801362361E+03  0.17790521886E+04  0.18465561466E+04  0.10100000352E+00 0. -1.
</event>
<event>
 5   0  0.3474078E-06  0.2917422E+04  0.7818609E-02  0.8267713E-01
       -1   -1    0    0    0  501  0.00000000000E+00  0.00000000000E+00  0.15317792800E+04  0.15317792800E+04  0.50400001928E-02 0.  1.
        1   -1    0    0  501    0  0.00000000000E+00  0.00000000000E+00 -0.13891284252E+04  0.13891284252E+04  0.50400001928E-02 0. -1.
    10030    2    1    2    0    0  0.00000000000E+00  0.00000000000E+00  0.14265085476E+03  0.29209077052E+04  0.29174222451E+04 0.  0.
        3    1    3    3  502    0  0.13362439524E+04 -0.19182768646E+03  0.62469939679E+03  0.14874794480E+04  0.10100000352E+00 0.  1.
       -3    1    3    3    0  502 -0.13362439524E+04  0.19182768646E+03 -0.48204854203E+03  0.14334282573E+04  0.10100000352E+00 0. -1.
</event>
<event>
 5   0  0.3486236E-06  0.2927774E+04  0.7818609E-02  0.8264662E-01
        1   -1    0    0  501    0  0.00000000000E+00  0.00000000000E+00  0.17153472263E+04  0.17153472263E+04  0.50400001928E-02 0. -1.
       -1   -1    0    0    0  501  0.00000000000E+00  0.00000000000E+00 -0.12492893663E+04  0.12492893663E+04  0.50400001928E-02 0.  1.
    10030    2    1    2    0    0  0.00000000000E+00  0.00000000000E+00  0.46605786000E+03  0.29646365926E+04  0.29277739321E+04 0.  0.
        5    1    3    3  502    0 -0.47895354207E+03  0.22206531432E+03 -0.11495313460E+04  0.12649718987E+04  0.46999998093E+01 0.  1.
       -5    1    3    3    0  502  0.47895354207E+03 -0.22206531432E+03  0.16155892060E+04  0.16996646939E+04  0.46999998093E+01 0. -1.
</event>
<event>
 5   0  0.3474078E-06  0.2855604E+04  0.7818609E-02  0.8286211E-01
       -1   -1    0    0    0  501  0.00000000000E+00  0.00000000000E+00  0.17570980496E+04  0.17570980496E+04  0.50400001928E-02 0.  1.
        1   -1    0    0  501    0  0.00000000000E+00  0.00000000000E+00 -0.11602188811E+04  0.11602188811E+04  0.50400001928E-02 0. -1.
    10030    2    1    2    0    0  0.00000000000E+00  0.00000000000E+00  0.59687916849E+03  0.29173169307E+04  0.28556038472E+04 0.  0.
        3    1    3    3  502    0 -0.49467224047E+03 -0.13268415617E+04  0.48517146929E+03  0.14968635609E+04  0.10100000352E+00 0.  1.
       -3    1    3    3    0  502  0.49467224047E+03  0.13268415617E+04  0.11170769920E+03  0.14204533697E+04  0.10100000352E+00 0. -1.
</event>
<event>
 5   0  0.9360689E-06  0.2190163E+04  0.7818609E-02  0.8522534E-01
       -2   -1    0    0    0  501  0.00000000000E+00  0.00000000000E+00  0.68152236874E+03  0.68152236875E+03  0.25500000920E-02 0.  1.
        2   -1    0    0  501    0  0.00000000000E+00  0.00000000000E+00 -0.17595956126E+04  0.17595956126E+04  0.25500000920E-02 0. -1.
    10030    2    1    2    0    0  0.00000000000E+00  0.00000000000E+00 -0.10780732438E+04  0.24411179813E+04  0.21901632541E+04 0.  0.
        5    1    3    3  502    0  0.14842283087E+02 -0.13070575537E+03 -0.17507460697E+04  0.17556873806E+04  0.46999998093E+01 0. -1.
       -5    1    3    3    0  502 -0.14842283087E+02  0.13070575537E+03  0.67267282583E+03  0.68543060076E+03  0.46999998093E+01 0.  1.
</event>
<event>
 5   0  0.1001573E-05  0.2854900E+04  0.7818609E-02  0.8286424E-01
       -2   -1    0    0    0  501  0.00000000000E+00  0.00000000000E+00  0.15750504128E+04  0.15750504128E+04  0.25500000920E-02 0. -1.
        2   -1    0    0  501    0  0.00000000000E+00  0.00000000000E+00 -0.12936819033E+04  0.12936819033E+04  0.25500000920E-02 0.  1.
    10030    2    1    2    0    0  0.00000000000E+00  0.00000000000E+00  0.28136850943E+03  0.28687323161E+04  0.28549004997E+04 0.  0.
        1    1    3    3  502    0 -0.48517264347E+03 -0.84097114339E+03  0.11921714260E+04  0.15374972088E+04  0.50400001928E-02 0. -1.
       -1    1    3    3    0  502  0.48517264347E+03  0.84097114339E+03 -0.91080291660E+03  0.13312351073E+04  0.50400001928E-02 0.  1.
</event>
<event>
 5   0  0.1001573E-05  0.2829126E+04  0.7818609E-02  0.8294282E-01
       -2   -1    0    0    0  501  0.00000000000E+00  0.00000000000E+00  0.93397198142E+03  0.93397198142E+03  0.25500000920E-02 0.  1.
        2   -1    0    0  501    0  0.00000000000E+00  0.00000000000E+00 -0.21424508427E+04  0.21424508427E+04  0.25500000920E-02 0. -1.
    10030    2    1    2    0    0  0.00000000000E+00  0.00000000000E+00 -0.12084788613E+04  0.30764228241E+04  0.28291264084E+04 0.  0.
        1    1    3    3  502    0  0.11397478868E+04 -0.82199797779E+03 -0.78053129732E+03  0.16074622942E+04  0.50400001928E-02 0.  1.
       -1    1    3    3    0  502 -0.11397478868E+04  0.82199797779E+03 -0.42794756398E+03  0.14689605300E+04  0.50400001928E-02 0. -1.
</event>
<event>
 5   0  0.3649705E-06  0.2898421E+04  0.7818609E-02  0.8273347E-01
        1   -1    0    0  501    0  0.00000000000E+00  0.00000000000E+00  0.13920314104E+04  0.13920314104E+04  0.50400001928E-02 0.  1.
       -1   -1    0    0    0  501  0.00000000000E+00  0.00000000000E+00 -0.15087382730E+04  0.15087382730E+04  0.50400001928E-02 0. -1.
    10030    2    1    2    0    0  0.00000000000E+00  0.00000000000E+00 -0.11670686259E+03  0.29007696834E+04  0.28984209950E+04 0.  0.
        2    1    3    3  502    0  0.69010297580E+03  0.73966996125E+03 -0.10969116781E+04  0.14921692258E+04  0.25500000920E-02 0. -1.
       -2    1    3    3    0  502 -0.69010297580E+03 -0.73966996125E+03  0.98020481552E+03  0.14086004576E+04  0.25500000920E-02 0.  1.
</event>
<event>
 5   0  0.3188375E-06  0.2910300E+04  0.7818609E-02  0.8269820E-01
        4   -1    0    0  501    0  0.00000000000E+00  0.00000000000E+00  0.16150451040E+04  0.16150456034E+04  0.12699999809E+01 0.  1.
       -4   -1    0    0    0  501  0.00000000000E+00  0.00000000000E+00 -0.13110839559E+04  0.13110845710E+04  0.12699999809E+01 0. -1.
    10030    2    1    2    0    0  0.00000000000E+00  0.00000000000E+00  0.30396114812E+03  0.29261301744E+04  0.29102998845E+04 0.  0.
        4    1    3    3  502    0 -0.10103004197E+04  0.51091708784E+02  0.12036828958E+04  0.15723140358E+04  0.12699999809E+01 0.  1.
       -4    1    3    3    0  502  0.10103004197E+04 -0.51091708784E+02 -0.89972174766E+03  0.13538161385E+04  0.12699999809E+01 0. -1.
</event>
<event>
 5   0  0.9251510E-06  0.2944974E+04  0.7818609E-02  0.8259621E-01
        2   -1    0    0  501    0  0.00000000000E+00  0.00000000000E+00  0.12101905198E+04  0.12101905198E+04  0.25500000920E-02 0. -1.
       -2   -1    0    0    0  501  0.00000000000E+00  0.00000000000E+00 -0.17916339007E+04  0.17916339007E+04  0.25500000920E-02 0.  1.
    10030    2    1    2    0    0  0.00000000000E+00  0.00000000000E+00 -0.58144338096E+03  0.30018244205E+04  0.29449742692E+04 0.  0.
        2    1    3    3  502    0 -0.10388805090E+04  0.72569927968E+03  0.47362470124E+03  0.13528608628E+04  0.25500000920E-02 0. -1.
       -2    1    3    3    0  502  0.10388805090E+04 -0.72569927968E+03 -0.10550680822E+04  0.16489635577E+04  0.25500000920E-02 0.  1.
</event>
<event>
 5   0  0.3486236E-06  0.2875808E+04  0.7818609E-02  0.8280112E-01
        1   -1    0    0  501    0  0.00000000000E+00  0.00000000000E+00  0.11888200585E+04  0.11888200586E+04  0.50400001928E-02 0. -1.
       -1   -1    0    0    0  501  0.00000000000E+00  0.00000000000E+00 -0.17391768188E+04  0.17391768188E+04  0.50400001928E-02 0.  1.
    10030    2    1    2    0    0  0.00000000000E+00  0.00000000000E+00 -0.55035676023E+03  0.29279968773E+04  0.28758082603E+04 0.  0.
        5    1    3    3  502    0  0.10760942119E+03 -0.87182416554E+03 -0.14342081469E+04  0.16818538170E+04  0.46999998093E+01 0.  1.
       -5    1    3    3    0  502 -0.10760942119E+03  0.87182416554E+03  0.88385138665E+03  0.12461430603E+04  0.46999998093E+01 0. -1.
</event>
<event>
 5   0  0.3746518E-06  0.2897065E+04  0.7818609E-02  0.8273751E-01
       -1   -1    0    0    0  501  0.00000000000E+00  0.00000000000E+00  0.12709802261E+04  0.12709802261E+04  0.50400001928E-02 0. -1.
        1   -1    0    0  501    0  0.00000000000E+00  0.00000000000E+00 -0.16508885428E+04  0.16508885428E+04  0.50400001928E-02 0.  1.
    10030    2    1    2    0    0  0.00000000000E+00  0.00000000000E+00 -0.37990831670E+03  0.29218687689E+04  0.28970652001E+04 0.  0.
        4    1    3    3  502    0 -0.72758541440E+03  0.34728046795E+03 -0.14036946151E+04  0.16187478013E+04  0.12699999809E+01 0.  1.
       -4    1    3    3    0  502  0.72758541440E+03 -0.34728046795E+03  0.10237862984E+04  0.13031209677E+04  0.12699999809E+01 0. -1.
</event>
<event>
 5   0  0.3474078E-06  0.2926169E+04  0.7818609E-02  0.8265134E-01
       -1   -1    0    0    0  501  0.00000000000E+00  0.00000000000E+00  0.90321400970E+03  0.90321400972E+03  0.50400001928E-02 0.  1.
        1   -1    0    0  501    0  0.00000000000E+00  0.00000000000E+00 -0.23699993207E+04  0.23699993207E+04  0.50400001928E-02 0. -1.
    10030    2    1    2    0    0  0.00000000000E+00  0.00000000000E+00 -0.14667853109E+04  0.32732133304E+04  0.29261692292E+04 0.  0.
        3    1    3    3  502    0  0.17532317421E+03  0.33532541589E+03 -0.23143175010E+04  0.23450473035E+04  0.10100000352E+00 0. -1.
       -3    1    3    3    0  502 -0.17532317421E+03 -0.33532541589E+03  0.84753219009E+03  0.92816602685E+03  0.10100000352E+00 0.  1.
</event>
<event>
 5   0  0.3486236E-06  0.2893849E+04  0.7818609E-02  0.8274710E-01
        1   -1    0    0  501    0  0.00000000000E+00  0.00000000000E+00  0.15005521279E+04  0.15005521279E+04  0.50400001928E-02 0. -1.
       -1   -1    0    0    0  501  0.00000000000E+00  0.00000000000E+00 -0.13952132646E+04  0.13952132646E+04  0.50400001928E-02 0.  1.
    10030    2    1    2    0    0  0.00000000000E+00  0.00000000000E+00  0.10533886331E+03  0.28957653925E+04  0.28938488095E+04 0.  0.
        5    1    3    3  502    0  0.99791083332E+03 -0.80433509713E+03  0.72452095522E+03  0.14723225476E+04  0.46999998093E+01 0. -1.
       -5    1    3    3    0  502 -0.99791083332E+03  0.80433509713E+03 -0.61918209191E+03  0.14234428449E+04  0.46999998093E+01 0.  1.
</event>
<event>
 5   0  0.9251510E-06  0.2559719E+04  0.7818609E-02  0.8382014E-01
        2   -1    0    0  501    0  0.00000000000E+00  0.00000000000E+00  0.21781132987E+04  0.21781132987E+04  0.25500000920E-02 0.  1.
       -2   -1    0    0    0  501  0.00000000000E+00  0.00000000000E+00 -0.75204533195E+03  0.75204533196E+03  0.25500000920E-02 0. -1.
    10030    2    1    2    0    0  0.00000000000E+00  0.00000000000E+00  0.14260679667E+04  0.29301586306E+04  0.25597186867E+04 0.  0.
        2    1    3    3  502    0 -0.77581271874E+03  0.99372683715E+03  0.96555167228E+03  0.15879762068E+04  0.25500000920E-02 0.  1.
       -2    1    3    3    0  502  0.77581271874E+03 -0.99372683715E+03  0.46051629444E+03  0.13421824239E+04  0.25500000920E-02 0. -1.
</event>
<event>
 5   0  0.9251510E-06  0.2894360E+04  0.7818609E-02  0.8274557E-01
       -2   -1    0    0    0  501  0.00000000000E+00  0.00000000000E+00  0.11661836021E+04  0.11661836021E+04  0.25500000920E-02 0. -1.
        2   -1    0    0  501    0  0.00000000000E+00  0.00000000000E+00 -0.17958837946E+04  0.17958837946E+04  0.25500000920E-02 0.  1.
    10030    2    1    2    0    0  0.00000000000E+00  0.00000000000E+00 -0.62970019254E+03  0.29620673967E+04  0.28943601936E+04 0.  0.
        2    1    3    3  502    0  0.12792879634E+04 -0.12097904037E+03 -0.99609203238E+03  0.16258576071E+04  0.25500000920E-02 0. -1.
       -2    1    3    3    0  502 -0.12792879634E+04  0.12097904037E+03  0.36639183983E+03  0.13362097896E+04  0.25500000920E-02 0.  1.
</event>
<event>
 5   0  0.3746518E-06  0.2911135E+04  0.7818609E-02  0.8269572E-01
        1   -1    0    0  501    0  0.00000000000E+00  0.00000000000E+00  0.12223448333E+04  0.12223448333E+04  0.50400001928E-02 0. -1.
       -1   -1    0    0    0  501  0.00000000000E+00  0.00000000000E+00 -0.17332883414E+04  0.17332883414E+04  0.50400001928E-02 0.  1.
    10030    2    1    2    0    0  0.00000000000E+00  0.00000000000E+00 -0.51094350813E+03  0.29556331748E+04  0.29111345203E+04 0.  0.
        4    1    3    3  502    0 -0.12235934659E+04 -0.76143972913E+03 -0.46280642604E+03  0.15136587567E+04  0.12699999809E+01 0.  1.
       -4    1    3    3    0  502  0.12235934659E+04  0.76143972913E+03 -0.48137082091E+02  0.14419744181E+04  0.12699999809E+01 0. -1.
</event>
<event>
 5   0  0.3564340E-06  0.3163857E+04  0.7818609E-02  0.8198428E-01
        1   -1    0    0  501    0  0.00000000000E+00  0.00000000000E+00  0.18804730793E+04  0.18804730793E+04  0.50400001928E-02 0.  1.
       -1   -1    0    0    0  501  0.00000000000E+00  0.00000000000E+00 -0.13307806411E+04  0.13307806411E+04  0.50400001928E-02 0. -1.
    10030    2    1    2    0    0  0.00000000000E+00  0.00000000000E+00  0.54969243820E+03  0.32112537205E+04  0.31638566150E+04 0.  0.
        1    1    3    3  502    0  0.13076926370E+04  0.82999441352E+03  0.60145311641E+03  0.16615344145E+04  0.50400001928E-02 0.  1.
       -1    1    3    3    0  502 -0.13076926370E+04 -0.82999441352E+03 -0.51760678207E+02  0.15497193059E+04  0.50400001928E-02 0. -1.
</event>
<event>
 5   0  0.3564340E-06  0.2916108E+04  0.7818609E-02  0.8268101E-01
        1   -1    0    0  501    0  0.00000000000E+00  0.00000000000E+00  0.24204203465E+04  0.24204203465E+04  0.50400001928E-02 0. -1.
       -1   -1    0    0    0  501  0.00000000000E+00  0.00000000000E+00 -0.87832742590E+03  0.87832742591E+03  0.50400001928E-02 0.  1.
    10030    2    1    2    0    0  0.00000000000E+00  0.00000000000E+00  0.15420929206E+04  0.32987477724E+04  0.29161080725E+04 0.  0.
        1    1    3    3  502    0 -0.52603686345E+03  0.12256940910E+04  0.14372939983E+04  0.19608301365E+04  0.50400001928E-02 0. -1.
       -1    1    3    3    0  502  0.52603686345E+03 -0.12256940910E+04  0.10479892234E+03  0.13379176360E+04  0.50400001928E-02 0.  1.
</event>
<event>
 5   0  0.3486236E-06  0.2761804E+04  0.7818609E-02  0.8315226E-01
        1   -1    0    0  501    0  0.00000000000E+00  0.00000000000E+00  0.22498425949E+04  0.22498425949E+04  0.50400001928E-02 0. -1.
       -1   -1    0    0    0  501  0.00000000000E+00  0.00000000000E+00 -0.84756588595E+03  0.84756588597E+03  0.50400001928E-02 0.  1.
    10030    2    1    2    0    0  0.00000000000E+00  0.00000000000E+00  0.14022767089E+04  0.30974084808E+04  0.27618036369E+04 0.  0.
        5    1    3    3  502    0  0.13163534700E+04 -0.41505871069E+03  0.74881996780E+03  0.15702909366E+04  0.46999998093E+01 0. -1.
       -5    1    3    3    0  502 -0.13163534700E+04  0.41505871069E+03  0.65345674112E+03  0.15271175442E+04  0.46999998093E+01 0.  1.
</event>
<event>
 5   0  0.9505359E-06  0.2893350E+04  0.7818609E-02  0.8274859E-01
        2   -1    0    0  501    0  0.00000000000E+00  0.00000000000E+00  0.79619187313E+03  0.79619187313E+03  0.25500000920E-02 0.  1.
       -2   -1    0    0    0  501  0.00000000000E+00  0.00000000000E+00 -0.26285975211E+04  0.26285975211E+04  0.25500000920E-02 0. -1.
    10030    2    1    2    0    0  0.00000000000E+00  0.00000000000E+00 -0.18324056479E+04  0.34247893942E+04  0.28933496049E+04 0.  0.
        4    1    3    3  502    0  0.78211152536E+03  0.20376722254E+03  0.50403456961E+03  0.95250825684E+03  0.12699999809E+01 0.  1.
       -4    1    3    3    0  502 -0.78211152536E+03 -0.20376722254E+03 -0.23364402175E+04  0.24722811374E+04  0.12699999809E+01 0. -1.
</event>
<event>
 5   0  0.9646321E-06  0.2867146E+04  0.7818609E-02  0.8282720E-01
        2   -1    0    0  501    0  0.00000000000E+00  0.00000000000E+00  0.12640902682E+04  0.12640902682E+04  0.25500000920E-02 0. -1.
       -2   -1    0    0    0  501  0.00000000000E+00  0.00000000000E+00 -0.16257785942E+04  0.16257785942E+04  0.25500000920E-02 0.  1.
    10030    2    1    2    0    0  0.00000000000E+00  0.00000000000E+00 -0.36168832600E+03  0.28898688623E+04  0.28671455485E+04 0.  0.
        3    1    3    3  502    0  0.96716223454E+03  0.56456115141E+03 -0.10829226591E+04  0.15578361844E+04  0.10100000352E+00 0.  1.
       -3    1    3    3    0  502 -0.96716223454E+03 -0.56456115141E+03  0.72123433311E+03  0.13320326779E+04  0.10100000352E+00 0. -1.
</event>
<event>
 5   0  0.1001573E-05  0.2873144E+04  0.7818609E-02  0.8280913E-01
        2   -1    0    0  501    0  0.00000000000E+00  0.00000000000E+00  0.11769438292E+04  0.11769438292E+04  0.25500000920E-02 0. -1.
       -2   -1    0    0    0  501  0.00000000000E+00  0.00000000000E+00 -0.17534727842E+04  0.17534727842E+04  0.25500000920E-02 0.  1.
    10030    2    1    2    0    0  0.00000000000E+00  0.00000000000E+00 -0.57652895504E+03  0.29304166135E+04  0.28731439039E+04 0.  0.
        1    1    3    3  502    0  0.10752173235E+04 -0.27715181005E+03  0.64140592174E+03  0.12823053361E+04  0.50400001928E-02 0. -1.
       -1    1    3    3    0  502 -0.10752173235E+04  0.27715181005E+03 -0.12179348768E+04  0.16481112774E+04  0.50400001928E-02 0.  1.
</event>
<event>
 5   0  0.9646321E-06  0.2892343E+04  0.7818609E-02  0.8275159E-01
       -2   -1    0    0    0  501  0.00000000000E+00  0.00000000000E+00  0.17949924411E+04  0.17949924411E+04  0.25500000920E-02 0.  1.
        2   -1    0    0  501    0  0.00000000000E+00  0.00000000000E+00 -0.11651367427E+04  0.11651367427E+04  0.25500000920E-02 0. -1.
    10030    2    1    2    0    0  0.00000000000E+00  0.00000000000E+00  0.62985569832E+03  0.29601291838E+04  0.28923427501E+04 0.  0.
        3    1    3    3  502    0 -0.10871015845E+04 -0.93765489662E+03  0.49344368220E+03  0.15180491553E+04  0.10100000352E+00 0.  1.
       -3    1    3    3    0  502  0.10871015845E+04  0.93765489662E+03  0.13641201611E+03  0.14420800285E+04  0.10100000352E+00 0. -1.
</event>
<event>
 5   0  0.9360689E-06  0.2926765E+04  0.7818609E-02  0.8264958E-01
        2   -1    0    0  501    0  0.00000000000E+00  0.00000000000E+00  0.14807491421E+04  0.14807491421E+04  0.25500000920E-02 0.  1.
       -2   -1    0    0    0  501  0.00000000000E+00  0.00000000000E+00 -0.14462198576E+04  0.14462198576E+04  0.25500000920E-02 0. -1.
    10030    2    1    2    0    0  0.00000000000E+00  0.00000000000E+00  0.34529284516E+02  0.29269689997E+04  0.29267653226E+04 0.  0.
        5    1    3    3  502    0  0.37472525618E+03  0.14138817325E+04 -0.27304729049E+02  0.14629587176E+04  0.46999998093E+01 0.  1.
       -5    1    3    3    0  502 -0.37472525618E+03 -0.14138817325E+04  0.61834013565E+02  0.14640102822E+04  0.46999998093E+01 0. -1.
</event>
<event>
 5   0  0.9360689E-06  0.2938593E+04  0.7818609E-02  0.8261487E-01
       -2   -1    0    0    0  501  0.00000000000E+00  0.00000000000E+00  0.14533430484E+04  0.14533430484E+04  0.25500000920E-02 0.  1.
        2   -1    0    0  501    0  0.00000000000E+00  0.00000000000E+00 -0.14854247682E+04  0.14854247682E+04  0.25500000920E-02 0. -1.
    10030    2    1    2    0    0  0.00000000000E+00  0.00000000000E+00 -0.32081719783E+02  0.29387678166E+04  0.29385926977E+04 0.  0.
        5    1    3    3  502    0 -0.26153601808E+03  0.36663640742E+03 -0.14146900150E+04  0.14846525763E+04  0.46999998093E+01 0. -1.
       -5    1    3    3    0  502  0.26153601808E+03 -0.36663640742E+03  0.13826082952E+04  0.14541152402E+04  0.46999998093E+01 0.  1.
</event>
<event>
 5   0  0.3474078E-06  0.2894108E+04  0.7818609E-02  0.8274633E-01
       -1   -1    0    0    0  501  0.00000000000E+00  0.00000000000E+00  0.10964255205E+04  0.10964255205E+04  0.50400001928E-02 0. -1.
        1   -1    0    0  501    0  0.00000000000E+00  0.00000000000E+00 -0.19098114281E+04  0.19098114281E+04  0.50400001928E-02 0.  1.
    10030    2    1    2    0    0  0.00000000000E+00  0.00000000000E+00 -0.81338590761E+03  0.30062369485E+04  0.28941084907E+04 0.  0.
        3    1    3    3  502    0 -0.50882909783E+03  0.49169737278E+03  0.90446850066E+03  0.11483625891E+04  0.10100000352E+00 0. -1.
       -3    1    3    3    0  502  0.50882909783E+03 -0.49169737278E+03 -0.17178544083E+04  0.18578743594E+04  0.10100000352E+00 0.  1.
</event>
<event>
 5   0  0.9505359E-06  0.2908597E+04  0.7818609E-02  0.8270324E-01
        2   -1    0    0  501    0  0.00000000000E+00  0.00000000000E+00  0.19045312721E+04  0.19045312721E+04  0.25500000920E-02 0. -1.
       -2   -1    0    0    0  501  0.00000000000E+00  0.00000000000E+00 -0.11105013246E+04  0.11105013246E+04  0.25500000920E-02 0.  1.
    10030    2    1    2    0    0  0.00000000000E+00  0.00000000000E+00  0.79402994756E+03  0.30150325967E+04  0.29085972567E+04 0.  0.
        4    1    3    3  502    0 -0.12285519685E+04 -0.22188384861E+03  0.11702403213E+04  0.17111506082E+04  0.12699999809E+01 0.  1.
       -4    1    3    3    0  502  0.12285519685E+04  0.22188384861E+03 -0.37621037370E+03  0.13038819885E+04  0.12699999809E+01 0. -1.
</event>
<event>
 5   0  0.3474078E-06  0.2560917E+04  0.7818609E-02  0.8381599E-01
       -1   -1    0    0    0  501  0.00000000000E+00  0.00000000000E+00  0.12054168414E+04  0.12054168414E+04  0.50400001928E-02 0.  1.
        1   -1    0    0  501    0  0.00000000000E+00  0.00000000000E+00 -0.13601720461E+04  0.13601720461E+04  0.50400001928E-02 0. -1.
    10030    2    1    2    0    0  0.00000000000E+00  0.00000000000E+00 -0.15475520471E+03  0.25655888875E+04  0.25609172510E+04 0.  0.
        3    1    3    3  502    0 -0.88248232972E+03 -0.91747537120E+03 -0.21560815141E+03  0.12911324503E+04  0.10100000352E+00 0. -1.
       -3    1    3    3    0  502  0.88248232972E+03  0.91747537120E+03  0.60852946694E+02  0.12744564372E+04  0.10100000352E+00 0.  1.
</event>
<event>
 5   0  0.3649705E-06  0.2898143E+04  0.7818609E-02  0.8273430E-01
        1   -1    0    0  501    0  0.00000000000E+00  0.00000000000E+00  0.18152301383E+04  0.18152301383E+04  0.50400001928E-02 0.  1.
       -1   -1    0    0    0  501  0.00000000000E+00  0.00000000000E+00 -0.11567725691E+04  0.11567725691E+04  0.50400001928E-02 0. -1.
    10030    2    1    2    0    0  0.00000000000E+00  0.00000000000E+00  0.65845756920E+03  0.29720027075E+04  0.28981431509E+04 0.  0.
        2    1    3    3  502    0 -0.12399335070E+04 -0.71475913142E+03  0.96525638434E+02  0.14344451598E+04  0.25500000920E-02 0. -1.
       -2    1    3    3    0  502  0.12399335070E+04  0.71475913142E+03  0.56193193076E+03  0.15375575477E+04  0.25500000920E-02 0.  1.
</event>
<event>
 5   0  0.3746518E-06  0.2802957E+04  0.7818609E-02  0.8302351E-01
        1   -1    0    0  501    0  0.00000000000E+00  0.00000000000E+00  0.88909772092E+03  0.88909772094E+03  0.50400001928E-02 0. -1.
       -1   -1    0    0    0  501  0.00000000000E+00  0.00000000000E+00 -0.22091401948E+04  0.22091401948E+04  0.50400001928E-02 0.  1.
    10030    2    1    2    0    0  0.00000000000E+00  0.00000000000E+00 -0.13200424739E+04  0.30982379158E+04  0.28029566621E+04 0.  0.
        4    1    3    3  502    0 -0.90895356835E+03 -0.14151692832E+03 -0.18287211716E+04  0.20470579784E+04  0.12699999809E+01 0.  1.
       -4    1    3    3    0  502  0.90895356835E+03  0.14151692832E+03  0.50867869770E+03  0.10511799374E+04  0.12699999809E+01 0. -1.
</event>
<event>
 5   0  0.9505359E-06  0.2864926E+04  0.7818609E-02  0.8283390E-01
        2   -1    0    0  501    0  0.00000000000E+00  0.00000000000E+00  0.15721384670E+04  0.15721384670E+04  0.25500000920E-02 0.  1.
       -2   -1    0    0    0  501  0.00000000000E+00  0.00000000000E+00 -0.13051971566E+04  0.13051971566E+04  0.25500000920E-02 0. -1.
    10030    2    1    2    0    0  0.00000000000E+00  0.00000000000E+00  0.26694131046E+03  0.28773356236E+04  0.28649262866E+04 0.  0.
        4    1    3    3  502    0 -0.69676867079E+03  0.11851468539E+04  0.53756825841E+03  0.14761574751E+04  0.12699999809E+01 0. -1.
       -4    1    3    3    0  502  0.69676867079E+03 -0.11851468539E+04 -0.27062694795E+03  0.14011781485E+04  0.12699999809E+01 0.  1.
</event>
<event>
 5   0  0.3486236E-06  0.3000345E+04  0.7818609E-02  0.8243632E-01
       -1   -1    0    0    0  501  0.00000000000E+00  0.00000000000E+00  0.83572145634E+03  0.83572145635E+03  0.50400001928E-02 0.  1.
        1   -1    0    0  501    0  0.00000000000E+00  0.00000000000E+00 -0.26929047199E+04  0.26929047199E+04  0.50400001928E-02 0. -1.
    10030    2    1    2    0    0  0.00000000000E+00  0.00000000000E+00 -0.18571832635E+04  0.35286261762E+04  0.30003454830E+04 0.  0.
        5    1    3    3  502    0 -0.96392307687E+03 -0.11477526439E+04 -0.10030876323E+04  0.18035217542E+04  0.46999998093E+01 0.  1.
       -5    1    3    3    0  502  0.96392307687E+03  0.11477526439E+04 -0.85409563121E+03  0.17251044220E+04  0.46999998093E+01 0. -1.
</event>
<event>
 5   0  0.3486236E-06  0.2858845E+04  0.7818609E-02  0.8285229E-01
       -1   -1    0    0    0  501  0.00000000000E+00  0.00000000000E+00  0.13005100031E+04  0.13005100031E+04  0.50400001928E-02 0.  1.
        1   -1    0    0  501    0  0.00000000000E+00  0.00000000000E+00 -0.15711132336E+04  0.15711132336E+04  0.50400001928E-02 0. -1.
    10030    2    1    2    0    0  0.00000000000E+00  0.00000000000E+00 -0.27060323055E+03  0.28716232367E+04  0.28588448550E+04 0.  0.
        5    1    3    3  502    0  0.37042096212E+03 -0.60740423030E+03 -0.13806313915E+04  0.15531634548E+04  0.46999998093E+01 0. -1.
       -5    1    3    3    0  502 -0.37042096212E+03  0.60740423030E+03  0.11100281610E+04  0.13184597818E+04  0.46999998093E+01 0.  1.
</event>
<event>
 5   0  0.3486236E-06  0.2881003E+04  0.7818609E-02  0.8278552E-01
        1   -1    0    0  501    0  0.00000000000E+00  0.00000000000E+00  0.29269339706E+04  0.29269339706E+04  0.50400001928E-02 0. -1.
       -1   -1    0    0    0  501  0.00000000000E+00  0.00000000000E+00 -0.70894803591E+03  0.70894803593E+03  0.50400001928E-02 0.  1.
    10030    2    1    2    0    0  0.00000000000E+00  0.00000000000E+00  0.22179859347E+04  0.36358820065E+04  0.28810026656E+04 0.  0.
        5    1    3    3  502    0 -0.21987793600E+03 -0.89047675084E+03 -0.29277337786E+03  0.96282578451E+03  0.46999998093E+01 0.  1.
       -5    1    3    3    0  502  0.21987793600E+03  0.89047675084E+03  0.25107593126E+04  0.26730562220E+04  0.46999998093E+01 0. -1.
</event>
<event>
 5   0  0.9360689E-06  0.2265705E+04  0.7818609E-02  0.8491567E-01
        2   -1    0    0  501    0  0.00000000000E+00  0.00000000000E+00  0.15820575501E+04  0.15820575501E+04  0.25500000920E-02 0. -1.
       -2   -1    0    0    0  501  0.00000000000E+00  0.00000000000E+00 -0.81119368028E+03  0.81119368029E+03  0.25500000920E-02 0.  1.
    10030    2    1    2    0    0  0.00000000000E+00  0.00000000000E+00  0.77086386978E+03  0.23932512303E+04  0.22657052646E+04 0.  0.
        5    1    3    3  502    0  0.68175871567E+03  0.14421513168E+03  0.13288747338E+04  0.15005076137E+04  0.46999998093E+01 0. -1.
       -5    1    3    3    0  502 -0.68175871567E+03 -0.14421513168E+03 -0.55801086407E+03  0.89274361662E+03  0.46999998093E+01 0.  1.
</event>
<event>
 5   0  0.1001573E-05  0.3084880E+04  0.7818609E-02  0.8219900E-01
       -2   -1    0    0    0  501  0.00000000000E+00  0.00000000000E+00  0.15513038179E+04  0.15513038179E+04  0.25500000920E-02 0.  1.
        2   -1    0    0  501    0  0.00000000000E+00  0.00000000000E+00 -0.15336263413E+04  0.15336263413E+04  0.25500000920E-02 0. -1.
    10030    2    1    2    0    0  0.00000000000E+00  0.00000000000E+00  0.17677476604E+02  0.30849301593E+04  0.30848795105E+04 0.  0.
        1    1    3    3  502    0  0.15626060705E+03 -0.15071597156E+04 -0.27956262107E+03  0.15408124626E+04  0.50400001928E-02 0.  1.
       -1    1    3    3    0  502 -0.15626060705E+03  0.15071597156E+04  0.29724009768E+03  0.15441176967E+04  0.50400001928E-02 0. -1.
</event>
<event>
 5   0  0.3649705E-06  0.2881478E+04  0.7818609E-02  0.8278410E-01
        1   -1    0    0  501    0  0.00000000000E+00  0.00000000000E+00  0.17787375482E+04  0.17787375482E+04  0.50400001928E-02 0.  1.
       -1   -1    0    0    0  501  0.00000000000E+00  0.00000000000E+00 -0.11669671626E+04  0.11669671626E+04  0.50400001928E-02 0. -1.
    10030    2    1    2    0    0  0.00000000000E+00  0.00000000000E+00  0.61177038564E+03  0.29457047108E+04  0.28814776138E+04 0.  0.
        2    1    3    3  502    0 -0.23563140747E+03 -0.65436358281E+03  0.15957597079E+04  0.17407363108E+04  0.25500000920E-02 0.  1.
       -2    1    3    3    0  502  0.23563140747E+03  0.65436358281E+03 -0.98398932221E+03  0.12049684000E+04  0.25500000920E-02 0. -1.
</event>
<event>
 5   0  0.9360689E-06  0.2885912E+04  0.7818609E-02  0.8277081E-01
       -2   -1    0    0    0  501  0.00000000000E+00  0.00000000000E+00  0.10470955398E+04  0.10470955398E+04  0.25500000920E-02 0. -1.
        2   -1    0    0  501    0  0.00000000000E+00  0.00000000000E+00 -0.19884744439E+04  0.19884744439E+04  0.25500000920E-02 0.  1.
    10030    2    1    2    0    0  0.00000000000E+00  0.00000000000E+00 -0.94137890410E+03  0.30355699836E+04  0.28859124873E+04 0.  0.
        5    1    3    3  502    0  0.43660630185E+03  0.12117003120E+03 -0.19116939128E+04  0.19646635706E+04  0.46999998093E+01 0.  1.
       -5    1    3    3    0  502 -0.43660630185E+03 -0.12117003120E+03  0.97031500874E+03  0.10709064130E+04  0.46999998093E+01 0. -1.
</event>
<event>
 5   0  0.1001573E-05  0.3023424E+04  0.7818609E-02  0.8237074E-01
        2   -1    0    0  501    0  0.00000000000E+00  0.00000000000E+00  0.21619328539E+04  0.21619328539E+04  0.25500000920E-02 0.  1.
       -2   -1    0    0    0  501  0.00000000000E+00  0.00000000000E+00 -0.10570506551E+04  0.10570506551E+04  0.25500000920E-02 0. -1.
    10030    2    1    2    0    0  0.00000000000E+00  0.00000000000E+00  0.11048821988E+04  0.32189835091E+04  0.30234235824E+04 0.  0.
        1    1    3    3  502    0 -0.69827680795E+03  0.80420787134E+03  0.16946473669E+04  0.20015420303E+04  0.50400001928E-02 0.  1.
       -1    1    3    3    0  502  0.69827680795E+03 -0.80420787134E+03 -0.58976516808E+03  0.12174414788E+04  0.50400001928E-02 0. -1.
</event>
<event>
 5   0  0.1001573E-05  0.2888877E+04  0.7818609E-02  0.8276195E-01
        2   -1    0    0  501    0  0.00000000000E+00  0.00000000000E+00  0.14297871301E+04  0.14297871301E+04  0.25500000920E-02 0. -1.
       -2   -1    0    0    0  501  0.00000000000E+00  0.00000000000E+00 -0.14592398753E+04  0.14592398753E+04  0.25500000920E-02 0.  1.
    10030    2    1    2    0    0  0.00000000000E+00  0.00000000000E+00 -0.29452745160E+02  0.28890270054E+04  0.28888768706E+04 0.  0.
        1    1    3    3  502    0 -0.93163770410E+03 -0.10376293174E+04  0.36182869411E+03  0.14406746392E+04  0.50400001928E-02 0.  1.
       -1    1    3    3    0  502  0.93163770410E+03  0.10376293174E+04 -0.39128143927E+03  0.14483523662E+04  0.50400001928E-02 0. -1.
</event>
<event>
 5   0  0.9646321E-06  0.2878249E+04  0.7818609E-02  0.8279379E-01
        2   -1    0    0  501    0  0.00000000000E+00  0.00000000000E+00  0.16277379600E+04  0.16277379600E+04  0.25500000920E-02 0.  1.
       -2   -1    0    0    0  501  0.00000000000E+00  0.00000000000E+00 -0.12723662951E+04  0.12723662951E+04  0.25500000920E-02 0. -1.
    10030    2    1    2    0    0  0.00000000000E+00  0.00000000000E+00  0.35537166488E+03  0.29001042551E+04  0.28782487158E+04 0.  0.
        3    1    3    3  502    0 -0.41149728114E+03 -0.42834694624E+03 -0.11430948711E+04  0.12882068984E+04  0.10100000352E+00 0. -1.
       -3    1    3    3    0  502  0.41149728114E+03  0.42834694624E+03  0.14984665359E+04  0.16118973566E+04  0.10100000352E+00 0.  1.
</event>
<event>
 5   0  0.3746518E-06  0.2762605E+04  0.7818609E-02  0.8314973E-01
        1   -1    0    0  501    0  0.00000000000E+00  0.00000000000E+00  0.15551163945E+04  0.15551163945E+04  0.50400001928E-02 0. -1.
       -1   -1    0    0    0  501  0.00000000000E+00  0.00000000000E+00 -0.12269159488E+04  0.12269159489E+04  0.50400001928E-02 0.  1.
    10030    2    1    2    0    0  0.00000000000E+00  0.00000000000E+00  0.32820044567E+03  0.27820323434E+04  0.27626053694E+04 0.  0.
        4    1    3    3  502    0  0.41547718981E+03  0.12942374111E+04 -0.83235809195E+02  0.13618375764E+04  0.12699999809E+01 0.  1.
       -4    1    3    3    0  502 -0.41547718981E+03 -0.12942374111E+04  0.41143625487E+03  0.14201947670E+04  0.12699999809E+01 0. -1.
</event>
<event>
 5   0  0.3746518E-06  0.2855700E+04  0.7818609E-02  0.8286181E-01
       -1   -1    0    0    0  501  0.00000000000E+00  0.00000000000E+00  0.14852448294E+04  0.14852448294E+04  0.50400001928E-02 0. -1.
        1   -1    0    0  501    0  0.00000000000E+00  0.00000000000E+00 -0.13726726831E+04  0.13726726831E+04  0.50400001928E-02 0.  1.
    10030    2    1    2    0    0  0.00000000000E+00  0.00000000000E+00  0.11257214627E+03  0.28579175125E+04  0.28556995675E+04 0.  0.
        4    1    3    3  502    0  0.33363046180E+03 -0.59577688186E+03  0.13112512480E+04  0.14783912968E+04  0.12699999809E+01 0. -1.
       -4    1    3    3    0  502 -0.33363046180E+03  0.59577688186E+03 -0.11986791018E+04  0.13795262157E+04  0.12699999809E+01 0.  1.
</event>
<event>
 5   0  0.3564340E-06  0.2872564E+04  0.7818609E-02  0.8281088E-01
       -1   -1    0    0    0  501  0.00000000000E+00  0.00000000000E+00  0.79585126942E+03  0.79585126943E+03  0.50400001928E-02 0. -1.
        1   -1    0    0  501    0  0.00000000000E+00  0.00000000000E+00 -0.25920738549E+04  0.25920738549E+04  0.50400001928E-02 0.  1.
    10030    2    1    2    0    0  0.00000000000E+00  0.00000000000E+00 -0.17962225855E+04  0.33879251243E+04  0.28725635017E+04 0.  0.
        1    1    3    3  502    0  0.87557465731E+03 -0.88093732178E+03 -0.17487776191E+04  0.21449719593E+04  0.50400001928E-02 0.  1.
       -1    1    3    3    0  502 -0.87557465731E+03  0.88093732178E+03 -0.47444966396E+02  0.12429531650E+04  0.50400001928E-02 0. -1.
</event>
<event>
 5   0  0.9360689E-06  0.3117944E+04  0.7818609E-02  0.8210830E-01
        2   -1    0    0  501    0  0.00000000000E+00  0.00000000000E+00  0.17575766105E+04  0.17575766105E+04  0.25500000920E-02 0. -1.
       -2   -1    0    0    0  501  0.00000000000E+00  0.00000000000E+00 -0.13828096534E+04  0.13828096534E+04  0.25500000920E-02 0.  1.
    10030    2    1    2    0    0  0.00000000000E+00  0.00000000000E+00  0.37476695704E+03  0.31403862639E+04  0.31179441327E+04 0.  0.
        5    1    3    3  502    0  0.34309172091E+03 -0.15067577723E+04 -0.19866638641E+02  0.15454603478E+04  0.46999998093E+01 0.  1.
       -5    1    3    3    0  502 -0.34309172091E+03  0.15067577723E+04  0.39463359568E+03  0.15949259162E+04  0.46999998093E+01 0. -1.
</event>
<event>
 5   0  0.3564340E-06  0.2849535E+04  0.7818609E-02  0.8288053E-01
       -1   -1    0    0    0  501  0.00000000000E+00  0.00000000000E+00  0.65854061444E+03  0.65854061446E+03  0.50400001928E-02 0. -1.
        1   -1    0    0  501    0  0.00000000000E+00  0.00000000000E+00 -0.30825168675E+04  0.30825168675E+04  0.50400001928E-02 0.  1.
    10030    2    1    2    0    0  0.00000000000E+00  0.00000000000E+00 -0.24239762531E+04  0.37410574820E+04  0.28495350863E+04 0.  0.
        1    1    3    3  502    0  0.67019008729E+03  0.35833897572E+03  0.37022010160E+03  0.84535465828E+03  0.50400001928E-02 0. -1.
       -1    1    3    3    0  502 -0.67019008729E+03 -0.35833897572E+03 -0.27941963547E+04  0.28957028237E+04  0.50400001928E-02 0.  1.
</event>
<event>
 5   0  0.9360689E-06  0.2196786E+04  0.7818609E-02  0.8519767E-01
        2   -1    0    0  501    0  0.00000000000E+00  0.00000000000E+00  0.10134343167E+04  0.10134343167E+04  0.25500000920E-02 0.  1.
       -2   -1    0    0    0  501  0.00000000000E+00  0.00000000000E+00 -0.11904734484E+04  0.11904734484E+04  0.25500000920E-02 0. -1.
    10030    2    1    2    0    0  0.00000000000E+00  0.00000000000E+00 -0.17703913174E+03  0.22039077651E+04  0.21967855113E+04 0.  0.
        5    1    3    3  502    0  0.22773748671E+03 -0.27005647629E+03  0.95487621217E+03  0.10181382685E+04  0.46999998093E+01 0.  1.
       -5    1    3    3    0  502 -0.22773748671E+03  0.27005647629E+03 -0.11319153439E+04  0.11857694966E+04  0.46999998093E+01 0. -1.
</event>
<event>
 5   0  0.1001573E-05  0.2916522E+04  0.7818609E-02  0.8267979E-01
       -2   -1    0    0    0  501  0.00000000000E+00  0.00000000000E+00  0.13566488850E+04  0.13566488850E+04  0.25500000920E-02 0. -1.
        2   -1    0    0  501    0  0.00000000000E+00  0.00000000000E+00 -0.15674836717E+04  0.15674836718E+04  0.25500000920E-02 0.  1.
    10030    2    1    2    0    0  0.00000000000E+00  0.00000000000E+00 -0.21083478676E+03  0.29241325567E+04  0.29165218844E+04 0.  0.
        1    1    3    3  502    0 -0.10680998270E+04  0.38167302383E+03 -0.10243315314E+04  0.15283215054E+04  0.50400001928E-02 0.  1.
       -1    1    3    3    0  502  0.10680998270E+04 -0.38167302383E+03  0.81349674465E+03  0.13958110514E+04  0.50400001928E-02 0. -1.
</event>
<event>
 5   0  0.9505359E-06  0.2961147E+04  0.7818609E-02  0.8254913E-01
        2   -1    0    0  501    0  0.00000000000E+00  0.00000000000E+00  0.16489851067E+04  0.16489851067E+04  0.25500000920E-02 0.  1.
       -2   -1    0    0    0  501  0.00000000000E+00  0.00000000000E+00 -0.13293619825E+04  0.13293619825E+04  0.25500000920E-02 0. -1.
    10030    2    1    2    0    0  0.00000000000E+00  0.00000000000E+00  0.31962312420E+03  0.29783470892E+04  0.29611471497E+04 0.  0.
        4    1    3    3  502    0  0.84373201731E+03 -0.35539043387E+03  0.13301468062E+04  0.16147687811E+04  0.12699999809E+01 0.  1.
       -4    1    3    3    0  502 -0.84373201731E+03  0.35539043387E+03 -0.10105236820E+04  0.13635783081E+04  0.12699999809E+01 0. -1.
</event>
<event>
 5   0  0.9360689E-06  0.2913977E+04  0.7818609E-02  0.8268731E-01
       -2   -1    0    0    0  501  0.00000000000E+00  0.00000000000E+00  0.11333000762E+04  0.11333000762E+04  0.25500000920E-02 0.  1.
        2   -1    0    0  501    0  0.00000000000E+00  0.00000000000E+00 -0.18731274184E+04  0.18731274184E+04  0.25500000920E-02 0. -1.
    10030    2    1    2    0    0  0.00000000000E+00  0.00000000000E+00 -0.73982734221E+03  0.30064274946E+04  0.29139769704E+04 0.  0.
        5    1    3    3  502    0 -0.58258920540E+03  0.76912603625E+03  0.75643141506E+03  0.12260406264E+04  0.46999998093E+01 0.  1.
       -5    1    3    3    0  502  0.58258920540E+03 -0.76912603625E+03 -0.14962587573E+04  0.17803868682E+04  0.46999998093E+01 0. -1.
</event>
<event>
 5   0  0.3746518E-06  0.2898581E+04  0.7818609E-02  0.8273300E-01
       -1   -1    0    0    0  501  0.00000000000E+00  0.00000000000E+00  0.10440167316E+04  0.10440167316E+04  0.50400001928E-02 0.  1.
        1   -1    0    0  501    0  0.00000000000E+00  0.00000000000E+00 -0.20118860397E+04  0.20118860397E+04  0.50400001928E-02 0. -1.
    10030    2    1    2    0    0  0.00000000000E+00  0.00000000000E+00 -0.96786930811E+03  0.30559027714E+04  0.28985808166E+04 0.  0.
        4    1    3    3  502    0  0.78305406822E+03 -0.60395285147E+03 -0.16009236885E+04  0.18817255352E+04  0.12699999809E+01 0. -1.
       -4    1    3    3    0  502 -0.78305406822E+03  0.60395285147E+03  0.63305438038E+03  0.11741772362E+04  0.12699999809E+01 0.  1.
</event>
<event>
 5   0  0.1001573E-05  0.2789191E+04  0.7818609E-02  0.8306632E-01
       -2   -1    0    0    0  501  0.00000000000E+00  0.00000000000E+00  0.15341326376E+04  0.15341326376E+04  0.25500000920E-02 0.  1.
        2   -1    0    0  501    0  0.00000000000E+00  0.00000000000E+00 -0.12677504155E+04  0.12677504155E+04  0.25500000920E-02 0. -1.
    10030    2    1    2    0    0  0.00000000000E+00  0.00000000000E+00  0.26638222207E+03  0.28018830531E+04  0.27891914877E+04 0.  0.
        1    1    3    3  502    0  0.26760229976E+03  0.64197924552E+02  0.15065861829E+04  0.15315137254E+04  0.50400001928E-02 0.  1.
       -1    1    3    3    0  502 -0.26760229976E+03 -0.64197924552E+02 -0.12402039609E+04  0.12703693278E+04  0.50400001928E-02 0. -1.
</event>
<event>
 5   0  0.3746518E-06  0.2933501E+04  0.7818609E-02  0.8262979E-01
       -1   -1    0    0    0  501  0.00000000000E+00  0.00000000000E+00  0.12630820689E+04  0.12630820689E+04  0.50400001928E-02 0. -1.
        1   -1    0    0  501    0  0.00000000000E+00  0.00000000000E+00 -0.17032598539E+04  0.17032598540E+04  0.50400001928E-02 0.  1.
    10030    2    1    2    0    0  0.00000000000E+00  0.00000000000E+00 -0.44017778503E+03  0.29663419229E+04  0.29335009666E+04 0.  0.
        4    1    3    3  502    0  0.61477097058E+03 -0.11162556027E+04 -0.95443203918E+03  0.15921407121E+04  0.12699999809E+01 0.  1.
       -4    1    3    3    0  502 -0.61477097058E+03  0.11162556027E+04  0.51425425415E+03  0.13742012108E+04  0.12699999809E+01 0. -1.
</event>
<event>
 5   0  0.3649705E-06  0.2946775E+04  0.7818609E-02  0.8259095E-01
        1   -1    0    0  501    0  0.00000000000E+00  0.00000000000E+00  0.14619245185E+04  0.14619245185E+04  0.50400001928E-02 0.  1.
       -1   -1    0    0    0  501  0.00000000000E+00  0.00000000000E+00 -0.14849400242E+04  0.14849400242E+04  0.50400001928E-02 0. -1.
    10030    2    1    2    0    0  0.00000000000E+00  0.00000000000E+00 -0.23015505690E+02  0.29468645427E+04  0.29467746639E+04 0.  0.
        2    1    3    3  502    0  0.42092075530E+03 -0.95794818065E+03  0.10258431383E+04  0.14653303871E+04  0.25500000920E-02 0.  1.
       -2    1    3    3    0  502 -0.42092075530E+03  0.95794818065E+03 -0.10488586440E+04  0.14815341556E+04  0.25500000920E-02 0. -1.
</event>
<event>
 5   0  0.3649705E-06  0.2747094E+04  0.7818609E-02  0.8319884E-01
        1   -1    0    0  501    0  0.00000000000E+00  0.00000000000E+00  0.21403838089E+04  0.21403838089E+04  0.50400001928E-02 0.  1.
       -1   -1    0    0    0  501  0.00000000000E+00  0.00000000000E+00 -0.88144546522E+03  0.88144546524E+03  0.50400001928E-02 0. -1.
    10030    2    1    2    0    0  0.00000000000E+00  0.00000000000E+00  0.12589383436E+04  0.30218292741E+04  0.27470941754E+04 0.  0.
        2    1    3    3  502    0 -0.31150775446E+02  0.13372368241E+04  0.28606375171E+03  0.13678469083E+04  0.25500000920E-02 0. -1.
       -2    1    3    3    0  502  0.31150775446E+02 -0.13372368241E+04  0.97287459194E+03  0.16539823658E+04  0.25500000920E-02 0.  1.
</event>
<event>
 5   0  0.3564340E-06  0.2751965E+04  0.7818609E-02  0.8318338E-01
        1   -1    0    0  501    0  0.00000000000E+00  0.00000000000E+00  0.25614720679E+04  0.25614720679E+04  0.50400001928E-02 0.  1.
       -1   -1    0    0    0  501  0.00000000000E+00  0.00000000000E+00 -0.73915633695E+03  0.73915633697E+03  0.50400001928E-02 0. -1.
    10030    2    1    2    0    0  0.00000000000E+00  0.00000000000E+00  0.18223157309E+04  0.33006284048E+04  0.27519653420E+04 0.  0.
        1    1    3    3  502    0 -0.42679600784E+03 -0.98008592265E+03 -0.12794709344E+03  0.10766121432E+04  0.50400001928E-02 0. -1.
       -1    1    3    3    0  502  0.42679600784E+03  0.98008592265E+03  0.19502628243E+04  0.22240162617E+04  0.50400001928E-02 0.  1.
</event>
<event>
 5   0  0.3746518E-06  0.2918174E+04  0.7818609E-02  0.8267491E-01
        1   -1    0    0  501    0  0.00000000000E+00  0.00000000000E+00  0.18518481039E+04  0.18518481039E+04  0.50400001928E-02 0.  1.
       -1   -1    0    0    0  501  0.00000000000E+00  0.00000000000E+00 -0.11496270301E+04  0.11496270301E+04  0.50400001928E-02 0. -1.
    10030    2    1    2    0    0  0.00000000000E+00  0.00000000000E+00  0.70222107385E+03  0.30014751340E+04  0.29181738371E+04 0.  0.
        4    1    3    3  502    0  0.10311940133E+04 -0.10204231114E+04  0.19074774952E+03  0.14632193056E+04  0.12699999809E+01 0. -1.
       -4    1    3    3    0  502 -0.10311940133E+04  0.10204231114E+04  0.51147332433E+03  0.15382558284E+04  0.12699999809E+01 0.  1.
</event>
<event>
 5   0  0.9505359E-06  0.2885886E+04  0.7818609E-02  0.8277089E-01
       -2   -1    0    0    0  501  0.00000000000E+00  0.00000000000E+00  0.20781533517E+04  0.20781533517E+04  0.25500000920E-02 0.  1.
        2   -1    0    0  501    0  0.00000000000E+00  0.00000000000E+00 -0.10018917590E+04  0.10018917590E+04  0.25500000920E-02 0. -1.
    10030    2    1    2    0    0  0.00000000000E+00  0.00000000000E+00  0.10762615927E+04  0.30800451107E+04  0.28858861495E+04 0.  0.
        4    1    3    3  502    0 -0.76408403110E+03  0.77616901894E+03 -0.47202496646E+03  0.11870433583E+04  0.12699999809E+01 0. -1.
       -4    1    3    3    0  502  0.76408403110E+03 -0.77616901894E+03  0.15482865592E+04  0.18930017525E+04  0.12699999809E+01 0.  1.
</event>
<event>
 5   0  0.9251510E-06  0.2899952E+04  0.7818609E-02  0.8272892E-01
        2   -1    0    0  501    0  0.00000000000E+00  0.00000000000E+00  0.16300583008E+04  0.16300583009E+04  0.25500000920E-02 0. -1.
       -2   -1    0    0    0  501  0.00000000000E+00  0.00000000000E+00 -0.12897883892E+04  0.12897883892E+04  0.25500000920E-02 0.  1.
    10030    2    1    2    0    0  0.00000000000E+00  0.00000000000E+00  0.34026991166E+03  0.29198466900E+04  0.28999519100E+04 0.  0.
        2    1    3    3  502    0 -0.10847993011E+04  0.84894014584E+03 -0.28567528252E+03  0.14068046282E+04  0.25500000920E-02 0.  1.
       -2    1    3    3    0  502  0.10847993011E+04 -0.84894014584E+03  0.62594519418E+03  0.15130420619E+04  0.25500000920E-02 0. -1.
</event>
<event>
 5   0  0.3486236E-06  0.2868264E+04  0.7818609E-02  0.8282383E-01
       -1   -1    0    0    0  501  0.00000000000E+00  0.00000000000E+00  0.10440831592E+04  0.10440831593E+04  0.50400001928E-02 0. -1.
        1   -1    0    0  501    0  0.00000000000E+00  0.00000000000E+00 -0.19698949545E+04  0.19698949545E+04  0.50400001928E-02 0.  1.
    10030    2    1    2    0    0  0.00000000000E+00  0.00000000000E+00 -0.92581179525E+03  0.30139781138E+04  0.28682636891E+04 0.  0.
        5    1    3    3  502    0  0.13482383357E+04 -0.44902945766E+03 -0.25985892930E+03  0.14446185714E+04  0.46999998093E+01 0. -1.
       -5    1    3    3    0  502 -0.13482383357E+04  0.44902945766E+03 -0.66595286595E+03  0.15693595424E+04  0.46999998093E+01 0.  1.
</event>
<event>
 5   0  0.9251510E-06  0.2904358E+04  0.7818609E-02  0.8271582E-01
        2   -1    0    0  501    0  0.00000000000E+00  0.00000000000E+00  0.17493046097E+04  0.17493046097E+04  0.25500000920E-02 0.  1.
       -2   -1    0    0    0  501  0.00000000000E+00  0.00000000000E+00 -0.12055212713E+04  0.12055212713E+04  0.25500000920E-02 0. -1.
    10030    2    1    2    0    0  0.00000000000E+00  0.00000000000E+00  0.54378333839E+03  0.29548258810E+04  0.29043580475E+04 0.  0.
        2    1    3    3  502    0 -0.26851406674E+03  0.78778104478E+03 -0.93879721651E+03  0.12546071067E+04  0.25500000920E-02 0. -1.
       -2    1    3    3    0  502  0.26851406674E+03 -0.78778104478E+03  0.14825805549E+04  0.17002187743E+04  0.25500000920E-02 0.  1.
</event>
<event>
 5   0  0.3486236E-06  0.2996761E+04  0.7818609E-02  0.8244656E-01
       -1   -1    0    0    0  501  0.00000000000E+00  0.00000000000E+00  0.14475650406E+04  0.14475650406E+04  0.50400001928E-02 0.  1.
        1   -1    0    0  501    0  0.00000000000E+00  0.00000000000E+00 -0.15509801514E+04  0.15509801514E+04  0.50400001928E-02 0. -1.
    10030    2    1    2    0    0  0.00000000000E+00  0.00000000000E+00 -0.10341511084E+03  0.29985451920E+04  0.29967613491E+04 0.  0.
        5    1    3    3  502    0  0.39643860300E+03 -0.13251078209E+04  0.52487173524E+03  0.14793872825E+04  0.46999998093E+01 0.  1.
       -5    1    3    3    0  502 -0.39643860300E+03  0.13251078209E+04 -0.62828684609E+03  0.15191579095E+04  0.46999998093E+01 0. -1.
</event>
<event>
 5   0  0.1001573E-05  0.2905807E+04  0.7818609E-02  0.8271152E-01
       -2   -1    0    0    0  501  0.00000000000E+00  0.00000000000E+00  0.13541046565E+04  0.13541046565E+04  0.25500000920E-02 0. -1.
        2   -1    0    0  501    0  0.00000000000E+00  0.00000000000E+00 -0.15589109647E+04  0.15589109647E+04  0.25500000920E-02 0.  1.
    10030    2    1    2    0    0  0.00000000000E+00  0.00000000000E+00 -0.20480630813E+03  0.29130156212E+04  0.29058070111E+04 0.  0.
        1    1    3    3  502    0  0.33167202408E+03  0.72634147806E+02  0.13137748954E+04  0.13569401338E+04  0.50400001928E-02 0. -1.
       -1    1    3    3    0  502 -0.33167202408E+03 -0.72634147806E+02 -0.15185812035E+04  0.15560754874E+04  0.50400001928E-02 0.  1.
</event>
<event>
 5   0  0.9505359E-06  0.2899560E+04  0.7818609E-02  0.8273008E-01
       -2   -1    0    0    0  501  0.00000000000E+00  0.00000000000E+00  0.99899595375E+03  0.99899595375E+03  0.25500000920E-02 0. -1.
        2   -1    0    0  501    0  0.00000000000E+00  0.00000000000E+00 -0.21039750740E+04  0.21039750740E+04  0.25500000920E-02 0.  1.
    10030    2    1    2    0    0  0.00000000000E+00  0.00000000000E+00 -0.11049791203E+04  0.31029710278E+04  0.28995603706E+04 0.  0.
        4    1    3    3  502    0 -0.39271526368E+03 -0.13856970914E+04 -0.37509180312E+03  0.14883135359E+04  0.12699999809E+01 0.  1.
       -4    1    3    3    0  502  0.39271526368E+03  0.13856970914E+04 -0.72988731716E+03  0.16146574919E+04  0.12699999809E+01 0. -1.
</event>
<event>
 5   0  0.3486236E-06  0.2933557E+04  0.7818609E-02  0.8262963E-01
       -1   -1    0    0    0  501  0.00000000000E+00  0.00000000000E+00  0.16454530665E+04  0.16454530666E+04  0.50400001928E-02 0. -1.
        1   -1    0    0  501    0  0.00000000000E+00  0.00000000000E+00 -0.13075055713E+04  0.13075055713E+04  0.50400001928E-02 0.  1.
    10030    2    1    2    0    0  0.00000000000E+00  0.00000000000E+00  0.33794749529E+03  0.29529586378E+04  0.29335569207E+04 0.  0.
        5    1    3    3  502    0  0.49226585122E+03  0.11737012593E+04 -0.56489987823E+03  0.13924921101E+04  0.46999998093E+01 0.  1.
       -5    1    3    3    0  502 -0.49226585122E+03 -0.11737012593E+04  0.90284737352E+03  0.15604665277E+04  0.46999998093E+01 0. -1.
</event>
<event>
 5   0  0.9505359E-06  0.2909283E+04  0.7818609E-02  0.8270121E-01
       -2   -1    0    0    0  501  0.00000000000E+00  0.00000000000E+00  0.13095609069E+04  0.13095609069E+04  0.25500000920E-02 0.  1.
        2   -1    0    0  501    0  0.00000000000E+00  0.00000000000E+00 -0.16157954790E+04  0.16157954790E+04  0.25500000920E-02 0. -1.
    10030    2    1    2    0    0  0.00000000000E+00  0.00000000000E+00 -0.30623457210E+03  0.29253563858E+04  0.29092834807E+04 0.  0.
        4    1    3    3  502    0  0.11970652932E+03 -0.14240716163E+04 -0.42604150719E+03  0.14912486715E+04  0.12699999809E+01 0. -1.
       -4    1    3    3    0  502 -0.11970652932E+03  0.14240716163E+04  0.11980693509E+03  0.14341077143E+04  0.12699999809E+01 0.  1.
</event>
<event>
 5   0  0.9360689E-06  0.2860964E+04  0.7818609E-02  0.8284587E-01
       -2   -1    0    0    0  501  0.00000000000E+00  0.00000000000E+00  0.14251009595E+04  0.14251009595E+04  0.25500000920E-02 0. -1.
        2   -1    0    0  501    0  0.00000000000E+00  0.00000000000E+00 -0.14358836049E+04  0.14358836049E+04  0.25500000920E-02 0.  1.
    10030    2    1    2    0    0  0.00000000000E+00  0.00000000000E+00 -0.10782645452E+02  0.28609845644E+04  0.28609642452E+04 0.  0.
        5    1    3    3  502    0  0.50317888818E+03 -0.93997962510E+03 -0.95907850571E+03  0.14340865940E+04  0.46999998093E+01 0.  1.
       -5    1    3    3    0  502 -0.50317888818E+03  0.93997962510E+03  0.94829586026E+03  0.14268979703E+04  0.46999998093E+01 0. -1.
</event>
<event>
 5   0  0.1001573E-05  0.2817004E+04  0.7818609E-02  0.8298009E-01
        2   -1    0    0  501    0  0.00000000000E+00  0.00000000000E+00  0.96665342570E+03  0.96665342571E+03  0.25500000920E-02 0.  1.
       -2   -1    0    0    0  501  0.00000000000E+00  0.00000000000E+00 -0.20523154396E+04  0.20523154396E+04  0.25500000920E-02 0. -1.
    10030    2    1    2    0    0  0.00000000000E+00  0.00000000000E+00 -0.10856620139E+04  0.30189688653E+04  0.28170039051E+04 0.  0.
        1    1    3    3  502    0 -0.12950952173E+04 -0.53381336794E+03 -0.38514459069E+03  0.14527782658E+04  0.50400001928E-02 0.  1.
       -1    1    3    3    0  502  0.12950952173E+04  0.53381336794E+03 -0.70051742318E+03  0.15661905995E+04  0.50400001928E-02 0. -1.
</event>
<event>
 5   0  0.3746518E-06  0.2905810E+04  0.7818609E-02  0.8271151E-01
       -1   -1    0    0    0  501  0.00000000000E+00  0.00000000000E+00  0.10305946650E+04  0.10305946650E+04  0.50400001928E-02 0. -1.
        1   -1    0    0  501    0  0.00000000000E+00  0.00000000000E+00 -0.20482673503E+04  0.20482673503E+04  0.50400001928E-02 0.  1.
    10030    2    1    2    0    0  0.00000000000E+00  0.00000000000E+00 -0.10176726853E+04  0.30788620153E+04  0.29058103198E+04 0.  0.
        4    1    3    3  502    0  0.37821472082E+03  0.14017729360E+04 -0.56607236545E+03  0.15583495356E+04  0.12699999809E+01 0.  1.
       -4    1    3    3    0  502 -0.37821472082E+03 -0.14017729360E+04 -0.45160031984E+03  0.15205124797E+04  0.12699999809E+01 0. -1.
</event>
<event>
 5   0  0.1001573E-05  0.2885438E+04  0.7818609E-02  0.8277223E-01
       -2   -1    0    0    0  501  0.00000000000E+00  0.00000000000E+00  0.79992476194E+03  0.79992476194E+03  0.25500000920E-02 0. -1.
        2   -1    0    0  501    0  0.00000000000E+00  0.00000000000E+00 -0.26020419104E+04  0.26020419104E+04  0.25500000920E-02 0.  1.
    10030    2    1    2    0    0  0.00000000000E+00  0.00000000000E+00 -0.18021171484E+04  0.34019666723E+04  0.28854377524E+04 0.  0.
        1    1    3    3  502    0  0.35945047804E+02  0.10528696536E+04 -0.20632150368E+04  0.23166102050E+04  0.50400001928E-02 0.  1.
       -1    1    3    3    0  502 -0.35945047804E+02 -0.10528696536E+04  0.26109788833E+03  0.10853564673E+04  0.50400001928E-02 0. -1.
</event>
<event>
 5   0  0.3649705E-06  0.2888610E+04  0.7818609E-02  0.8276274E-01
       -1   -1    0    0    0  501  0.00000000000E+00  0.00000000000E+00  0.11664161874E+04  0.11664161875E+04  0.50400001928E-02 0. -1.
        1   -1    0    0  501    0  0.00000000000E+00  0.00000000000E+00 -0.17883987179E+04  0.17883987179E+04  0.50400001928E-02 0.  1.
    10030    2    1    2    0    0  0.00000000000E+00  0.00000000000E+00 -0.62198253041E+03  0.29548149053E+04  0.28886101946E+04 0.  0.
        2    1    3    3  502    0 -0.14014303080E+04  0.20516060805E+03 -0.60017078516E+03  0.15382791537E+04  0.25500000920E-02 0.  1.
       -2    1    3    3    0  502  0.14014303080E+04 -0.20516060805E+03 -0.21811745244E+02  0.14165357516E+04  0.25500000920E-02 0. -1.
</event>
<event>
 5   0  0.9646321E-06  0.2878945E+04  0.7818609E-02  0.8279170E-01
        2   -1    0    0  501    0  0.00000000000E+00  0.00000000000E+00  0.91479370265E+03  0.91479370266E+03  0.25500000920E-02 0. -1.
       -2   -1    0    0    0  501  0.00000000000E+00  0.00000000000E+00 -0.22650797342E+04  0.22650797342E+04  0.25500000920E-02 0.  1.
    10030    2    1    2    0    0  0.00000000000E+00  0.00000000000E+00 -0.13502860316E+04  0.31798734369E+04  0.28789447212E+04 0.  0.
        3    1    3    3  502    0  0.11998027710E+04 -0.70968401933E+03 -0.27858448491E+03  0.14215440275E+04  0.10100000352E+00 0. -1.
       -3    1    3    3    0  502 -0.11998027710E+04  0.70968401933E+03 -0.10717015466E+04  0.17583294094E+04  0.10100000352E+00 0.  1.
</event>
<event>
 5   0  0.3746518E-06  0.2801260E+04  0.7818609E-02  0.8302877E-01
        1   -1    0    0  501    0  0.00000000000E+00  0.00000000000E+00  0.14365095919E+04  0.14365095919E+04  0.50400001928E-02 0.  1.
       -1   -1    0    0    0  501  0.00000000000E+00  0.00000000000E+00 -0.13656466933E+04  0.13656466933E+04  0.50400001928E-02 0. -1.
    10030    2    1    2    0    0  0.00000000000E+00  0.00000000000E+00  0.70862898617E+02  0.28021562853E+04  0.28012601266E+04 0.  0.
        4    1    3    3  502    0  0.32702620684E+03  0.12989862007E+04 -0.37390805357E+03  0.13907264774E+04  0.12699999809E+01 0. -1.
       -4    1    3    3    0  502 -0.32702620684E+03 -0.12989862007E+04  0.44477095218E+03  0.14114298078E+04  0.12699999809E+01 0.  1.
</event>
<event>
 5   0  0.3564340E-06  0.2880123E+04  0.7818609E-02  0.8278816E-01
        1   -1    0    0  501    0  0.00000000000E+00  0.00000000000E+00  0.15449489236E+04  0.15449489236E+04  0.50400001928E-02 0.  1.
       -1   -1    0    0    0  501  0.00000000000E+00  0.00000000000E+00 -0.13422950717E+04  0.13422950717E+04  0.50400001928E-02 0. -1.
    10030    2    1    2    0    0  0.00000000000E+00  0.00000000000E+00  0.20265385189E+03  0.28872439953E+04  0.28801231405E+04 0.  0.
        1    1    3    3  502    0 -0.53325001668E+02 -0.72416645540E+03 -0.11453379952E+04  0.13561193658E+04  0.50400001928E-02 0. -1.
       -1    1    3    3    0  502  0.53325001668E+02  0.72416645540E+03  0.13479918471E+04  0.15311246294E+04  0.50400001928E-02 0.  1.
</event>
<event>
 5   0  0.1001573E-05  0.2965696E+04  0.7818609E-02  0.8253595E-01
        2   -1    0    0  501    0  0.00000000000E+00  0.00000000000E+00  0.19197716344E+04  0.19197716344E+04  0.25500000920E-02 0. -1.
       -2   -1    0    0    0  501  0.00000000000E+00  0.00000000000E+00 -0.11453646699E+04  0.11453646699E+04  0.25500000920E-02 0.  1.
    10030    2    1    2    0    0  0.00000000000E+00  0.00000000000E+00  0.77440696452E+03  0.30651363042E+04  0.29656962786E+04 0.  0.
        1    1    3    3  502    0  0.18545608876E+03 -0.11007600362E+04  0.13960326016E+04  0.17874489204E+04  0.50400001928E-02 0. -1.
       -1    1    3    3    0  502 -0.18545608876E+03  0.11007600362E+04 -0.62162563704E+03  0.12776873839E+04  0.50400001928E-02 0.  1.
</event>
<event>
 5   0  0.9505359E-06  0.2881425E+04  0.7818609E-02  0.8278426E-01
        2   -1    0    0  501    0  0.00000000000E+00  0.00000000000E+00  0.28525636924E+04  0.28525636924E+04  0.25500000920E-02 0. -1.
       -2   -1    0    0    0  501  0.00000000000E+00  0.00000000000E+00 -0.72764467298E+03  0.72764467298E+03  0.25500000920E-02 0.  1.
    10030    2    1    2    0    0  0.00000000000E+00  0.00000000000E+00  0.21249190194E+04  0.35802083654E+04  0.28814251856E+04 0.  0.
        4    1    3    3  502    0  0.28928464891E+03 -0.12946894091E+04  0.17606422673E+04  0.22044883942E+04  0.12699999809E+01 0. -1.
       -4    1    3    3    0  502 -0.28928464891E+03  0.12946894091E+04  0.36427675215E+03  0.13757199712E+04  0.12699999809E+01 0.  1.
</event>
<event>
 5   0  0.3486236E-06  0.2957160E+04  0.7818609E-02  0.8256071E-01
        1   -1    0    0  501    0  0.00000000000E+00  0.00000000000E+00  0.11880595629E+04  0.11880595629E+04  0.50400001928E-02 0. -1.
       -1   -1    0    0    0  501  0.00000000000E+00  0.00000000000E+00 -0.18401424256E+04  0.18401424256E+04  0.50400001928E-02 0.  1.
    10030    2    1    2    0    0  0.00000000000E+00  0.00000000000E+00 -0.65208286276E+03  0.30282019885E+04  0.29571599929E+04 0.  0.
        5    1    3    3  502    0 -0.58671091066E+03  0.34437552087E+03 -0.16703441611E+04  0.18035786367E+04  0.46999998093E+01 0.  1.
       -5    1    3    3    0  502  0.58671091066E+03 -0.34437552087E+03  0.10182612984E+04  0.12246233518E+04  0.46999998093E+01 0. -1.
</event>
<event>
 5   0  0.1001573E-05  0.2837713E+04  0.7818609E-02  0.8291655E-01
       -2   -1    0    0    0  501  0.00000000000E+00  0.00000000000E+00  0.11724513262E+04  0.11724513262E+04  0.25500000920E-02 0. -1.
        2   -1    0    0  501    0  0.00000000000E+00  0.00000000000E+00 -0.17170466461E+04  0.17170466461E+04  0.25500000920E-02 0.  1.
    10030    2    1    2    0    0  0.00000000000E+00  0.00000000000E+00 -0.54459531987E+03  0.28894979723E+04  0.28377128941E+04 0.  0.
        1    1    3    3  502    0 -0.29858027067E+02  0.23185375407E+03  0.11527073407E+04  0.11761725547E+04  0.50400001928E-02 0. -1.
       -1    1    3    3    0  502  0.29858027067E+02 -0.23185375407E+03 -0.16973026606E+04  0.17133254176E+04  0.50400001928E-02 0.  1.
</event>
<event>
 5   0  0.9646321E-06  0.2904399E+04  0.7818609E-02  0.8271570E-01
        2   -1    0    0  501    0  0.00000000000E+00  0.00000000000E+00  0.20621793049E+04  0.20621793049E+04  0.25500000920E-02 0.  1.
       -2   -1    0    0    0  501  0.00000000000E+00  0.00000000000E+00 -0.10226481178E+04  0.10226481178E+04  0.25500000920E-02 0. -1.
    10030    2    1    2    0    0  0.00000000000E+00  0.00000000000E+00  0.10395311871E+04  0.30848274227E+04  0.29043992733E+04 0.  0.
        3    1    3    3  502    0  0.76890919285E+03  0.54458289360E+02 -0.78742043177E+03  0.11019156042E+04  0.10100000352E+00 0. -1.
       -3    1    3    3    0  502 -0.76890919285E+03 -0.54458289360E+02  0.18269516189E+04  0.19829118185E+04  0.10100000352E+00 0.  1.
</event>
<event>
 5   0  0.3564340E-06  0.2881779E+04  0.7818609E-02  0.8278319E-01
        1   -1    0    0  501    0  0.00000000000E+00  0.00000000000E+00  0.15448449018E+04  0.15448449018E+04  0.50400001928E-02 0.  1.
       -1   -1    0    0    0  501  0.00000000000E+00  0.00000000000E+00 -0.13439296789E+04  0.13439296789E+04  0.50400001928E-02 0. -1.
    10030    2    1    2    0    0  0.00000000000E+00  0.00000000000E+00  0.20091522290E+03  0.28887745807E+04  0.28817792509E+04 0.  0.
        1    1    3    3  502    0  0.61341991400E+02  0.12452798979E+04  0.82448371675E+03  0.14947435443E+04  0.50400001928E-02 0.  1.
       -1    1    3    3    0  502 -0.61341991400E+02 -0.12452798979E+04 -0.62356849385E+03  0.13940310364E+04  0.50400001928E-02 0. -1.
</event>
<event>
 5   0  0.3564340E-06  0.2851485E+04  0.7818609E-02  0.8287460E-01
        1   -1    0    0  501    0  0.00000000000E+00  0.00000000000E+00  0.16677471643E+04  0.16677471643E+04  0.50400001928E-02 0.  1.
       -1   -1    0    0    0  501  0.00000000000E+00  0.00000000000E+00 -0.12188548602E+04  0.12188548602E+04  0.50400001928E-02 0. -1.
    10030    2    1    2    0    0  0.00000000000E+00  0.00000000000E+00  0.44889230414E+03  0.28866020245E+04  0.28514850424E+04 0.  0.
        1    1    3    3  502    0 -0.72395946050E+02 -0.13074509589E+04  0.79537095680E+03  0.15320849003E+04  0.50400001928E-02 0.  1.
       -1    1    3    3    0  502  0.72395946050E+02  0.13074509589E+04 -0.34647865266E+03  0.13545171241E+04  0.50400001928E-02 0. -1.
</event>
<event>
 5   0  0.3474078E-06  0.2887606E+04  0.7818609E-02  0.8276575E-01
        1   -1    0    0  501    0  0.00000000000E+00  0.00000000000E+00  0.24599999435E+04  0.24599999435E+04  0.50400001928E-02 0.  1.
       -1   -1    0    0    0  501  0.00000000000E+00  0.00000000000E+00 -0.84738500354E+03  0.84738500356E+03  0.50400001928E-02 0. -1.
    10030    2    1    2    0    0  0.00000000000E+00  0.00000000000E+00  0.16126149400E+04  0.33073849471E+04  0.28876059710E+04 0.  0.
        3    1    3    3  502    0  0.10575563811E+04  0.31690175428E+03 -0.25939075593E+03  0.11340792721E+04  0.10100000352E+00 0. -1.
       -3    1    3    3    0  502 -0.10575563811E+04 -0.31690175428E+03  0.18720056959E+04  0.21733056749E+04  0.10100000352E+00 0.  1.
</event>
<event>
 5   0  0.3486236E-06  0.2814988E+04  0.7818609E-02  0.8298630E-01
        1   -1    0    0  501    0  0.00000000000E+00  0.00000000000E+00  0.18142392769E+04  0.18142392769E+04  0.50400001928E-02 0. -1.
       -1   -1    0    0    0  501  0.00000000000E+00  0.00000000000E+00 -0.10919391593E+04  0.10919391593E+04  0.50400001928E-02 0.  1.
    10030    2    1    2    0    0  0.00000000000E+00  0.00000000000E+00  0.72230011763E+03  0.29061784363E+04  0.28149876809E+04 0.  0.
        5    1    3    3  502    0 -0.38858439076E+03  0.10927050466E+04 -0.46219018749E+03  0.12484566500E+04  0.46999998093E+01 0.  1.
       -5    1    3    3    0  502  0.38858439076E+03 -0.10927050466E+04  0.11844903051E+04  0.16577217862E+04  0.46999998093E+01 0. -1.
</event>
<event>
 5   0  0.3474078E-06  0.2864356E+04  0.7818609E-02  0.8283562E-01
       -1   -1    0    0    0  501  0.00000000000E+00  0.00000000000E+00  0.13118624601E+04  0.13118624601E+04  0.50400001928E-02 0. -1.
        1   -1    0    0  501    0  0.00000000000E+00  0.00000000000E+00 -0.15635285586E+04  0.15635285586E+04  0.50400001928E-02 0.  1.
    10030    2    1    2    0    0  0.00000000000E+00  0.00000000000E+00 -0.25166609849E+03  0.28753910187E+04  0.28643564173E+04 0.  0.
        3    1    3    3  502    0 -0.41036888961E+02 -0.42486902474E+03 -0.14981902031E+04  0.15578098759E+04  0.10100000352E+00 0.  1.
       -3    1    3    3    0  502  0.41036888961E+02  0.42486902474E+03  0.12465241046E+04  0.13175811429E+04  0.10100000352E+00 0. -1.
</event>
<event>
 5   0  0.9505359E-06  0.2891227E+04  0.7818609E-02  0.8275493E-01
       -2   -1    0    0    0  501  0.00000000000E+00  0.00000000000E+00  0.14589670881E+04  0.14589670881E+04  0.25500000920E-02 0. -1.
        2   -1    0    0  501    0  0.00000000000E+00  0.00000000000E+00 -0.14323818911E+04  0.14323818911E+04  0.25500000920E-02 0.  1.
    10030    2    1    2    0    0  0.00000000000E+00  0.00000000000E+00  0.26585197049E+02  0.28913489792E+04  0.28912267547E+04 0.  0.
        4    1    3    3  502    0  0.14096400336E+04  0.24509611509E+02  0.33285372273E+03  0.14486127705E+04  0.12699999809E+01 0. -1.
       -4    1    3    3    0  502 -0.14096400336E+04 -0.24509611509E+02 -0.30626852568E+03  0.14427362087E+04  0.12699999809E+01 0.  1.
</event>
<event>
 5   0  0.1001573E-05  0.2903365E+04  0.7818609E-02  0.8271877E-01
        2   -1    0    0  501    0  0.00000000000E+00  0.00000000000E+00  0.25621923291E+04  0.25621923291E+04  0.25500000920E-02 0. -1.
       -2   -1    0    0    0  501  0.00000000000E+00  0.00000000000E+00 -0.82249151925E+03  0.82249151925E+03  0.25500000920E-02 0.  1.
    10030    2    1    2    0    0  0.00000000000E+00  0.00000000000E+00  0.17397008099E+04  0.33846838483E+04  0.29033645733E+04 0.  0.
        1    1    3    3  502    0 -0.13369224044E+03  0.73191394075E+02  0.25528387648E+04  0.25573846708E+04  0.50400001928E-02 0. -1.
       -1    1    3    3    0  502  0.13369224044E+03 -0.73191394075E+02 -0.81313795497E+03  0.82729917754E+03  0.50400001928E-02 0.  1.
</event>
<event>
 5   0  0.3649705E-06  0.2865143E+04  0.7818609E-02  0.8283325E-01
        1   -1    0    0  501    0  0.00000000000E+00  0.00000000000E+00  0.20373874948E+04  0.20373874948E+04  0.50400001928E-02 0. -1.
       -1   -1    0    0    0  501  0.00000000000E+00  0.00000000000E+00 -0.10073002063E+04  0.10073002063E+04  0.50400001928E-02 0.  1.
    10030    2    1    2    0    0  0.00000000000E+00  0.00000000000E+00  0.10300872886E+04  0.30446877011E+04  0.28651428193E+04 0.  0.
        2    1    3    3  502    0 -0.26297981370E+03 -0.15895136761E+01  0.20115162732E+04  0.20286346705E+04  0.25500000920E-02 0. -1.
       -2    1    3    3    0  502  0.26297981370E+03  0.15895136761E+01 -0.98142898468E+03  0.10160530306E+04  0.25500000920E-02 0.  1.
</event>
<event>
 5   0  0.9360689E-06  0.2984856E+04  0.7818609E-02  0.8248069E-01
       -2   -1    0    0    0  501  0.00000000000E+00  0.00000000000E+00  0.17889331124E+04  0.17889331124E+04  0.25500000920E-02 0.  1.
        2   -1    0    0  501    0  0.00000000000E+00  0.00000000000E+00 -0.12450667947E+04  0.12450667947E+04  0.25500000920E-02 0. -1.
    10030    2    1    2    0    0  0.00000000000E+00  0.00000000000E+00  0.54386631767E+03  0.30339999071E+04  0.29848559202E+04 0.  0.
        5    1    3    3  502    0 -0.19797929833E+03  0.14013162856E+04  0.75347989347E+03  0.16033206712E+04  0.46999998093E+01 0.  1.
       -5    1    3    3    0  502  0.19797929833E+03 -0.14013162856E+04 -0.20961357581E+03  0.14306792359E+04  0.46999998093E+01 0. -1.
</event>
<event>
 5   0  0.3649705E-06  0.2907282E+04  0.7818609E-02  0.8270714E-01
        1   -1    0    0  501    0  0.00000000000E+00  0.00000000000E+00  0.14646099023E+04  0.14646099023E+04  0.50400001928E-02 0.  1.
       -1   -1    0    0    0  501  0.00000000000E+00  0.00000000000E+00 -0.14427539732E+04  0.14427539732E+04  0.50400001928E-02 0. -1.
    10030    2    1    2    0    0  0.00000000000E+00  0.00000000000E+00  0.21855929114E+02  0.29073638755E+04  0.29072817241E+04 0.  0.
        2    1    3    3  502    0 -0.12021724931E+04 -0.34270490546E+03 -0.73098679241E+03  0.14481046392E+04  0.25500000920E-02 0. -1.
       -2    1    3    3    0  502  0.12021724931E+04  0.34270490546E+03  0.75284272152E+03  0.14592592363E+04  0.25500000920E-02 0.  1.
</event>
<event>
 5   0  0.9251510E-06  0.2907725E+04  0.7818609E-02  0.8270583E-01
        2   -1    0    0  501    0  0.00000000000E+00  0.00000000000E+00  0.18984030279E+04  0.18984030279E+04  0.25500000920E-02 0.  1.
       -2   -1    0    0    0  501  0.00000000000E+00  0.00000000000E+00 -0.11134183232E+04  0.11134183232E+04  0.25500000920E-02 0. -1.
    10030    2    1    2    0    0  0.00000000000E+00  0.00000000000E+00  0.78498470471E+03  0.30118213512E+04  0.29077253764E+04 0.  0.
        2    1    3    3  502    0 -0.32571222727E+03  0.54808639997E+03  0.17458786709E+04  0.18586499107E+04  0.25500000920E-02 0.  1.
       -2    1    3    3    0  502  0.32571222727E+03 -0.54808639997E+03 -0.96089396623E+03  0.11531714405E+04  0.25500000920E-02 0. -1.
</event>
<event>
 5   0  0.9646321E-06  0.2583397E+04  0.7818609E-02  0.8373863E-01
       -2   -1    0    0    0  501  0.00000000000E+00  0.00000000000E+00  0.97119242343E+03  0.97119242343E+03  0.25500000920E-02 0. -1.
        2   -1    0    0  501    0  0.00000000000E+00  0.00000000000E+00 -0.17179752691E+04  0.17179752691E+04  0.25500000920E-02 0.  1.
    10030    2    1    2    0    0  0.00000000000E+00  0.00000000000E+00 -0.74678284566E+03  0.26891676925E+04  0.25833966517E+04 0.  0.
        3    1    3    3  502    0 -0.76402939868E+03 -0.84288797096E+03 -0.10102267314E+04  0.15214332429E+04  0.10100000352E+00 0.  1.
       -3    1    3    3    0  502  0.76402939868E+03  0.84288797096E+03  0.26344388574E+03  0.11677344496E+04  0.10100000352E+00 0. -1.
</event>
<event>
 5   0  0.1001573E-05  0.2776631E+04  0.7818609E-02  0.8310560E-01
        2   -1    0    0  501    0  0.00000000000E+00  0.00000000000E+00  0.24536778339E+04  0.24536778339E+04  0.25500000920E-02 0. -1.
       -2   -1    0    0    0  501  0.00000000000E+00  0.00000000000E+00 -0.78552305827E+03  0.78552305827E+03  0.25500000920E-02 0.  1.
    10030    2    1    2    0    0  0.00000000000E+00  0.00000000000E+00  0.16681547756E+04  0.32392008921E+04  0.27766314239E+04 0.  0.
        1    1    3    3  502    0 -0.12949304134E+04 -0.47139382586E+03  0.63760553721E+03  0.15184194861E+04  0.50400001928E-02 0. -1.
       -1    1    3    3    0  502  0.12949304134E+04  0.47139382586E+03  0.10305492384E+04  0.17207814061E+04  0.50400001928E-02 0.  1.
</event>
<event>
 5   0  0.9505359E-06  0.2299827E+04  0.7818609E-02  0.8477989E-01
       -2   -1    0    0    0  501  0.00000000000E+00  0.00000000000E+00  0.87558839740E+03  0.87558839741E+03  0.25500000920E-02 0. -1.
        2   -1    0    0  501    0  0.00000000000E+00  0.00000000000E+00 -0.15101862826E+04  0.15101862826E+04  0.25500000920E-02 0.  1.
    10030    2    1    2    0    0  0.00000000000E+00  0.00000000000E+00 -0.63459788522E+03  0.23857746800E+04  0.22998274605E+04 0.  0.
        4    1    3    3  502    0  0.71906108290E+03  0.69567224643E+03 -0.90530747075E+03  0.13492931279E+04  0.12699999809E+01 0.  1.
       -4    1    3    3    0  502 -0.71906108290E+03 -0.69567224643E+03  0.27070958554E+03  0.10364815522E+04  0.12699999809E+01 0. -1.
</event>
<event>
 5   0  0.3486236E-06  0.2898996E+04  0.7818609E-02  0.8273176E-01
        1   -1    0    0  501    0  0.00000000000E+00  0.00000000000E+00  0.17583763360E+04  0.17583763360E+04  0.50400001928E-02 0. -1.
       -1   -1    0    0    0  501  0.00000000000E+00  0.00000000000E+00 -0.11948776129E+04  0.11948776129E+04  0.50400001928E-02 0.  1.
    10030    2    1    2    0    0  0.00000000000E+00  0.00000000000E+00  0.56349872306E+03  0.29532539489E+04  0.28989960462E+04 0.  0.
        5    1    3    3  502    0  0.59745864833E+03  0.58275867991E+03  0.14890280521E+04  0.17069830536E+04  0.46999998093E+01 0. -1.
       -5    1    3    3    0  502 -0.59745864833E+03 -0.58275867991E+03 -0.92552932904E+03  0.12462708953E+04  0.46999998093E+01 0.  1.
</event>
<event>
 5   0  0.3746518E-06  0.2926140E+04  0.7818609E-02  0.8265142E-01
        1   -1    0    0  501    0  0.00000000000E+00  0.00000000000E+00  0.18561480047E+04  0.18561480047E+04  0.50400001928E-02 0. -1.
       -1   -1    0    0    0  501  0.00000000000E+00  0.00000000000E+00 -0.11532342257E+04  0.11532342257E+04  0.50400001928E-02 0.  1.
    10030    2    1    2    0    0  0.00000000000E+00  0.00000000000E+00  0.70291377904E+03  0.30093822304E+04  0.29261397144E+04 0.  0.
        4    1    3    3  502    0  0.88770731303E+03 -0.11442445829E+04  0.56534402432E+03  0.15546496126E+04  0.12699999809E+01 0. -1.
       -4    1    3    3    0  502 -0.88770731303E+03  0.11442445829E+04  0.13756975472E+03  0.14547326179E+04  0.12699999809E+01 0.  1.
</event>
<event>
 5   0  0.3486236E-06  0.2122170E+04  0.7818609E-02  0.8551540E-01
        1   -1    0    0  501    0  0.00000000000E+00  0.00000000000E+00  0.13799500125E+04  0.13799500125E+04  0.50400001928E-02 0. -1.
       -1   -1    0    0    0  501  0.00000000000E+00  0.00000000000E+00 -0.81589982298E+03  0.81589982300E+03  0.50400001928E-02 0.  1.
    10030    2    1    2    0    0  0.00000000000E+00  0.00000000000E+00  0.56405018951E+03  0.21958498355E+04  0.21221696171E+04 0.  0.
        5    1    3    3  502    0 -0.34129296401E+03  0.94481523568E+03 -0.71482875836E+02  0.10071189644E+04  0.46999998093E+01 0.  1.
       -5    1    3    3    0  502  0.34129296401E+03 -0.94481523568E+03  0.63553306535E+03  0.11887308711E+04  0.46999998093E+01 0. -1.
</event>
<event>
 5   0  0.9646321E-06  0.2898095E+04  0.7818609E-02  0.8273445E-01
        2   -1    0    0  501    0  0.00000000000E+00  0.00000000000E+00  0.26747753170E+04  0.26747753170E+04  0.25500000920E-02 0.  1.
       -2   -1    0    0    0  501  0.00000000000E+00  0.00000000000E+00 -0.78501493748E+03  0.78501493749E+03  0.25500000920E-02 0. -1.
    10030    2    1    2    0    0  0.00000000000E+00  0.00000000000E+00  0.18897603795E+04  0.34597902545E+04  0.28980949455E+04 0.  0.
        3    1    3    3  502    0  0.52824524561E+03  0.75382187212E+02  0.25532171343E+04  0.26083794315E+04  0.10100000352E+00 0.  1.
       -3    1    3    3    0  502 -0.52824524561E+03 -0.75382187212E+02 -0.66345675483E+03  0.85141082292E+03  0.10100000352E+00 0. -1.
</event>
<event>
 5   0  0.9251510E-06  0.2583725E+04  0.7818609E-02  0.8373750E-01
        2   -1    0    0  501    0  0.00000000000E+00  0.00000000000E+00  0.96269519320E+03  0.96269519320E+03  0.25500000920E-02 0.  1.
       -2   -1    0    0    0  501  0.00000000000E+00  0.00000000000E+00 -0.17335800715E+04  0.17335800715E+04  0.25500000920E-02 0. -1.
    10030    2    1    2    0    0  0.00000000000E+00  0.00000000000E+00 -0.77088487831E+03  0.26962752647E+04  0.25837253739E+04 0.  0.
        2    1    3    3  502    0 -0.11148881986E+04  0.58059792032E+03 -0.74398975050E+02  0.12592080241E+04  0.25500000920E-02 0.  1.
       -2    1    3    3    0  502  0.11148881986E+04 -0.58059792032E+03 -0.69648590326E+03  0.14370672406E+04  0.25500000920E-02 0. -1.
</event>
<event>
 5   0  0.9360689E-06  0.2820060E+04  0.7818609E-02  0.8297067E-01
       -2   -1    0    0    0  501  0.00000000000E+00  0.00000000000E+00  0.10164673688E+04  0.10164673688E+04  0.25500000920E-02 0. -1.
        2   -1    0    0  501    0  0.00000000000E+00  0.00000000000E+00 -0.19559753155E+04  0.19559753155E+04  0.25500000920E-02 0.  1.
    10030    2    1    2    0    0  0.00000000000E+00  0.00000000000E+00 -0.93950794664E+03  0.29724426843E+04  0.28200603415E+04 0.  0.
        5    1    3    3  502    0  0.95950540638E+03  0.95602818434E+03 -0.88274543624E+03  0.16167566636E+04  0.46999998093E+01 0.  1.
       -5    1    3    3    0  502 -0.95950540638E+03 -0.95602818434E+03 -0.56762510401E+02  0.13556860207E+04  0.46999998093E+01 0. -1.
</event>
<event>
 5   0  0.3746518E-06  0.2781379E+04  0.7818609E-02  0.8309073E-01
        1   -1    0    0  501    0  0.00000000000E+00  0.00000000000E+00  0.12932577254E+04  0.12932577254E+04  0.50400001928E-02 0. -1.
       -1   -1    0    0    0  501  0.00000000000E+00  0.00000000000E+00 -0.14954620865E+04  0.14954620865E+04  0.50400001928E-02 0.  1.
    10030    2    1    2    0    0  0.00000000000E+00  0.00000000000E+00 -0.20220436115E+03  0.27887198119E+04  0.27813794394E+04 0.  0.
        4    1    3    3  502    0  0.15584664601E+03 -0.13601817122E+04  0.14374265236E+03  0.13766067087E+04  0.12699999809E+01 0.  1.
       -4    1    3    3    0  502 -0.15584664601E+03  0.13601817122E+04 -0.34594701352E+03  0.14121131033E+04  0.12699999809E+01 0. -1.
</event>
<event>
 5   0  0.3564340E-06  0.2760469E+04  0.7818609E-02  0.8315647E-01
        1   -1    0    0  501    0  0.00000000000E+00  0.00000000000E+00  0.15700768310E+04  0.15700768310E+04  0.50400001928E-02 0. -1.
       -1   -1    0    0    0  501  0.00000000000E+00  0.00000000000E+00 -0.12133469130E+04  0.12133469130E+04  0.50400001928E-02 0.  1.
    10030    2    1    2    0    0  0.00000000000E+00  0.00000000000E+00  0.35672991803E+03  0.27834237440E+04  0.27604694355E+04 0.  0.
        1    1    3    3  502    0 -0.31761460906E+03  0.38796400082E+03 -0.11182724469E+04  0.12255318728E+04  0.50400001928E-02 0.  1.
       -1    1    3    3    0  502  0.31761460906E+03 -0.38796400082E+03  0.14750023649E+04  0.15578918712E+04  0.50400001928E-02 0. -1.
</event>
<event>
 5   0  0.9251510E-06  0.2867622E+04  0.7818609E-02  0.8282576E-01
        2   -1    0    0  501    0  0.00000000000E+00  0.00000000000E+00  0.15272277533E+04  0.15272277533E+04  0.25500000920E-02 0.  1.
       -2   -1    0    0    0  501  0.00000000000E+00  0.00000000000E+00 -0.13461084817E+04  0.13461084817E+04  0.25500000920E-02 0. -1.
    10030    2    1    2    0    0  0.00000000000E+00  0.00000000000E+00  0.18111927161E+03  0.28733362350E+04  0.28676221733E+04 0.  0.
        2    1    3    3  502    0 -0.84577663495E+03 -0.43993548147E+03  0.11636431503E+04  0.15043093849E+04  0.25500000920E-02 0.  1.
       -2    1    3    3    0  502  0.84577663495E+03  0.43993548147E+03 -0.98252387872E+03  0.13690268501E+04  0.25500000920E-02 0. -1.
</event>
<event>
 5   0  0.3188375E-06  0.2870486E+04  0.7818609E-02  0.8281713E-01
        3   -1    0    0  501    0  0.00000000000E+00  0.00000000000E+00  0.17440349730E+04  0.17440349759E+04  0.10100000352E+00 0. -1.
       -3   -1    0    0    0  501  0.00000000000E+00  0.00000000000E+00 -0.11811243368E+04  0.11811243411E+04  0.10100000352E+00 0.  1.
    10030    2    1    2    0    0  0.00000000000E+00  0.00000000000E+00  0.56291063626E+03  0.29251593170E+04  0.28704857856E+04 0.  0.
        3    1    3    3  502    0 -0.31773896620E+03 -0.37939891823E+03 -0.10914320170E+04  0.11983845158E+04  0.10100000352E+00 0.  1.
       -3    1    3    3    0  502  0.31773896620E+03  0.37939891823E+03  0.16543426532E+04  0.17267748013E+04  0.10100000352E+00 0. -1.
</event>
<event>
 5   0  0.3746518E-06  0.2501945E+04  0.7818609E-02  0.8402293E-01
        1   -1    0    0  501    0  0.00000000000E+00  0.00000000000E+00  0.15202750394E+04  0.15202750394E+04  0.50400001928E-02 0.  1.
       -1   -1    0    0    0  501  0.00000000000E+00  0.00000000000E+00 -0.10293740840E+04  0.10293740840E+04  0.50400001928E-02 0. -1.
    10030    2    1    2    0    0  0.00000000000E+00  0.00000000000E+00  0.49090095539E+03  0.25496491234E+04  0.25019446245E+04 0.  0.
        4    1    3    3  502    0 -0.10103520317E+04  0.22961138666E+03  0.95981387581E+03  0.14123657125E+04  0.12699999809E+01 0.  1.
       -4    1    3    3    0  502  0.10103520317E+04 -0.22961138666E+03 -0.46891292043E+03  0.11372834109E+04  0.12699999809E+01 0. -1.
</event>
<event>
 5   0  0.9505359E-06  0.2928803E+04  0.7818609E-02  0.8264359E-01
        2   -1    0    0  501    0  0.00000000000E+00  0.00000000000E+00  0.11030997032E+04  0.11030997032E+04  0.25500000920E-02 0.  1.
       -2   -1    0    0    0  501  0.00000000000E+00  0.00000000000E+00 -0.19440414903E+04  0.19440414903E+04  0.25500000920E-02 0. -1.
    10030    2    1    2    0    0  0.00000000000E+00  0.00000000000E+00 -0.84094178712E+03  0.30471411935E+04  0.29288028892E+04 0.  0.
        4    1    3    3  502    0 -0.12654242919E+04 -0.21194991706E+03 -0.11548587137E+04  0.17262449616E+04  0.12699999809E+01 0. -1.
       -4    1    3    3    0  502  0.12654242919E+04  0.21194991706E+03  0.31391692662E+03  0.13208962319E+04  0.12699999809E+01 0.  1.
</event>
<event>
 5   0  0.3486236E-06  0.2876820E+04  0.7818609E-02  0.8279808E-01
        1   -1    0    0  501    0  0.00000000000E+00  0.00000000000E+00  0.12561154097E+04  0.12561154097E+04  0.50400001928E-02 0.  1.
       -1   -1    0    0    0  501  0.00000000000E+00  0.00000000000E+00 -0.16471596931E+04  0.16471596931E+04  0.50400001928E-02 0. -1.
    10030    2    1    2    0    0  0.00000000000E+00  0.00000000000E+00 -0.39104428335E+03  0.29032751028E+04  0.28768195444E+04 0.  0.
        5    1    3    3  502    0  0.26208581910E+03 -0.12570932407E+04 -0.84957792312E+03  0.15397328111E+04  0.46999998093E+01 0. -1.
       -5    1    3    3    0  502 -0.26208581910E+03  0.12570932407E+04  0.45853363976E+03  0.13635422916E+04  0.46999998093E+01 0.  1.
</event>
<event>
 5   0  0.9646321E-06  0.2884978E+04  0.7818609E-02  0.8277361E-01
        2   -1    0    0  501    0  0.00000000000E+00  0.00000000000E+00  0.22854592760E+04  0.22854592760E+04  0.25500000920E-02 0.  1.
       -2   -1    0    0    0  501  0.00000000000E+00  0.00000000000E+00 -0.91044021387E+03  0.91044021387E+03  0.25500000920E-02 0. -1.
    10030    2    1    2    0    0  0.00000000000E+00  0.00000000000E+00  0.13750190621E+04  0.31958994898E+04  0.28849776651E+04 0.  0.
        3    1    3    3  502    0 -0.82617230318E+03 -0.10677550333E+04  0.12503109791E+04  0.18400921282E+04  0.10100000352E+00 0.  1.
       -3    1    3    3    0  502  0.82617230318E+03  0.10677550333E+04  0.12470808299E+03  0.13558073616E+04  0.10100000352E+00 0. -1.
</event>
<event>
 5   0  0.1001573E-05  0.2532829E+04  0.7818609E-02  0.8391382E-01
       -2   -1    0    0    0  501  0.00000000000E+00  0.00000000000E+00  0.11035527123E+04  0.11035527123E+04  0.25500000920E-02 0.  1.
        2   -1    0    0  501    0  0.00000000000E+00  0.00000000000E+00 -0.14533118070E+04  0.14533118070E+04  0.25500000920E-02 0. -1.
    10030    2    1    2    0    0  0.00000000000E+00  0.00000000000E+00 -0.34975909467E+03  0.25568645193E+04  0.25328293953E+04 0.  0.
        1    1    3    3  502    0 -0.31535849322E+03  0.32594356263E+03 -0.13685195965E+04  0.14417128949E+04  0.50400001928E-02 0. -1.
       -1    1    3    3    0  502  0.31535849322E+03 -0.32594356263E+03  0.10187605018E+04  0.11151516244E+04  0.50400001928E-02 0.  1.
</event>
<event>
 5   0  0.3474078E-06  0.2890813E+04  0.7818609E-02  0.8275616E-01
       -1   -1    0    0    0  501  0.00000000000E+00  0.00000000000E+00  0.80079048572E+03  0.80079048573E+03  0.50400001928E-02 0. -1.
        1   -1    0    0  501    0  0.00000000000E+00  0.00000000000E+00 -0.26089221415E+04  0.26089221415E+04  0.50400001928E-02 0.  1.
    10030    2    1    2    0    0  0.00000000000E+00  0.00000000000E+00 -0.18081316558E+04  0.34097126273E+04  0.28908130544E+04 0.  0.
        3    1    3    3  502    0 -0.13271266237E+04 -0.40576311121E+03 -0.13806934586E+04  0.19576065015E+04  0.10100000352E+00 0.  1.
       -3    1    3    3    0  502  0.13271266237E+04  0.40576311121E+03 -0.42743819715E+03  0.14521061257E+04  0.10100000352E+00 0. -1.
</event>
<event>
 5   0  0.3746518E-06  0.2125477E+04  0.7818609E-02  0.8550103E-01
        1   -1    0    0  501    0  0.00000000000E+00  0.00000000000E+00  0.17950177788E+04  0.17950177788E+04  0.50400001928E-02 0. -1.
       -1   -1    0    0    0  501  0.00000000000E+00  0.00000000000E+00 -0.62919301418E+03  0.62919301420E+03  0.50400001928E-02 0.  1.
    10030    2    1    2    0    0  0.00000000000E+00  0.00000000000E+00  0.11658247646E+04  0.24242107930E+04  0.21254765553E+04 0.  0.
        4    1    3    3  502    0 -0.60815953335E+03 -0.49520013848E+03 -0.23505299591E+03  0.81873849240E+03  0.12699999809E+01 0.  1.
       -4    1    3    3    0  502  0.60815953335E+03  0.49520013848E+03  0.14008777605E+04  0.16054723006E+04  0.12699999809E+01 0. -1.
</event>
<event>
 5   0  0.3746518E-06  0.2942695E+04  0.7818609E-02  0.8260287E-01
       -1   -1    0    0    0  501  0.00000000000E+00  0.00000000000E+00  0.97851928726E+03  0.97851928727E+03  0.50400001928E-02 0. -1.
        1   -1    0    0  501    0  0.00000000000E+00  0.00000000000E+00 -0.22123872960E+04  0.22123872960E+04  0.50400001928E-02 0.  1.
    10030    2    1    2    0    0  0.00000000000E+00  0.00000000000E+00 -0.12338680087E+04  0.31909065833E+04  0.29426951184E+04 0.  0.
        4    1    3    3  502    0  0.27035496239E+03 -0.93933521296E+03  0.57556306037E+03  0.11343354431E+04  0.12699999809E+01 0. -1.
       -4    1    3    3    0  502 -0.27035496239E+03  0.93933521296E+03 -0.18094310691E+04  0.20565711402E+04  0.12699999809E+01 0.  1.
</event>
<event>
 5   0  0.3746518E-06  0.2109974E+04  0.7818609E-02  0.8556862E-01
        1   -1    0    0  501    0  0.00000000000E+00  0.00000000000E+00  0.25401855343E+04  0.25401855343E+04  0.50400001928E-02 0.  1.
       -1   -1    0    0    0  501  0.00000000000E+00  0.00000000000E+00 -0.43815606122E+03  0.43815606125E+03  0.50400001928E-02 0. -1.
    10030    2    1    2    0    0  0.00000000000E+00  0.00000000000E+00  0.21020294731E+04  0.29783415956E+04  0.21099741122E+04 0.  0.
        4    1    3    3  502    0  0.99132343526E+03  0.18638956951E+03  0.14873032195E+04  0.17970909004E+04  0.12699999809E+01 0.  1.
       -4    1    3    3    0  502 -0.99132343526E+03 -0.18638956951E+03  0.61472625361E+03  0.11812506951E+04  0.12699999809E+01 0. -1.
</event>
<event>
 5   0  0.3474078E-06  0.2903872E+04  0.7818609E-02  0.8271726E-01
        1   -1    0    0  501    0  0.00000000000E+00  0.00000000000E+00  0.21459068988E+04  0.21459068989E+04  0.50400001928E-02 0. -1.
       -1   -1    0    0    0  501  0.00000000000E+00  0.00000000000E+00 -0.98239021808E+03  0.98239021809E+03  0.50400001928E-02 0.  1.
    10030    2    1    2    0    0  0.00000000000E+00  0.00000000000E+00  0.11635166808E+04  0.31282971169E+04  0.29038718611E+04 0.  0.
        3    1    3    3  502    0  0.82449662765E+03 -0.87103817476E+03 -0.29978440258E+03  0.12362737921E+04  0.10100000352E+00 0.  1.
       -3    1    3    3    0  502 -0.82449662765E+03  0.87103817476E+03  0.14633010834E+04  0.18920233248E+04  0.10100000352E+00 0. -1.
</event>
<event>
 5   0  0.9360689E-06  0.2905410E+04  0.7818609E-02  0.8271270E-01
        2   -1    0    0  501    0  0.00000000000E+00  0.00000000000E+00  0.10322672475E+04  0.10322672476E+04  0.25500000920E-02 0. -1.
       -2   -1    0    0    0  501  0.00000000000E+00  0.00000000000E+00 -0.20443847708E+04  0.20443847708E+04  0.25500000920E-02 0.  1.
    10030    2    1    2    0    0  0.00000000000E+00  0.00000000000E+00 -0.10121175233E+04  0.30766520184E+04  0.29054097407E+04 0.  0.
        5    1    3    3  502    0  0.12969768099E+04  0.28421095609E+03  0.11809098134E+03  0.13330012314E+04  0.46999998093E+01 0. -1.
       -5    1    3    3    0  502 -0.12969768099E+04 -0.28421095609E+03 -0.11302085046E+04  0.17436507870E+04  0.46999998093E+01 0.  1.
</event>
<event>
 5   0  0.9251510E-06  0.2869870E+04  0.7818609E-02  0.8281899E-01
       -2   -1    0    0    0  501  0.00000000000E+00  0.00000000000E+00  0.11070455095E+04  0.11070455095E+04  0.25500000920E-02 0. -1.
        2   -1    0    0  501    0  0.00000000000E+00  0.00000000000E+00 -0.18599406749E+04  0.18599406749E+04  0.25500000920E-02 0.  1.
    10030    2    1    2    0    0  0.00000000000E+00  0.00000000000E+00 -0.75289516532E+03  0.29669861844E+04  0.28698703609E+04 0.  0.
        2    1    3    3  502    0 -0.42808220573E+03 -0.89865495993E+03  0.69206666280E+03  0.12123495278E+04  0.25500000920E-02 0. -1.
       -2    1    3    3    0  502  0.42808220573E+03  0.89865495993E+03 -0.14449618281E+04  0.17546366566E+04  0.25500000920E-02 0.  1.
</event>
<event>
 5   0  0.3649705E-06  0.2901669E+04  0.7818609E-02  0.8272381E-01
        1   -1    0    0  501    0  0.00000000000E+00  0.00000000000E+00  0.21495302224E+04  0.21495302224E+04  0.50400001928E-02 0. -1.
       -1   -1    0    0    0  501  0.00000000000E+00  0.00000000000E+00 -0.97924712605E+03  0.97924712607E+03  0.50400001928E-02 0.  1.
    10030    2    1    2    0    0  0.00000000000E+00  0.00000000000E+00  0.11702830964E+04  0.31287773485E+04  0.29016693765E+04 0.  0.
        2    1    3    3  502    0 -0.10368133939E+04 -0.90810633311E+03  0.10736840407E+04  0.17471223613E+04  0.25500000920E-02 0. -1.
       -2    1    3    3    0  502  0.10368133939E+04  0.90810633311E+03  0.96599055696E+02  0.13816549872E+04  0.25500000920E-02 0.  1.
</event>
<event>
 5   0  0.3564340E-06  0.2868651E+04  0.7818609E-02  0.8282266E-01
       -1   -1    0    0    0  501  0.00000000000E+00  0.00000000000E+00  0.10060386259E+04  0.10060386259E+04  0.50400001928E-02 0.  1.
        1   -1    0    0  501    0  0.00000000000E+00  0.00000000000E+00 -0.20449416834E+04  0.20449416834E+04  0.50400001928E-02 0. -1.
    10030    2    1    2    0    0  0.00000000000E+00  0.00000000000E+00 -0.10389030576E+04  0.30509803093E+04  0.28686514749E+04 0.  0.
        1    1    3    3  502    0  0.15865901167E+03  0.12943346100E+04 -0.11547583349E+04  0.17418213389E+04  0.50400001928E-02 0. -1.
       -1    1    3    3    0  502 -0.15865901167E+03 -0.12943346100E+04  0.11585527730E+03  0.13091589704E+04  0.50400001928E-02 0.  1.
</event>
<event>
 5   0  0.3474078E-06  0.2857295E+04  0.7818609E-02  0.8285698E-01
        1   -1    0    0  501    0  0.00000000000E+00  0.00000000000E+00  0.16150886225E+04  0.16150886225E+04  0.50400001928E-02 0. -1.
       -1   -1    0    0    0  501  0.00000000000E+00  0.00000000000E+00 -0.12637283819E+04  0.12637283819E+04  0.50400001928E-02 0.  1.
    10030    2    1    2    0    0  0.00000000000E+00  0.00000000000E+00  0.35136024065E+03  0.28788170044E+04  0.28572947566E+04 0.  0.
        3    1    3    3  502    0 -0.29774797860E+03  0.11129547436E+03 -0.12276474961E+04  0.12681320618E+04  0.10100000352E+00 0.  1.
       -3    1    3    3    0  502  0.29774797860E+03 -0.11129547436E+03  0.15790077367E+04  0.16106849426E+04  0.10100000352E+00 0. -1.
</event>
<event>
 5   0  0.3564340E-06  0.2902227E+04  0.7818609E-02  0.8272215E-01
       -1   -1    0    0    0  501  0.00000000000E+00  0.00000000000E+00  0.96163712036E+03  0.96163712038E+03  0.50400001928E-02 0.  1.
        1   -1    0    0  501    0  0.00000000000E+00  0.00000000000E+00 -0.21897348972E+04  0.21897348972E+04  0.50400001928E-02 0. -1.
    10030    2    1    2    0    0  0.00000000000E+00  0.00000000000E+00 -0.12280977769E+04  0.31513720176E+04  0.29022269801E+04 0.  0.
        1    1    3    3  502    0 -0.59315568340E+03  0.47506208631E+03  0.72828391360E+03  0.10525754650E+04  0.50400001928E-02 0.  1.
       -1    1    3    3    0  502  0.59315568340E+03 -0.47506208631E+03 -0.19563816905E+04  0.20987965526E+04  0.50400001928E-02 0. -1.
</event>
<event>
 5   0  0.3746518E-06  0.2700693E+04  0.7818609E-02  0.8334780E-01
       -1   -1    0    0    0  501  0.00000000000E+00  0.00000000000E+00  0.92002013667E+03  0.92002013668E+03  0.50400001928E-02 0. -1.
        1   -1    0    0  501    0  0.00000000000E+00  0.00000000000E+00 -0.19819523048E+04  0.19819523048E+04  0.50400001928E-02 0.  1.
    10030    2    1    2    0    0  0.00000000000E+00  0.00000000000E+00 -0.10619321681E+04  0.29019724415E+04  0.27006932668E+04 0.  0.
        4    1    3    3  502    0 -0.17578019790E+03 -0.40812987355E+03  0.83920159341E+03  0.94959443919E+03  0.12699999809E+01 0. -1.
       -4    1    3    3    0  502  0.17578019790E+03  0.40812987355E+03 -0.19011337615E+04  0.19523780023E+04  0.12699999809E+01 0.  1.
</event>
<event>
 5   0  0.3746518E-06  0.2902475E+04  0.7818609E-02  0.8272141E-01
        1   -1    0    0  501    0  0.00000000000E+00  0.00000000000E+00  0.16097718806E+04  0.16097718807E+04  0.50400001928E-02 0.  1.
       -1   -1    0    0    0  501  0.00000000000E+00  0.00000000000E+00 -0.13083162986E+04  0.13083162986E+04  0.50400001928E-02 0. -1.
    10030    2    1    2    0    0  0.00000000000E+00  0.00000000000E+00  0.30145558203E+03  0.29180881793E+04  0.29024753494E+04 0.  0.
        4    1    3    3  502    0 -0.13576039233E+04 -0.21003289497E+02  0.66588981757E+03  0.15122633411E+04  0.12699999809E+01 0.  1.
       -4    1    3    3    0  502  0.13576039233E+04  0.21003289497E+02 -0.36443423553E+03  0.14058248382E+04  0.12699999809E+01 0. -1.
</event>
<event>
 5   0  0.3474078E-06  0.2853403E+04  0.7818609E-02  0.8286878E-01
       -1   -1    0    0    0  501  0.00000000000E+00  0.00000000000E+00  0.18640148107E+04  0.18640148107E+04  0.50400001928E-02 0.  1.
        1   -1    0    0  501    0  0.00000000000E+00  0.00000000000E+00 -0.10919852920E+04  0.10919852920E+04  0.50400001928E-02 0. -1.
    10030    2    1    2    0    0  0.00000000000E+00  0.00000000000E+00  0.77202951871E+03  0.29560001027E+04  0.28534027107E+04 0.  0.
        3    1    3    3  502    0 -0.86519896467E+03 -0.68348696619E+03  0.13239716972E+04  0.17229697463E+04  0.10100000352E+00 0.  1.
       -3    1    3    3    0  502  0.86519896467E+03  0.68348696619E+03 -0.55194217846E+03  0.12330303565E+04  0.10100000352E+00 0. -1.
</event>
<event>
 5   0  0.9251510E-06  0.2879044E+04  0.7818609E-02  0.8279140E-01
       -2   -1    0    0    0  501  0.00000000000E+00  0.00000000000E+00  0.79390312633E+03  0.79390312633E+03  0.25500000920E-02 0.  1.
        2   -1    0    0  501    0  0.00000000000E+00  0.00000000000E+00 -0.26101718406E+04  0.26101718406E+04  0.25500000920E-02 0. -1.
    10030    2    1    2    0    0  0.00000000000E+00  0.00000000000E+00 -0.18162687142E+04  0.34040749669E+04  0.28790439972E+04 0.  0.
        2    1    3    3  502    0  0.66948877108E+03 -0.89045054484E+03 -0.19860358524E+04  0.22771595891E+04  0.25500000920E-02 0. -1.
       -2    1    3    3    0  502 -0.66948877108E+03  0.89045054484E+03  0.16976713816E+03  0.11269153778E+04  0.25500000920E-02 0.  1.
</event>
<event>
 5   0  0.3486236E-06  0.2881725E+04  0.7818609E-02  0.8278336E-01
        1   -1    0    0  501    0  0.00000000000E+00  0.00000000000E+00  0.19523344284E+04  0.19523344284E+04  0.50400001928E-02 0. -1.
       -1   -1    0    0    0  501  0.00000000000E+00  0.00000000000E+00 -0.10633860503E+04  0.10633860503E+04  0.50400001928E-02 0.  1.
    10030    2    1    2    0    0  0.00000000000E+00  0.00000000000E+00  0.88894837810E+03  0.30157204787E+04  0.28817253143E+04 0.  0.
        5    1    3    3  502    0 -0.12311591543E+04  0.37207655521E+03 -0.23524175116E+03  0.13074993681E+04  0.46999998093E+01 0. -1.
       -5    1    3    3    0  502  0.12311591543E+04 -0.37207655521E+03  0.11241901293E+04  0.17082211106E+04  0.46999998093E+01 0.  1.
</event>
<event>
 5   0  0.1001573E-05  0.2898812E+04  0.7818609E-02  0.8273231E-01
       -2   -1    0    0    0  501  0.00000000000E+00  0.00000000000E+00  0.24583434292E+04  0.24583434292E+04  0.25500000920E-02 0.  1.
        2   -1    0    0  501    0  0.00000000000E+00  0.00000000000E+00 -0.85454989296E+03  0.85454989296E+03  0.25500000920E-02 0. -1.
    10030    2    1    2    0    0  0.00000000000E+00  0.00000000000E+00  0.16037935363E+04  0.33128933222E+04  0.28988115595E+04 0.  0.
        1    1    3    3  502    0  0.11625344071E+04 -0.42628369751E+03  0.16628872685E+04  0.20732578485E+04  0.50400001928E-02 0.  1.
       -1    1    3    3    0  502 -0.11625344071E+04  0.42628369751E+03 -0.59093732207E+02  0.12396354737E+04  0.50400001928E-02 0. -1.
</event>
<event>
 5   0  0.3474078E-06  0.2748611E+04  0.7818609E-02  0.8319402E-01
       -1   -1    0    0    0  501  0.00000000000E+00  0.00000000000E+00  0.10006719962E+04  0.10006719962E+04  0.50400001928E-02 0.  1.
        1   -1    0    0  501    0  0.00000000000E+00  0.00000000000E+00 -0.18874477060E+04  0.18874477060E+04  0.50400001928E-02 0. -1.
    10030    2    1    2    0    0  0.00000000000E+00  0.00000000000E+00 -0.88677570988E+03  0.28881197022E+04  0.27486113320E+04 0.  0.
        3    1    3    3  502    0 -0.11067182172E+04 -0.72745420217E+03 -0.82903278765E+03  0.15624692642E+04  0.10100000352E+00 0. -1.
       -3    1    3    3    0  502  0.11067182172E+04  0.72745420217E+03 -0.57742922238E+02  0.13256504380E+04  0.10100000352E+00 0.  1.
</event>
<event>
 5   0  0.1001573E-05  0.2882471E+04  0.7818609E-02  0.8278112E-01
       -2   -1    0    0    0  501  0.00000000000E+00  0.00000000000E+00  0.21055879694E+04  0.21055879694E+04  0.25500000920E-02 0. -1.
        2   -1    0    0  501    0  0.00000000000E+00  0.00000000000E+00 -0.98649883353E+03  0.98649883353E+03  0.25500000920E-02 0.  1.
    10030    2    1    2    0    0  0.00000000000E+00  0.00000000000E+00  0.11190891359E+04  0.30920868030E+04  0.28824712146E+04 0.  0.
        1    1    3    3  502    0 -0.64629160259E+03  0.63455796813E+03  0.17621422877E+04  0.19812879883E+04  0.50400001928E-02 0. -1.
       -1    1    3    3    0  502  0.64629160259E+03 -0.63455796813E+03 -0.64305315182E+03  0.11107988146E+04  0.50400001928E-02 0.  1.
</event>
<event>
 5   0  0.3564340E-06  0.2871715E+04  0.7818609E-02  0.8281343E-01
        1   -1    0    0  501    0  0.00000000000E+00  0.00000000000E+00  0.23187926125E+04  0.23187926125E+04  0.50400001928E-02 0.  1.
       -1   -1    0    0    0  501  0.00000000000E+00  0.00000000000E+00 -0.88912093842E+03  0.88912093843E+03  0.50400001928E-02 0. -1.
    10030    2    1    2    0    0  0.00000000000E+00  0.00000000000E+00  0.14296716741E+04  0.32079135509E+04  0.28717152113E+04 0.  0.
        1    1    3    3  502    0  0.10817256817E+04 -0.63282848202E+03 -0.67979814965E+02  0.12550791184E+04  0.50400001928E-02 0. -1.
       -1    1    3    3    0  502 -0.10817256817E+04  0.63282848202E+03  0.14976514890E+04  0.19528344325E+04  0.50400001928E-02 0.  1.
</event>
<event>
 5   0  0.9360689E-06  0.2848838E+04  0.7818609E-02  0.8288264E-01
        2   -1    0    0  501    0  0.00000000000E+00  0.00000000000E+00  0.15626143777E+04  0.15626143777E+04  0.25500000920E-02 0.  1.
       -2   -1    0    0    0  501  0.00000000000E+00  0.00000000000E+00 -0.12984457605E+04  0.12984457605E+04  0.25500000920E-02 0. -1.
    10030    2    1    2    0    0  0.00000000000E+00  0.00000000000E+00  0.26416861719E+03  0.28610601381E+04  0.28488383695E+04 0.  0.
        5    1    3    3  502    0  0.14124639986E+04 -0.18202325191E+03  0.10438133048E+03  0.14279721860E+04  0.46999998093E+01 0.  1.
       -5    1    3    3    0  502 -0.14124639986E+04  0.18202325191E+03  0.15978728671E+03  0.14330879522E+04  0.46999998093E+01 0. -1.
</event>
<event>
 5   0  0.3649705E-06  0.2900658E+04  0.7818609E-02  0.8272682E-01
        1   -1    0    0  501    0  0.00000000000E+00  0.00000000000E+00  0.17733000447E+04  0.17733000448E+04  0.50400001928E-02 0. -1.
       -1   -1    0    0    0  501  0.00000000000E+00  0.00000000000E+00 -0.11861808544E+04  0.11861808544E+04  0.50400001928E-02 0.  1.
    10030    2    1    2    0    0  0.00000000000E+00  0.00000000000E+00  0.58711919037E+03  0.29594808991E+04  0.29006582440E+04 0.  0.
        2    1    3    3  502    0 -0.74398131593E+03 -0.33619275398E+03  0.15165847603E+04  0.17223713599E+04  0.25500000920E-02 0. -1.
       -2    1    3    3    0  502  0.74398131593E+03  0.33619275398E+03 -0.92946556995E+03  0.12371095392E+04  0.25500000920E-02 0.  1.
</event>
<event>
 5   0  0.9646321E-06  0.2812998E+04  0.7818609E-02  0.8299244E-01
        2   -1    0    0  501    0  0.00000000000E+00  0.00000000000E+00  0.22094866632E+04  0.22094866632E+04  0.25500000920E-02 0.  1.
       -2   -1    0    0    0  501  0.00000000000E+00  0.00000000000E+00 -0.89533890041E+03  0.89533890042E+03  0.25500000920E-02 0. -1.
    10030    2    1    2    0    0  0.00000000000E+00  0.00000000000E+00  0.13141477628E+04  0.31048255636E+04  0.28129979449E+04 0.  0.
        3    1    3    3  502    0 -0.11710842488E+04 -0.43969229192E+03  0.13667998497E+04  0.18528112339E+04  0.10100000352E+00 0.  1.
       -3    1    3    3    0  502  0.11710842488E+04  0.43969229192E+03 -0.52652086886E+02  0.12520143297E+04  0.10100000352E+00 0. -1.
</event>
<event>
 5   0  0.9251510E-06  0.2770928E+04  0.7818609E-02  0.8312351E-01
       -2   -1    0    0    0  501  0.00000000000E+00  0.00000000000E+00  0.10347097058E+04  0.10347097059E+04  0.25500000920E-02 0. -1.
        2   -1    0    0  501    0  0.00000000000E+00  0.00000000000E+00 -0.18551194080E+04  0.18551194080E+04  0.25500000920E-02 0.  1.
    10030    2    1    2    0    0  0.00000000000E+00  0.00000000000E+00 -0.82040970218E+03  0.28898291139E+04  0.27709276837E+04 0.  0.
        2    1    3    3  502    0  0.69154007039E+03 -0.24704419309E+03  0.81504904734E+03  0.10970703951E+04  0.25500000920E-02 0. -1.
       -2    1    3    3    0  502 -0.69154007039E+03  0.24704419309E+03 -0.16354587495E+04  0.17927587188E+04  0.25500000920E-02 0.  1.
</event>
<event>
 5   0  0.3649705E-06  0.2906968E+04  0.7818609E-02  0.8270807E-01
       -1   -1    0    0    0  501  0.00000000000E+00  0.00000000000E+00  0.89005208685E+03  0.89005208687E+03  0.50400001928E-02 0.  1.
        1   -1    0    0  501    0  0.00000000000E+00  0.00000000000E+00 -0.23735863488E+04  0.23735863488E+04  0.50400001928E-02 0. -1.
    10030    2    1    2    0    0  0.00000000000E+00  0.00000000000E+00 -0.14835342620E+04  0.32636384357E+04  0.29069678245E+04 0.  0.
        2    1    3    3  502    0 -0.86682827437E+03  0.10826664010E+04 -0.12299235313E+04  0.18537178011E+04  0.25500000920E-02 0.  1.
       -2    1    3    3    0  502  0.86682827437E+03 -0.10826664010E+04 -0.25361073066E+03  0.14099206346E+04  0.25500000920E-02 0. -1.
</event>
<event>
 5   0  0.9360689E-06  0.2928380E+04  0.7818609E-02  0.8264483E-01
        2   -1    0    0  501    0  0.00000000000E+00  0.00000000000E+00  0.15295207110E+04  0.15295207110E+04  0.25500000920E-02 0. -1.
       -2   -1    0    0    0  501  0.00000000000E+00  0.00000000000E+00 -0.14016494388E+04  0.14016494388E+04  0.25500000920E-02 0.  1.
    10030    2    1    2    0    0  0.00000000000E+00  0.00000000000E+00  0.12787127223E+03  0.29311701499E+04  0.29283796518E+04 0.  0.
        5    1    3    3  502    0 -0.16472515986E+03  0.62719979693E+03 -0.12500665351E+04  0.14082621900E+04  0.46999998093E+01 0.  1.
       -5    1    3    3    0  502  0.16472515986E+03 -0.62719979693E+03  0.13779378073E+04  0.15229079599E+04  0.46999998093E+01 0. -1.
</event>
<event>
 5   0  0.9360689E-06  0.2890777E+04  0.7818609E-02  0.8275627E-01
       -2   -1    0    0    0  501  0.00000000000E+00  0.00000000000E+00  0.11390365748E+04  0.11390365748E+04  0.25500000920E-02 0. -1.
        2   -1    0    0  501    0  0.00000000000E+00  0.00000000000E+00 -0.18341353481E+04  0.18341353481E+04  0.25500000920E-02 0.  1.
    10030    2    1    2    0    0  0.00000000000E+00  0.00000000000E+00 -0.69509877333E+03  0.29731719229E+04  0.28907765355E+04 0.  0.
        5    1    3    3  502    0 -0.14652284786E+03 -0.34812954801E+03 -0.17824719671E+04  0.18220569505E+04  0.46999998093E+01 0.  1.
       -5    1    3    3    0  502  0.14652284786E+03  0.34812954801E+03  0.10873731938E+04  0.11511149724E+04  0.46999998093E+01 0. -1.
</event>
<event>
 5   0  0.9646321E-06  0.2848642E+04  0.7818609E-02  0.8288324E-01
        2   -1    0    0  501    0  0.00000000000E+00  0.00000000000E+00  0.22563879746E+04  0.22563879746E+04  0.25500000920E-02 0.  1.
       -2   -1    0    0    0  501  0.00000000000E+00  0.00000000000E+00 -0.89908726870E+03  0.89908726870E+03  0.25500000920E-02 0. -1.
    10030    2    1    2    0    0  0.00000000000E+00  0.00000000000E+00  0.13573007059E+04  0.31554752433E+04  0.28486415718E+04 0.  0.
        3    1    3    3  502    0 -0.10982242313E+04  0.78156515173E+03  0.11883775416E+04  0.17969924152E+04  0.10100000352E+00 0.  1.
       -3    1    3    3    0  502  0.10982242313E+04 -0.78156515173E+03  0.16892316431E+03  0.13584828281E+04  0.10100000352E+00 0. -1.
</event>
<event>
 5   0  0.1001573E-05  0.2876915E+04  0.7818609E-02  0.8279779E-01
       -2   -1    0    0    0  501  0.00000000000E+00  0.00000000000E+00  0.14347325908E+04  0.14347325908E+04  0.25500000920E-02 0. -1.
        2   -1    0    0  501    0  0.00000000000E+00  0.00000000000E+00 -0.14421919406E+04  0.14421919406E+04  0.25500000920E-02 0.  1.
    10030    2    1    2    0    0  0.00000000000E+00  0.00000000000E+00 -0.74593498041E+01  0.28769245313E+04  0.28769148609E+04 0.  0.
        1    1    3    3  502    0  0.13568562141E+04 -0.31094328871E+03  0.35878397758E+03  0.14375223327E+04  0.50400001928E-02 0.  1.
       -1    1    3    3    0  502 -0.13568562141E+04  0.31094328871E+03 -0.36624332738E+03  0.14394021986E+04  0.50400001928E-02 0. -1.
</event>
<event>
 5   0  0.3486236E-06  0.2866749E+04  0.7818609E-02  0.8282840E-01
        1   -1    0    0  501    0  0.00000000000E+00  0.00000000000E+00  0.18749559783E+04  0.18749559783E+04  0.50400001928E-02 0.  1.
       -1   -1    0    0    0  501  0.00000000000E+00  0.00000000000E+00 -0.10957920554E+04  0.10957920554E+04  0.50400001928E-02 0. -1.
    10030    2    1    2    0    0  0.00000000000E+00  0.00000000000E+00  0.77916392289E+03  0.29707480337E+04  0.28667485870E+04 0.  0.
        5    1    3    3  502    0 -0.76196469720E+03  0.53289484151E+03  0.15200146399E+04  0.17818624266E+04  0.46999998093E+01 0.  1.
       -5    1    3    3    0  502  0.76196469720E+03 -0.53289484151E+03 -0.74085071701E+03  0.11888856071E+04  0.46999998093E+01 0. -1.
</event>
<event>
 5   0  0.3564340E-06  0.2873422E+04  0.7818609E-02  0.8280829E-01
        1   -1    0    0  501    0  0.00000000000E+00  0.00000000000E+00  0.20820102898E+04  0.20820102898E+04  0.50400001928E-02 0. -1.
       -1   -1    0    0    0  501  0.00000000000E+00  0.00000000000E+00 -0.99141602851E+03  0.99141602853E+03  0.50400001928E-02 0.  1.
    10030    2    1    2    0    0  0.00000000000E+00  0.00000000000E+00  0.10905942613E+04  0.30734263184E+04  0.28734219133E+04 0.  0.
        1    1    3    3  502    0  0.13641297618E+03 -0.35208218608E+03 -0.93739603643E+03  0.10105848282E+04  0.50400001928E-02 0.  1.
       -1    1    3    3    0  502 -0.13641297618E+03  0.35208218608E+03  0.20279902977E+04  0.20628414902E+04  0.50400001928E-02 0. -1.
</event>
<event>
 5   0  0.9251510E-06  0.2895345E+04  0.7818609E-02  0.8274264E-01
       -2   -1    0    0    0  501  0.00000000000E+00  0.00000000000E+00  0.10852332186E+04  0.10852332186E+04  0.25500000920E-02 0. -1.
        2   -1    0    0  501    0  0.00000000000E+00  0.00000000000E+00 -0.19311567174E+04  0.19311567174E+04  0.25500000920E-02 0.  1.
    10030    2    1    2    0    0  0.00000000000E+00  0.00000000000E+00 -0.84592349884E+03  0.30163899360E+04  0.28953448292E+04 0.  0.
        2    1    3    3  502    0  0.93169810014E+02 -0.14067566115E+04 -0.76550973080E+03  0.16042599308E+04  0.25500000920E-02 0.  1.
       -2    1    3    3    0  502 -0.93169810014E+02  0.14067566115E+04 -0.80413768042E+02  0.14121300052E+04  0.25500000920E-02 0. -1.
</event>
<event>
 5   0  0.3649705E-06  0.2885945E+04  0.7818609E-02  0.8277071E-01
       -1   -1    0    0    0  501  0.00000000000E+00  0.00000000000E+00  0.94036693996E+03  0.94036693998E+03  0.50400001928E-02 0.  1.
        1   -1    0    0  501    0  0.00000000000E+00  0.00000000000E+00 -0.22142104189E+04  0.22142104189E+04  0.50400001928E-02 0. -1.
    10030    2    1    2    0    0  0.00000000000E+00  0.00000000000E+00 -0.12738434790E+04  0.31545773589E+04  0.28859454438E+04 0.  0.
        2    1    3    3  502    0 -0.31049191555E+03 -0.12035830470E+04  0.16420647206E+03  0.12537867228E+04  0.25500000920E-02 0. -1.
       -2    1    3    3    0  502  0.31049191555E+03  0.12035830470E+04 -0.14380499510E+04  0.19007906361E+04  0.25500000920E-02 0.  1.
</event>
<event>
 5   0  0.1001573E-05  0.2877295E+04  0.7818609E-02  0.8279665E-01
        2   -1    0    0  501    0  0.00000000000E+00  0.00000000000E+00  0.11976934359E+04  0.11976934359E+04  0.25500000920E-02 0.  1.
       -2   -1    0    0    0  501  0.00000000000E+00  0.00000000000E+00 -0.17280772456E+04  0.17280772456E+04  0.25500000920E-02 0. -1.
    10030    2    1    2    0    0  0.00000000000E+00  0.00000000000E+00 -0.53038380961E+03  0.29257706815E+04  0.28772951005E+04 0.  0.
        1    1    3    3  502    0  0.11541661353E+04  0.45145077128E+03  0.47773307591E+03  0.13282078747E+04  0.50400001928E-02 0.  1.
       -1    1    3    3    0  502 -0.11541661353E+04 -0.45145077128E+03 -0.10081168855E+04  0.15975628068E+04  0.50400001928E-02 0. -1.
</event>
<event>
 5   0  0.9360689E-06  0.2935920E+04  0.7818609E-02  0.8262270E-01
       -2   -1    0    0    0  501  0.00000000000E+00  0.00000000000E+00  0.13681006872E+04  0.13681006872E+04  0.25500000920E-02 0.  1.
        2   -1    0    0  501    0  0.00000000000E+00  0.00000000000E+00 -0.15751084805E+04  0.15751084805E+04  0.25500000920E-02 0. -1.
    10030    2    1    2    0    0  0.00000000000E+00  0.00000000000E+00 -0.20700779329E+03  0.29432091677E+04  0.29359202950E+04 0.  0.
        5    1    3    3  502    0 -0.37585635089E+03 -0.14095626657E+04 -0.26746421617E+03  0.14831365756E+04  0.46999998093E+01 0. -1.
       -5    1    3    3    0  502  0.37585635089E+03  0.14095626657E+04  0.60456422884E+02  0.14600725921E+04  0.46999998093E+01 0.  1.
</event>
<event>
 5   0  0.3474078E-06  0.2489269E+04  0.7818609E-02  0.8406818E-01
       -1   -1    0    0    0  501  0.00000000000E+00  0.00000000000E+00  0.11408262294E+04  0.11408262294E+04  0.50400001928E-02 0. -1.
        1   -1    0    0  501    0  0.00000000000E+00  0.00000000000E+00 -0.13578891856E+04  0.13578891856E+04  0.50400001928E-02 0.  1.
    10030    2    1    2    0    0  0.00000000000E+00  0.00000000000E+00 -0.21706295622E+03  0.24987154151E+04  0.24892694508E+04 0.  0.
        3    1    3    3  502    0 -0.11413379090E+04 -0.30019891874E+03  0.28837251039E+03  0.12148787298E+04  0.10100000352E+00 0. -1.
       -3    1    3    3    0  502  0.11413379090E+04  0.30019891874E+03 -0.50543546661E+03  0.12838366852E+04  0.10100000352E+00 0.  1.
</event>
<event>
 5   0  0.3486236E-06  0.2823119E+04  0.7818609E-02  0.8296127E-01
       -1   -1    0    0    0  501  0.00000000000E+00  0.00000000000E+00  0.27856661545E+04  0.27856661545E+04  0.50400001928E-02 0.  1.
        1   -1    0    0  501    0  0.00000000000E+00  0.00000000000E+00 -0.71526895307E+03  0.71526895308E+03  0.50400001928E-02 0. -1.
    10030    2    1    2    0    0  0.00000000000E+00  0.00000000000E+00  0.20703972014E+04  0.35009351076E+04  0.28231192068E+04 0.  0.
        5    1    3    3  502    0  0.13972502416E+04  0.57572978935E+01  0.78675517264E+03  0.16035420718E+04  0.46999998093E+01 0. -1.
       -5    1    3    3    0  502 -0.13972502416E+04 -0.57572978935E+01  0.12836420288E+04  0.18973930358E+04  0.46999998093E+01 0.  1.
</event>
<event>
 5   0  0.1001573E-05  0.2793644E+04  0.7818609E-02  0.8305244E-01
        2   -1    0    0  501    0  0.00000000000E+00  0.00000000000E+00  0.20017568040E+04  0.20017568040E+04  0.25500000920E-02 0. -1.
       -2   -1    0    0    0  501  0.00000000000E+00  0.00000000000E+00 -0.97469971438E+03  0.97469971438E+03  0.25500000920E-02 0.  1.
    10030    2    1    2    0    0  0.00000000000E+00  0.00000000000E+00  0.10270570896E+04  0.29764565183E+04  0.27936440611E+04 0.  0.
        1    1    3    3  502    0 -0.80866837439E+03  0.22107755049E+03 -0.67685402148E+03  0.10774744496E+04  0.50400001928E-02 0.  1.
       -1    1    3    3    0  502  0.80866837439E+03 -0.22107755049E+03  0.17039111111E+04  0.18989820688E+04  0.50400001928E-02 0. -1.
</event>
<event>
 5   0  0.9505359E-06  0.2965558E+04  0.7818609E-02  0.8253635E-01
       -2   -1    0    0    0  501  0.00000000000E+00  0.00000000000E+00  0.11585470602E+04  0.11585470602E+04  0.25500000920E-02 0.  1.
        2   -1    0    0  501    0  0.00000000000E+00  0.00000000000E+00 -0.18977507634E+04  0.18977507634E+04  0.25500000920E-02 0. -1.
    10030    2    1    2    0    0  0.00000000000E+00  0.00000000000E+00 -0.73920370324E+03  0.30562978236E+04  0.29655580035E+04 0.  0.
        4    1    3    3  502    0 -0.55250444500E+03  0.10437076537E+04 -0.12937241753E+04  0.17516594083E+04  0.12699999809E+01 0. -1.
       -4    1    3    3    0  502  0.55250444500E+03 -0.10437076537E+04  0.55452047202E+03  0.13046384154E+04  0.12699999809E+01 0.  1.
</event>
<event>
 5   0  0.3649705E-06  0.2881998E+04  0.7818609E-02  0.8278254E-01
        1   -1    0    0  501    0  0.00000000000E+00  0.00000000000E+00  0.25351030925E+04  0.25351030925E+04  0.50400001928E-02 0. -1.
       -1   -1    0    0    0  501  0.00000000000E+00  0.00000000000E+00 -0.81909013279E+03  0.81909013280E+03  0.50400001928E-02 0.  1.
    10030    2    1    2    0    0  0.00000000000E+00  0.00000000000E+00  0.17160129597E+04  0.33541932253E+04  0.28819978686E+04 0.  0.
        2    1    3    3  502    0 -0.10490888368E+04 -0.77360457702E+03  0.15730140120E+04  0.20428961087E+04  0.25500000920E-02 0. -1.
       -2    1    3    3    0  502  0.10490888368E+04  0.77360457702E+03  0.14299894777E+03  0.13112971166E+04  0.25500000920E-02 0.  1.
</event>
<event>
 5   0  0.3746518E-06  0.2679296E+04  0.7818609E-02  0.8341754E-01
       -1   -1    0    0    0  501  0.00000000000E+00  0.00000000000E+00  0.74317280114E+03  0.74317280116E+03  0.50400001928E-02 0.  1.
        1   -1    0    0  501    0  0.00000000000E+00  0.00000000000E+00 -0.24148572696E+04  0.24148572696E+04  0.50400001928E-02 0. -1.
    10030    2    1    2    0    0  0.00000000000E+00  0.00000000000E+00 -0.16716844685E+04  0.31580300708E+04  0.26792956100E+04 0.  0.
        4    1    3    3  502    0 -0.95695201781E+03 -0.88715344994E+02 -0.19358897641E+04  0.21613186643E+04  0.12699999809E+01 0. -1.
       -4    1    3    3    0  502  0.95695201781E+03  0.88715344994E+02  0.26420529559E+03  0.99671140655E+03  0.12699999809E+01 0.  1.
</event>
<event>
 5   0  0.9646321E-06  0.2893847E+04  0.7818609E-02  0.8274710E-01
       -2   -1    0    0    0  501  0.00000000000E+00  0.00000000000E+00  0.13450377967E+04  0.13450377967E+04  0.25500000920E-02 0. -1.
        2   -1    0    0  501    0  0.00000000000E+00  0.00000000000E+00 -0.15565270680E+04  0.15565270680E+04  0.25500000920E-02 0.  1.
    10030    2    1    2    0    0  0.00000000000E+00  0.00000000000E+00 -0.21148927121E+03  0.29015648647E+04  0.28938470851E+04 0.  0.
        3    1    3    3  502    0 -0.28124755722E+03  0.12309925241E+04  0.60264148527E+03  0.13991495820E+04  0.10100000352E+00 0. -1.
       -3    1    3    3    0  502  0.28124755722E+03 -0.12309925241E+04 -0.81413075649E+03  0.15024152827E+04  0.10100000352E+00 0.  1.
</event>
<event>
 5   0  0.3564340E-06  0.2919407E+04  0.7818609E-02  0.8267127E-01
       -1   -1    0    0    0  501  0.00000000000E+00  0.00000000000E+00  0.12443936200E+04  0.12443936200E+04  0.50400001928E-02 0.  1.
        1   -1    0    0  501    0  0.00000000000E+00  0.00000000000E+00 -0.17122677184E+04  0.17122677184E+04  0.50400001928E-02 0. -1.
    10030    2    1    2    0    0  0.00000000000E+00  0.00000000000E+00 -0.46787409840E+03  0.29566613384E+04  0.29194074909E+04 0.  0.
        1    1    3    3  502    0  0.88533290516E+03  0.31072320505E+03  0.89853226459E+03  0.12991241256E+04  0.50400001928E-02 0.  1.
       -1    1    3    3    0  502 -0.88533290516E+03 -0.31072320505E+03 -0.13664063630E+04  0.16575372128E+04  0.50400001928E-02 0. -1.
</event>
<event>
 5   0  0.9360689E-06  0.2888745E+04  0.7818609E-02  0.8276234E-01
       -2   -1    0    0    0  501  0.00000000000E+00  0.00000000000E+00  0.13883155015E+04  0.13883155015E+04  0.25500000920E-02 0.  1.
        2   -1    0    0  501    0  0.00000000000E+00  0.00000000000E+00 -0.15026926216E+04  0.15026926216E+04  0.25500000920E-02 0. -1.
    10030    2    1    2    0    0  0.00000000000E+00  0.00000000000E+00 -0.11437712009E+03  0.28910081231E+04  0.28887446828E+04 0.  0.
        5    1    3    3  502    0 -0.72284695366E+03  0.84489669165E+03 -0.97977378858E+03  0.14820043538E+04  0.46999998093E+01 0. -1.
       -5    1    3    3    0  502  0.72284695366E+03 -0.84489669165E+03  0.86539666849E+03  0.14090037693E+04  0.46999998093E+01 0.  1.
</event>
<event>
 5   0  0.3649705E-06  0.2864845E+04  0.7818609E-02  0.8283415E-01
        1   -1    0    0  501    0  0.00000000000E+00  0.00000000000E+00  0.90966043619E+03  0.90966043620E+03  0.50400001928E-02 0.  1.
       -1   -1    0    0    0  501  0.00000000000E+00  0.00000000000E+00 -0.22556040424E+04  0.22556040424E+04  0.50400001928E-02 0. -1.
    10030    2    1    2    0    0  0.00000000000E+00  0.00000000000E+00 -0.13459436062E+04  0.31652644786E+04  0.28648446779E+04 0.  0.
        2    1    3    3  502    0  0.51248011543E+03  0.23073014116E+03  0.78275194322E+03  0.96362486029E+03  0.25500000920E-02 0.  1.
       -2    1    3    3    0  502 -0.51248011543E+03 -0.23073014116E+03 -0.21286955494E+04  0.22016396183E+04  0.25500000920E-02 0. -1.
</event>
<event>
 5   0  0.1001573E-05  0.2910767E+04  0.7818609E-02  0.8269681E-01
        2   -1    0    0  501    0  0.00000000000E+00  0.00000000000E+00  0.19418568337E+04  0.19418568337E+04  0.25500000920E-02 0.  1.
       -2   -1    0    0    0  501  0.00000000000E+00  0.00000000000E+00 -0.10907812537E+04  0.10907812537E+04  0.25500000920E-02 0. -1.
    10030    2    1    2    0    0  0.00000000000E+00  0.00000000000E+00  0.85107557997E+03  0.30326380874E+04  0.29107669310E+04 0.  0.
        1    1    3    3  502    0 -0.13711558546E+04 -0.46469758452E+02  0.93158296442E+03  0.16583348985E+04  0.50400001928E-02 0.  1.
       -1    1    3    3    0  502  0.13711558546E+04  0.46469758452E+02 -0.80507384449E+02  0.13743031889E+04  0.50400001928E-02 0. -1.
</event>
<event>
 5   0  0.9251510E-06  0.2904521E+04  0.7818609E-02  0.8271534E-01
        2   -1    0    0  501    0  0.00000000000E+00  0.00000000000E+00  0.25943835469E+04  0.25943835469E+04  0.25500000920E-02 0. -1.
       -2   -1    0    0    0  501  0.00000000000E+00  0.00000000000E+00 -0.81293307894E+03  0.81293307894E+03  0.25500000920E-02 0.  1.
    10030    2    1    2    0    0  0.00000000000E+00  0.00000000000E+00  0.17814504680E+04  0.34073166259E+04  0.29045207555E+04 0.  0.
        2    1    3    3  502    0  0.75064414526E+03  0.12292063659E+04  0.67237178377E+03  0.15894963788E+04  0.25500000920E-02 0. -1.
       -2    1    3    3    0  502 -0.75064414526E+03 -0.12292063659E+04  0.11090786842E+04  0.18178202470E+04  0.25500000920E-02 0.  1.
</event>
<event>
 5   0  0.3188375E-06  0.2831258E+04  0.7818609E-02  0.8293629E-01
        3   -1    0    0  501    0  0.00000000000E+00  0.00000000000E+00  0.17915029036E+04  0.17915029065E+04  0.10100000352E+00 0.  1.
       -3   -1    0    0    0  501  0.00000000000E+00  0.00000000000E+00 -0.11186168206E+04  0.11186168251E+04  0.10100000352E+00 0. -1.
    10030    2    1    2    0    0  0.00000000000E+00  0.00000000000E+00  0.67288608306E+03  0.29101197316E+04  0.28312578780E+04 0.  0.
        4    1    3    3  502    0 -0.89829145024E+03  0.75308282030E+03  0.11522395754E+04  0.16436906387E+04  0.12699999809E+01 0.  1.
       -4    1    3    3    0  502  0.89829145024E+03 -0.75308282030E+03 -0.47935349234E+03  0.12664290929E+04  0.12699999809E+01 0. -1.
</event>
<event>
 5   0  0.3746518E-06  0.2887081E+04  0.7818609E-02  0.8276732E-01
       -1   -1    0    0    0  501  0.00000000000E+00  0.00000000000E+00  0.13464180721E+04  0.13464180721E+04  0.50400001928E-02 0.  1.
        1   -1    0    0  501    0  0.00000000000E+00  0.00000000000E+00 -0.15476682723E+04  0.15476682723E+04  0.50400001928E-02 0. -1.
    10030    2    1    2    0    0  0.00000000000E+00  0.00000000000E+00 -0.20125020022E+03  0.28940863444E+04  0.28870805541E+04 0.  0.
        4    1    3    3  502    0  0.13732492573E+04  0.41683254850E+03 -0.25670785510E+03  0.14578969208E+04  0.12699999809E+01 0. -1.
       -4    1    3    3    0  502 -0.13732492573E+04 -0.41683254850E+03  0.55457654876E+02  0.14361894236E+04  0.12699999809E+01 0.  1.
</event>
<event>
 5   0  0.9505359E-06  0.2670655E+04  0.7818609E-02  0.8344590E-01
       -2   -1    0    0    0  501  0.00000000000E+00  0.00000000000E+00  0.30141266525E+04  0.30141266525E+04  0.25500000920E-02 0.  1.
        2   -1    0    0  501    0  0.00000000000E+00  0.00000000000E+00 -0.59158079304E+03  0.59158079304E+03  0.25500000920E-02 0. -1.
    10030    2    1    2    0    0  0.00000000000E+00  0.00000000000E+00  0.24225458595E+04  0.36057074455E+04  0.26706549275E+04 0.  0.
        4    1    3    3  502    0 -0.39824582909E+02 -0.46944881994E+03  0.28981840190E+04  0.29362289442E+04  0.12699999809E+01 0.  1.
       -4    1    3    3    0  502  0.39824582909E+02  0.46944881994E+03 -0.47563815958E+03  0.66947850129E+03  0.12699999809E+01 0. -1.
</event>
<event>
 5   0  0.9360689E-06  0.2924681E+04  0.7818609E-02  0.8265572E-01
       -2   -1    0    0    0  501  0.00000000000E+00  0.00000000000E+00  0.13722763164E+04  0.13722763164E+04  0.25500000920E-02 0.  1.
        2   -1    0    0  501    0  0.00000000000E+00  0.00000000000E+00 -0.15583152616E+04  0.15583152616E+04  0.25500000920E-02 0. -1.
    10030    2    1    2    0    0  0.00000000000E+00  0.00000000000E+00 -0.18603894515E+03  0.29305915780E+04  0.29246805822E+04 0.  0.
        5    1    3    3  502    0 -0.12794533944E+04 -0.37435673588E+03  0.50925528024E+03  0.14270623618E+04  0.46999998093E+01 0.  1.
       -5    1    3    3    0  502  0.12794533944E+04  0.37435673588E+03 -0.69529422538E+03  0.15035292162E+04  0.46999998093E+01 0. -1.
</event>
<event>
 5   0  0.3564340E-06  0.2918910E+04  0.7818609E-02  0.8267273E-01
       -1   -1    0    0    0  501  0.00000000000E+00  0.00000000000E+00  0.10877171990E+04  0.10877171990E+04  0.50400001928E-02 0. -1.
        1   -1    0    0  501    0  0.00000000000E+00  0.00000000000E+00 -0.19582383378E+04  0.19582383378E+04  0.50400001928E-02 0.  1.
    10030    2    1    2    0    0  0.00000000000E+00  0.00000000000E+00 -0.87052113873E+03  0.30459555368E+04  0.29189104267E+04 0.  0.
        1    1    3    3  502    0 -0.11106555156E+04 -0.76826842276E+03  0.14219394099E+03  0.13579437251E+04  0.50400001928E-02 0. -1.
       -1    1    3    3    0  502  0.11106555156E+04  0.76826842276E+03 -0.10127150797E+04  0.16880118117E+04  0.50400001928E-02 0.  1.
</event>
<event>
 5   0  0.9505359E-06  0.2911200E+04  0.7818609E-02  0.8269553E-01
        2   -1    0    0  501    0  0.00000000000E+00  0.00000000000E+00  0.18864988701E+04  0.18864988701E+04  0.25500000920E-02 0. -1.
       -2   -1    0    0    0  501  0.00000000000E+00  0.00000000000E+00 -0.11231239274E+04  0.11231239274E+04  0.25500000920E-02 0.  1.
    10030    2    1    2    0    0  0.00000000000E+00  0.00000000000E+00  0.76337494264E+03  0.30096227975E+04  0.29112004534E+04 0.  0.
        4    1    3    3  502    0 -0.40492677261E+03 -0.48954263758E+03 -0.97222739260E+03  0.11613980373E+04  0.12699999809E+01 0.  1.
       -4    1    3    3    0  502  0.40492677261E+03  0.48954263758E+03  0.17356023352E+04  0.18482247602E+04  0.12699999809E+01 0. -1.
</event>
<event>
 5   0  0.3474078E-06  0.2982799E+04  0.7818609E-02  0.8248660E-01
       -1   -1    0    0    0  501  0.00000000000E+00  0.00000000000E+00  0.14575000069E+04  0.14575000069E+04  0.50400001928E-02 0. -1.
        1   -1    0    0  501    0  0.00000000000E+00  0.00000000000E+00 -0.15260871842E+04  0.15260871842E+04  0.50400001928E-02 0.  1.
    10030    2    1    2    0    0  0.00000000000E+00  0.00000000000E+00 -0.68587177345E+02  0.29835871911E+04  0.29827987405E+04 0.  0.
        3    1    3    3  502    0 -0.44692754736E+03 -0.51258028224E+03 -0.13619685536E+04  0.15223143990E+04  0.10100000352E+00 0.  1.
       -3    1    3    3    0  502  0.44692754736E+03  0.51258028224E+03  0.12933813762E+04  0.14612727921E+04  0.10100000352E+00 0. -1.
</event>
<event>
 5   0  0.3649705E-06  0.2943035E+04  0.7818609E-02  0.8260187E-01
        1   -1    0    0  501    0  0.00000000000E+00  0.00000000000E+00  0.16659485674E+04  0.16659485674E+04  0.50400001928E-02 0.  1.
       -1   -1    0    0    0  501  0.00000000000E+00  0.00000000000E+00 -0.12997783460E+04  0.12997783460E+04  0.50400001928E-02 0. -1.
    10030    2    1    2    0    0  0.00000000000E+00  0.00000000000E+00  0.36617022142E+03  0.29657269133E+04  0.29430350819E+04 0.  0.
        2    1    3    3  502    0  0.57326053646E+03  0.23377472868E+03 -0.11621555962E+04  0.13167702519E+04  0.25500000920E-02 0. -1.
       -2    1    3    3    0  502 -0.57326053646E+03 -0.23377472868E+03  0.15283258176E+04  0.16489566614E+04  0.25500000920E-02 0.  1.
</event>
<event>
 5   0  0.3649705E-06  0.2846506E+04  0.7818609E-02  0.8288974E-01
       -1   -1    0    0    0  501  0.00000000000E+00  0.00000000000E+00  0.11145247268E+04  0.11145247268E+04  0.50400001928E-02 0. -1.
        1   -1    0    0  501    0  0.00000000000E+00  0.00000000000E+00 -0.18175000919E+04  0.18175000919E+04  0.50400001928E-02 0.  1.
    10030    2    1    2    0    0  0.00000000000E+00  0.00000000000E+00 -0.70297536511E+03  0.29320248187E+04  0.28465057831E+04 0.  0.
        2    1    3    3  502    0  0.76410276775E+03 -0.29582958384E+03  0.84721065236E+03  0.11786153197E+04  0.25500000920E-02 0. -1.
       -2    1    3    3    0  502 -0.76410276775E+03  0.29582958384E+03 -0.15501860175E+04  0.17534094990E+04  0.25500000920E-02 0.  1.
</event>
<event>
 5   0  0.3564340E-06  0.2861233E+04  0.7818609E-02  0.8284506E-01
        1   -1    0    0  501    0  0.00000000000E+00  0.00000000000E+00  0.11744038308E+04  0.11744038308E+04  0.50400001928E-02 0. -1.
       -1   -1    0    0    0  501  0.00000000000E+00  0.00000000000E+00 -0.17427260782E+04  0.17427260782E+04  0.50400001928E-02 0.  1.
    10030    2    1    2    0    0  0.00000000000E+00  0.00000000000E+00 -0.56832224737E+03  0.29171299090E+04  0.28612334279E+04 0.  0.
        1    1    3    3  502    0  0.31481929006E+03 -0.68732841886E+03 -0.15224387224E+04  0.16998091670E+04  0.50400001928E-02 0.  1.
       -1    1    3    3    0  502 -0.31481929006E+03  0.68732841886E+03  0.95411647504E+03  0.12173207419E+04  0.50400001928E-02 0. -1.
</event>
<event>
 5   0  0.3486236E-06  0.2921882E+04  0.7818609E-02  0.8266397E-01
       -1   -1    0    0    0  501  0.00000000000E+00  0.00000000000E+00  0.15231115099E+04  0.15231115099E+04  0.50400001928E-02 0. -1.
        1   -1    0    0  501    0  0.00000000000E+00  0.00000000000E+00 -0.14013078647E+04  0.14013078647E+04  0.50400001928E-02 0.  1.
    10030    2    1    2    0    0  0.00000000000E+00  0.00000000000E+00  0.12180364523E+03  0.29244193745E+04  0.29218816797E+04 0.  0.
        5    1    3    3  502    0 -0.91427398954E+03  0.11018454337E+04  0.35161193458E+03  0.14743179203E+04  0.46999998093E+01 0. -1.
       -5    1    3    3    0  502  0.91427398954E+03 -0.11018454337E+04 -0.22980828935E+03  0.14501014542E+04  0.46999998093E+01 0.  1.
</event>
<event>
 5   0  0.3649705E-06  0.2921224E+04  0.7818609E-02  0.8266591E-01
        1   -1    0    0  501    0  0.00000000000E+00  0.00000000000E+00  0.17410978825E+04  0.17410978825E+04  0.50400001928E-02 0.  1.
       -1   -1    0    0    0  501  0.00000000000E+00  0.00000000000E+00 -0.12253112114E+04  0.12253112114E+04  0.50400001928E-02 0. -1.
    10030    2    1    2    0    0  0.00000000000E+00  0.00000000000E+00  0.51578667110E+03  0.29664090939E+04  0.29212235489E+04 0.  0.
        2    1    3    3  502    0 -0.12507890858E+04  0.71483021408E+03  0.50230529452E+03  0.15257018650E+04  0.25500000920E-02 0. -1.
       -2    1    3    3    0  502  0.12507890858E+04 -0.71483021408E+03  0.13481376580E+02  0.14407072289E+04  0.25500000920E-02 0.  1.
</event>
<event>
 5   0  0.9505359E-06  0.2955877E+04  0.7818609E-02  0.8256444E-01
       -2   -1    0    0    0  501  0.00000000000E+00  0.00000000000E+00  0.21236147292E+04  0.21236147292E+04  0.25500000920E-02 0. -1.
        2   -1    0    0  501    0  0.00000000000E+00  0.00000000000E+00 -0.10285776748E+04  0.10285776748E+04  0.25500000920E-02 0.  1.
    10030    2    1    2    0    0  0.00000000000E+00  0.00000000000E+00  0.10950370545E+04  0.31521924040E+04  0.29558773319E+04 0.  0.
        4    1    3    3  502    0  0.37669266383E+03  0.80708839528E+03  0.18052610865E+04  0.20130221668E+04  0.12699999809E+01 0. -1.
       -4    1    3    3    0  502 -0.37669266383E+03 -0.80708839528E+03 -0.71022403202E+03  0.11391702372E+04  0.12699999809E+01 0.  1.
</event>
<event>
 5   0  0.9505359E-06  0.2885190E+04  0.7818609E-02  0.8277297E-01
       -2   -1    0    0    0  501  0.00000000000E+00  0.00000000000E+00  0.17235770681E+04  0.17235770681E+04  0.25500000920E-02 0. -1.
        2   -1    0    0  501    0  0.00000000000E+00  0.00000000000E+00 -0.12074197572E+04  0.12074197572E+04  0.25500000920E-02 0.  1.
    10030    2    1    2    0    0  0.00000000000E+00  0.00000000000E+00  0.51615731091E+03  0.29309968254E+04  0.28851904652E+04 0.  0.
        4    1    3    3  502    0  0.21910949689E+03  0.12782017405E+04  0.89998932934E+03  0.15785408030E+04  0.12699999809E+01 0. -1.
       -4    1    3    3    0  502 -0.21910949689E+03 -0.12782017405E+04 -0.38383201843E+03  0.13524560223E+04  0.12699999809E+01 0.  1.
</event>
<event>
 5   0  0.1001573E-05  0.2944269E+04  0.7818609E-02  0.8259827E-01
        2   -1    0    0  501    0  0.00000000000E+00  0.00000000000E+00  0.97683663580E+03  0.97683663581E+03  0.25500000920E-02 0.  1.
       -2   -1    0    0    0  501  0.00000000000E+00  0.00000000000E+00 -0.22185696201E+04  0.22185696201E+04  0.25500000920E-02 0. -1.
    10030    2    1    2    0    0  0.00000000000E+00  0.00000000000E+00 -0.12417329843E+04  0.31954062559E+04  0.29442690665E+04 0.  0.
        1    1    3    3  502    0  0.11737642177E+04 -0.58025661340E+03  0.10940200539E+03  0.13139212210E+04  0.50400001928E-02 0.  1.
       -1    1    3    3    0  502 -0.11737642177E+04  0.58025661340E+03 -0.13511349897E+04  0.18814850349E+04  0.50400001928E-02 0. -1.
</event>
<event>
 5   0  0.3746518E-06  0.2947857E+04  0.7818609E-02  0.8258779E-01
        1   -1    0    0  501    0  0.00000000000E+00  0.00000000000E+00  0.21491293726E+04  0.21491293726E+04  0.50400001928E-02 0.  1.
       -1   -1    0    0    0  501  0.00000000000E+00  0.00000000000E+00 -0.10108582104E+04  0.10108582104E+04  0.50400001928E-02 0. -1.
    10030    2    1    2    0    0  0.00000000000E+00  0.00000000000E+00  0.11382711621E+04  0.31599875830E+04  0.29478568972E+04 0.  0.
        4    1    3    3  502    0  0.12339015407E+04  0.38656440378E+03  0.13275193096E+04  0.18531740827E+04  0.12699999809E+01 0.  1.
       -4    1    3    3    0  502 -0.12339015407E+04 -0.38656440378E+03 -0.18924814748E+03  0.13068135003E+04  0.12699999809E+01 0. -1.
</event>
<event>
 5   0  0.3746518E-06  0.2915709E+04  0.7818609E-02  0.8268219E-01
       -1   -1    0    0    0  501  0.00000000000E+00  0.00000000000E+00  0.14812801995E+04  0.14812801995E+04  0.50400001928E-02 0. -1.
        1   -1    0    0  501    0  0.00000000000E+00  0.00000000000E+00 -0.14347991814E+04  0.14347991814E+04  0.50400001928E-02 0.  1.
    10030    2    1    2    0    0  0.00000000000E+00  0.00000000000E+00  0.46481018059E+02  0.29160793809E+04  0.29157089139E+04 0.  0.
        4    1    3    3  502    0  0.53745806810E+02  0.62356591313E+02  0.14789532029E+04  0.14812431082E+04  0.12699999809E+01 0. -1.
       -4    1    3    3    0  502 -0.53745806810E+02 -0.62356591313E+02 -0.14324721848E+04  0.14348362727E+04  0.12699999809E+01 0.  1.
</event>
<event>
 5   0  0.9360689E-06  0.2927446E+04  0.7818609E-02  0.8264758E-01
        2   -1    0    0  501    0  0.00000000000E+00  0.00000000000E+00  0.20224876769E+04  0.20224876769E+04  0.25500000920E-02 0.  1.
       -2   -1    0    0    0  501  0.00000000000E+00  0.00000000000E+00 -0.10593314774E+04  0.10593314774E+04  0.25500000920E-02 0. -1.
    10030    2    1    2    0    0  0.00000000000E+00  0.00000000000E+00  0.96315619949E+03  0.30818191543E+04  0.29274458893E+04 0.  0.
        5    1    3    3  502    0  0.49414634192E+03  0.14785189554E+03 -0.96048256039E+03  0.10902245774E+04  0.46999998093E+01 0. -1.
       -5    1    3    3    0  502 -0.49414634192E+03 -0.14785189554E+03  0.19236387599E+04  0.19915945769E+04  0.46999998093E+01 0.  1.
</event>
<event>
 5   0  0.3486236E-06  0.2908499E+04  0.7818609E-02  0.8270353E-01
        1   -1    0    0  501    0  0.00000000000E+00  0.00000000000E+00  0.19935769368E+04  0.19935769368E+04  0.50400001928E-02 0. -1.
       -1   -1    0    0    0  501  0.00000000000E+00  0.00000000000E+00 -0.10608278420E+04  0.10608278421E+04  0.50400001928E-02 0.  1.
    10030    2    1    2    0    0  0.00000000000E+00  0.00000000000E+00  0.93274909472E+03  0.30544047788E+04  0.29084992142E+04 0.  0.
        5    1    3    3  502    0 -0.72977846825E+02 -0.14523243495E+04  0.44983494355E+03  0.15221515525E+04  0.46999998093E+01 0. -1.
       -5    1    3    3    0  502  0.72977846825E+02  0.14523243495E+04  0.48291415118E+03  0.15322532264E+04  0.46999998093E+01 0.  1.
</event>
<event>
 5   0  0.3486236E-06  0.2977935E+04  0.7818609E-02  0.8250060E-01
        1   -1    0    0  501    0  0.00000000000E+00  0.00000000000E+00  0.14544850185E+04  0.14544850185E+04  0.50400001928E-02 0. -1.
       -1   -1    0    0    0  501  0.00000000000E+00  0.00000000000E+00 -0.15242675772E+04  0.15242675772E+04  0.50400001928E-02 0.  1.
    10030    2    1    2    0    0  0.00000000000E+00  0.00000000000E+00 -0.69782558691E+02  0.29787525957E+04  0.29779350935E+04 0.  0.
        5    1    3    3  502    0 -0.12113360944E+04  0.84813188770E+03 -0.20912127841E+03  0.14934579444E+04  0.46999998093E+01 0.  1.
       -5    1    3    3    0  502  0.12113360944E+04 -0.84813188770E+03  0.13933871972E+03  0.14852946513E+04  0.46999998093E+01 0. -1.
</event>
<event>
 5   0  0.9251510E-06  0.2801234E+04  0.7818609E-02  0.8302885E-01
        2   -1    0    0  501    0  0.00000000000E+00  0.00000000000E+00  0.67307282648E+03  0.67307282648E+03  0.25500000920E-02 0. -1.
       -2   -1    0    0    0  501  0.00000000000E+00  0.00000000000E+00 -0.29145841030E+04  0.29145841030E+04  0.25500000920E-02 0.  1.
    10030    2    1    2    0    0  0.00000000000E+00  0.00000000000E+00 -0.22415112765E+04  0.35876569294E+04  0.28012335570E+04 0.  0.
        2    1    3    3  502    0 -0.34527557177E+02 -0.30170057563E+03 -0.28719151673E+04  0.28879252272E+04  0.25500000920E-02 0.  1.
       -2    1    3    3    0  502  0.34527557177E+02  0.30170057563E+03  0.63040389084E+03  0.69973170225E+03  0.25500000920E-02 0. -1.
</event>
<event>
 5   0  0.3474078E-06  0.2953287E+04  0.7818609E-02  0.8257197E-01
       -1   -1    0    0    0  501  0.00000000000E+00  0.00000000000E+00  0.11626160075E+04  0.11626160075E+04  0.50400001928E-02 0. -1.
        1   -1    0    0  501    0  0.00000000000E+00  0.00000000000E+00 -0.18754909337E+04  0.18754909337E+04  0.50400001928E-02 0.  1.
    10030    2    1    2    0    0  0.00000000000E+00  0.00000000000E+00 -0.71287492616E+03  0.30381069412E+04  0.29532868343E+04 0.  0.
        3    1    3    3  502    0  0.10485393480E+04 -0.10275263695E+04 -0.19303412232E+03  0.14807117839E+04  0.10100000352E+00 0.  1.
       -3    1    3    3    0  502 -0.10485393480E+04  0.10275263695E+04 -0.51984080384E+03  0.15573951573E+04  0.10100000352E+00 0. -1.
</event>
<event>
 5   0  0.9646321E-06  0.2895519E+04  0.7818609E-02  0.8274212E-01
        2   -1    0    0  501    0  0.00000000000E+00  0.00000000000E+00  0.19488375420E+04  0.19488375420E+04  0.25500000920E-02 0. -1.
       -2   -1    0    0    0  501  0.00000000000E+00  0.00000000000E+00 -0.10755168325E+04  0.10755168325E+04  0.25500000920E-02 0.  1.
    10030    2    1    2    0    0  0.00000000000E+00  0.00000000000E+00  0.87332070948E+03  0.30243543745E+04  0.28955190071E+04 0.  0.
        3    1    3    3  502    0 -0.84410737795E+03 -0.54796430661E+03 -0.65043009313E+03  0.11982660235E+04  0.10100000352E+00 0.  1.
       -3    1    3    3    0  502  0.84410737795E+03  0.54796430661E+03  0.15237508026E+04  0.18260883510E+04  0.10100000352E+00 0. -1.
</event>
<event>
 5   0  0.9505359E-06  0.2941010E+04  0.7818609E-02  0.8260779E-01
       -2   -1    0    0    0  501  0.00000000000E+00  0.00000000000E+00  0.16201894358E+04  0.16201894358E+04  0.25500000920E-02 0. -1.
        2   -1    0    0  501    0  0.00000000000E+00  0.00000000000E+00 -0.13346495344E+04  0.13346495344E+04  0.25500000920E-02 0.  1.
    10030    2    1    2    0    0  0.00000000000E+00  0.00000000000E+00  0.28553990137E+03  0.29548389703E+04  0.29410100824E+04 0.  0.
        4    1    3    3  502    0  0.46308788045E+03  0.15540765385E+03 -0.12507563868E+04  0.13427565214E+04  0.12699999809E+01 0.  1.
       -4    1    3    3    0  502 -0.46308788045E+03 -0.15540765385E+03  0.15362962882E+04  0.16120824488E+04  0.12699999809E+01 0. -1.
</event>
<event>
 5   0  0.9505359E-06  0.2860967E+04  0.7818609E-02  0.8284587E-01
        2   -1    0    0  501    0  0.00000000000E+00  0.00000000000E+00  0.20295784709E+04  0.20295784709E+04  0.25500000920E-02 0. -1.
       -2   -1    0    0    0  501  0.00000000000E+00  0.00000000000E+00 -0.10082303683E+04  0.10082303683E+04  0.25500000920E-02 0.  1.
    10030    2    1    2    0    0  0.00000000000E+00  0.00000000000E+00  0.10213481025E+04  0.30378088392E+04  0.28609667242E+04 0.  0.
        4    1    3    3  502    0 -0.12291875277E+04 -0.30455046981E+03  0.12171007596E+04  0.17564136298E+04  0.12699999809E+01 0.  1.
       -4    1    3    3    0  502  0.12291875277E+04  0.30455046981E+03 -0.19575265712E+03  0.12813952094E+04  0.12699999809E+01 0. -1.
</event>
<event>
 5   0  0.3649705E-06  0.2979216E+04  0.7818609E-02  0.8249691E-01
        1   -1    0    0  501    0  0.00000000000E+00  0.00000000000E+00  0.16817211105E+04  0.16817211105E+04  0.50400001928E-02 0. -1.
       -1   -1    0    0    0  501  0.00000000000E+00  0.00000000000E+00 -0.13194408781E+04  0.13194408782E+04  0.50400001928E-02 0.  1.
    10030    2    1    2    0    0  0.00000000000E+00  0.00000000000E+00  0.36228023232E+03  0.30011619886E+04  0.29792157215E+04 0.  0.
        2    1    3    3  502    0 -0.67631426068E+03  0.12720814350E+04  0.56253100274E+03  0.15466199551E+04  0.25500000920E-02 0. -1.
       -2    1    3    3    0  502  0.67631426068E+03 -0.12720814350E+04 -0.20025077041E+03  0.14545420336E+04  0.25500000920E-02 0.  1.
</event>
<event>
 5   0  0.1001573E-05  0.2903758E+04  0.7818609E-02  0.8271760E-01
        2   -1    0    0  501    0  0.00000000000E+00  0.00000000000E+00  0.22369368926E+04  0.22369368926E+04  0.25500000920E-02 0.  1.
       -2   -1    0    0    0  501  0.00000000000E+00  0.00000000000E+00 -0.94233891965E+03  0.94233891965E+03  0.25500000920E-02 0. -1.
    10030    2    1    2    0    0  0.00000000000E+00  0.00000000000E+00  0.12945979730E+04  0.31792758123E+04  0.29037580442E+04 0.  0.
        1    1    3    3  502    0  0.46091999774E+03 -0.27626041017E+03 -0.82944866615E+03  0.98830771946E+03  0.50400001928E-02 0. -1.
       -1    1    3    3    0  502 -0.46091999774E+03  0.27626041017E+03  0.21240466391E+04  0.21909680928E+04  0.50400001928E-02 0.  1.
</event>
<event>
 5   0  0.3564340E-06  0.2792830E+04  0.7818609E-02  0.8305498E-01
        1   -1    0    0  501    0  0.00000000000E+00  0.00000000000E+00  0.60563247151E+03  0.60563247153E+03  0.50400001928E-02 0. -1.
       -1   -1    0    0    0  501  0.00000000000E+00  0.00000000000E+00 -0.32197320912E+04  0.32197320912E+04  0.50400001928E-02 0.  1.
    10030    2    1    2    0    0  0.00000000000E+00  0.00000000000E+00 -0.26140996197E+04  0.38253645627E+04  0.27928296074E+04 0.  0.
        1    1    3    3  502    0  0.23130344717E+03  0.98253656784E+03 -0.26287269158E+04  0.28158630275E+04  0.50400001928E-02 0.  1.
       -1    1    3    3    0  502 -0.23130344717E+03 -0.98253656784E+03  0.14627296103E+02  0.10095015352E+04  0.50400001928E-02 0. -1.
</event>
<event>
 5   0  0.3486236E-06  0.2897059E+04  0.7818609E-02  0.8273753E-01
        1   -1    0    0  501    0  0.00000000000E+00  0.00000000000E+00  0.11647818049E+04  0.11647818049E+04  0.50400001928E-02 0. -1.
       -1   -1    0    0    0  501  0.00000000000E+00  0.00000000000E+00 -0.18013992984E+04  0.18013992984E+04  0.50400001928E-02 0.  1.
    10030    2    1    2    0    0  0.00000000000E+00  0.00000000000E+00 -0.63661749345E+03  0.29661811033E+04  0.28970585953E+04 0.  0.
        5    1    3    3  502    0 -0.44675058227E+03 -0.80777305237E+03 -0.14612458928E+04  0.17283937735E+04  0.46999998093E+01 0.  1.
       -5    1    3    3    0  502  0.44675058227E+03  0.80777305237E+03  0.82462839937E+03  0.12377873298E+04  0.46999998093E+01 0. -1.
</event>
<event>
 5   0  0.1001573E-05  0.2874335E+04  0.7818609E-02  0.8280555E-01
       -2   -1    0    0    0  501  0.00000000000E+00  0.00000000000E+00  0.95298717520E+03  0.95298717520E+03  0.25500000920E-02 0.  1.
        2   -1    0    0  501    0  0.00000000000E+00  0.00000000000E+00 -0.21673427990E+04  0.21673427990E+04  0.25500000920E-02 0. -1.
    10030    2    1    2    0    0  0.00000000000E+00  0.00000000000E+00 -0.12143556238E+04  0.31203299742E+04  0.28743346303E+04 0.  0.
        1    1    3    3  502    0 -0.11612691314E+04 -0.69797440730E+03 -0.86849608363E+02  0.13576660574E+04  0.50400001928E-02 0.  1.
       -1    1    3    3    0  502  0.11612691314E+04  0.69797440730E+03 -0.11275060154E+04  0.17626639168E+04  0.50400001928E-02 0. -1.
</event>
<event>
 5   0  0.3486236E-06  0.2453514E+04  0.7818609E-02  0.8419736E-01
        1   -1    0    0  501    0  0.00000000000E+00  0.00000000000E+00  0.15146528460E+04  0.15146528460E+04  0.50400001928E-02 0. -1.
       -1   -1    0    0    0  501  0.00000000000E+00  0.00000000000E+00 -0.99358277658E+03  0.99358277659E+03  0.50400001928E-02 0.  1.
    10030    2    1    2    0    0  0.00000000000E+00  0.00000000000E+00  0.52107006943E+03  0.25082356226E+04  0.24535141983E+04 0.  0.
        5    1    3    3  502    0 -0.11402919288E+04  0.29535529828E+03 -0.89759322810E+02  0.11813463765E+04  0.46999998093E+01 0.  1.
       -5    1    3    3    0  502  0.11402919288E+04 -0.29535529828E+03  0.61082939223E+03  0.13268892461E+04  0.46999998093E+01 0. -1.
</event>
<event>
 5   0  0.3474078E-06  0.2868441E+04  0.7818609E-02  0.8282329E-01
        1   -1    0    0  501    0  0.00000000000E+00  0.00000000000E+00  0.14367015572E+04  0.14367015572E+04  0.50400001928E-02 0.  1.
       -1   -1    0    0    0  501  0.00000000000E+00  0.00000000000E+00 -0.14317439942E+04  0.14317439943E+04  0.50400001928E-02 0. -1.
    10030    2    1    2    0    0  0.00000000000E+00  0.00000000000E+00  0.49575629912E+01  0.28684455515E+04  0.28684412674E+04 0.  0.
        3    1    3    3  502    0  0.35783989402E+03 -0.76658358111E+03  0.11606208478E+04  0.14362244042E+04  0.10100000352E+00 0.  1.
       -3    1    3    3    0  502 -0.35783989402E+03  0.76658358111E+03 -0.11556632849E+04  0.14322211473E+04  0.10100000352E+00 0. -1.
</event>
<event>
 5   0  0.3746518E-06  0.2939623E+04  0.7818609E-02  0.8261185E-01
        1   -1    0    0  501    0  0.00000000000E+00  0.00000000000E+00  0.13812621061E+04  0.13812621061E+04  0.50400001928E-02 0. -1.
       -1   -1    0    0    0  501  0.00000000000E+00  0.00000000000E+00 -0.15640378336E+04  0.15640378336E+04  0.50400001928E-02 0.  1.
    10030    2    1    2    0    0  0.00000000000E+00  0.00000000000E+00 -0.18277572749E+03  0.29452999396E+04  0.29396232357E+04 0.  0.
        4    1    3    3  502    0 -0.74846376378E+03 -0.31629658796E+03 -0.13185399861E+04  0.15488030362E+04  0.12699999809E+01 0.  1.
       -4    1    3    3    0  502  0.74846376378E+03  0.31629658796E+03  0.11357642586E+04  0.13964969034E+04  0.12699999809E+01 0. -1.
</event>
<event>
 5   0  0.9360689E-06  0.2833761E+04  0.7818609E-02  0.8292863E-01
       -2   -1    0    0    0  501  0.00000000000E+00  0.00000000000E+00  0.17588836640E+04  0.17588836640E+04  0.25500000920E-02 0. -1.
        2   -1    0    0  501    0  0.00000000000E+00  0.00000000000E+00 -0.11413776724E+04  0.11413776724E+04  0.25500000920E-02 0.  1.
    10030    2    1    2    0    0  0.00000000000E+00  0.00000000000E+00  0.61750599158E+03  0.29002613364E+04  0.28337611350E+04 0.  0.
        5    1    3    3  502    0  0.67359244589E+03 -0.33856173782E+03 -0.91905679346E+03  0.11887128808E+04  0.46999998093E+01 0.  1.
       -5    1    3    3    0  502 -0.67359244589E+03  0.33856173782E+03  0.15365627850E+04  0.17115484556E+04  0.46999998093E+01 0. -1.
</event>
<event>
 5   0  0.1001573E-05  0.2840337E+04  0.7818609E-02  0.8290854E-01
        2   -1    0    0  501    0  0.00000000000E+00  0.00000000000E+00  0.91737984829E+03  0.91737984829E+03  0.25500000920E-02 0. -1.
       -2   -1    0    0    0  501  0.00000000000E+00  0.00000000000E+00 -0.21985200422E+04  0.21985200422E+04  0.25500000920E-02 0.  1.
    10030    2    1    2    0    0  0.00000000000E+00  0.00000000000E+00 -0.12811401940E+04  0.31158998905E+04  0.28403365877E+04 0.  0.
        1    1    3    3  502    0 -0.35819206871E+03 -0.98714606093E+03 -0.16894241832E+04  0.19891990786E+04  0.50400001928E-02 0.  1.
       -1    1    3    3    0  502  0.35819206871E+03  0.98714606093E+03  0.40828398921E+03  0.11267008119E+04  0.50400001928E-02 0. -1.
</event>
<event>
 5   0  0.3649705E-06  0.2916909E+04  0.7818609E-02  0.8267864E-01
       -1   -1    0    0    0  501  0.00000000000E+00  0.00000000000E+00  0.11338908428E+04  0.11338908428E+04  0.50400001928E-02 0. -1.
        1   -1    0    0  501    0  0.00000000000E+00  0.00000000000E+00 -0.18759211563E+04  0.18759211563E+04  0.50400001928E-02 0.  1.
    10030    2    1    2    0    0  0.00000000000E+00  0.00000000000E+00 -0.74203031355E+03  0.30098119991E+04  0.29169092004E+04 0.  0.
        2    1    3    3  502    0 -0.39915043942E+03 -0.53575827421E+03 -0.17087365423E+04  0.18347039469E+04  0.25500000920E-02 0.  1.
       -2    1    3    3    0  502  0.39915043942E+03  0.53575827421E+03  0.96670622874E+03  0.11751080522E+04  0.25500000920E-02 0. -1.
</event>
<event>
 5   0  0.3486236E-06  0.2376923E+04  0.7818609E-02  0.8448194E-01
        1   -1    0    0  501    0  0.00000000000E+00  0.00000000000E+00  0.15172972312E+04  0.15172972312E+04  0.50400001928E-02 0.  1.
       -1   -1    0    0    0  501  0.00000000000E+00  0.00000000000E+00 -0.93089286972E+03  0.93089286974E+03  0.50400001928E-02 0. -1.
    10030    2    1    2    0    0  0.00000000000E+00  0.00000000000E+00  0.58640436151E+03  0.24481901010E+04  0.23769233676E+04 0.  0.
        5    1    3    3  502    0  0.10405281671E+03  0.11778996651E+04  0.17070577146E+03  0.11947540166E+04  0.46999998093E+01 0.  1.
       -5    1    3    3    0  502 -0.10405281671E+03 -0.11778996651E+04  0.41569859005E+03  0.12534360844E+04  0.46999998093E+01 0. -1.
</event>
<event>
 5   0  0.9646321E-06  0.2913922E+04  0.7818609E-02  0.8268747E-01
       -2   -1    0    0    0  501  0.00000000000E+00  0.00000000000E+00  0.14806475674E+04  0.14806475674E+04  0.25500000920E-02 0. -1.
        2   -1    0    0  501    0  0.00000000000E+00  0.00000000000E+00 -0.14336538147E+04  0.14336538147E+04  0.25500000920E-02 0.  1.
    10030    2    1    2    0    0  0.00000000000E+00  0.00000000000E+00  0.46993752687E+02  0.29143013820E+04  0.29139224651E+04 0.  0.
        3    1    3    3  502    0 -0.10073848239E+04  0.32478007047E+03 -0.97784745388E+03  0.14410037928E+04  0.10100000352E+00 0.  1.
       -3    1    3    3    0  502  0.10073848239E+04 -0.32478007047E+03  0.10248412066E+04  0.14732975892E+04  0.10100000352E+00 0. -1.
</event>
<event>
 5   0  0.1001573E-05  0.2860577E+04  0.7818609E-02  0.8284704E-01
       -2   -1    0    0    0  501  0.00000000000E+00  0.00000000000E+00  0.17857696544E+04  0.17857696544E+04  0.25500000920E-02 0.  1.
        2   -1    0    0  501    0  0.00000000000E+00  0.00000000000E+00 -0.11455709107E+04  0.11455709107E+04  0.25500000920E-02 0. -1.
    10030    2    1    2    0    0  0.00000000000E+00  0.00000000000E+00  0.64019874365E+03  0.29313405651E+04  0.28605774028E+04 0.  0.
        1    1    3    3  502    0 -0.90268276755E+03  0.10711222950E+04  0.23833957297E+02  0.14009665261E+04  0.50400001928E-02 0. -1.
       -1    1    3    3    0  502  0.90268276755E+03 -0.10711222950E+04  0.61636478636E+03  0.15303740391E+04  0.50400001928E-02 0.  1.
</event>
<event>
 5   0  0.3486236E-06  0.2883416E+04  0.7818609E-02  0.8277829E-01
       -1   -1    0    0    0  501  0.00000000000E+00  0.00000000000E+00  0.10531630012E+04  0.10531630012E+04  0.50400001928E-02 0. -1.
        1   -1    0    0  501    0  0.00000000000E+00  0.00000000000E+00 -0.19735992361E+04  0.19735992361E+04  0.50400001928E-02 0.  1.
    10030    2    1    2    0    0  0.00000000000E+00  0.00000000000E+00 -0.92043623486E+03  0.30267622373E+04  0.28834158179E+04 0.  0.
        5    1    3    3  502    0  0.32750699550E+03  0.40899247909E+03 -0.18701072225E+04  0.19421273887E+04  0.46999998093E+01 0.  1.
       -5    1    3    3    0  502 -0.32750699550E+03 -0.40899247909E+03  0.94967098767E+03  0.10846348486E+04  0.46999998093E+01 0. -1.
</event>
<event>
 5   0  0.3649705E-06  0.2902961E+04  0.7818609E-02  0.8271997E-01
        1   -1    0    0  501    0  0.00000000000E+00  0.00000000000E+00  0.18767523908E+04  0.18767523909E+04  0.50400001928E-02 0. -1.
       -1   -1    0    0    0  501  0.00000000000E+00  0.00000000000E+00 -0.11225753738E+04  0.11225753738E+04  0.50400001928E-02 0.  1.
    10030    2    1    2    0    0  0.00000000000E+00  0.00000000000E+00  0.75417701705E+03  0.29993277647E+04  0.29029612582E+04 0.  0.
        2    1    3    3  502    0  0.25445027496E+03 -0.14289618949E+04  0.38835826715E+03  0.15024976483E+04  0.25500000920E-02 0.  1.
       -2    1    3    3    0  502 -0.25445027496E+03  0.14289618949E+04  0.36581874990E+03  0.14968301164E+04  0.25500000920E-02 0. -1.
</event>
<event>
 5   0  0.3486236E-06  0.2911419E+04  0.7818609E-02  0.8269488E-01
       -1   -1    0    0    0  501  0.00000000000E+00  0.00000000000E+00  0.13177530433E+04  0.13177530433E+04  0.50400001928E-02 0.  1.
        1   -1    0    0  501    0  0.00000000000E+00  0.00000000000E+00 -0.16081087420E+04  0.16081087420E+04  0.50400001928E-02 0. -1.
    10030    2    1    2    0    0  0.00000000000E+00  0.00000000000E+00 -0.29035569877E+03  0.29258617853E+04  0.29114190277E+04 0.  0.
        5    1    3    3  502    0 -0.57096861173E+03 -0.45053428159E+03  0.11220620098E+04  0.13371729650E+04  0.46999998093E+01 0.  1.
       -5    1    3    3    0  502  0.57096861173E+03  0.45053428159E+03 -0.14124177085E+04  0.15886888203E+04  0.46999998093E+01 0. -1.
</event>
<event>
 5   0  0.3649705E-06  0.2624538E+04  0.7818609E-02  0.8359914E-01
       -1   -1    0    0    0  501  0.00000000000E+00  0.00000000000E+00  0.21141812041E+04  0.21141812041E+04  0.50400001928E-02 0. -1.
        1   -1    0    0  501    0  0.00000000000E+00  0.00000000000E+00 -0.81452333962E+03  0.81452333964E+03  0.50400001928E-02 0.  1.
    10030    2    1    2    0    0  0.00000000000E+00  0.00000000000E+00  0.12996578645E+04  0.29287045438E+04  0.26245380050E+04 0.  0.
        2    1    3    3  502    0  0.73847246037E+03 -0.95838072960E+03  0.12168682950E+04  0.17159847450E+04  0.25500000920E-02 0. -1.
       -2    1    3    3    0  502 -0.73847246037E+03  0.95838072960E+03  0.82789569512E+02  0.12127197988E+04  0.25500000920E-02 0.  1.
</event>
<event>
 5   0  0.3486236E-06  0.2876961E+04  0.7818609E-02  0.8279765E-01
        1   -1    0    0  501    0  0.00000000000E+00  0.00000000000E+00  0.10075888642E+04  0.10075888642E+04  0.50400001928E-02 0.  1.
       -1   -1    0    0    0  501  0.00000000000E+00  0.00000000000E+00 -0.20536412211E+04  0.20536412211E+04  0.50400001928E-02 0. -1.
    10030    2    1    2    0    0  0.00000000000E+00  0.00000000000E+00 -0.10460523569E+04  0.30612300853E+04  0.28769609143E+04 0.  0.
        5    1    3    3  502    0  0.55419928485E+03  0.56389501647E+03 -0.18016979159E+04  0.19675497217E+04  0.46999998093E+01 0. -1.
       -5    1    3    3    0  502 -0.55419928485E+03 -0.56389501647E+03  0.75564555908E+03  0.10936803637E+04  0.46999998093E+01 0.  1.
</event>
<event>
 5   0  0.3649705E-06  0.2900282E+04  0.7818609E-02  0.8272794E-01
       -1   -1    0    0    0  501  0.00000000000E+00  0.00000000000E+00  0.16981862950E+04  0.16981862950E+04  0.50400001928E-02 0. -1.
        1   -1    0    0  501    0  0.00000000000E+00  0.00000000000E+00 -0.12383261784E+04  0.12383261784E+04  0.50400001928E-02 0.  1.
    10030    2    1    2    0    0  0.00000000000E+00  0.00000000000E+00  0.45986011661E+03  0.29365124735E+04  0.29002817415E+04 0.  0.
        2    1    3    3  502    0  0.71138058846E+03 -0.81899771547E+03  0.12042868382E+04  0.16208412594E+04  0.25500000920E-02 0. -1.
       -2    1    3    3    0  502 -0.71138058846E+03  0.81899771547E+03 -0.74442672161E+03  0.13156712140E+04  0.25500000920E-02 0.  1.
</event>
<event>
 5   0  0.9646321E-06  0.2660074E+04  0.7818609E-02  0.8348077E-01
        2   -1    0    0  501    0  0.00000000000E+00  0.00000000000E+00  0.24194023902E+04  0.24194023902E+04  0.25500000920E-02 0. -1.
       -2   -1    0    0    0  501  0.00000000000E+00  0.00000000000E+00 -0.73117185062E+03  0.73117185063E+03  0.25500000920E-02 0.  1.
    10030    2    1    2    0    0  0.00000000000E+00  0.00000000000E+00  0.16882305396E+04  0.31505742408E+04  0.26600743772E+04 0.  0.
        3    1    3    3  502    0  0.52658001982E+03 -0.83392432382E+03 -0.21277416309E+03  0.10089544835E+04  0.10100000352E+00 0.  1.
       -3    1    3    3    0  502 -0.52658001982E+03  0.83392432382E+03  0.19010047027E+04  0.21416197573E+04  0.10100000352E+00 0. -1.
</event>
<event>
 5   0  0.9251510E-06  0.2902980E+04  0.7818609E-02  0.8271991E-01
       -2   -1    0    0    0  501  0.00000000000E+00  0.00000000000E+00  0.94038676932E+03  0.94038676932E+03  0.25500000920E-02 0. -1.
        2   -1    0    0  501    0  0.00000000000E+00  0.00000000000E+00 -0.22403790565E+04  0.22403790565E+04  0.25500000920E-02 0.  1.
    10030    2    1    2    0    0  0.00000000000E+00  0.00000000000E+00 -0.12999922872E+04  0.31807658258E+04  0.29029797264E+04 0.  0.
        2    1    3    3  502    0  0.11260375487E+04 -0.60729991343E+02  0.35133151074E+03  0.11811361155E+04  0.25500000920E-02 0. -1.
       -2    1    3    3    0  502 -0.11260375487E+04  0.60729991343E+02 -0.16513237979E+04  0.19996297103E+04  0.25500000920E-02 0.  1.
</event>
<event>
 5   0  0.1001573E-05  0.2927210E+04  0.7818609E-02  0.8264828E-01
       -2   -1    0    0    0  501  0.00000000000E+00  0.00000000000E+00  0.14619738780E+04  0.14619738780E+04  0.25500000920E-02 0. -1.
        2   -1    0    0  501    0  0.00000000000E+00  0.00000000000E+00 -0.14652375971E+04  0.14652375971E+04  0.25500000920E-02 0.  1.
    10030    2    1    2    0    0  0.00000000000E+00  0.00000000000E+00 -0.32637191466E+01  0.29272114751E+04  0.29272096556E+04 0.  0.
        1    1    3    3  502    0 -0.71106183050E+03  0.11480563627E+04  0.56272365697E+03  0.14629765046E+04  0.50400001928E-02 0. -1.
       -1    1    3    3    0  502  0.71106183050E+03 -0.11480563627E+04 -0.56598737612E+03  0.14642349705E+04  0.50400001928E-02 0.  1.
</event>
<event>
 5   0  0.3649705E-06  0.2914852E+04  0.7818609E-02  0.8268472E-01
       -1   -1    0    0    0  501  0.00000000000E+00  0.00000000000E+00  0.14443317828E+04  0.14443317828E+04  0.50400001928E-02 0. -1.
        1   -1    0    0  501    0  0.00000000000E+00  0.00000000000E+00 -0.14706386532E+04  0.14706386532E+04  0.50400001928E-02 0.  1.
    10030    2    1    2    0    0  0.00000000000E+00  0.00000000000E+00 -0.26306870380E+02  0.29149704360E+04  0.29148517272E+04 0.  0.
        2    1    3    3  502    0  0.11459099961E+04 -0.88251281121E+03  0.16616244716E+03  0.14558669375E+04  0.25500000920E-02 0.  1.
       -2    1    3    3    0  502 -0.11459099961E+04  0.88251281121E+03 -0.19246931754E+03  0.14591034985E+04  0.25500000920E-02 0. -1.
</event>
<event>
 5   0  0.9505359E-06  0.2893642E+04  0.7818609E-02  0.8274772E-01
       -2   -1    0    0    0  501  0.00000000000E+00  0.00000000000E+00  0.14354005327E+04  0.14354005327E+04  0.25500000920E-02 0. -1.
        2   -1    0    0  501    0  0.00000000000E+00  0.00000000000E+00 -0.14583327893E+04  0.14583327893E+04  0.25500000920E-02 0.  1.
    10030    2    1    2    0    0  0.00000000000E+00  0.00000000000E+00 -0.22932256613E+02  0.28937333220E+04  0.28936424538E+04 0.  0.
        4    1    3    3  502    0  0.76532893654E+03  0.80324494726E+03  0.91719601964E+03  0.14395071996E+04  0.12699999809E+01 0. -1.
       -4    1    3    3    0  502 -0.76532893654E+03 -0.80324494726E+03 -0.94012827626E+03  0.14542261224E+04  0.12699999809E+01 0.  1.
</event>
<event>
 5   0  0.3564340E-06  0.2888431E+04  0.7818609E-02  0.8276328E-01
       -1   -1    0    0    0  501  0.00000000000E+00  0.00000000000E+00  0.16810370112E+04  0.16810370112E+04  0.50400001928E-02 0. -1.
        1   -1    0    0  501    0  0.00000000000E+00  0.00000000000E+00 -0.12407566841E+04  0.12407566841E+04  0.50400001928E-02 0.  1.
    10030    2    1    2    0    0  0.00000000000E+00  0.00000000000E+00  0.44028032708E+03  0.29217936953E+04  0.28884306521E+04 0.  0.
        1    1    3    3  502    0 -0.13496733467E+04 -0.13719876951E+03  0.72115521426E+03  0.15363939886E+04  0.50400001928E-02 0. -1.
       -1    1    3    3    0  502  0.13496733467E+04  0.13719876951E+03 -0.28087488719E+03  0.13853997067E+04  0.50400001928E-02 0.  1.
</event>
<event>
 5   0  0.3746518E-06  0.2192820E+04  0.7818609E-02  0.8521422E-01
        1   -1    0    0  501    0  0.00000000000E+00  0.00000000000E+00  0.18613883232E+04  0.18613883232E+04  0.50400001928E-02 0.  1.
       -1   -1    0    0    0  501  0.00000000000E+00  0.00000000000E+00 -0.64581642028E+03  0.64581642030E+03  0.50400001928E-02 0. -1.
    10030    2    1    2    0    0  0.00000000000E+00  0.00000000000E+00  0.12155719030E+04  0.25072047435E+04  0.21928202331E+04 0.  0.
        4    1    3    3  502    0 -0.52588437507E+03 -0.89199776566E+03  0.19569800617E+03  0.10538091442E+04  0.12699999809E+01 0.  1.
       -4    1    3    3    0  502  0.52588437507E+03  0.89199776566E+03  0.10198738968E+04  0.14533955993E+04  0.12699999809E+01 0. -1.
</event>
<event>
 5   0  0.9646321E-06  0.2883263E+04  0.7818609E-02  0.8277875E-01
       -2   -1    0    0    0  501  0.00000000000E+00  0.00000000000E+00  0.13451096207E+04  0.13451096207E+04  0.25500000920E-02 0. -1.
        2   -1    0    0  501    0  0.00000000000E+00  0.00000000000E+00 -0.15450794363E+04  0.15450794363E+04  0.25500000920E-02 0.  1.
    10030    2    1    2    0    0  0.00000000000E+00  0.00000000000E+00 -0.19996981553E+03  0.28901890570E+04  0.28832628840E+04 0.  0.
        3    1    3    3  502    0 -0.98237329039E+03  0.47082590049E+03 -0.10464813326E+04  0.15105818415E+04  0.10100000352E+00 0.  1.
       -3    1    3    3    0  502  0.98237329039E+03 -0.47082590049E+03  0.84651151708E+03  0.13796072155E+04  0.10100000352E+00 0. -1.
</event>
<event>
 5   0  0.3486236E-06  0.2612505E+04  0.7818609E-02  0.8363966E-01
       -1   -1    0    0    0  501  0.00000000000E+00  0.00000000000E+00  0.12824736802E+04  0.12824736802E+04  0.50400001928E-02 0.  1.
        1   -1    0    0  501    0  0.00000000000E+00  0.00000000000E+00 -0.13304724473E+04  0.13304724473E+04  0.50400001928E-02 0. -1.
    10030    2    1    2    0    0  0.00000000000E+00  0.00000000000E+00 -0.47998767139E+02  0.26129461275E+04  0.26125052313E+04 0.  0.
        5    1    3    3  502    0 -0.17990828338E+03 -0.14109629444E+03  0.12622964488E+04  0.12828443278E+04  0.46999998093E+01 0.  1.
       -5    1    3    3    0  502  0.17990828338E+03  0.14109629444E+03 -0.13102952159E+04  0.13301017997E+04  0.46999998093E+01 0. -1.
</event>
<event>
 5   0  0.9646321E-06  0.2923279E+04  0.7818609E-02  0.8265985E-01
        2   -1    0    0  501    0  0.00000000000E+00  0.00000000000E+00  0.18306354582E+04  0.18306354582E+04  0.25500000920E-02 0. -1.
       -2   -1    0    0    0  501  0.00000000000E+00  0.00000000000E+00 -0.11670212012E+04  0.11670212012E+04  0.25500000920E-02 0.  1.
    10030    2    1    2    0    0  0.00000000000E+00  0.00000000000E+00  0.66361425705E+03  0.29976566594E+04  0.29232792487E+04 0.  0.
        3    1    3    3  502    0 -0.10910095517E+04 -0.86595444900E+03 -0.12242070042E+03  0.13982724297E+04  0.10100000352E+00 0.  1.
       -3    1    3    3    0  502  0.10910095517E+04  0.86595444900E+03  0.78603495747E+03  0.15993842297E+04  0.10100000352E+00 0. -1.
</event>
<event>
 5   0  0.3746518E-06  0.2894875E+04  0.7818609E-02  0.8274404E-01
       -1   -1    0    0    0  501  0.00000000000E+00  0.00000000000E+00  0.12889126927E+04  0.12889126927E+04  0.50400001928E-02 0.  1.
        1   -1    0    0  501    0  0.00000000000E+00  0.00000000000E+00 -0.16254589014E+04  0.16254589014E+04  0.50400001928E-02 0. -1.
    10030    2    1    2    0    0  0.00000000000E+00  0.00000000000E+00 -0.33654620871E+03  0.29143715941E+04  0.28948745116E+04 0.  0.
        4    1    3    3  502    0 -0.22421322568E+03  0.14183358360E+04 -0.35150132126E+03  0.14783446506E+04  0.12699999809E+01 0. -1.
       -4    1    3    3    0  502  0.22421322568E+03 -0.14183358360E+04  0.14955112551E+02  0.14360269435E+04  0.12699999809E+01 0.  1.
</event>
<event>
 5   0  0.3486236E-06  0.2789701E+04  0.7818609E-02  0.8306473E-01
       -1   -1    0    0    0  501  0.00000000000E+00  0.00000000000E+00  0.73897375413E+03  0.73897375415E+03  0.50400001928E-02 0.  1.
        1   -1    0    0  501    0  0.00000000000E+00  0.00000000000E+00 -0.26328506160E+04  0.26328506160E+04  0.50400001928E-02 0. -1.
    10030    2    1    2    0    0  0.00000000000E+00  0.00000000000E+00 -0.18938768619E+04  0.33718243702E+04  0.27897007035E+04 0.  0.
        5    1    3    3  502    0  0.41817775963E+03  0.11696043898E+04 -0.17989699626E+03  0.12550825019E+04  0.46999998093E+01 0. -1.
       -5    1    3    3    0  502 -0.41817775963E+03 -0.11696043898E+04 -0.17139798656E+04  0.21167418683E+04  0.46999998093E+01 0.  1.
</event>
<event>
 5   0  0.9360689E-06  0.2895194E+04  0.7818609E-02  0.8274309E-01
       -2   -1    0    0    0  501  0.00000000000E+00  0.00000000000E+00  0.13943914306E+04  0.13943914306E+04  0.25500000920E-02 0.  1.
        2   -1    0    0  501    0  0.00000000000E+00  0.00000000000E+00 -0.15028324014E+04  0.15028324014E+04  0.25500000920E-02 0. -1.
    10030    2    1    2    0    0  0.00000000000E+00  0.00000000000E+00 -0.10844097082E+03  0.28972238320E+04  0.28951936876E+04 0.  0.
        5    1    3    3  502    0  0.13199668108E+04 -0.48203760713E+03 -0.40208745253E+03  0.14616323224E+04  0.46999998093E+01 0. -1.
       -5    1    3    3    0  502 -0.13199668108E+04  0.48203760713E+03  0.29364648171E+03  0.14355915096E+04  0.46999998093E+01 0.  1.
</event>
<event>
 5   0  0.3564340E-06  0.2898487E+04  0.7818609E-02  0.8273328E-01
        1   -1    0    0  501    0  0.00000000000E+00  0.00000000000E+00  0.22851317223E+04  0.22851317224E+04  0.50400001928E-02 0.  1.
       -1   -1    0    0    0  501  0.00000000000E+00  0.00000000000E+00 -0.91911821465E+03  0.91911821467E+03  0.50400001928E-02 0. -1.
    10030    2    1    2    0    0  0.00000000000E+00  0.00000000000E+00  0.13660135077E+04  0.32042499370E+04  0.28984866320E+04 0.  0.
        1    1    3    3  502    0  0.31938710959E+03  0.15340355638E+03 -0.87049890195E+03  0.93984526131E+03  0.50400001928E-02 0. -1.
       -1    1    3    3    0  502 -0.31938710959E+03 -0.15340355638E+03  0.22365124096E+04  0.22644046757E+04  0.50400001928E-02 0.  1.
</event>
<event>
 5   0  0.9360689E-06  0.2922319E+04  0.7818609E-02  0.8266268E-01
       -2   -1    0    0    0  501  0.00000000000E+00  0.00000000000E+00  0.15735887266E+04  0.15735887266E+04  0.25500000920E-02 0. -1.
        2   -1    0    0  501    0  0.00000000000E+00  0.00000000000E+00 -0.13567627217E+04  0.13567627217E+04  0.25500000920E-02 0.  1.
    10030    2    1    2    0    0  0.00000000000E+00  0.00000000000E+00  0.21682600491E+03  0.29303514482E+04  0.29223186161E+04 0.  0.
        5    1    3    3  502    0 -0.60269500252E+03  0.48483062176E+03  0.13514423515E+04  0.15571514112E+04  0.46999998093E+01 0. -1.
       -5    1    3    3    0  502  0.60269500252E+03 -0.48483062176E+03 -0.11346163466E+04  0.13732000371E+04  0.46999998093E+01 0.  1.
</event>
<event>
 5   0  0.3649705E-06  0.2852389E+04  0.7818609E-02  0.8287186E-01
       -1   -1    0    0    0  501  0.00000000000E+00  0.00000000000E+00  0.11866958220E+04  0.11866958220E+04  0.50400001928E-02 0.  1.
        1   -1    0    0  501    0  0.00000000000E+00  0.00000000000E+00 -0.17140290977E+04  0.17140290977E+04  0.50400001928E-02 0. -1.
    10030    2    1    2    0    0  0.00000000000E+00  0.00000000000E+00 -0.52733327572E+03  0.29007249196E+04  0.28523892925E+04 0.  0.
        2    1    3    3  502    0 -0.56544057232E+03  0.54934182849E+02  0.10666640237E+04  0.12085168368E+04  0.25500000920E-02 0.  1.
       -2    1    3    3    0  502  0.56544057232E+03 -0.54934182849E+02 -0.15939972994E+04  0.16922080829E+04  0.25500000920E-02 0. -1.
</event>
<event>
 5   0  0.3474078E-06  0.2885796E+04  0.7818609E-02  0.8277116E-01
        1   -1    0    0  501    0  0.00000000000E+00  0.00000000000E+00  0.14154768499E+04  0.14154768499E+04  0.50400001928E-02 0.  1.
       -1   -1    0    0    0  501  0.00000000000E+00  0.00000000000E+00 -0.14708502683E+04  0.14708502683E+04  0.50400001928E-02 0. -1.
    10030    2    1    2    0    0  0.00000000000E+00  0.00000000000E+00 -0.55373418345E+02  0.28863271182E+04  0.28857959072E+04 0.  0.
        3    1    3    3  502    0  0.11762620558E+04  0.15048514552E+03  0.79448424809E+03  0.14273904279E+04  0.10100000352E+00 0.  1.
       -3    1    3    3    0  502 -0.11762620558E+04 -0.15048514552E+03 -0.84985766643E+03  0.14589366903E+04  0.10100000352E+00 0. -1.
</event>
<event>
 5   0  0.3486236E-06  0.2784313E+04  0.7818609E-02  0.8308155E-01
       -1   -1    0    0    0  501  0.00000000000E+00  0.00000000000E+00  0.10534965182E+04  0.10534965182E+04  0.50400001928E-02 0.  1.
        1   -1    0    0  501    0  0.00000000000E+00  0.00000000000E+00 -0.18396824459E+04  0.18396824459E+04  0.50400001928E-02 0. -1.
    10030    2    1    2    0    0  0.00000000000E+00  0.00000000000E+00 -0.78618592777E+03  0.28931789641E+04  0.27843125193E+04 0.  0.
        5    1    3    3  502    0 -0.25503606010E+03  0.14047021421E+03  0.10214963704E+04  0.10621921662E+04  0.46999998093E+01 0.  1.
       -5    1    3    3    0  502  0.25503606010E+03 -0.14047021421E+03 -0.18076822982E+04  0.18309867980E+04  0.46999998093E+01 0. -1.
</event>
<event>
 5   0  0.9251510E-06  0.2759822E+04  0.7818609E-02  0.8315852E-01
       -2   -1    0    0    0  501  0.00000000000E+00  0.00000000000E+00  0.12336450257E+04  0.12336450257E+04  0.25500000920E-02 0. -1.
        2   -1    0    0  501    0  0.00000000000E+00  0.00000000000E+00 -0.15435190161E+04  0.15435190161E+04  0.25500000920E-02 0.  1.
    10030    2    1    2    0    0  0.00000000000E+00  0.00000000000E+00 -0.30987399037E+03  0.27771640419E+04  0.27598221366E+04 0.  0.
        2    1    3    3  502    0 -0.98307141607E+03  0.68346418264E+03 -0.84525191284E+03  0.14656068689E+04  0.25500000920E-02 0.  1.
       -2    1    3    3    0  502  0.98307141607E+03 -0.68346418264E+03  0.53537792247E+03  0.13115571729E+04  0.25500000920E-02 0. -1.
</event>
<event>
 5   0  0.1001573E-05  0.2875763E+04  0.7818609E-02  0.8280125E-01
       -2   -1    0    0    0  501  0.00000000000E+00  0.00000000000E+00  0.11882881192E+04  0.11882881192E+04  0.25500000920E-02 0.  1.
        2   -1    0    0  501    0  0.00000000000E+00  0.00000000000E+00 -0.17399004994E+04  0.17399004994E+04  0.25500000920E-02 0. -1.
    10030    2    1    2    0    0  0.00000000000E+00  0.00000000000E+00 -0.55161238015E+03  0.29281886186E+04  0.28757629193E+04 0.  0.
        1    1    3    3  502    0 -0.77739399928E+03  0.24128940919E+03  0.93110419658E+03  0.12367364448E+04  0.50400001928E-02 0.  1.
       -1    1    3    3    0  502  0.77739399928E+03 -0.24128940919E+03 -0.14827165767E+04  0.16914521737E+04  0.50400001928E-02 0. -1.
</event>
<event>
 5   0  0.3564340E-06  0.2885423E+04  0.7818609E-02  0.8277228E-01
        1   -1    0    0  501    0  0.00000000000E+00  0.00000000000E+00  0.19498840596E+04  0.19498840596E+04  0.50400001928E-02 0.  1.
       -1   -1    0    0    0  501  0.00000000000E+00  0.00000000000E+00 -0.10674566718E+04  0.10674566718E+04  0.50400001928E-02 0. -1.
    10030    2    1    2    0    0  0.00000000000E+00  0.00000000000E+00  0.88242738781E+03  0.30173407315E+04  0.28854231917E+04 0.  0.
        1    1    3    3  502    0  0.10587491301E+04  0.78166450742E+03  0.10593984794E+04  0.16894597541E+04  0.50400001928E-02 0.  1.
       -1    1    3    3    0  502 -0.10587491301E+04 -0.78166450742E+03 -0.17697109159E+03  0.13278809773E+04  0.50400001928E-02 0. -1.
</event>
<event>
 5   0  0.3474078E-06  0.2937364E+04  0.7818609E-02  0.8261847E-01
       -1   -1    0    0    0  501  0.00000000000E+00  0.00000000000E+00  0.10466269884E+04  0.10466269884E+04  0.50400001928E-02 0. -1.
        1   -1    0    0  501    0  0.00000000000E+00  0.00000000000E+00 -0.20609313604E+04  0.20609313604E+04  0.50400001928E-02 0.  1.
    10030    2    1    2    0    0  0.00000000000E+00  0.00000000000E+00 -0.10143043720E+04  0.31075583489E+04  0.29373637045E+04 0.  0.
        3    1    3    3  502    0  0.77082537675E+03 -0.99212360964E+03  0.29754090604E+03  0.12911280414E+04  0.10100000352E+00 0. -1.
       -3    1    3    3    0  502 -0.77082537675E+03  0.99212360964E+03 -0.13118452780E+04  0.18164303075E+04  0.10100000352E+00 0.  1.
</event>
<event>
 5   0  0.3474078E-06  0.2589876E+04  0.7818609E-02  0.8371648E-01
       -1   -1    0    0    0  501  0.00000000000E+00  0.00000000000E+00  0.18745987573E+04  0.18745987573E+04  0.50400001928E-02 0. -1.
        1   -1    0    0  501    0  0.00000000000E+00  0.00000000000E+00 -0.89451888578E+03  0.89451888580E+03  0.50400001928E-02 0.  1.
    10030    2    1    2    0    0  0.00000000000E+00  0.00000000000E+00  0.98007987152E+03  0.27691176431E+04  0.25898756663E+04 0.  0.
        3    1    3    3  502    0  0.44007285564E+03  0.10613659847E+04  0.11286199622E+04  0.16105728487E+04  0.10100000352E+00 0. -1.
       -3    1    3    3    0  502 -0.44007285564E+03 -0.10613659847E+04 -0.14854009065E+03  0.11585447944E+04  0.10100000352E+00 0.  1.
</event>
<event>
 5   0  0.3649705E-06  0.2885866E+04  0.7818609E-02  0.8277095E-01
       -1   -1    0    0    0  501  0.00000000000E+00  0.00000000000E+00  0.13627980232E+04  0.13627980232E+04  0.50400001928E-02 0.  1.
        1   -1    0    0  501    0  0.00000000000E+00  0.00000000000E+00 -0.15277804723E+04  0.15277804723E+04  0.50400001928E-02 0. -1.
    10030    2    1    2    0    0  0.00000000000E+00  0.00000000000E+00 -0.16498244907E+03  0.28905784955E+04  0.28858663916E+04 0.  0.
        2    1    3    3  502    0  0.12762799655E+04  0.66915424987E+03 -0.88984935003E+01  0.14410888743E+04  0.25500000920E-02 0. -1.
       -2    1    3    3    0  502 -0.12762799655E+04 -0.66915424987E+03 -0.15608395557E+03  0.14494896211E+04  0.25500000920E-02 0.  1.
</event>
<event>
 5   0  0.1001573E-05  0.2923170E+04  0.7818609E-02  0.8266017E-01
        2   -1    0    0  501    0  0.00000000000E+00  0.00000000000E+00  0.17890461479E+04  0.17890461479E+04  0.25500000920E-02 0.  1.
       -2   -1    0    0    0  501  0.00000000000E+00  0.00000000000E+00 -0.11940613909E+04  0.11940613909E+04  0.25500000920E-02 0. -1.
    10030    2    1    2    0    0  0.00000000000E+00  0.00000000000E+00  0.59498475699E+03  0.29831075388E+04  0.29231701502E+04 0.  0.
        1    1    3    3  502    0  0.14557239626E+04 -0.12272670762E+03  0.34354903160E+03  0.15007398300E+04  0.50400001928E-02 0. -1.
       -1    1    3    3    0  502 -0.14557239626E+04  0.12272670762E+03  0.25143572539E+03  0.14823677088E+04  0.50400001928E-02 0.  1.
</event>
<event>
 5   0  0.9646321E-06  0.2913334E+04  0.7818609E-02  0.8268921E-01
       -2   -1    0    0    0  501  0.00000000000E+00  0.00000000000E+00  0.11667271083E+04  0.11667271083E+04  0.25500000920E-02 0. -1.
        2   -1    0    0  501    0  0.00000000000E+00  0.00000000000E+00 -0.18186590555E+04  0.18186590555E+04  0.25500000920E-02 0.  1.
    10030    2    1    2    0    0  0.00000000000E+00  0.00000000000E+00 -0.65193194723E+03  0.29853861638E+04  0.29133340494E+04 0.  0.
        3    1    3    3  502    0  0.37514160768E+03  0.12835980345E+04 -0.91776406740E+03  0.16219266425E+04  0.10100000352E+00 0.  1.
       -3    1    3    3    0  502 -0.37514160768E+03 -0.12835980345E+04  0.26583212017E+03  0.13634595213E+04  0.10100000352E+00 0. -1.
</event>
<event>
 5   0  0.3474078E-06  0.2842546E+04  0.7818609E-02  0.8290180E-01
        1   -1    0    0  501    0  0.00000000000E+00  0.00000000000E+00  0.21071122151E+04  0.21071122151E+04  0.50400001928E-02 0. -1.
       -1   -1    0    0    0  501  0.00000000000E+00  0.00000000000E+00 -0.95866595760E+03  0.95866595761E+03  0.50400001928E-02 0.  1.
    10030    2    1    2    0    0  0.00000000000E+00  0.00000000000E+00  0.11484462575E+04  0.30657781728E+04  0.28425458656E+04 0.  0.
        3    1    3    3  502    0  0.76032003172E+03 -0.30548481489E+03 -0.67827275892E+03  0.10637017761E+04  0.10100000352E+00 0.  1.
       -3    1    3    3    0  502 -0.76032003172E+03  0.30548481489E+03  0.18267190165E+04  0.20020763967E+04  0.10100000352E+00 0. -1.
</event>
<event>
 5   0  0.9505359E-06  0.3030358E+04  0.7818609E-02  0.8235115E-01
        2   -1    0    0  501    0  0.00000000000E+00  0.00000000000E+00  0.14394947851E+04  0.14394947851E+04  0.25500000920E-02 0. -1.
       -2   -1    0    0    0  501  0.00000000000E+00  0.00000000000E+00 -0.15948425612E+04  0.15948425612E+04  0.25500000920E-02 0.  1.
    10030    2    1    2    0    0  0.00000000000E+00  0.00000000000E+00 -0.15534777606E+03  0.30343373463E+04  0.30303580976E+04 0.  0.
        4    1    3    3  502    0  0.92836092310E+03 -0.35564025692E+03 -0.12226052602E+04  0.15757852744E+04  0.12699999809E+01 0.  1.
       -4    1    3    3    0  502 -0.92836092310E+03  0.35564025692E+03  0.10672574842E+04  0.14585520719E+04  0.12699999809E+01 0. -1.
</event>
<event>
 5   0  0.3474078E-06  0.2876530E+04  0.7818609E-02  0.8279895E-01
       -1   -1    0    0    0  501  0.00000000000E+00  0.00000000000E+00  0.10537879480E+04  0.10537879480E+04  0.50400001928E-02 0. -1.
        1   -1    0    0  501    0  0.00000000000E+00  0.00000000000E+00 -0.19630195985E+04  0.19630195985E+04  0.50400001928E-02 0.  1.
    10030    2    1    2    0    0  0.00000000000E+00  0.00000000000E+00 -0.90923165050E+03  0.30168075464E+04  0.28765301281E+04 0.  0.
        3    1    3    3  502    0  0.13778909473E+03 -0.11354314635E+04  0.45992750141E+03  0.12327707653E+04  0.10100000352E+00 0. -1.
       -3    1    3    3    0  502 -0.13778909473E+03  0.11354314635E+04 -0.13691591519E+04  0.17840367811E+04  0.10100000352E+00 0.  1.
</event>
<event>
 5   0  0.3474078E-06  0.2932140E+04  0.7818609E-02  0.8263378E-01
        1   -1    0    0  501    0  0.00000000000E+00  0.00000000000E+00  0.77367742418E+03  0.77367742419E+03  0.50400001928E-02 0. -1.
       -1   -1    0    0    0  501  0.00000000000E+00  0.00000000000E+00 -0.27781111611E+04  0.27781111611E+04  0.50400001928E-02 0.  1.
    10030    2    1    2    0    0  0.00000000000E+00  0.00000000000E+00 -0.20044337370E+04  0.35517885853E+04  0.29321404382E+04 0.  0.
        3    1    3    3  502    0  0.58152739381E+03  0.12133410709E+04 -0.29694500182E+03  0.13778777190E+04  0.10100000352E+00 0.  1.
       -3    1    3    3    0  502 -0.58152739381E+03 -0.12133410709E+04 -0.17074887351E+04  0.21739108664E+04  0.10100000352E+00 0. -1.
</event>
<event>
 5   0  0.9646321E-06  0.2909728E+04  0.7818609E-02  0.8269989E-01
        2   -1    0    0  501    0  0.00000000000E+00  0.00000000000E+00  0.23012456019E+04  0.23012456019E+04  0.25500000920E-02 0. -1.
       -2   -1    0    0    0  501  0.00000000000E+00  0.00000000000E+00 -0.91977578030E+03  0.91977578030E+03  0.25500000920E-02 0.  1.
    10030    2    1    2    0    0  0.00000000000E+00  0.00000000000E+00  0.13814698216E+04  0.32210213822E+04  0.29097284885E+04 0.  0.
        3    1    3    3  502    0 -0.43383670771E+03 -0.11643268395E+04 -0.14703928919E+03  0.12511961640E+04  0.10100000352E+00 0.  1.
       -3    1    3    3    0  502  0.43383670771E+03  0.11643268395E+04  0.15285091108E+04  0.19698252182E+04  0.10100000352E+00 0. -1.
</event>
<event>
 5   0  0.3746518E-06  0.2803854E+04  0.7818609E-02  0.8302073E-01
        1   -1    0    0  501    0  0.00000000000E+00  0.00000000000E+00  0.13158099595E+04  0.13158099595E+04  0.50400001928E-02 0. -1.
       -1   -1    0    0    0  501  0.00000000000E+00  0.00000000000E+00 -0.14936800519E+04  0.14936800519E+04  0.50400001928E-02 0.  1.
    10030    2    1    2    0    0  0.00000000000E+00  0.00000000000E+00 -0.17787009242E+03  0.28094900115E+04  0.28038538398E+04 0.  0.
        4    1    3    3  502    0  0.11697279028E+04 -0.52668533591E+03  0.47765421998E+03  0.13688739812E+04  0.12699999809E+01 0. -1.
       -4    1    3    3    0  502 -0.11697279028E+04  0.52668533591E+03 -0.65552431240E+03  0.14406160303E+04  0.12699999809E+01 0.  1.
</event>
<event>
 5   0  0.3474078E-06  0.2856609E+04  0.7818609E-02  0.8285906E-01
        1   -1    0    0  501    0  0.00000000000E+00  0.00000000000E+00  0.13729193589E+04  0.13729193589E+04  0.50400001928E-02 0. -1.
       -1   -1    0    0    0  501  0.00000000000E+00  0.00000000000E+00 -0.14859235253E+04  0.14859235254E+04  0.50400001928E-02 0.  1.
    10030    2    1    2    0    0  0.00000000000E+00  0.00000000000E+00 -0.11300416645E+03  0.28588428843E+04  0.28566086003E+04 0.  0.
        3    1    3    3  502    0 -0.95361904254E+03  0.39130195258E+03  0.93298082869E+03  0.13903092222E+04  0.10100000352E+00 0. -1.
       -3    1    3    3    0  502  0.95361904254E+03 -0.39130195258E+03 -0.10459849951E+04  0.14685336621E+04  0.10100000352E+00 0.  1.
</event>
<event>
 5   0  0.9251510E-06  0.2333091E+04  0.7818609E-02  0.8464987E-01
       -2   -1    0    0    0  501  0.00000000000E+00  0.00000000000E+00  0.84141948630E+03  0.84141948631E+03  0.25500000920E-02 0.  1.
        2   -1    0    0  501    0  0.00000000000E+00  0.00000000000E+00 -0.16173002423E+04  0.16173002423E+04  0.25500000920E-02 0. -1.
    10030    2    1    2    0    0  0.00000000000E+00  0.00000000000E+00 -0.77588075597E+03  0.24587197286E+04  0.23330906018E+04 0.  0.
        2    1    3    3  502    0  0.10147275994E+04  0.24637841188E+03 -0.93599486518E+03  0.14023055339E+04  0.25500000920E-02 0. -1.
       -2    1    3    3    0  502 -0.10147275994E+04 -0.24637841188E+03  0.16011410920E+03  0.10564141947E+04  0.25500000920E-02 0.  1.
</event>
<event>
 5   0  0.3746518E-06  0.2885707E+04  0.7818609E-02  0.8277143E-01
        1   -1    0    0  501    0  0.00000000000E+00  0.00000000000E+00  0.18042258490E+04  0.18042258491E+04  0.50400001928E-02 0.  1.
       -1   -1    0    0    0  501  0.00000000000E+00  0.00000000000E+00 -0.11538613434E+04  0.11538613435E+04  0.50400001928E-02 0. -1.
    10030    2    1    2    0    0  0.00000000000E+00  0.00000000000E+00  0.65036450560E+03  0.29580871925E+04  0.28857071661E+04 0.  0.
        4    1    3    3  502    0 -0.74412223153E+03  0.30870505111E+03 -0.90184083353E+03  0.12092705264E+04  0.12699999809E+01 0. -1.
       -4    1    3    3    0  502  0.74412223153E+03 -0.30870505111E+03  0.15522053391E+04  0.17488166661E+04  0.12699999809E+01 0.  1.
</event>
<event>
 5   0  0.1001573E-05  0.3238237E+04  0.7818609E-02  0.8178791E-01
        2   -1    0    0  501    0  0.00000000000E+00  0.00000000000E+00  0.23108051038E+04  0.23108051038E+04  0.25500000920E-02 0.  1.
       -2   -1    0    0    0  501  0.00000000000E+00  0.00000000000E+00 -0.11344724566E+04  0.11344724566E+04  0.25500000920E-02 0. -1.
    10030    2    1    2    0    0  0.00000000000E+00  0.00000000000E+00  0.11763326472E+04  0.34452775604E+04  0.32382370159E+04 0.  0.
        1    1    3    3  502    0 -0.14712115359E+04  0.60524924448E+03  0.26764998479E+03  0.16132038140E+04  0.50400001928E-02 0. -1.
       -1    1    3    3    0  502  0.14712115359E+04 -0.60524924448E+03  0.90868266241E+03  0.18320737464E+04  0.50400001928E-02 0.  1.
</event>
<event>
 5   0  0.3649705E-06  0.2813102E+04  0.7818609E-02  0.8299212E-01
       -1   -1    0    0    0  501  0.00000000000E+00  0.00000000000E+00  0.13830263224E+04  0.13830263224E+04  0.50400001928E-02 0.  1.
        1   -1    0    0  501    0  0.00000000000E+00  0.00000000000E+00 -0.14304758591E+04  0.14304758591E+04  0.50400001928E-02 0. -1.
    10030    2    1    2    0    0  0.00000000000E+00  0.00000000000E+00 -0.47449536700E+02  0.28135021815E+04  0.28131020363E+04 0.  0.
        2    1    3    3  502    0  0.69385465660E+03 -0.91609412592E+03 -0.83484138234E+03  0.14204305212E+04  0.25500000920E-02 0. -1.
       -2    1    3    3    0  502 -0.69385465660E+03  0.91609412592E+03  0.78739184564E+03  0.13930716603E+04  0.25500000920E-02 0.  1.
</event>
<event>
 5   0  0.3746518E-06  0.2844791E+04  0.7818609E-02  0.8289496E-01
       -1   -1    0    0    0  501  0.00000000000E+00  0.00000000000E+00  0.10284586660E+04  0.10284586660E+04  0.50400001928E-02 0.  1.
        1   -1    0    0  501    0  0.00000000000E+00  0.00000000000E+00 -0.19672249377E+04  0.19672249377E+04  0.50400001928E-02 0. -1.
    10030    2    1    2    0    0  0.00000000000E+00  0.00000000000E+00 -0.93876627164E+03  0.29956836037E+04  0.28447914055E+04 0.  0.
        4    1    3    3  502    0  0.28469235543E+03  0.69936728932E+03  0.79997694124E+03  0.11000586630E+04  0.12699999809E+01 0.  1.
       -4    1    3    3    0  502 -0.28469235543E+03 -0.69936728932E+03 -0.17387432129E+04  0.18956249407E+04  0.12699999809E+01 0. -1.
</event>
<event>
 5   0  0.9646321E-06  0.2070373E+04  0.7818609E-02  0.8574408E-01
        2   -1    0    0  501    0  0.00000000000E+00  0.00000000000E+00  0.84867161783E+03  0.84867161783E+03  0.25500000920E-02 0. -1.
       -2   -1    0    0    0  501  0.00000000000E+00  0.00000000000E+00 -0.12626916830E+04  0.12626916830E+04  0.25500000920E-02 0.  1.
    10030    2    1    2    0    0  0.00000000000E+00  0.00000000000E+00 -0.41402006515E+03  0.21113633008E+04  0.20703725205E+04 0.  0.
        3    1    3    3  502    0 -0.89414330268E+02 -0.16824011317E+03 -0.12446575998E+04  0.12591553554E+04  0.10100000352E+00 0.  1.
       -3    1    3    3    0  502  0.89414330268E+02  0.16824011317E+03  0.83063753461E+03  0.85220794543E+03  0.10100000352E+00 0. -1.
</event>
<event>
 5   0  0.3474078E-06  0.2885340E+04  0.7818609E-02  0.8277253E-01
       -1   -1    0    0    0  501  0.00000000000E+00  0.00000000000E+00  0.90043089239E+03  0.90043089240E+03  0.50400001928E-02 0. -1.
        1   -1    0    0  501    0  0.00000000000E+00  0.00000000000E+00 -0.23114456096E+04  0.23114456096E+04  0.50400001928E-02 0.  1.
    10030    2    1    2    0    0  0.00000000000E+00  0.00000000000E+00 -0.14110147172E+04  0.32118765020E+04  0.28853402107E+04 0.  0.
        3    1    3    3  502    0  0.18255636493E+02 -0.77614134748E+02  0.89797638196E+03  0.90150918739E+03  0.10100000352E+00 0. -1.
       -3    1    3    3    0  502 -0.18255636493E+02  0.77614134748E+02 -0.23089910991E+04  0.23103673146E+04  0.10100000352E+00 0.  1.
</event>
<event>
 5   0  0.9251510E-06  0.2307189E+04  0.7818609E-02  0.8475092E-01
        2   -1    0    0  501    0  0.00000000000E+00  0.00000000000E+00  0.18356386447E+04  0.18356386447E+04  0.25500000920E-02 0. -1.
       -2   -1    0    0    0  501  0.00000000000E+00  0.00000000000E+00 -0.72496884354E+03  0.72496884354E+03  0.25500000920E-02 0.  1.
    10030    2    1    2    0    0  0.00000000000E+00  0.00000000000E+00  0.11106698011E+04  0.25606074882E+04  0.23071894811E+04 0.  0.
        2    1    3    3  502    0  0.44319205421E+03  0.10649992920E+04  0.56837899172E+03  0.12859616508E+04  0.25500000920E-02 0.  1.
       -2    1    3    3    0  502 -0.44319205421E+03 -0.10649992920E+04  0.54229080942E+03  0.12746458375E+04  0.25500000920E-02 0. -1.
</event>
<event>
 5   0  0.9646321E-06  0.2899896E+04  0.7818609E-02  0.8272908E-01
       -2   -1    0    0    0  501  0.00000000000E+00  0.00000000000E+00  0.15088184832E+04  0.15088184832E+04  0.25500000920E-02 0.  1.
        2   -1    0    0  501    0  0.00000000000E+00  0.00000000000E+00 -0.13933746602E+04  0.13933746602E+04  0.25500000920E-02 0. -1.
    10030    2    1    2    0    0  0.00000000000E+00  0.00000000000E+00  0.11544382300E+03  0.29021931433E+04  0.28998961645E+04 0.  0.
        3    1    3    3  502    0  0.11023556813E+04  0.93868333085E+03 -0.20024802400E+02  0.14480039526E+04  0.10100000352E+00 0.  1.
       -3    1    3    3    0  502 -0.11023556813E+04 -0.93868333085E+03  0.13546862540E+03  0.14541891907E+04  0.10100000352E+00 0. -1.
</event>
<event>
 5   0  0.9251510E-06  0.2659345E+04  0.7818609E-02  0.8348318E-01
       -2   -1    0    0    0  501  0.00000000000E+00  0.00000000000E+00  0.26665739831E+04  0.26665739831E+04  0.25500000920E-02 0.  1.
        2   -1    0    0  501    0  0.00000000000E+00  0.00000000000E+00 -0.66303399115E+03  0.66303399116E+03  0.25500000920E-02 0. -1.
    10030    2    1    2    0    0  0.00000000000E+00  0.00000000000E+00  0.20035399919E+04  0.33296079742E+04  0.26593451756E+04 0.  0.
        2    1    3    3  502    0  0.10125237999E+04  0.78039254907E+03  0.54376915959E+03  0.13892090825E+04  0.25500000920E-02 0. -1.
       -2    1    3    3    0  502 -0.10125237999E+04 -0.78039254907E+03  0.14597708323E+04  0.19403988917E+04  0.25500000920E-02 0.  1.
</event>
<event>
 5   0  0.9251510E-06  0.2863004E+04  0.7818609E-02  0.8283971E-01
       -2   -1    0    0    0  501  0.00000000000E+00  0.00000000000E+00  0.62048669456E+03  0.62048669456E+03  0.25500000920E-02 0.  1.
        2   -1    0    0  501    0  0.00000000000E+00  0.00000000000E+00 -0.33025644405E+04  0.33025644405E+04  0.25500000920E-02 0. -1.
    10030    2    1    2    0    0  0.00000000000E+00  0.00000000000E+00 -0.26820777459E+04  0.39230511350E+04  0.28630035230E+04 0.  0.
        2    1    3    3  502    0  0.84982842102E+03 -0.10558262220E+04 -0.19722798411E+04  0.23930869453E+04  0.25500000920E-02 0. -1.
       -2    1    3    3    0  502 -0.84982842102E+03  0.10558262220E+04 -0.70979790480E+03  0.15299641897E+04  0.25500000920E-02 0.  1.
</event>
<event>
 5   0  0.3486236E-06  0.2909436E+04  0.7818609E-02  0.8270076E-01
       -1   -1    0    0    0  501  0.00000000000E+00  0.00000000000E+00  0.10597900855E+04  0.10597900855E+04  0.50400001928E-02 0. -1.
        1   -1    0    0  501    0  0.00000000000E+00  0.00000000000E+00 -0.19968142780E+04  0.19968142780E+04  0.50400001928E-02 0.  1.
    10030    2    1    2    0    0  0.00000000000E+00  0.00000000000E+00 -0.93702419250E+03  0.30566043634E+04  0.29094356665E+04 0.  0.
        5    1    3    3  502    0  0.14924082471E+03 -0.97363210504E+03  0.65612712696E+03  0.11835358873E+04  0.46999998093E+01 0. -1.
       -5    1    3    3    0  502 -0.14924082471E+03  0.97363210504E+03 -0.15931513195E+04  0.18730684762E+04  0.46999998093E+01 0.  1.
</event>
<event>
 5   0  0.3746518E-06  0.2885834E+04  0.7818609E-02  0.8277105E-01
       -1   -1    0    0    0  501  0.00000000000E+00  0.00000000000E+00  0.12304379004E+04  0.12304379004E+04  0.50400001928E-02 0. -1.
        1   -1    0    0  501    0  0.00000000000E+00  0.00000000000E+00 -0.16920883738E+04  0.16920883738E+04  0.50400001928E-02 0.  1.
    10030    2    1    2    0    0  0.00000000000E+00  0.00000000000E+00 -0.46165047341E+03  0.29225262741E+04  0.28858341365E+04 0.  0.
        4    1    3    3  502    0 -0.71779532322E+03 -0.42730056390E+03 -0.14223011020E+04  0.16494720172E+04  0.12699999809E+01 0.  1.
       -4    1    3    3    0  502  0.71779532322E+03  0.42730056390E+03  0.96065062859E+03  0.12730542569E+04  0.12699999809E+01 0. -1.
</event>
<event>
 5   0  0.9251510E-06  0.2886628E+04  0.7818609E-02  0.8276867E-01
        2   -1    0    0  501    0  0.00000000000E+00  0.00000000000E+00  0.14928628088E+04  0.14928628088E+04  0.25500000920E-02 0.  1.
       -2   -1    0    0    0  501  0.00000000000E+00  0.00000000000E+00 -0.13954094071E+04  0.13954094071E+04  0.25500000920E-02 0. -1.
    10030    2    1    2    0    0  0.00000000000E+00  0.00000000000E+00  0.97453401736E+02  0.28882722159E+04  0.28866276566E+04 0.  0.
        2    1    3    3  502    0 -0.54370718578E+03 -0.11546220305E+04 -0.62573839001E+03  0.14213789325E+04  0.25500000920E-02 0. -1.
       -2    1    3    3    0  502  0.54370718578E+03  0.11546220305E+04  0.72319179174E+03  0.14668932834E+04  0.25500000920E-02 0.  1.
</event>
<event>
 5   0  0.9251510E-06  0.2871197E+04  0.7818609E-02  0.8281499E-01
       -2   -1    0    0    0  501  0.00000000000E+00  0.00000000000E+00  0.19653315374E+04  0.19653315374E+04  0.25500000920E-02 0. -1.
        2   -1    0    0  501    0  0.00000000000E+00  0.00000000000E+00 -0.10486487931E+04  0.10486487931E+04  0.25500000920E-02 0.  1.
    10030    2    1    2    0    0  0.00000000000E+00  0.00000000000E+00  0.91668274422E+03  0.30139803305E+04  0.28711966459E+04 0.  0.
        2    1    3    3  502    0 -0.14323279044E+04  0.41882976242E+02  0.36667685436E+03  0.14791109914E+04  0.25500000920E-02 0. -1.
       -2    1    3    3    0  502  0.14323279044E+04 -0.41882976242E+02  0.55000588986E+03  0.15348693391E+04  0.25500000920E-02 0.  1.
</event>
<event>
 5   0  0.3188375E-06  0.2885243E+04  0.7818609E-02  0.8277282E-01
       -3   -1    0    0    0  501  0.00000000000E+00  0.00000000000E+00  0.16885357678E+04  0.16885357708E+04  0.10100000352E+00 0.  1.
        3   -1    0    0  501    0  0.00000000000E+00  0.00000000000E+00 -0.12325217110E+04  0.12325217152E+04  0.10100000352E+00 0. -1.
    10030    2    1    2    0    0  0.00000000000E+00  0.00000000000E+00  0.45601405679E+03  0.29210574860E+04  0.28852431469E+04 0.  0.
        3    1    3    3  502    0 -0.96812401938E+03  0.39051233436E+03 -0.78003957000E+03  0.13031599062E+04  0.10100000352E+00 0. -1.
       -3    1    3    3    0  502  0.96812401938E+03 -0.39051233436E+03  0.12360536268E+04  0.16178975798E+04  0.10100000352E+00 0.  1.
</event>
<event>
 5   0  0.9646321E-06  0.2956337E+04  0.7818609E-02  0.8256310E-01
       -2   -1    0    0    0  501  0.00000000000E+00  0.00000000000E+00  0.14681595600E+04  0.14681595600E+04  0.25500000920E-02 0. -1.
        2   -1    0    0  501    0  0.00000000000E+00  0.00000000000E+00 -0.14882459634E+04  0.14882459634E+04  0.25500000920E-02 0.  1.
    10030    2    1    2    0    0  0.00000000000E+00  0.00000000000E+00 -0.20086403418E+02  0.29564055235E+04  0.29563372872E+04 0.  0.
        3    1    3    3  502    0  0.13820233990E+04 -0.51383254111E+03 -0.11478325816E+03  0.14789143864E+04  0.10100000352E+00 0. -1.
       -3    1    3    3    0  502 -0.13820233990E+04  0.51383254111E+03  0.94696854737E+02  0.14774911371E+04  0.10100000352E+00 0.  1.
</event>
<event>
 5   0  0.3649705E-06  0.2895404E+04  0.7818609E-02  0.8274246E-01
        1   -1    0    0  501    0  0.00000000000E+00  0.00000000000E+00  0.12148880498E+04  0.12148880498E+04  0.50400001928E-02 0.  1.
       -1   -1    0    0    0  501  0.00000000000E+00  0.00000000000E+00 -0.17251311474E+04  0.17251311474E+04  0.50400001928E-02 0. -1.
    10030    2    1    2    0    0  0.00000000000E+00  0.00000000000E+00 -0.51024309759E+03  0.29400191972E+04  0.28954040929E+04 0.  0.
        2    1    3    3  502    0  0.52135049752E+03  0.66109302986E+03 -0.14509745145E+04  0.16775510058E+04  0.25500000920E-02 0. -1.
       -2    1    3    3    0  502 -0.52135049752E+03 -0.66109302986E+03  0.94073141691E+03  0.12624681913E+04  0.25500000920E-02 0.  1.
</event>
<event>
 5   0  0.3564340E-06  0.2637634E+04  0.7818609E-02  0.8355529E-01
       -1   -1    0    0    0  501  0.00000000000E+00  0.00000000000E+00  0.79039806340E+03  0.79039806342E+03  0.50400001928E-02 0.  1.
        1   -1    0    0  501    0  0.00000000000E+00  0.00000000000E+00 -0.22005090182E+04  0.22005090182E+04  0.50400001928E-02 0. -1.
    10030    2    1    2    0    0  0.00000000000E+00  0.00000000000E+00 -0.14101109548E+04  0.29909070816E+04  0.26376338385E+04 0.  0.
        1    1    3    3  502    0  0.37141270744E+03  0.12558594432E+04 -0.52884710610E+03  0.14123772874E+04  0.50400001928E-02 0.  1.
       -1    1    3    3    0  502 -0.37141270744E+03 -0.12558594432E+04 -0.88126384866E+03  0.15785297942E+04  0.50400001928E-02 0. -1.
</event>
<event>
 5   0  0.9251510E-06  0.2922468E+04  0.7818609E-02  0.8266224E-01
        2   -1    0    0  501    0  0.00000000000E+00  0.00000000000E+00  0.24698088794E+04  0.24698088794E+04  0.25500000920E-02 0. -1.
       -2   -1    0    0    0  501  0.00000000000E+00  0.00000000000E+00 -0.86452253102E+03  0.86452253102E+03  0.25500000920E-02 0.  1.
    10030    2    1    2    0    0  0.00000000000E+00  0.00000000000E+00  0.16052863484E+04  0.33343314104E+04  0.29224684248E+04 0.  0.
        2    1    3    3  502    0 -0.56410548507E+03 -0.13421280239E+03  0.23329262795E+04  0.24039078810E+04  0.25500000920E-02 0. -1.
       -2    1    3    3    0  502  0.56410548507E+03  0.13421280239E+03 -0.72763993118E+03  0.93042352940E+03  0.25500000920E-02 0.  1.
</event>
<event>
 5   0  0.9360689E-06  0.2898547E+04  0.7818609E-02  0.8273310E-01
       -2   -1    0    0    0  501  0.00000000000E+00  0.00000000000E+00  0.11421784918E+04  0.11421784918E+04  0.25500000920E-02 0. -1.
        2   -1    0    0  501    0  0.00000000000E+00  0.00000000000E+00 -0.18389361580E+04  0.18389361580E+04  0.25500000920E-02 0.  1.
    10030    2    1    2    0    0  0.00000000000E+00  0.00000000000E+00 -0.69675766622E+03  0.29811146498E+04  0.28985467583E+04 0.  0.
        5    1    3    3  502    0  0.11932413076E+04 -0.61141890150E+03  0.21748788664E+03  0.13583007627E+04  0.46999998093E+01 0. -1.
       -5    1    3    3    0  502 -0.11932413076E+04  0.61141890150E+03 -0.91424555286E+03  0.16228138871E+04  0.46999998093E+01 0.  1.
</event>
<event>
 5   0  0.3188375E-06  0.2913103E+04  0.7818609E-02  0.8268990E-01
        4   -1    0    0  501    0  0.00000000000E+00  0.00000000000E+00  0.14867334059E+04  0.14867339483E+04  0.12699999809E+01 0.  1.
       -4   -1    0    0    0  501  0.00000000000E+00  0.00000000000E+00 -0.14269809276E+04  0.14269814927E+04  0.12699999809E+01 0. -1.
    10030    2    1    2    0    0  0.00000000000E+00  0.00000000000E+00  0.59752478287E+02  0.29137154410E+04  0.29131026951E+04 0.  0.
        5    1    3    3  502    0 -0.25849624020E+03  0.50502529200E+03 -0.13119158636E+04  0.14293411681E+04  0.46999998093E+01 0. -1.
       -5    1    3    3    0  502  0.25849624020E+03 -0.50502529200E+03  0.13716683419E+04  0.14843742729E+04  0.46999998093E+01 0.  1.
</event>
<event>
 5   0  0.3486236E-06  0.2955572E+04  0.7818609E-02  0.8256533E-01
        1   -1    0    0  501    0  0.00000000000E+00  0.00000000000E+00  0.86155473413E+03  0.86155473415E+03  0.50400001928E-02 0.  1.
       -1   -1    0    0    0  501  0.00000000000E+00  0.00000000000E+00 -0.25347791048E+04  0.25347791048E+04  0.50400001928E-02 0. -1.
    10030    2    1    2    0    0  0.00000000000E+00  0.00000000000E+00 -0.16732243706E+04  0.33963338389E+04  0.29555716454E+04 0.  0.
        5    1    3    3  502    0 -0.91753927991E+03 -0.96466277841E+03 -0.15736478162E+04  0.20612719728E+04  0.46999998093E+01 0. -1.
       -5    1    3    3    0  502  0.91753927991E+03  0.96466277841E+03 -0.99576554389E+02  0.13350618661E+04  0.46999998093E+01 0.  1.
</event>
<event>
 5   0  0.9505359E-06  0.2884165E+04  0.7818609E-02  0.8277604E-01
        2   -1    0    0  501    0  0.00000000000E+00  0.00000000000E+00  0.14919494336E+04  0.14919494336E+04  0.25500000920E-02 0.  1.
       -2   -1    0    0    0  501  0.00000000000E+00  0.00000000000E+00 -0.13938825542E+04  0.13938825542E+04  0.25500000920E-02 0. -1.
    10030    2    1    2    0    0  0.00000000000E+00  0.00000000000E+00  0.98066879459E+02  0.28858319878E+04  0.28841652430E+04 0.  0.
        4    1    3    3  502    0  0.76805693930E+03 -0.23328210639E+03  0.12477527646E+04  0.14836510970E+04  0.12699999809E+01 0.  1.
       -4    1    3    3    0  502 -0.76805693930E+03  0.23328210639E+03 -0.11496858851E+04  0.14021808908E+04  0.12699999809E+01 0. -1.
</event>
<event>
 5   0  0.3474078E-06  0.2874648E+04  0.7818609E-02  0.8280461E-01
        1   -1    0    0  501    0  0.00000000000E+00  0.00000000000E+00  0.18355967845E+04  0.18355967845E+04  0.50400001928E-02 0. -1.
       -1   -1    0    0    0  501  0.00000000000E+00  0.00000000000E+00 -0.11254652197E+04  0.11254652197E+04  0.50400001928E-02 0.  1.
    10030    2    1    2    0    0  0.00000000000E+00  0.00000000000E+00  0.71013156479E+03  0.29610620042E+04  0.28746480399E+04 0.  0.
        3    1    3    3  502    0  0.76843932274E+03 -0.11268222056E+04  0.82221058286E+03  0.15925631945E+04  0.10100000352E+00 0. -1.
       -3    1    3    3    0  502 -0.76843932274E+03  0.11268222056E+04 -0.11207901807E+03  0.13684988097E+04  0.10100000352E+00 0.  1.
</event>
<event>
 5   0  0.3649705E-06  0.2981028E+04  0.7818609E-02  0.8249169E-01
       -1   -1    0    0    0  501  0.00000000000E+00  0.00000000000E+00  0.13501117721E+04  0.13501117721E+04  0.50400001928E-02 0. -1.
        1   -1    0    0  501    0  0.00000000000E+00  0.00000000000E+00 -0.16455169453E+04  0.16455169453E+04  0.50400001928E-02 0.  1.
    10030    2    1    2    0    0  0.00000000000E+00  0.00000000000E+00 -0.29540517315E+03  0.29956287174E+04  0.29810278758E+04 0.  0.
        2    1    3    3  502    0  0.90892719571E+03 -0.80110915196E+03  0.72471277237E+03  0.14117836672E+04  0.25500000920E-02 0. -1.
       -2    1    3    3    0  502 -0.90892719571E+03  0.80110915196E+03 -0.10201179455E+04  0.15838450503E+04  0.25500000920E-02 0.  1.
</event>
<event>
 5   0  0.9251510E-06  0.2915112E+04  0.7818609E-02  0.8268395E-01
        2   -1    0    0  501    0  0.00000000000E+00  0.00000000000E+00  0.19687419513E+04  0.19687419513E+04  0.25500000920E-02 0. -1.
       -2   -1    0    0    0  501  0.00000000000E+00  0.00000000000E+00 -0.10790997552E+04  0.10790997552E+04  0.25500000920E-02 0.  1.
    10030    2    1    2    0    0  0.00000000000E+00  0.00000000000E+00  0.88964219601E+03  0.30478417065E+04  0.29151116327E+04 0.  0.
        2    1    3    3  502    0 -0.11078366715E+04 -0.84568656016E+03 -0.11948324558E+01  0.13937321394E+04  0.25500000920E-02 0.  1.
       -2    1    3    3    0  502  0.11078366715E+04  0.84568656016E+03  0.89083702846E+03  0.16541095671E+04  0.25500000920E-02 0. -1.
</event>
<event>
 5   0  0.9646321E-06  0.2853347E+04  0.7818609E-02  0.8286895E-01
        2   -1    0    0  501    0  0.00000000000E+00  0.00000000000E+00  0.27349388216E+04  0.27349388216E+04  0.25500000920E-02 0. -1.
       -2   -1    0    0    0  501  0.00000000000E+00  0.00000000000E+00 -0.74422019200E+03  0.74422019200E+03  0.25500000920E-02 0.  1.
    10030    2    1    2    0    0  0.00000000000E+00  0.00000000000E+00  0.19907186296E+04  0.34791590136E+04  0.28533465930E+04 0.  0.
        3    1    3    3  502    0 -0.47002464305E+03 -0.70516631784E+03  0.23947788000E+04  0.25403047479E+04  0.10100000352E+00 0. -1.
       -3    1    3    3    0  502  0.47002464305E+03  0.70516631784E+03 -0.40406017036E+03  0.93885426578E+03  0.10100000352E+00 0.  1.
</event>
<event>
 5   0  0.3746518E-06  0.2884120E+04  0.7818609E-02  0.8277618E-01
       -1   -1    0    0    0  501  0.00000000000E+00  0.00000000000E+00  0.11604218874E+04  0.11604218874E+04  0.50400001928E-02 0. -1.
        1   -1    0    0  501    0  0.00000000000E+00  0.00000000000E+00 -0.17920523279E+04  0.17920523280E+04  0.50400001928E-02 0.  1.
    10030    2    1    2    0    0  0.00000000000E+00  0.00000000000E+00 -0.63163044056E+03  0.29524742153E+04  0.28841197927E+04 0.  0.
        4    1    3    3  502    0  0.80499597352E+03 -0.16417832792E+03  0.89741519637E+03  0.12166875886E+04  0.12699999809E+01 0. -1.
       -4    1    3    3    0  502 -0.80499597352E+03  0.16417832792E+03 -0.15290456369E+04  0.17357866267E+04  0.12699999809E+01 0.  1.
</event>
<event>
 5   0  0.9360689E-06  0.2884937E+04  0.7818609E-02  0.8277373E-01
        2   -1    0    0  501    0  0.00000000000E+00  0.00000000000E+00  0.23806144032E+04  0.23806144032E+04  0.25500000920E-02 0. -1.
       -2   -1    0    0    0  501  0.00000000000E+00  0.00000000000E+00 -0.87402450124E+03  0.87402450124E+03  0.25500000920E-02 0.  1.
    10030    2    1    2    0    0  0.00000000000E+00  0.00000000000E+00  0.15065899019E+04  0.32546389044E+04  0.28849369604E+04 0.  0.
        5    1    3    3  502    0  0.10496789262E+04  0.27028380250E+03  0.18270025055E+04  0.21243444700E+04  0.46999998093E+01 0. -1.
       -5    1    3    3    0  502 -0.10496789262E+04 -0.27028380250E+03 -0.32041260354E+03  0.11302944345E+04  0.46999998093E+01 0.  1.
</event>
<event>
 5   0  0.3474078E-06  0.2852983E+04  0.7818609E-02  0.8287005E-01
       -1   -1    0    0    0  501  0.00000000000E+00  0.00000000000E+00  0.11210645599E+04  0.11210645600E+04  0.50400001928E-02 0.  1.
        1   -1    0    0  501    0  0.00000000000E+00  0.00000000000E+00 -0.18151299034E+04  0.18151299034E+04  0.50400001928E-02 0. -1.
    10030    2    1    2    0    0  0.00000000000E+00  0.00000000000E+00 -0.69406534340E+03  0.29361944633E+04  0.28529828646E+04 0.  0.
        3    1    3    3  502    0  0.23755980235E+03 -0.59746382867E+03  0.96348072546E+03  0.11583146398E+04  0.10100000352E+00 0.  1.
       -3    1    3    3    0  502 -0.23755980235E+03  0.59746382867E+03 -0.16575460689E+04  0.17778798235E+04  0.10100000352E+00 0. -1.
</event>
<event>
 5   0  0.9251510E-06  0.2829235E+04  0.7818609E-02  0.8294249E-01
        2   -1    0    0  501    0  0.00000000000E+00  0.00000000000E+00  0.23973438383E+04  0.23973438383E+04  0.25500000920E-02 0. -1.
       -2   -1    0    0    0  501  0.00000000000E+00  0.00000000000E+00 -0.83473341610E+03  0.83473341610E+03  0.25500000920E-02 0.  1.
    10030    2    1    2    0    0  0.00000000000E+00  0.00000000000E+00  0.15626104222E+04  0.32320772544E+04  0.28292352406E+04 0.  0.
        2    1    3    3  502    0  0.13266477122E+04  0.12185887655E+03  0.23786189204E+03  0.13533004166E+04  0.25500000920E-02 0. -1.
       -2    1    3    3    0  502 -0.13266477122E+04 -0.12185887655E+03  0.13247485302E+04  0.18787768378E+04  0.25500000920E-02 0.  1.
</event>
<event>
 5   0  0.9646321E-06  0.2976010E+04  0.7818609E-02  0.8250615E-01
        2   -1    0    0  501    0  0.00000000000E+00  0.00000000000E+00  0.20106762641E+04  0.20106762641E+04  0.25500000920E-02 0.  1.
       -2   -1    0    0    0  501  0.00000000000E+00  0.00000000000E+00 -0.11012008564E+04  0.11012008564E+04  0.25500000920E-02 0. -1.
    10030    2    1    2    0    0  0.00000000000E+00  0.00000000000E+00  0.90947540767E+03  0.31118771205E+04  0.29760096935E+04 0.  0.
        3    1    3    3  502    0 -0.12193823177E+04 -0.45091103080E+02 -0.43574721405E+03  0.12956859531E+04  0.10100000352E+00 0. -1.
       -3    1    3    3    0  502  0.12193823177E+04  0.45091103080E+02  0.13452226217E+04  0.18161911674E+04  0.10100000352E+00 0.  1.
</event>
<event>
 5   0  0.1001573E-05  0.2857441E+04  0.7818609E-02  0.8285654E-01
       -2   -1    0    0    0  501  0.00000000000E+00  0.00000000000E+00  0.14178355715E+04  0.14178355715E+04  0.25500000920E-02 0.  1.
        2   -1    0    0  501    0  0.00000000000E+00  0.00000000000E+00 -0.14396890200E+04  0.14396890200E+04  0.25500000920E-02 0. -1.
    10030    2    1    2    0    0  0.00000000000E+00  0.00000000000E+00 -0.21853448437E+02  0.28575245915E+04  0.28574410261E+04 0.  0.
        1    1    3    3  502    0 -0.10412166320E+04  0.49842434789E+03  0.83093125095E+03  0.14223240310E+04  0.50400001928E-02 0.  1.
       -1    1    3    3    0  502  0.10412166320E+04 -0.49842434789E+03 -0.85278469939E+03  0.14352005605E+04  0.50400001928E-02 0. -1.
</event>
<event>
 5   0  0.3564340E-06  0.2865057E+04  0.7818609E-02  0.8283351E-01
       -1   -1    0    0    0  501  0.00000000000E+00  0.00000000000E+00  0.13782114775E+04  0.13782114776E+04  0.50400001928E-02 0. -1.
        1   -1    0    0  501    0  0.00000000000E+00  0.00000000000E+00 -0.14889857753E+04  0.14889857753E+04  0.50400001928E-02 0.  1.
    10030    2    1    2    0    0  0.00000000000E+00  0.00000000000E+00 -0.11077429772E+03  0.28671972528E+04  0.28650565687E+04 0.  0.
        1    1    3    3  502    0 -0.29394511421E+03  0.90442238852E+02 -0.14555586027E+04  0.14876943149E+04  0.50400001928E-02 0.  1.
       -1    1    3    3    0  502  0.29394511421E+03 -0.90442238852E+02  0.13447843050E+04  0.13795029379E+04  0.50400001928E-02 0. -1.
</event>
<event>
 5   0  0.9646321E-06  0.2880620E+04  0.7818609E-02  0.8278667E-01
       -2   -1    0    0    0  501  0.00000000000E+00  0.00000000000E+00  0.16364466046E+04  0.16364466046E+04  0.25500000920E-02 0. -1.
        2   -1    0    0  501    0  0.00000000000E+00  0.00000000000E+00 -0.12676811502E+04  0.12676811502E+04  0.25500000920E-02 0.  1.
    10030    2    1    2    0    0  0.00000000000E+00  0.00000000000E+00  0.36876545444E+03  0.29041277548E+04  0.28806197347E+04 0.  0.
        3    1    3    3  502    0  0.94935190720E+02 -0.11289004998E+04  0.10810585337E+04  0.15659235589E+04  0.10100000352E+00 0. -1.
       -3    1    3    3    0  502 -0.94935190720E+02  0.11289004998E+04 -0.71229307929E+03  0.13382041959E+04  0.10100000352E+00 0.  1.
</event>
<event>
 5   0  0.3746518E-06  0.3033799E+04  0.7818609E-02  0.8234145E-01
       -1   -1    0    0    0  501  0.00000000000E+00  0.00000000000E+00  0.12483818228E+04  0.12483818228E+04  0.50400001928E-02 0.  1.
        1   -1    0    0  501    0  0.00000000000E+00  0.00000000000E+00 -0.18431737527E+04  0.18431737527E+04  0.50400001928E-02 0. -1.
    10030    2    1    2    0    0  0.00000000000E+00  0.00000000000E+00 -0.59479192989E+03  0.30915555755E+04  0.30337993402E+04 0.  0.
        4    1    3    3  502    0  0.19896754868E+03  0.51723179320E+02 -0.18289113643E+04  0.18404297770E+04  0.12699999809E+01 0. -1.
       -4    1    3    3    0  502 -0.19896754868E+03 -0.51723179320E+02  0.12341194344E+04  0.12511257986E+04  0.12699999809E+01 0.  1.
</event>
<event>
 5   0  0.9360689E-06  0.2737680E+04  0.7818609E-02  0.8322882E-01
       -2   -1    0    0    0  501  0.00000000000E+00  0.00000000000E+00  0.71655281451E+03  0.71655281451E+03  0.25500000920E-02 0. -1.
        2   -1    0    0  501    0  0.00000000000E+00  0.00000000000E+00 -0.26149121837E+04  0.26149121837E+04  0.25500000920E-02 0.  1.
    10030    2    1    2    0    0  0.00000000000E+00  0.00000000000E+00 -0.18983593692E+04  0.33314649982E+04  0.27376798096E+04 0.  0.
        5    1    3    3  502    0  0.10128269592E+04 -0.91374569662E+03 -0.10876648886E+04  0.17446451350E+04  0.46999998093E+01 0. -1.
       -5    1    3    3    0  502 -0.10128269592E+04  0.91374569662E+03 -0.81069448061E+03  0.15868198632E+04  0.46999998093E+01 0.  1.
</event>
<event>
 5   0  0.3746518E-06  0.2836372E+04  0.7818609E-02  0.8292064E-01
       -1   -1    0    0    0  501  0.00000000000E+00  0.00000000000E+00  0.99930970777E+03  0.99930970778E+03  0.50400001928E-02 0.  1.
        1   -1    0    0  501    0  0.00000000000E+00  0.00000000000E+00 -0.20126408640E+04  0.20126408640E+04  0.50400001928E-02 0. -1.
    10030    2    1    2    0    0  0.00000000000E+00  0.00000000000E+00 -0.10133311563E+04  0.30119505718E+04  0.28363720163E+04 0.  0.
        4    1    3    3  502    0  0.54354563691E+03 -0.60139893645E+02  0.88284157970E+03  0.10384938777E+04  0.12699999809E+01 0.  1.
       -4    1    3    3    0  502 -0.54354563691E+03  0.60139893645E+02 -0.18961727360E+04  0.19734566942E+04  0.12699999809E+01 0. -1.
</event>
<event>
 5   0  0.3474078E-06  0.2896123E+04  0.7818609E-02  0.8274032E-01
       -1   -1    0    0    0  501  0.00000000000E+00  0.00000000000E+00  0.19032050878E+04  0.19032050878E+04  0.50400001928E-02 0.  1.
        1   -1    0    0  501    0  0.00000000000E+00  0.00000000000E+00 -0.11017636994E+04  0.11017636994E+04  0.50400001928E-02 0. -1.
    10030    2    1    2    0    0  0.00000000000E+00  0.00000000000E+00  0.80144138835E+03  0.30049687872E+04  0.28961231178E+04 0.  0.
        3    1    3    3  502    0  0.10242970599E+04 -0.47072293127E+03 -0.54234927324E+03  0.12509625451E+04  0.10100000352E+00 0. -1.
       -3    1    3    3    0  502 -0.10242970599E+04  0.47072293127E+03  0.13437906616E+04  0.17540062421E+04  0.10100000352E+00 0.  1.
</event>
<event>
 5   0  0.1001573E-05  0.2853790E+04  0.7818609E-02  0.8286761E-01
       -2   -1    0    0    0  501  0.00000000000E+00  0.00000000000E+00  0.14175203370E+04  0.14175203370E+04  0.25500000920E-02 0. -1.
        2   -1    0    0  501    0  0.00000000000E+00  0.00000000000E+00 -0.14363317585E+04  0.14363317585E+04  0.25500000920E-02 0.  1.
    10030    2    1    2    0    0  0.00000000000E+00  0.00000000000E+00 -0.18811421441E+02  0.28538520955E+04  0.28537900962E+04 0.  0.
        1    1    3    3  502    0  0.24959552181E+03  0.17689355554E+03 -0.14031505312E+04  0.14361130414E+04  0.50400001928E-02 0.  1.
       -1    1    3    3    0  502 -0.24959552181E+03 -0.17689355554E+03  0.13843391098E+04  0.14177390540E+04  0.50400001928E-02 0. -1.
</event>
<event>
 5   0  0.9505359E-06  0.2909341E+04  0.7818609E-02  0.8270104E-01
       -2   -1    0    0    0  501  0.00000000000E+00  0.00000000000E+00  0.10811475515E+04  0.10811475515E+04  0.25500000920E-02 0.  1.
        2   -1    0    0  501    0  0.00000000000E+00  0.00000000000E+00 -0.19572413066E+04  0.19572413066E+04  0.25500000920E-02 0. -1.
    10030    2    1    2    0    0  0.00000000000E+00  0.00000000000E+00 -0.87609375508E+03  0.30383888580E+04  0.29093412631E+04 0.  0.
        4    1    3    3  502    0 -0.10182326137E+04  0.10288097109E+04 -0.58873108443E+03  0.15626429469E+04  0.12699999809E+01 0. -1.
       -4    1    3    3    0  502  0.10182326137E+04 -0.10288097109E+04 -0.28736267064E+03  0.14757459111E+04  0.12699999809E+01 0.  1.
</event>
<event>
 5   0  0.9646321E-06  0.2921184E+04  0.7818609E-02  0.8266602E-01
       -2   -1    0    0    0  501  0.00000000000E+00  0.00000000000E+00  0.14934565211E+04  0.14934565211E+04  0.25500000920E-02 0. -1.
        2   -1    0    0  501    0  0.00000000000E+00  0.00000000000E+00 -0.14284510395E+04  0.14284510395E+04  0.25500000920E-02 0.  1.
    10030    2    1    2    0    0  0.00000000000E+00  0.00000000000E+00  0.65005481569E+02  0.29219075606E+04  0.29211843626E+04 0.  0.
        3    1    3    3  502    0 -0.25766363788E+03  0.51760092590E+03  0.13741133858E+04  0.14908014207E+04  0.10100000352E+00 0. -1.
       -3    1    3    3    0  502  0.25766363788E+03 -0.51760092590E+03 -0.13091079042E+04  0.14311061400E+04  0.10100000352E+00 0.  1.
</event>
<event>
 5   0  0.3746518E-06  0.2887176E+04  0.7818609E-02  0.8276703E-01
       -1   -1    0    0    0  501  0.00000000000E+00  0.00000000000E+00  0.14061012080E+04  0.14061012080E+04  0.50400001928E-02 0.  1.
        1   -1    0    0  501    0  0.00000000000E+00  0.00000000000E+00 -0.14820746154E+04  0.14820746154E+04  0.50400001928E-02 0. -1.
    10030    2    1    2    0    0  0.00000000000E+00  0.00000000000E+00 -0.75973407466E+02  0.28881758234E+04  0.28871764110E+04 0.  0.
        4    1    3    3  502    0 -0.25186082740E+03 -0.69074539256E+02 -0.14582457952E+04  0.14814477988E+04  0.12699999809E+01 0. -1.
       -4    1    3    3    0  502  0.25186082740E+03  0.69074539256E+02  0.13822723878E+04  0.14067280246E+04  0.12699999809E+01 0.  1.
</event>
<event>
 5   0  0.3649705E-06  0.2836659E+04  0.7818609E-02  0.8291977E-01
        1   -1    0    0  501    0  0.00000000000E+00  0.00000000000E+00  0.19121283082E+04  0.19121283082E+04  0.50400001928E-02 0.  1.
       -1   -1    0    0    0  501  0.00000000000E+00  0.00000000000E+00 -0.10520518905E+04  0.10520518905E+04  0.50400001928E-02 0. -1.
    10030    2    1    2    0    0  0.00000000000E+00  0.00000000000E+00  0.86007641772E+03  0.29641801987E+04  0.28366587397E+04 0.  0.
        2    1    3    3  502    0 -0.87115624393E+03  0.10918653846E+04  0.17285408437E+03  0.14074664308E+04  0.25500000920E-02 0.  1.
       -2    1    3    3    0  502  0.87115624393E+03 -0.10918653846E+04  0.68722233335E+03  0.15567137678E+04  0.25500000920E-02 0. -1.
</event>
<event>
 5   0  0.9360689E-06  0.2923125E+04  0.7818609E-02  0.8266030E-01
        2   -1    0    0  501    0  0.00000000000E+00  0.00000000000E+00  0.21528834531E+04  0.21528834531E+04  0.25500000920E-02 0. -1.
       -2   -1    0    0    0  501  0.00000000000E+00  0.00000000000E+00 -0.99223407863E+03  0.99223407864E+03  0.25500000920E-02 0.  1.
    10030    2    1    2    0    0  0.00000000000E+00  0.00000000000E+00  0.11606493744E+04  0.31451175317E+04  0.29231245813E+04 0.  0.
        5    1    3    3  502    0  0.93083753100E+03  0.10082259850E+04  0.38959145630E+02  0.13727774951E+04  0.46999998093E+01 0.  1.
       -5    1    3    3    0  502 -0.93083753100E+03 -0.10082259850E+04  0.11216902288E+04  0.17723400366E+04  0.46999998093E+01 0. -1.
</event>
<event>
 5   0  0.3564340E-06  0.2854745E+04  0.7818609E-02  0.8286471E-01
        1   -1    0    0  501    0  0.00000000000E+00  0.00000000000E+00  0.28624844041E+04  0.28624844041E+04  0.50400001928E-02 0. -1.
       -1   -1    0    0    0  501  0.00000000000E+00  0.00000000000E+00 -0.71175666497E+03  0.71175666499E+03  0.50400001928E-02 0.  1.
    10030    2    1    2    0    0  0.00000000000E+00  0.00000000000E+00  0.21507277391E+04  0.35742410691E+04  0.28547450696E+04 0.  0.
        1    1    3    3  502    0  0.68143521035E+03 -0.56892884963E+03  0.24748223708E+04  0.26292165656E+04  0.50400001928E-02 0. -1.
       -1    1    3    3    0  502 -0.68143521035E+03  0.56892884963E+03 -0.32409463169E+03  0.94502450347E+03  0.50400001928E-02 0.  1.
</event>
<event>
 5   0  0.9646321E-06  0.2963310E+04  0.7818609E-02  0.8254286E-01
        2   -1    0    0  501    0  0.00000000000E+00  0.00000000000E+00  0.26669860602E+04  0.26669860602E+04  0.25500000920E-02 0. -1.
       -2   -1    0    0    0  501  0.00000000000E+00  0.00000000000E+00 -0.82313941198E+03  0.82313941199E+03  0.25500000920E-02 0.  1.
    10030    2    1    2    0    0  0.00000000000E+00  0.00000000000E+00  0.18438466483E+04  0.34901254722E+04  0.29633098639E+04 0.  0.
        3    1    3    3  502    0 -0.14355786375E+03 -0.78364023844E+03 -0.54940581728E+03  0.96775391800E+03  0.10100000352E+00 0.  1.
       -3    1    3    3    0  502  0.14355786375E+03  0.78364023844E+03  0.23932524655E+04  0.25223715542E+04  0.10100000352E+00 0. -1.
</event>
<event>
 5   0  0.3649705E-06  0.2986483E+04  0.7818609E-02  0.8247601E-01
        1   -1    0    0  501    0  0.00000000000E+00  0.00000000000E+00  0.14353840698E+04  0.14353840698E+04  0.50400001928E-02 0. -1.
       -1   -1    0    0    0  501  0.00000000000E+00  0.00000000000E+00 -0.15534310604E+04  0.15534310604E+04  0.50400001928E-02 0.  1.
    10030    2    1    2    0    0  0.00000000000E+00  0.00000000000E+00 -0.11804699057E+03  0.29888151302E+04  0.29864830136E+04 0.  0.
        2    1    3    3  502    0  0.36748911593E+03  0.14102130552E+04 -0.38488655344E+03  0.15072779340E+04  0.25500000920E-02 0. -1.
       -2    1    3    3    0  502 -0.36748911593E+03 -0.14102130552E+04  0.26683956287E+03  0.14815371962E+04  0.25500000920E-02 0.  1.
</event>
<event>
 5   0  0.3746518E-06  0.2948305E+04  0.7818609E-02  0.8258649E-01
       -1   -1    0    0    0  501  0.00000000000E+00  0.00000000000E+00  0.12450830655E+04  0.12450830656E+04  0.50400001928E-02 0.  1.
        1   -1    0    0  501    0  0.00000000000E+00  0.00000000000E+00 -0.17453654709E+04  0.17453654709E+04  0.50400001928E-02 0. -1.
    10030    2    1    2    0    0  0.00000000000E+00  0.00000000000E+00 -0.50028240538E+03  0.29904485365E+04  0.29483045915E+04 0.  0.
        4    1    3    3  502    0  0.60292275965E+03  0.44477187521E+03 -0.15378498341E+04  0.17106494674E+04  0.12699999809E+01 0. -1.
       -4    1    3    3    0  502 -0.60292275965E+03 -0.44477187521E+03  0.10375674288E+04  0.12797990691E+04  0.12699999809E+01 0.  1.
</event>
<event>
 5   0  0.3188375E-06  0.2321964E+04  0.7818609E-02  0.8469311E-01
       -3   -1    0    0    0  501  0.00000000000E+00  0.00000000000E+00  0.79948856466E+03  0.79948857104E+03  0.10100000352E+00 0.  1.
        3   -1    0    0  501    0  0.00000000000E+00  0.00000000000E+00 -0.16859266488E+04  0.16859266519E+04  0.10100000352E+00 0. -1.
    10030    2    1    2    0    0  0.00000000000E+00  0.00000000000E+00 -0.88643808417E+03  0.24854152229E+04  0.23219639000E+04 0.  0.
        2    1    3    3  502    0  0.33146369239E+03 -0.83365350109E+03 -0.12320001521E+04  0.15240310738E+04  0.25500000920E-02 0. -1.
       -2    1    3    3    0  502 -0.33146369239E+03  0.83365350109E+03  0.34556206792E+03  0.96138414905E+03  0.25500000920E-02 0.  1.
</event>
<event>
 5   0  0.9505359E-06  0.2874770E+04  0.7818609E-02  0.8280424E-01
       -2   -1    0    0    0  501  0.00000000000E+00  0.00000000000E+00  0.14732332201E+04  0.14732332201E+04  0.25500000920E-02 0. -1.
        2   -1    0    0  501    0  0.00000000000E+00  0.00000000000E+00 -0.14024088735E+04  0.14024088735E+04  0.25500000920E-02 0.  1.
    10030    2    1    2    0    0  0.00000000000E+00  0.00000000000E+00  0.70824346624E+02  0.28756420936E+04  0.28747697930E+04 0.  0.
        4    1    3    3  502    0 -0.12485573849E+04 -0.39564480465E+03 -0.55691898310E+03  0.14232324903E+04  0.12699999809E+01 0.  1.
       -4    1    3    3    0  502  0.12485573849E+04  0.39564480465E+03  0.62774332973E+03  0.14524096033E+04  0.12699999809E+01 0. -1.
</event>
<event>
 5   0  0.3486236E-06  0.2910776E+04  0.7818609E-02  0.8269678E-01
       -1   -1    0    0    0  501  0.00000000000E+00  0.00000000000E+00  0.10131580654E+04  0.10131580654E+04  0.50400001928E-02 0. -1.
        1   -1    0    0  501    0  0.00000000000E+00  0.00000000000E+00 -0.20906454796E+04  0.20906454796E+04  0.50400001928E-02 0.  1.
    10030    2    1    2    0    0  0.00000000000E+00  0.00000000000E+00 -0.10774874142E+04  0.31038035450E+04  0.29107760680E+04 0.  0.
        5    1    3    3  502    0  0.68626719207E+02 -0.90873241976E+03  0.67124310159E+03  0.11318540669E+04  0.46999998093E+01 0. -1.
       -5    1    3    3    0  502 -0.68626719207E+02  0.90873241976E+03 -0.17487305158E+04  0.19719494781E+04  0.46999998093E+01 0.  1.
</event>
<event>
 5   0  0.9251510E-06  0.2695291E+04  0.7818609E-02  0.8336534E-01
        2   -1    0    0  501    0  0.00000000000E+00  0.00000000000E+00  0.14208940784E+04  0.14208940784E+04  0.25500000920E-02 0.  1.
       -2   -1    0    0    0  501  0.00000000000E+00  0.00000000000E+00 -0.12781729165E+04  0.12781729165E+04  0.25500000920E-02 0. -1.
    10030    2    1    2    0    0  0.00000000000E+00  0.00000000000E+00  0.14272116194E+03  0.26990669949E+04  0.26952909515E+04 0.  0.
        2    1    3    3  502    0 -0.94172341320E+03  0.13851813910E+03 -0.88397703664E+03  0.12990171912E+04  0.25500000920E-02 0. -1.
       -2    1    3    3    0  502  0.94172341320E+03 -0.13851813910E+03  0.10266981986E+04  0.14000498037E+04  0.25500000920E-02 0.  1.
</event>
<event>
 5   0  0.3746518E-06  0.3309510E+04  0.7818609E-02  0.8160480E-01
       -1   -1    0    0    0  501  0.00000000000E+00  0.00000000000E+00  0.21950029592E+04  0.21950029592E+04  0.50400001928E-02 0.  1.
        1   -1    0    0  501    0  0.00000000000E+00  0.00000000000E+00 -0.12474764979E+04  0.12474764979E+04  0.50400001928E-02 0. -1.
    10030    2    1    2    0    0  0.00000000000E+00  0.00000000000E+00  0.94752646133E+03  0.34424794571E+04  0.33095102988E+04 0.  0.
        4    1    3    3  502    0  0.37945992333E+03  0.64374633672E+03 -0.10619754410E+04  0.12985348011E+04  0.12699999809E+01 0. -1.
       -4    1    3    3    0  502 -0.37945992333E+03 -0.64374633672E+03  0.20095019024E+04  0.21439446560E+04  0.12699999809E+01 0.  1.
</event>
<event>
 5   0  0.3564340E-06  0.2886249E+04  0.7818609E-02  0.8276981E-01
        1   -1    0    0  501    0  0.00000000000E+00  0.00000000000E+00  0.14231120954E+04  0.14231120954E+04  0.50400001928E-02 0. -1.
       -1   -1    0    0    0  501  0.00000000000E+00  0.00000000000E+00 -0.14634184304E+04  0.14634184304E+04  0.50400001928E-02 0.  1.
    10030    2    1    2    0    0  0.00000000000E+00  0.00000000000E+00 -0.40306335075E+02  0.28865305258E+04  0.28862491015E+04 0.  0.
        1    1    3    3  502    0 -0.11111271529E+04 -0.89716342027E+03  0.18747901270E+03  0.14403659718E+04  0.50400001928E-02 0. -1.
       -1    1    3    3    0  502  0.11111271529E+04  0.89716342027E+03 -0.22778534777E+03  0.14461645540E+04  0.50400001928E-02 0.  1.
</event>
<event>
 5   0  0.9251510E-06  0.2908121E+04  0.7818609E-02  0.8270465E-01
       -2   -1    0    0    0  501  0.00000000000E+00  0.00000000000E+00  0.11817015994E+04  0.11817015994E+04  0.25500000920E-02 0. -1.
        2   -1    0    0  501    0  0.00000000000E+00  0.00000000000E+00 -0.17891932830E+04  0.17891932830E+04  0.25500000920E-02 0.  1.
    10030    2    1    2    0    0  0.00000000000E+00  0.00000000000E+00 -0.60749168359E+03  0.29708948824E+04  0.29081214309E+04 0.  0.
        2    1    3    3  502    0 -0.43775693888E+03  0.89668882214E+03  0.77672788448E+03  0.12645110469E+04  0.25500000920E-02 0. -1.
       -2    1    3    3    0  502  0.43775693888E+03 -0.89668882214E+03 -0.13842195681E+04  0.17063838355E+04  0.25500000920E-02 0.  1.
</event>
<event>
 5   0  0.9505359E-06  0.2982667E+04  0.7818609E-02  0.8248698E-01
        2   -1    0    0  501    0  0.00000000000E+00  0.00000000000E+00  0.17884205499E+04  0.17884205499E+04  0.25500000920E-02 0. -1.
       -2   -1    0    0    0  501  0.00000000000E+00  0.00000000000E+00 -0.12435977558E+04  0.12435977558E+04  0.25500000920E-02 0.  1.
    10030    2    1    2    0    0  0.00000000000E+00  0.00000000000E+00  0.54482279414E+03  0.30320183057E+04  0.29826671167E+04 0.  0.
        4    1    3    3  502    0  0.23073178994E+03  0.25105063562E+03 -0.12034406558E+04  0.12508135774E+04  0.12699999809E+01 0.  1.
       -4    1    3    3    0  502 -0.23073178994E+03 -0.25105063562E+03  0.17482634500E+04  0.17812047282E+04  0.12699999809E+01 0. -1.
</event>
<event>
 5   0  0.3649705E-06  0.3070553E+04  0.7818609E-02  0.8223866E-01
        1   -1    0    0  501    0  0.00000000000E+00  0.00000000000E+00  0.13521226222E+04  0.13521226222E+04  0.50400001928E-02 0. -1.
       -1   -1    0    0    0  501  0.00000000000E+00  0.00000000000E+00 -0.17432396321E+04  0.17432396321E+04  0.50400001928E-02 0.  1.
    10030    2    1    2    0    0  0.00000000000E+00  0.00000000000E+00 -0.39111700991E+03  0.30953622543E+04  0.30705528770E+04 0.  0.
        2    1    3    3  502    0 -0.11124814134E+04 -0.10527479428E+04 -0.30215128151E+03  0.15611497440E+04  0.25500000920E-02 0. -1.
       -2    1    3    3    0  502  0.11124814134E+04  0.10527479428E+04 -0.88965728400E+02  0.15342125104E+04  0.25500000920E-02 0.  1.
</event>
<event>
 5   0  0.3564340E-06  0.2875006E+04  0.7818609E-02  0.8280353E-01
       -1   -1    0    0    0  501  0.00000000000E+00  0.00000000000E+00  0.16087561009E+04  0.16087561009E+04  0.50400001928E-02 0. -1.
        1   -1    0    0  501    0  0.00000000000E+00  0.00000000000E+00 -0.12844797171E+04  0.12844797171E+04  0.50400001928E-02 0.  1.
    10030    2    1    2    0    0  0.00000000000E+00  0.00000000000E+00  0.32427638374E+03  0.28932358180E+04  0.28750057958E+04 0.  0.
        1    1    3    3  502    0  0.49163546975E+03 -0.59699268926E+03  0.13815596146E+04  0.15832917213E+04  0.50400001928E-02 0. -1.
       -1    1    3    3    0  502 -0.49163546975E+03  0.59699268926E+03 -0.10572832309E+04  0.13099440967E+04  0.50400001928E-02 0.  1.
</event>
<event>
 5   0  0.3564340E-06  0.2867327E+04  0.7818609E-02  0.8282666E-01
       -1   -1    0    0    0  501  0.00000000000E+00  0.00000000000E+00  0.18433328048E+04  0.18433328049E+04  0.50400001928E-02 0.  1.
        1   -1    0    0  501    0  0.00000000000E+00  0.00000000000E+00 -0.11150403251E+04  0.11150403251E+04  0.50400001928E-02 0. -1.
    10030    2    1    2    0    0  0.00000000000E+00  0.00000000000E+00  0.72829247979E+03  0.29583731299E+04  0.28673265666E+04 0.  0.
        1    1    3    3  502    0 -0.53447791589E+03  0.46506029532E+03  0.16500942431E+04  0.17957613238E+04  0.50400001928E-02 0.  1.
       -1    1    3    3    0  502  0.53447791589E+03 -0.46506029532E+03 -0.92180176332E+03  0.11626118061E+04  0.50400001928E-02 0. -1.
</event>
<event>
 5   0  0.9505359E-06  0.2674002E+04  0.7818609E-02  0.8343490E-01
        2   -1    0    0  501    0  0.00000000000E+00  0.00000000000E+00  0.18434731329E+04  0.18434731329E+04  0.25500000920E-02 0. -1.
       -2   -1    0    0    0  501  0.00000000000E+00  0.00000000000E+00 -0.96967632764E+03  0.96967632764E+03  0.25500000920E-02 0.  1.
    10030    2    1    2    0    0  0.00000000000E+00  0.00000000000E+00  0.87379680524E+03  0.28131494605E+04  0.26740024365E+04 0.  0.
        4    1    3    3  502    0  0.11947532809E+04 -0.16738308709E+02 -0.19419671703E+03  0.12105492765E+04  0.12699999809E+01 0.  1.
       -4    1    3    3    0  502 -0.11947532809E+04  0.16738308709E+02  0.10679935223E+04  0.16026001840E+04  0.12699999809E+01 0. -1.
</event>
<event>
 5   0  0.3474078E-06  0.2936606E+04  0.7818609E-02  0.8262069E-01
        1   -1    0    0  501    0  0.00000000000E+00  0.00000000000E+00  0.16594475573E+04  0.16594475573E+04  0.50400001928E-02 0. -1.
       -1   -1    0    0    0  501  0.00000000000E+00  0.00000000000E+00 -0.12991759209E+04  0.12991759210E+04  0.50400001928E-02 0.  1.
    10030    2    1    2    0    0  0.00000000000E+00  0.00000000000E+00  0.36027163636E+03  0.29586234783E+04  0.29366064146E+04 0.  0.
        3    1    3    3  502    0 -0.10577766909E+04  0.83501098926E+03 -0.40714050294E+03  0.14077990905E+04  0.10100000352E+00 0.  1.
       -3    1    3    3    0  502  0.10577766909E+04 -0.83501098926E+03  0.76741213930E+03  0.15508243878E+04  0.10100000352E+00 0. -1.
</event>
<event>
 5   0  0.3564340E-06  0.2861047E+04  0.7818609E-02  0.8284562E-01
       -1   -1    0    0    0  501  0.00000000000E+00  0.00000000000E+00  0.10888201431E+04  0.10888201431E+04  0.50400001928E-02 0.  1.
        1   -1    0    0  501    0  0.00000000000E+00  0.00000000000E+00 -0.18794638118E+04  0.18794638118E+04  0.50400001928E-02 0. -1.
    10030    2    1    2    0    0  0.00000000000E+00  0.00000000000E+00 -0.79064366867E+03  0.29682839549E+04  0.28610474002E+04 0.  0.
        1    1    3    3  502    0 -0.24530044756E+03  0.11103550818E+04 -0.12958040466E+04  0.17239979248E+04  0.50400001928E-02 0. -1.
       -1    1    3    3    0  502  0.24530044756E+03 -0.11103550818E+04  0.50516037795E+03  0.12442860301E+04  0.50400001928E-02 0.  1.
</event>
<event>
 5   0  0.3564340E-06  0.2854223E+04  0.7818609E-02  0.8286629E-01
        1   -1    0    0  501    0  0.00000000000E+00  0.00000000000E+00  0.20938655301E+04  0.20938655301E+04  0.50400001928E-02 0. -1.
       -1   -1    0    0    0  501  0.00000000000E+00  0.00000000000E+00 -0.97267335842E+03  0.97267335843E+03  0.50400001928E-02 0.  1.
    10030    2    1    2    0    0  0.00000000000E+00  0.00000000000E+00  0.11211921717E+04  0.30665388885E+04  0.28542229887E+04 0.  0.
        1    1    3    3  502    0 -0.79230008902E+03 -0.92173188780E+03 -0.24291156949E+03  0.12394898687E+04  0.50400001928E-02 0.  1.
       -1    1    3    3    0  502  0.79230008902E+03  0.92173188780E+03  0.13641037412E+04  0.18270490198E+04  0.50400001928E-02 0. -1.
</event>
<event>
 5   0  0.9505359E-06  0.2940111E+04  0.7818609E-02  0.8261042E-01
        2   -1    0    0  501    0  0.00000000000E+00  0.00000000000E+00  0.24924579189E+04  0.24924579189E+04  0.25500000920E-02 0.  1.
       -2   -1    0    0    0  501  0.00000000000E+00  0.00000000000E+00 -0.86704077017E+03  0.86704077018E+03  0.25500000920E-02 0. -1.
    10030    2    1    2    0    0  0.00000000000E+00  0.00000000000E+00  0.16254171488E+04  0.33594986891E+04  0.29401106331E+04 0.  0.
        4    1    3    3  502    0 -0.50581105295E+03 -0.97494713030E+03 -0.30375090727E+03  0.11395757784E+04  0.12699999809E+01 0. -1.
       -4    1    3    3    0  502  0.50581105295E+03  0.97494713030E+03  0.19291680560E+04  0.22199229107E+04  0.12699999809E+01 0.  1.
</event>
<event>
 5   0  0.9646321E-06  0.2809524E+04  0.7818609E-02  0.8300318E-01
        2   -1    0    0  501    0  0.00000000000E+00  0.00000000000E+00  0.14624985942E+04  0.14624985942E+04  0.25500000920E-02 0. -1.
       -2   -1    0    0    0  501  0.00000000000E+00  0.00000000000E+00 -0.13493043824E+04  0.13493043824E+04  0.25500000920E-02 0.  1.
    10030    2    1    2    0    0  0.00000000000E+00  0.00000000000E+00  0.11319421171E+03  0.28118029766E+04  0.28095236339E+04 0.  0.
        3    1    3    3  502    0  0.10741080207E+04  0.90043116018E+03 -0.37667618464E+02  0.14021066914E+04  0.10100000352E+00 0.  1.
       -3    1    3    3    0  502 -0.10741080207E+04 -0.90043116018E+03  0.15086183018E+03  0.14096962852E+04  0.10100000352E+00 0. -1.
</event>
<event>
 5   0  0.9360689E-06  0.2796987E+04  0.7818609E-02  0.8304204E-01
        2   -1    0    0  501    0  0.00000000000E+00  0.00000000000E+00  0.24276646882E+04  0.24276646882E+04  0.25500000920E-02 0. -1.
       -2   -1    0    0    0  501  0.00000000000E+00  0.00000000000E+00 -0.80562342765E+03  0.80562342765E+03  0.25500000920E-02 0.  1.
    10030    2    1    2    0    0  0.00000000000E+00  0.00000000000E+00  0.16220412606E+04  0.32332881159E+04  0.27969866266E+04 0.  0.
        5    1    3    3  502    0  0.75271610437E+03 -0.10065725852E+04  0.10218904554E+03  0.12610450405E+04  0.46999998093E+01 0. -1.
       -5    1    3    3    0  502 -0.75271610437E+03  0.10065725852E+04  0.15198522150E+04  0.19722430754E+04  0.46999998093E+01 0.  1.
</event>
<event>
 5   0  0.9646321E-06  0.2913096E+04  0.7818609E-02  0.8268992E-01
        2   -1    0    0  501    0  0.00000000000E+00  0.00000000000E+00  0.10768589668E+04  0.10768589668E+04  0.25500000920E-02 0. -1.
       -2   -1    0    0    0  501  0.00000000000E+00  0.00000000000E+00 -0.19701117233E+04  0.19701117233E+04  0.25500000920E-02 0.  1.
    10030    2    1    2    0    0  0.00000000000E+00  0.00000000000E+00 -0.89325275647E+03  0.30469706900E+04  0.29130962736E+04 0.  0.
        3    1    3    3  502    0  0.11695288329E+04  0.64006190737E+03 -0.10601449436E+04  0.17033450173E+04  0.10100000352E+00 0. -1.
       -3    1    3    3    0  502 -0.11695288329E+04 -0.64006190737E+03  0.16689218717E+03  0.13436256728E+04  0.10100000352E+00 0.  1.
</event>
<event>
 5   0  0.3486236E-06  0.2930768E+04  0.7818609E-02  0.8263782E-01
       -1   -1    0    0    0  501  0.00000000000E+00  0.00000000000E+00  0.15245835595E+04  0.15245835595E+04  0.50400001928E-02 0. -1.
        1   -1    0    0  501    0  0.00000000000E+00  0.00000000000E+00 -0.14084830229E+04  0.14084830229E+04  0.50400001928E-02 0.  1.
    10030    2    1    2    0    0  0.00000000000E+00  0.00000000000E+00  0.11610053657E+03  0.29330665824E+04  0.29307678588E+04 0.  0.
        5    1    3    3  502    0  0.14411132779E+04 -0.15252859333E+03 -0.15950358050E+03  0.14579217858E+04  0.46999998093E+01 0.  1.
       -5    1    3    3    0  502 -0.14411132779E+04  0.15252859333E+03  0.27560411706E+03  0.14751447965E+04  0.46999998093E+01 0. -1.
</event>
<event>
 5   0  0.9360689E-06  0.2912153E+04  0.7818609E-02  0.8269271E-01
        2   -1    0    0  501    0  0.00000000000E+00  0.00000000000E+00  0.20975294392E+04  0.20975294392E+04  0.25500000920E-02 0. -1.
       -2   -1    0    0    0  501  0.00000000000E+00  0.00000000000E+00 -0.10107887510E+04  0.10107887510E+04  0.25500000920E-02 0.  1.
    10030    2    1    2    0    0  0.00000000000E+00  0.00000000000E+00  0.10867406882E+04  0.31083181902E+04  0.29121532666E+04 0.  0.
        5    1    3    3  502    0  0.13077823743E+04 -0.10741232412E+03 -0.13025602709E+03  0.13186435714E+04  0.46999998093E+01 0.  1.
       -5    1    3    3    0  502 -0.13077823743E+04  0.10741232412E+03  0.12169967153E+04  0.17896746187E+04  0.46999998093E+01 0. -1.
</event>
<event>
 5   0  0.9251510E-06  0.2362696E+04  0.7818609E-02  0.8453603E-01
        2   -1    0    0  501    0  0.00000000000E+00  0.00000000000E+00  0.18056791713E+04  0.18056791713E+04  0.25500000920E-02 0.  1.
       -2   -1    0    0    0  501  0.00000000000E+00  0.00000000000E+00 -0.77288555341E+03  0.77288555341E+03  0.25500000920E-02 0. -1.
    10030    2    1    2    0    0  0.00000000000E+00  0.00000000000E+00  0.10327936179E+04  0.25785647247E+04  0.23626962103E+04 0.  0.
        2    1    3    3  502    0 -0.68105056685E+02  0.34792146358E+03  0.17462525678E+04  0.17818770087E+04  0.25500000920E-02 0.  1.
       -2    1    3    3    0  502  0.68105056685E+02 -0.34792146358E+03 -0.71345894993E+03  0.79668771599E+03  0.25500000920E-02 0. -1.
</event>
<event>
 5   0  0.9360689E-06  0.2898615E+04  0.7818609E-02  0.8273290E-01
       -2   -1    0    0    0  501  0.00000000000E+00  0.00000000000E+00  0.10545329437E+04  0.10545329437E+04  0.25500000920E-02 0.  1.
        2   -1    0    0  501    0  0.00000000000E+00  0.00000000000E+00 -0.19918696071E+04  0.19918696071E+04  0.25500000920E-02 0. -1.
    10030    2    1    2    0    0  0.00000000000E+00  0.00000000000E+00 -0.93733666344E+03  0.30464025508E+04  0.28986149245E+04 0.  0.
        5    1    3    3  502    0 -0.12395277418E+04  0.20516532018E+03  0.29062654228E+03  0.12895765617E+04  0.46999998093E+01 0.  1.
       -5    1    3    3    0  502  0.12395277418E+04 -0.20516532018E+03 -0.12279632057E+04  0.17568259891E+04  0.46999998093E+01 0. -1.
</event>
<event>
 5   0  0.3564340E-06  0.2873284E+04  0.7818609E-02  0.8280871E-01
       -1   -1    0    0    0  501  0.00000000000E+00  0.00000000000E+00  0.92747433097E+03  0.92747433098E+03  0.50400001928E-02 0.  1.
        1   -1    0    0  501    0  0.00000000000E+00  0.00000000000E+00 -0.22253344578E+04  0.22253344578E+04  0.50400001928E-02 0. -1.
    10030    2    1    2    0    0  0.00000000000E+00  0.00000000000E+00 -0.12978601268E+04  0.31528087887E+04  0.28732842445E+04 0.  0.
        1    1    3    3  502    0  0.57664000082E+03 -0.10284259694E+04 -0.15496170419E+04  0.19471740142E+04  0.50400001928E-02 0. -1.
       -1    1    3    3    0  502 -0.57664000082E+03  0.10284259694E+04  0.25175691513E+03  0.12056347745E+04  0.50400001928E-02 0.  1.
</event>
<event>
 5   0  0.9251510E-06  0.2883687E+04  0.7818609E-02  0.8277748E-01
       -2   -1    0    0    0  501  0.00000000000E+00  0.00000000000E+00  0.98873682207E+03  0.98873682207E+03  0.25500000920E-02 0. -1.
        2   -1    0    0  501    0  0.00000000000E+00  0.00000000000E+00 -0.21025942521E+04  0.21025942521E+04  0.25500000920E-02 0.  1.
    10030    2    1    2    0    0  0.00000000000E+00  0.00000000000E+00 -0.11138574301E+04  0.30913310742E+04  0.28836867784E+04 0.  0.
        2    1    3    3  502    0 -0.55266066732E+03  0.11727868493E+04 -0.12332701629E+04  0.17893624848E+04  0.25500000920E-02 0.  1.
       -2    1    3    3    0  502  0.55266066732E+03 -0.11727868493E+04  0.11941273289E+03  0.13019685894E+04  0.25500000920E-02 0. -1.
</event>
<event>
 5   0  0.3486236E-06  0.2889667E+04  0.7818609E-02  0.8275958E-01
       -1   -1    0    0    0  501  0.00000000000E+00  0.00000000000E+00  0.12374035536E+04  0.12374035536E+04  0.50400001928E-02 0.  1.
        1   -1    0    0  501    0  0.00000000000E+00  0.00000000000E+00 -0.16870358673E+04  0.16870358673E+04  0.50400001928E-02 0. -1.
    10030    2    1    2    0    0  0.00000000000E+00  0.00000000000E+00 -0.44963231363E+03  0.29244394209E+04  0.28896672315E+04 0.  0.
        5    1    3    3  502    0 -0.95682628947E+03  0.86783476413E+03  0.43017219276E+03  0.13615153071E+04  0.46999998093E+01 0.  1.
       -5    1    3    3    0  502  0.95682628947E+03 -0.86783476413E+03 -0.87980450639E+03  0.15629241138E+04  0.46999998093E+01 0. -1.
</event>
<event>
 5   0  0.3474078E-06  0.2841502E+04  0.7818609E-02  0.8290498E-01
       -1   -1    0    0    0  501  0.00000000000E+00  0.00000000000E+00  0.90089288866E+03  0.90089288868E+03  0.50400001928E-02 0.  1.
        1   -1    0    0  501    0  0.00000000000E+00  0.00000000000E+00 -0.22405916402E+04  0.22405916402E+04  0.50400001928E-02 0. -1.
    10030    2    1    2    0    0  0.00000000000E+00  0.00000000000E+00 -0.13396987515E+04  0.31414845288E+04  0.28415017685E+04 0.  0.
        3    1    3    3  502    0 -0.50445697443E+02  0.14154953053E+04 -0.54693017761E+03  0.15183228765E+04  0.10100000352E+00 0.  1.
       -3    1    3    3    0  502  0.50445697443E+02 -0.14154953053E+04 -0.79276857389E+03  0.16231616524E+04  0.10100000352E+00 0. -1.
</event>
<event>
 5   0  0.9505359E-06  0.2902975E+04  0.7818609E-02  0.8271993E-01
        2   -1    0    0  501    0  0.00000000000E+00  0.00000000000E+00  0.23392902550E+04  0.23392902550E+04  0.25500000920E-02 0. -1.
       -2   -1    0    0    0  501  0.00000000000E+00  0.00000000000E+00 -0.90062205865E+03  0.90062205865E+03  0.25500000920E-02 0.  1.
    10030    2    1    2    0    0  0.00000000000E+00  0.00000000000E+00  0.14386681963E+04  0.32399123136E+04  0.29029753049E+04 0.  0.
        4    1    3    3  502    0  0.75065815677E+03 -0.89558827512E+03  0.16802201884E+04  0.20466332161E+04  0.12699999809E+01 0. -1.
       -4    1    3    3    0  502 -0.75065815677E+03  0.89558827512E+03 -0.24155199206E+03  0.11932790975E+04  0.12699999809E+01 0.  1.
</event>
<event>
 5   0  0.3486236E-06  0.2909794E+04  0.7818609E-02  0.8269970E-01
        1   -1    0    0  501    0  0.00000000000E+00  0.00000000000E+00  0.22623613077E+04  0.22623613077E+04  0.50400001928E-02 0.  1.
       -1   -1    0    0    0  501  0.00000000000E+00  0.00000000000E+00 -0.93562636528E+03  0.93562636529E+03  0.50400001928E-02 0. -1.
    10030    2    1    2    0    0  0.00000000000E+00  0.00000000000E+00  0.13267349424E+04  0.31979876730E+04  0.29097937296E+04 0.  0.
        5    1    3    3  502    0 -0.14188692256E+04 -0.17211873244E+03  0.36462173665E+03  0.14750545204E+04  0.46999998093E+01 0.  1.
       -5    1    3    3    0  502  0.14188692256E+04  0.17211873244E+03  0.96211320574E+03  0.17229331525E+04  0.46999998093E+01 0. -1.
</event>
<event>
 5   0  0.3564340E-06  0.2892024E+04  0.7818609E-02  0.8275254E-01
        1   -1    0    0  501    0  0.00000000000E+00  0.00000000000E+00  0.13277076170E+04  0.13277076170E+04  0.50400001928E-02 0. -1.
       -1   -1    0    0    0  501  0.00000000000E+00  0.00000000000E+00 -0.15748579515E+04  0.15748579515E+04  0.50400001928E-02 0.  1.
    10030    2    1    2    0    0  0.00000000000E+00  0.00000000000E+00 -0.24715033454E+03  0.29025655685E+04  0.28920241340E+04 0.  0.
        1    1    3    3  502    0  0.18876889831E+03 -0.10400779476E+04  0.86671025585E+03  0.13669610462E+04  0.50400001928E-02 0. -1.
       -1    1    3    3    0  502 -0.18876889831E+03  0.10400779476E+04 -0.11138605904E+04  0.15356045223E+04  0.50400001928E-02 0.  1.
</event>
<event>
 5   0  0.3474078E-06  0.2908557E+04  0.7818609E-02  0.8270336E-01
       -1   -1    0    0    0  501  0.00000000000E+00  0.00000000000E+00  0.12891341716E+04  0.12891341716E+04  0.50400001928E-02 0. -1.
        1   -1    0    0  501    0  0.00000000000E+00  0.00000000000E+00 -0.16405783186E+04  0.16405783186E+04  0.50400001928E-02 0.  1.
    10030    2    1    2    0    0  0.00000000000E+00  0.00000000000E+00 -0.35144414698E+03  0.29297124902E+04  0.29085567360E+04 0.  0.
        3    1    3    3  502    0 -0.88413847011E+03 -0.34301080018E+03  0.93482545246E+03  0.13316365421E+04  0.10100000352E+00 0. -1.
       -3    1    3    3    0  502  0.88413847011E+03  0.34301080018E+03 -0.12862695994E+04  0.15980759481E+04  0.10100000352E+00 0.  1.
</event>
<event>
 5   0  0.9360689E-06  0.2729023E+04  0.7818609E-02  0.8325649E-01
        2   -1    0    0  501    0  0.00000000000E+00  0.00000000000E+00  0.67114862064E+03  0.67114862064E+03  0.25500000920E-02 0.  1.
       -2   -1    0    0    0  501  0.00000000000E+00  0.00000000000E+00 -0.27741875624E+04  0.27741875624E+04  0.25500000920E-02 0. -1.
    10030    2    1    2    0    0  0.00000000000E+00  0.00000000000E+00 -0.21030389417E+04  0.34453361830E+04  0.27290233827E+04 0.  0.
        5    1    3    3  502    0 -0.10822083169E+04 -0.14898259450E+03 -0.19293307099E+02  0.10925955227E+04  0.46999998093E+01 0.  1.
       -5    1    3    3    0  502  0.10822083169E+04  0.14898259450E+03 -0.20837456346E+04  0.23527406603E+04  0.46999998093E+01 0. -1.
</event>
<event>
 5   0  0.3746518E-06  0.2890877E+04  0.7818609E-02  0.8275597E-01
        1   -1    0    0  501    0  0.00000000000E+00  0.00000000000E+00  0.11465029035E+04  0.11465029035E+04  0.50400001928E-02 0. -1.
       -1   -1    0    0    0  501  0.00000000000E+00  0.00000000000E+00 -0.18223175265E+04  0.18223175265E+04  0.50400001928E-02 0.  1.
    10030    2    1    2    0    0  0.00000000000E+00  0.00000000000E+00 -0.67581462297E+03  0.29688204300E+04  0.28908769156E+04 0.  0.
        4    1    3    3  502    0 -0.30829307522E+03  0.98750032926E+03  0.69881018646E+03  0.12484145185E+04  0.12699999809E+01 0. -1.
       -4    1    3    3    0  502  0.30829307522E+03 -0.98750032926E+03 -0.13746248094E+04  0.17204059114E+04  0.12699999809E+01 0.  1.
</event>
<event>
 5   0  0.3486236E-06  0.2886369E+04  0.7818609E-02  0.8276945E-01
        1   -1    0    0  501    0  0.00000000000E+00  0.00000000000E+00  0.30129863033E+04  0.30129863033E+04  0.50400001928E-02 0. -1.
       -1   -1    0    0    0  501  0.00000000000E+00  0.00000000000E+00 -0.69126835189E+03  0.69126835191E+03  0.50400001928E-02 0.  1.
    10030    2    1    2    0    0  0.00000000000E+00  0.00000000000E+00  0.23217179514E+04  0.37042546552E+04  0.28863693985E+04 0.  0.
        5    1    3    3  502    0  0.11722899454E+04  0.35060529754E+03  0.21429215199E+04  0.24676552679E+04  0.46999998093E+01 0. -1.
       -5    1    3    3    0  502 -0.11722899454E+04 -0.35060529754E+03  0.17879643147E+03  0.12365993873E+04  0.46999998093E+01 0.  1.
</event>
<event>
 5   0  0.9360689E-06  0.2313574E+04  0.7818609E-02  0.8472588E-01
        2   -1    0    0  501    0  0.00000000000E+00  0.00000000000E+00  0.11108579791E+04  0.11108579791E+04  0.25500000920E-02 0.  1.
       -2   -1    0    0    0  501  0.00000000000E+00  0.00000000000E+00 -0.12046153119E+04  0.12046153119E+04  0.25500000920E-02 0. -1.
    10030    2    1    2    0    0  0.00000000000E+00  0.00000000000E+00 -0.93757332767E+02  0.23154732910E+04  0.23135743177E+04 0.  0.
        5    1    3    3  502    0  0.16059857193E+03  0.11042331815E+04 -0.35210705687E+03  0.11700958465E+04  0.46999998093E+01 0. -1.
       -5    1    3    3    0  502 -0.16059857193E+03 -0.11042331815E+04  0.25834972410E+03  0.11453774445E+04  0.46999998093E+01 0.  1.
</event>
<event>
 5   0  0.3486236E-06  0.2942399E+04  0.7818609E-02  0.8260373E-01
        1   -1    0    0  501    0  0.00000000000E+00  0.00000000000E+00  0.16016754029E+04  0.16016754029E+04  0.50400001928E-02 0. -1.
       -1   -1    0    0    0  501  0.00000000000E+00  0.00000000000E+00 -0.13513520903E+04  0.13513520903E+04  0.50400001928E-02 0.  1.
    10030    2    1    2    0    0  0.00000000000E+00  0.00000000000E+00  0.25032331262E+03  0.29530274933E+04  0.29423986159E+04 0.  0.
        5    1    3    3  502    0 -0.24586630706E+03 -0.31639271825E+02  0.15805566352E+04  0.15998851995E+04  0.46999998093E+01 0. -1.
       -5    1    3    3    0  502  0.24586630706E+03  0.31639271825E+02 -0.13302333226E+04  0.13531422937E+04  0.46999998093E+01 0.  1.
</event>
<event>
 5   0  0.9505359E-06  0.2841675E+04  0.7818609E-02  0.8290445E-01
        2   -1    0    0  501    0  0.00000000000E+00  0.00000000000E+00  0.20127122014E+04  0.20127122014E+04  0.25500000920E-02 0.  1.
       -2   -1    0    0    0  501  0.00000000000E+00  0.00000000000E+00 -0.10030145766E+04  0.10030145766E+04  0.25500000920E-02 0. -1.
    10030    2    1    2    0    0  0.00000000000E+00  0.00000000000E+00  0.10096976248E+04  0.30157267780E+04  0.28416753344E+04 0.  0.
        4    1    3    3  502    0  0.14081208841E+04  0.46059056101E+02  0.70010778536E+03  0.15732381845E+04  0.12699999809E+01 0.  1.
       -4    1    3    3    0  502 -0.14081208841E+04 -0.46059056101E+02  0.30958983945E+03  0.14424885936E+04  0.12699999809E+01 0. -1.
</event>
<event>
 5   0  0.3746518E-06  0.2904056E+04  0.7818609E-02  0.8271672E-01
       -1   -1    0    0    0  501  0.00000000000E+00  0.00000000000E+00  0.13552130059E+04  0.13552130059E+04  0.50400001928E-02 0.  1.
        1   -1    0    0  501    0  0.00000000000E+00  0.00000000000E+00 -0.15557592073E+04  0.15557592073E+04  0.50400001928E-02 0. -1.
    10030    2    1    2    0    0  0.00000000000E+00  0.00000000000E+00 -0.20054620144E+03  0.29109722132E+04  0.29040558616E+04 0.  0.
        4    1    3    3  502    0  0.47122413448E+03 -0.86302607669E+03  0.97068959518E+03  0.13817040555E+04  0.12699999809E+01 0.  1.
       -4    1    3    3    0  502 -0.47122413448E+03  0.86302607669E+03 -0.11712357966E+04  0.15292681577E+04  0.12699999809E+01 0. -1.
</event>
<event>
 5   0  0.3649705E-06  0.2892672E+04  0.7818609E-02  0.8275061E-01
        1   -1    0    0  501    0  0.00000000000E+00  0.00000000000E+00  0.18851692260E+04  0.18851692260E+04  0.50400001928E-02 0.  1.
       -1   -1    0    0    0  501  0.00000000000E+00  0.00000000000E+00 -0.11096554754E+04  0.11096554754E+04  0.50400001928E-02 0. -1.
    10030    2    1    2    0    0  0.00000000000E+00  0.00000000000E+00  0.77551375056E+03  0.29948247014E+04  0.28926723656E+04 0.  0.
        2    1    3    3  502    0  0.63180501314E+03  0.12881659831E+04  0.57679509166E+03  0.15463640426E+04  0.25500000920E-02 0. -1.
       -2    1    3    3    0  502 -0.63180501314E+03 -0.12881659831E+04  0.19871865890E+03  0.14484606588E+04  0.25500000920E-02 0.  1.
</event>
<event>
 5   0  0.3474078E-06  0.2893069E+04  0.7818609E-02  0.8274943E-01
       -1   -1    0    0    0  501  0.00000000000E+00  0.00000000000E+00  0.11260667286E+04  0.11260667286E+04  0.50400001928E-02 0.  1.
        1   -1    0    0  501    0  0.00000000000E+00  0.00000000000E+00 -0.18582044660E+04  0.18582044660E+04  0.50400001928E-02 0. -1.
    10030    2    1    2    0    0  0.00000000000E+00  0.00000000000E+00 -0.73213773744E+03  0.29842711946E+04  0.28930691136E+04 0.  0.
        3    1    3    3  502    0  0.49762603365E+03  0.42617794418E+03 -0.16963765401E+04  0.18185028693E+04  0.10100000352E+00 0. -1.
       -3    1    3    3    0  502 -0.49762603365E+03 -0.42617794418E+03  0.96423880268E+03  0.11657683253E+04  0.10100000352E+00 0.  1.
</event>
<event>
 5   0  0.9646321E-06  0.2923748E+04  0.7818609E-02  0.8265847E-01
       -2   -1    0    0    0  501  0.00000000000E+00  0.00000000000E+00  0.88379690476E+03  0.88379690476E+03  0.25500000920E-02 0.  1.
        2   -1    0    0  501    0  0.00000000000E+00  0.00000000000E+00 -0.24180616185E+04  0.24180616185E+04  0.25500000920E-02 0. -1.
    10030    2    1    2    0    0  0.00000000000E+00  0.00000000000E+00 -0.15342647137E+04  0.33018585233E+04  0.29237478509E+04 0.  0.
        3    1    3    3  502    0 -0.29919397738E+03 -0.17741608512E+03 -0.23706458779E+04  0.23960290883E+04  0.10100000352E+00 0. -1.
       -3    1    3    3    0  502  0.29919397738E+03  0.17741608512E+03  0.83638116414E+03  0.90582943499E+03  0.10100000352E+00 0.  1.
</event>
<event>
 5   0  0.3649705E-06  0.2917977E+04  0.7818609E-02  0.8267549E-01
        1   -1    0    0  501    0  0.00000000000E+00  0.00000000000E+00  0.23453911987E+04  0.23453911987E+04  0.50400001928E-02 0. -1.
       -1   -1    0    0    0  501  0.00000000000E+00  0.00000000000E+00 -0.90758733132E+03  0.90758733133E+03  0.50400001928E-02 0.  1.
    10030    2    1    2    0    0  0.00000000000E+00  0.00000000000E+00  0.14378038674E+04  0.32529785301E+04  0.29179769286E+04 0.  0.
        2    1    3    3  502    0  0.96468356156E+03  0.34097876156E+03  0.18783895031E+04  0.21389782643E+04  0.25500000920E-02 0. -1.
       -2    1    3    3    0  502 -0.96468356156E+03 -0.34097876156E+03 -0.44058563568E+03  0.11140002658E+04  0.25500000920E-02 0.  1.
</event>
<event>
 5   0  0.3649705E-06  0.2909638E+04  0.7818609E-02  0.8270016E-01
        1   -1    0    0  501    0  0.00000000000E+00  0.00000000000E+00  0.12912031583E+04  0.12912031583E+04  0.50400001928E-02 0.  1.
       -1   -1    0    0    0  501  0.00000000000E+00  0.00000000000E+00 -0.16391676453E+04  0.16391676453E+04  0.50400001928E-02 0. -1.
    10030    2    1    2    0    0  0.00000000000E+00  0.00000000000E+00 -0.34796448703E+03  0.29303708036E+04  0.29096380810E+04 0.  0.
        2    1    3    3  502    0  0.67234226824E+03 -0.30254725013E+03  0.10891151867E+04  0.13151999294E+04  0.25500000920E-02 0.  1.
       -2    1    3    3    0  502 -0.67234226824E+03  0.30254725013E+03 -0.14370796738E+04  0.16151708742E+04  0.25500000920E-02 0. -1.
</event>
<event>
 5   0  0.9360689E-06  0.2918174E+04  0.7818609E-02  0.8267491E-01
       -2   -1    0    0    0  501  0.00000000000E+00  0.00000000000E+00  0.16288627202E+04  0.16288627202E+04  0.25500000920E-02 0.  1.
        2   -1    0    0  501    0  0.00000000000E+00  0.00000000000E+00 -0.13070068488E+04  0.13070068488E+04  0.25500000920E-02 0. -1.
    10030    2    1    2    0    0  0.00000000000E+00  0.00000000000E+00  0.32185587143E+03  0.29358695690E+04  0.29181739024E+04 0.  0.
        5    1    3    3  502    0  0.60278679392E+03 -0.74189632179E+03  0.12699511467E+04  0.15895156734E+04  0.46999998093E+01 0.  1.
       -5    1    3    3    0  502 -0.60278679392E+03  0.74189632179E+03 -0.94809527524E+03  0.13463538956E+04  0.46999998093E+01 0. -1.
</event>
<event>
 5   0  0.9505359E-06  0.2910418E+04  0.7818609E-02  0.8269784E-01
        2   -1    0    0  501    0  0.00000000000E+00  0.00000000000E+00  0.28579005713E+04  0.28579005713E+04  0.25500000920E-02 0.  1.
       -2   -1    0    0    0  501  0.00000000000E+00  0.00000000000E+00 -0.74097525583E+03  0.74097525584E+03  0.25500000920E-02 0. -1.
    10030    2    1    2    0    0  0.00000000000E+00  0.00000000000E+00  0.21169253154E+04  0.35988758271E+04  0.29104182565E+04 0.  0.
        4    1    3    3  502    0 -0.95928750589E+03 -0.17488938288E+03 -0.27724716337E+03  0.10137486955E+04  0.12699999809E+01 0. -1.
       -4    1    3    3    0  502  0.95928750589E+03  0.17488938288E+03  0.23941724788E+04  0.25851271316E+04  0.12699999809E+01 0.  1.
</event>
<event>
 5   0  0.3649705E-06  0.2805203E+04  0.7818609E-02  0.8301655E-01
        1   -1    0    0  501    0  0.00000000000E+00  0.00000000000E+00  0.14726691139E+04  0.14726691139E+04  0.50400001928E-02 0. -1.
       -1   -1    0    0    0  501  0.00000000000E+00  0.00000000000E+00 -0.13358673052E+04  0.13358673052E+04  0.50400001928E-02 0.  1.
    10030    2    1    2    0    0  0.00000000000E+00  0.00000000000E+00  0.13680180876E+03  0.28085364191E+04  0.28052026812E+04 0.  0.
        2    1    3    3  502    0 -0.46051952888E+03  0.63220291788E+03  0.12340575995E+04  0.14610465170E+04  0.25500000920E-02 0. -1.
       -2    1    3    3    0  502  0.46051952888E+03 -0.63220291788E+03 -0.10972557908E+04  0.13474899021E+04  0.25500000920E-02 0.  1.
</event>
<event>
 5   0  0.3474078E-06  0.2894990E+04  0.7818609E-02  0.8274370E-01
       -1   -1    0    0    0  501  0.00000000000E+00  0.00000000000E+00  0.98892879731E+03  0.98892879732E+03  0.50400001928E-02 0.  1.
        1   -1    0    0  501    0  0.00000000000E+00  0.00000000000E+00 -0.21186983082E+04  0.21186983082E+04  0.50400001928E-02 0. -1.
    10030    2    1    2    0    0  0.00000000000E+00  0.00000000000E+00 -0.11297695109E+04  0.31076271055E+04  0.28949899964E+04 0.  0.
        3    1    3    3  502    0 -0.10481876014E+04 -0.84186226372E+03  0.11001369076E+02  0.13444516946E+04  0.10100000352E+00 0.  1.
       -3    1    3    3    0  502  0.10481876014E+04  0.84186226372E+03 -0.11407708800E+04  0.17631754109E+04  0.10100000352E+00 0. -1.
</event>
<event>
 5   0  0.3474078E-06  0.2878370E+04  0.7818609E-02  0.8279342E-01
       -1   -1    0    0    0  501  0.00000000000E+00  0.00000000000E+00  0.95551772826E+03  0.95551772827E+03  0.50400001928E-02 0. -1.
        1   -1    0    0  501    0  0.00000000000E+00  0.00000000000E+00 -0.21676766947E+04  0.21676766947E+04  0.50400001928E-02 0.  1.
    10030    2    1    2    0    0  0.00000000000E+00  0.00000000000E+00 -0.12121589665E+04  0.31231944230E+04  0.28783700325E+04 0.  0.
        3    1    3    3  502    0  0.87702764343E+03 -0.10562236830E+04 -0.13753155437E+03  0.13797466776E+04  0.10100000352E+00 0. -1.
       -3    1    3    3    0  502 -0.87702764343E+03  0.10562236830E+04 -0.10746274121E+04  0.17434477454E+04  0.10100000352E+00 0.  1.
</event>
<event>
 5   0  0.9251510E-06  0.2886989E+04  0.7818609E-02  0.8276759E-01
       -2   -1    0    0    0  501  0.00000000000E+00  0.00000000000E+00  0.13084380780E+04  0.13084380780E+04  0.25500000920E-02 0.  1.
        2   -1    0    0  501    0  0.00000000000E+00  0.00000000000E+00 -0.15924918912E+04  0.15924918912E+04  0.25500000920E-02 0. -1.
    10030    2    1    2    0    0  0.00000000000E+00  0.00000000000E+00 -0.28405381322E+03  0.29009299693E+04  0.28869894558E+04 0.  0.
        2    1    3    3  502    0 -0.38235157495E+03 -0.79281854763E+03 -0.12916331278E+04  0.15630323455E+04  0.25500000920E-02 0. -1.
       -2    1    3    3    0  502  0.38235157495E+03  0.79281854763E+03  0.10075793146E+04  0.13378976237E+04  0.25500000920E-02 0.  1.
</event>
<event>
 5   0  0.3564340E-06  0.2857905E+04  0.7818609E-02  0.8285513E-01
        1   -1    0    0  501    0  0.00000000000E+00  0.00000000000E+00  0.23930329773E+04  0.23930329774E+04  0.50400001928E-02 0.  1.
       -1   -1    0    0    0  501  0.00000000000E+00  0.00000000000E+00 -0.85327057545E+03  0.85327057546E+03  0.50400001928E-02 0. -1.
    10030    2    1    2    0    0  0.00000000000E+00  0.00000000000E+00  0.15397624019E+04  0.32463035528E+04  0.28579045650E+04 0.  0.
        1    1    3    3  502    0  0.52965919095E+03 -0.46666701244E+03  0.21811412742E+04  0.22925300908E+04  0.50400001928E-02 0.  1.
       -1    1    3    3    0  502 -0.52965919095E+03  0.46666701244E+03 -0.64137887230E+03  0.95377346205E+03  0.50400001928E-02 0. -1.
</event>
<event>
 5   0  0.9360689E-06  0.2644406E+04  0.7818609E-02  0.8353272E-01
       -2   -1    0    0    0  501  0.00000000000E+00  0.00000000000E+00  0.69324394704E+03  0.69324394705E+03  0.25500000920E-02 0.  1.
        2   -1    0    0  501    0  0.00000000000E+00  0.00000000000E+00 -0.25217974028E+04  0.25217974028E+04  0.25500000920E-02 0. -1.
    10030    2    1    2    0    0  0.00000000000E+00  0.00000000000E+00 -0.18285534557E+04  0.32150413498E+04  0.26444060090E+04 0.  0.
        5    1    3    3  502    0  0.71743185571E+03  0.10304922901E+04 -0.41067579106E+03  0.13210978476E+04  0.46999998093E+01 0.  1.
       -5    1    3    3    0  502 -0.71743185571E+03 -0.10304922901E+04 -0.14178776647E+04  0.18939435022E+04  0.46999998093E+01 0. -1.
</event>
<event>
 5   0  0.3474078E-06  0.2870693E+04  0.7818609E-02  0.8281651E-01
        1   -1    0    0  501    0  0.00000000000E+00  0.00000000000E+00  0.21053679031E+04  0.21053679031E+04  0.50400001928E-02 0.  1.
       -1   -1    0    0    0  501  0.00000000000E+00  0.00000000000E+00 -0.97855559378E+03  0.97855559379E+03  0.50400001928E-02 0. -1.
    10030    2    1    2    0    0  0.00000000000E+00  0.00000000000E+00  0.11268123093E+04  0.30839234969E+04  0.28706929746E+04 0.  0.
        3    1    3    3  502    0 -0.54097130682E+03 -0.12850848826E+04  0.19732079201E+03  0.14082004884E+04  0.10100000352E+00 0.  1.
       -3    1    3    3    0  502  0.54097130682E+03  0.12850848826E+04  0.92949151731E+03  0.16757230085E+04  0.10100000352E+00 0. -1.
</event>
<event>
 5   0  0.9251510E-06  0.2901203E+04  0.7818609E-02  0.8272520E-01
        2   -1    0    0  501    0  0.00000000000E+00  0.00000000000E+00  0.27262052726E+04  0.27262052726E+04  0.25500000920E-02 0. -1.
       -2   -1    0    0    0  501  0.00000000000E+00  0.00000000000E+00 -0.77185825306E+03  0.77185825306E+03  0.25500000920E-02 0.  1.
    10030    2    1    2    0    0  0.00000000000E+00  0.00000000000E+00  0.19543470195E+04  0.34980635257E+04  0.29012025363E+04 0.  0.
        2    1    3    3  502    0 -0.49910979548E+03  0.12407216118E+04  0.16546851145E+04  0.21275534151E+04  0.25500000920E-02 0.  1.
       -2    1    3    3    0  502  0.49910979548E+03 -0.12407216118E+04  0.29966190506E+03  0.13705101106E+04  0.25500000920E-02 0. -1.
</event>
<event>
 5   0  0.3188375E-06  0.2915779E+04  0.7818609E-02  0.8268198E-01
        3   -1    0    0  501    0  0.00000000000E+00  0.00000000000E+00  0.10669034020E+04  0.10669034068E+04  0.10100000352E+00 0. -1.
       -3   -1    0    0    0  501  0.00000000000E+00  0.00000000000E+00 -0.19921594017E+04  0.19921594043E+04  0.10100000352E+00 0.  1.
    10030    2    1    2    0    0  0.00000000000E+00  0.00000000000E+00 -0.92525599968E+03  0.30590628111E+04  0.29157789040E+04 0.  0.
        3    1    3    3  502    0 -0.83761118512E+03 -0.87990442880E+03  0.38296739721E+03  0.12737693429E+04  0.10100000352E+00 0.  1.
       -3    1    3    3    0  502  0.83761118512E+03  0.87990442880E+03 -0.13082233969E+04  0.17852934682E+04  0.10100000352E+00 0. -1.
</event>
<event>
 5   0  0.9360689E-06  0.2871631E+04  0.7818609E-02  0.8281368E-01
        2   -1    0    0  501    0  0.00000000000E+00  0.00000000000E+00  0.15585296887E+04  0.15585296887E+04  0.25500000920E-02 0. -1.
       -2   -1    0    0    0  501  0.00000000000E+00  0.00000000000E+00 -0.13227636552E+04  0.13227636552E+04  0.25500000920E-02 0.  1.
    10030    2    1    2    0    0  0.00000000000E+00  0.00000000000E+00  0.23576603351E+03  0.28812933440E+04  0.28716311935E+04 0.  0.
        5    1    3    3  502    0 -0.13478201177E+04 -0.34077465136E+03  0.47797480176E+03  0.14701117079E+04  0.46999998093E+01 0. -1.
       -5    1    3    3    0  502  0.13478201177E+04  0.34077465136E+03 -0.24220876825E+03  0.14111816361E+04  0.46999998093E+01 0.  1.
</event>
<event>
 5   0  0.3564340E-06  0.2863500E+04  0.7818609E-02  0.8283821E-01
       -1   -1    0    0    0  501  0.00000000000E+00  0.00000000000E+00  0.11495441030E+04  0.11495441030E+04  0.50400001928E-02 0. -1.
        1   -1    0    0  501    0  0.00000000000E+00  0.00000000000E+00 -0.17832350889E+04  0.17832350889E+04  0.50400001928E-02 0.  1.
    10030    2    1    2    0    0  0.00000000000E+00  0.00000000000E+00 -0.63369098590E+03  0.29327791920E+04  0.28634995239E+04 0.  0.
        1    1    3    3  502    0 -0.77296598006E+03  0.57385455271E+03 -0.14022602057E+04  0.17009171463E+04  0.50400001928E-02 0.  1.
       -1    1    3    3    0  502  0.77296598006E+03 -0.57385455271E+03  0.76856921980E+03  0.12318620457E+04  0.50400001928E-02 0. -1.
</event>
<event>
 5   0  0.3746518E-06  0.2652031E+04  0.7818609E-02  0.8350739E-01
       -1   -1    0    0    0  501  0.00000000000E+00  0.00000000000E+00  0.85683872175E+03  0.85683872177E+03  0.50400001928E-02 0. -1.
        1   -1    0    0  501    0  0.00000000000E+00  0.00000000000E+00 -0.20520988197E+04  0.20520988197E+04  0.50400001928E-02 0.  1.
    10030    2    1    2    0    0  0.00000000000E+00  0.00000000000E+00 -0.11952600979E+04  0.29089375414E+04  0.26520314701E+04 0.  0.
        4    1    3    3  502    0  0.11624841845E+04 -0.60529768843E+03 -0.81853828203E+03  0.15452382673E+04  0.12699999809E+01 0.  1.
       -4    1    3    3    0  502 -0.11624841845E+04  0.60529768843E+03 -0.37672181589E+03  0.13636992741E+04  0.12699999809E+01 0. -1.
</event>
<event>
 5   0  0.9646321E-06  0.2905166E+04  0.7818609E-02  0.8271342E-01
       -2   -1    0    0    0  501  0.00000000000E+00  0.00000000000E+00  0.13018521575E+04  0.13018521575E+04  0.25500000920E-02 0.  1.
        2   -1    0    0  501    0  0.00000000000E+00  0.00000000000E+00 -0.16207656738E+04  0.16207656738E+04  0.25500000920E-02 0. -1.
    10030    2    1    2    0    0  0.00000000000E+00  0.00000000000E+00 -0.31891351633E+03  0.29226178313E+04  0.29051659431E+04 0.  0.
        3    1    3    3  502    0  0.36214100376E+03  0.12578174349E+04 -0.79311869802E+03  0.15304535555E+04  0.10100000352E+00 0. -1.
       -3    1    3    3    0  502 -0.36214100376E+03 -0.12578174349E+04  0.47420518169E+03  0.13921642758E+04  0.10100000352E+00 0.  1.
</event>
<event>
 5   0  0.3486236E-06  0.2908028E+04  0.7818609E-02  0.8270493E-01
       -1   -1    0    0    0  501  0.00000000000E+00  0.00000000000E+00  0.16857719723E+04  0.16857719723E+04  0.50400001928E-02 0.  1.
        1   -1    0    0  501    0  0.00000000000E+00  0.00000000000E+00 -0.12541181404E+04  0.12541181404E+04  0.50400001928E-02 0. -1.
    10030    2    1    2    0    0  0.00000000000E+00  0.00000000000E+00  0.43165383189E+03  0.29398901127E+04  0.29080283431E+04 0.  0.
        5    1    3    3  502    0  0.97974575098E+03  0.75078319971E+03  0.99272442799E+03  0.15840142138E+04  0.46999998093E+01 0.  1.
       -5    1    3    3    0  502 -0.97974575098E+03 -0.75078319971E+03 -0.56107059610E+03  0.13558758989E+04  0.46999998093E+01 0. -1.
</event>
<event>
 5   0  0.1001573E-05  0.2922800E+04  0.7818609E-02  0.8266126E-01
       -2   -1    0    0    0  501  0.00000000000E+00  0.00000000000E+00  0.27395004141E+04  0.27395004141E+04  0.25500000920E-02 0. -1.
        2   -1    0    0  501    0  0.00000000000E+00  0.00000000000E+00 -0.77959104414E+03  0.77959104414E+03  0.25500000920E-02 0.  1.
    10030    2    1    2    0    0  0.00000000000E+00  0.00000000000E+00  0.19599093700E+04  0.35190914582E+04  0.29228000193E+04 0.  0.
        1    1    3    3  502    0 -0.45450733333E+02 -0.14003482280E+04  0.14802351684E+04  0.20381700328E+04  0.50400001928E-02 0. -1.
       -1    1    3    3    0  502  0.45450733333E+02  0.14003482280E+04  0.47967420152E+03  0.14809214254E+04  0.50400001928E-02 0.  1.
</event>
<event>
 5   0  0.3564340E-06  0.2896800E+04  0.7818609E-02  0.8273830E-01
       -1   -1    0    0    0  501  0.00000000000E+00  0.00000000000E+00  0.14335237995E+04  0.14335237995E+04  0.50400001928E-02 0.  1.
        1   -1    0    0  501    0  0.00000000000E+00  0.00000000000E+00 -0.14634309183E+04  0.14634309183E+04  0.50400001928E-02 0. -1.
    10030    2    1    2    0    0  0.00000000000E+00  0.00000000000E+00 -0.29907118811E+02  0.28969547178E+04  0.28968003385E+04 0.  0.
        1    1    3    3  502    0 -0.42207349818E+03  0.34823059085E+03 -0.13560889601E+04  0.14623227585E+04  0.50400001928E-02 0. -1.
       -1    1    3    3    0  502  0.42207349818E+03 -0.34823059085E+03  0.13261818413E+04  0.14346319593E+04  0.50400001928E-02 0.  1.
</event>
<event>
 5   0  0.9251510E-06  0.2910021E+04  0.7818609E-02  0.8269902E-01
       -2   -1    0    0    0  501  0.00000000000E+00  0.00000000000E+00  0.18701535886E+04  0.18701535886E+04  0.25500000920E-02 0.  1.
        2   -1    0    0  501    0  0.00000000000E+00  0.00000000000E+00 -0.11320223164E+04  0.11320223164E+04  0.25500000920E-02 0. -1.
    10030    2    1    2    0    0  0.00000000000E+00  0.00000000000E+00  0.73813127213E+03  0.30021759050E+04  0.29100210291E+04 0.  0.
        2    1    3    3  502    0  0.10681456280E+02 -0.46227164714E+03  0.17923363704E+04  0.18510210247E+04  0.25500000920E-02 0.  1.
       -2    1    3    3    0  502 -0.10681456280E+02  0.46227164714E+03 -0.10542050983E+04  0.11511548803E+04  0.25500000920E-02 0. -1.
</event>
<event>
 5   0  0.3474078E-06  0.3151832E+04  0.7818609E-02  0.8201655E-01
        1   -1    0    0  501    0  0.00000000000E+00  0.00000000000E+00  0.26254739728E+04  0.26254739728E+04  0.50400001928E-02 0.  1.
       -1   -1    0    0    0  501  0.00000000000E+00  0.00000000000E+00 -0.94592865667E+03  0.94592865669E+03  0.50400001928E-02 0. -1.
    10030    2    1    2    0    0  0.00000000000E+00  0.00000000000E+00  0.16795453161E+04  0.35714026295E+04  0.31518318916E+04 0.  0.
        3    1    3    3  502    0 -0.14046039361E+04  0.69119312928E+03  0.10451485183E+04  0.18822846743E+04  0.10100000352E+00 0. -1.
       -3    1    3    3    0  502  0.14046039361E+04 -0.69119312928E+03  0.63439679780E+03  0.16891179552E+04  0.10100000352E+00 0.  1.
</event>
<event>
 5   0  0.9505359E-06  0.2912626E+04  0.7818609E-02  0.8269131E-01
       -2   -1    0    0    0  501  0.00000000000E+00  0.00000000000E+00  0.12695894450E+04  0.12695894450E+04  0.25500000920E-02 0. -1.
        2   -1    0    0  501    0  0.00000000000E+00  0.00000000000E+00 -0.16704981970E+04  0.16704981970E+04  0.25500000920E-02 0.  1.
    10030    2    1    2    0    0  0.00000000000E+00  0.00000000000E+00 -0.40090875195E+03  0.29400876420E+04  0.29126255364E+04 0.  0.
        4    1    3    3  502    0 -0.16819983232E+03  0.55207397842E+03  0.11492269921E+04  0.12860020037E+04  0.12699999809E+01 0. -1.
       -4    1    3    3    0  502  0.16819983232E+03 -0.55207397842E+03 -0.15501357440E+04  0.16540856384E+04  0.12699999809E+01 0.  1.
</event>
<event>
 5   0  0.1001573E-05  0.2907148E+04  0.7818609E-02  0.8270754E-01
        2   -1    0    0  501    0  0.00000000000E+00  0.00000000000E+00  0.18362725356E+04  0.18362725356E+04  0.25500000920E-02 0. -1.
       -2   -1    0    0    0  501  0.00000000000E+00  0.00000000000E+00 -0.11506334768E+04  0.11506334768E+04  0.25500000920E-02 0.  1.
    10030    2    1    2    0    0  0.00000000000E+00  0.00000000000E+00  0.68563905880E+03  0.29869060125E+04  0.29071475037E+04 0.  0.
        1    1    3    3  502    0  0.14039948527E+04  0.34981051568E+03  0.48558390845E+03  0.15262243201E+04  0.50400001928E-02 0. -1.
       -1    1    3    3    0  502 -0.14039948527E+04 -0.34981051568E+03  0.20005515035E+03  0.14606816924E+04  0.50400001928E-02 0.  1.
</event>
<event>
 5   0  0.3474078E-06  0.2938101E+04  0.7818609E-02  0.8261631E-01
       -1   -1    0    0    0  501  0.00000000000E+00  0.00000000000E+00  0.11872051243E+04  0.11872051244E+04  0.50400001928E-02 0.  1.
        1   -1    0    0  501    0  0.00000000000E+00  0.00000000000E+00 -0.18178061826E+04  0.18178061826E+04  0.50400001928E-02 0. -1.
    10030    2    1    2    0    0  0.00000000000E+00  0.00000000000E+00 -0.63060105827E+03  0.30050113070E+04  0.29381006212E+04 0.  0.
        3    1    3    3  502    0  0.16220588712E+03  0.11881840778E+04  0.55256155676E+03  0.13203849578E+04  0.10100000352E+00 0.  1.
       -3    1    3    3    0  502 -0.16220588712E+03 -0.11881840778E+04 -0.11831626150E+04  0.16846263492E+04  0.10100000352E+00 0. -1.
</event>
<event>
 5   0  0.3486236E-06  0.2895962E+04  0.7818609E-02  0.8274080E-01
       -1   -1    0    0    0  501  0.00000000000E+00  0.00000000000E+00  0.10262575175E+04  0.10262575175E+04  0.50400001928E-02 0. -1.
        1   -1    0    0  501    0  0.00000000000E+00  0.00000000000E+00 -0.20430044490E+04  0.20430044490E+04  0.50400001928E-02 0.  1.
    10030    2    1    2    0    0  0.00000000000E+00  0.00000000000E+00 -0.10167469314E+04  0.30692619665E+04  0.28959617912E+04 0.  0.
        5    1    3    3  502    0 -0.56966760134E+03 -0.72018654309E+03  0.67819374310E+03  0.11415597558E+04  0.46999998093E+01 0. -1.
       -5    1    3    3    0  502  0.56966760134E+03  0.72018654309E+03 -0.16949406745E+04  0.19277022107E+04  0.46999998093E+01 0.  1.
</event>
<event>
 5   0  0.3474078E-06  0.2877036E+04  0.7818609E-02  0.8279743E-01
        1   -1    0    0  501    0  0.00000000000E+00  0.00000000000E+00  0.17819204763E+04  0.17819204763E+04  0.50400001928E-02 0.  1.
       -1   -1    0    0    0  501  0.00000000000E+00  0.00000000000E+00 -0.11612941676E+04  0.11612941676E+04  0.50400001928E-02 0. -1.
    10030    2    1    2    0    0  0.00000000000E+00  0.00000000000E+00  0.62062630871E+03  0.29432146440E+04  0.28770358749E+04 0.  0.
        3    1    3    3  502    0  0.19435424581E+03  0.13822361539E+04  0.66614081813E+03  0.15466395695E+04  0.10100000352E+00 0. -1.
       -3    1    3    3    0  502 -0.19435424581E+03 -0.13822361539E+04 -0.45514509413E+02  0.13965750745E+04  0.10100000352E+00 0.  1.
</event>
<event>
 5   0  0.3486236E-06  0.2841895E+04  0.7818609E-02  0.8290378E-01
       -1   -1    0    0    0  501  0.00000000000E+00  0.00000000000E+00  0.85350706221E+03  0.85350706223E+03  0.50400001928E-02 0.  1.
        1   -1    0    0  501    0  0.00000000000E+00  0.00000000000E+00 -0.23656421422E+04  0.23656421422E+04  0.50400001928E-02 0. -1.
    10030    2    1    2    0    0  0.00000000000E+00  0.00000000000E+00 -0.15121350800E+04  0.32191492044E+04  0.28418953359E+04 0.  0.
        5    1    3    3  502    0  0.44769711391E+03 -0.11489466104E+04  0.43750838858E+02  0.12338748904E+04  0.46999998093E+01 0.  1.
       -5    1    3    3    0  502 -0.44769711391E+03  0.11489466104E+04 -0.15558859188E+04  0.19852743140E+04  0.46999998093E+01 0. -1.
</event>
<event>
 5   0  0.9251510E-06  0.2944608E+04  0.7818609E-02  0.8259728E-01
       -2   -1    0    0    0  501  0.00000000000E+00  0.00000000000E+00  0.82702526825E+03  0.82702526825E+03  0.25500000920E-02 0.  1.
        2   -1    0    0  501    0  0.00000000000E+00  0.00000000000E+00 -0.26210550237E+04  0.26210550237E+04  0.25500000920E-02 0. -1.
    10030    2    1    2    0    0  0.00000000000E+00  0.00000000000E+00 -0.17940297554E+04  0.34480802919E+04  0.29446077729E+04 0.  0.
        2    1    3    3  502    0  0.29874095912E+03 -0.12271193586E+03 -0.25790649898E+04  0.25992076872E+04  0.25500000920E-02 0. -1.
       -2    1    3    3    0  502 -0.29874095912E+03  0.12271193586E+03  0.78503523434E+03  0.84887260470E+03  0.25500000920E-02 0.  1.
</event>
<event>
 5   0  0.3474078E-06  0.2935849E+04  0.7818609E-02  0.8262291E-01
       -1   -1    0    0    0  501  0.00000000000E+00  0.00000000000E+00  0.19061658851E+04  0.19061658851E+04  0.50400001928E-02 0.  1.
        1   -1    0    0  501    0  0.00000000000E+00  0.00000000000E+00 -0.11304377745E+04  0.11304377745E+04  0.50400001928E-02 0. -1.
    10030    2    1    2    0    0  0.00000000000E+00  0.00000000000E+00  0.77572811057E+03  0.30366036596E+04  0.29358487162E+04 0.  0.
        3    1    3    3  502    0 -0.12775847495E+03 -0.69676739668E+03 -0.94194777533E+03  0.11785892646E+04  0.10100000352E+00 0. -1.
       -3    1    3    3    0  502  0.12775847495E+03  0.69676739668E+03  0.17176758859E+04  0.18580143950E+04  0.10100000352E+00 0.  1.
</event>
<event>
 5   0  0.1001573E-05  0.2078429E+04  0.7818609E-02  0.8570805E-01
       -2   -1    0    0    0  501  0.00000000000E+00  0.00000000000E+00  0.81614884453E+03  0.81614884454E+03  0.25500000920E-02 0.  1.
        2   -1    0    0  501    0  0.00000000000E+00  0.00000000000E+00 -0.13232478105E+04  0.13232478105E+04  0.25500000920E-02 0. -1.
    10030    2    1    2    0    0  0.00000000000E+00  0.00000000000E+00 -0.50709896596E+03  0.21393966550E+04  0.20784293797E+04 0.  0.
        1    1    3    3  502    0 -0.52268776713E+03 -0.47159373806E+03  0.53331106718E+03  0.88318958899E+03  0.50400001928E-02 0.  1.
       -1    1    3    3    0  502  0.52268776713E+03  0.47159373806E+03 -0.10404100331E+04  0.12562070660E+04  0.50400001928E-02 0. -1.
</event>
<event>
 5   0  0.9505359E-06  0.2882102E+04  0.7818609E-02  0.8278223E-01
       -2   -1    0    0    0  501  0.00000000000E+00  0.00000000000E+00  0.12070440030E+04  0.12070440030E+04  0.25500000920E-02 0.  1.
        2   -1    0    0  501    0  0.00000000000E+00  0.00000000000E+00 -0.17204246542E+04  0.17204246542E+04  0.25500000920E-02 0. -1.
    10030    2    1    2    0    0  0.00000000000E+00  0.00000000000E+00 -0.51338065111E+03  0.29274686572E+04  0.28821021921E+04 0.  0.
        4    1    3    3  502    0 -0.90458889306E+03 -0.15954529017E+03  0.87114371621E+03  0.12659497432E+04  0.12699999809E+01 0.  1.
       -4    1    3    3    0  502  0.90458889306E+03  0.15954529017E+03 -0.13845243673E+04  0.16615189140E+04  0.12699999809E+01 0. -1.
</event>
<event>
 5   0  0.3474078E-06  0.2965184E+04  0.7818609E-02  0.8253743E-01
       -1   -1    0    0    0  501  0.00000000000E+00  0.00000000000E+00  0.87024765595E+03  0.87024765596E+03  0.50400001928E-02 0.  1.
        1   -1    0    0  501    0  0.00000000000E+00  0.00000000000E+00 -0.25258092050E+04  0.25258092050E+04  0.50400001928E-02 0. -1.
    10030    2    1    2    0    0  0.00000000000E+00  0.00000000000E+00 -0.16555615490E+04  0.33960568609E+04  0.29651843383E+04 0.  0.
        3    1    3    3  502    0  0.46816825419E+03  0.94203077531E+03 -0.20243294149E+04  0.22813401952E+04  0.10100000352E+00 0. -1.
       -3    1    3    3    0  502 -0.46816825419E+03 -0.94203077531E+03  0.36876786587E+03  0.11147166658E+04  0.10100000352E+00 0.  1.
</event>
<event>
 5   0  0.9646321E-06  0.2493712E+04  0.7818609E-02  0.8405229E-01
       -2   -1    0    0    0  501  0.00000000000E+00  0.00000000000E+00  0.86978615142E+03  0.86978615142E+03  0.25500000920E-02 0. -1.
        2   -1    0    0  501    0  0.00000000000E+00  0.00000000000E+00 -0.17873934523E+04  0.17873934523E+04  0.25500000920E-02 0.  1.
    10030    2    1    2    0    0  0.00000000000E+00  0.00000000000E+00 -0.91760730089E+03  0.26571796037E+04  0.24937121502E+04 0.  0.
        3    1    3    3  502    0  0.45561688571E+03  0.10290245999E+04  0.11320190157E+03  0.11310583780E+04  0.10100000352E+00 0. -1.
       -3    1    3    3    0  502 -0.45561688571E+03 -0.10290245999E+04 -0.10308092025E+04  0.15261212258E+04  0.10100000352E+00 0.  1.
</event>
<event>
 5   0  0.9646321E-06  0.2892665E+04  0.7818609E-02  0.8275063E-01
       -2   -1    0    0    0  501  0.00000000000E+00  0.00000000000E+00  0.15274850940E+04  0.15274850940E+04  0.25500000920E-02 0.  1.
        2   -1    0    0  501    0  0.00000000000E+00  0.00000000000E+00 -0.13694918326E+04  0.13694918326E+04  0.25500000920E-02 0. -1.
    10030    2    1    2    0    0  0.00000000000E+00  0.00000000000E+00  0.15799326140E+03  0.28969769266E+04  0.28926654564E+04 0.  0.
        3    1    3    3  502    0 -0.44933960202E+03 -0.13670019238E+03  0.14489848522E+04  0.15232039038E+04  0.10100000352E+00 0.  1.
       -3    1    3    3    0  502  0.44933960202E+03  0.13670019238E+03 -0.12909915908E+04  0.13737730228E+04  0.10100000352E+00 0. -1.
</event>
<event>
 5   0  0.3649705E-06  0.2888301E+04  0.7818609E-02  0.8276367E-01
        1   -1    0    0  501    0  0.00000000000E+00  0.00000000000E+00  0.16717969833E+04  0.16717969833E+04  0.50400001928E-02 0.  1.
       -1   -1    0    0    0  501  0.00000000000E+00  0.00000000000E+00 -0.12475020795E+04  0.12475020795E+04  0.50400001928E-02 0. -1.
    10030    2    1    2    0    0  0.00000000000E+00  0.00000000000E+00  0.42429490385E+03  0.29192990628E+04  0.28883006860E+04 0.  0.
        2    1    3    3  502    0  0.49385020804E+02  0.13054122527E+04 -0.41011426399E+03  0.13692091657E+04  0.25500000920E-02 0. -1.
       -2    1    3    3    0  502 -0.49385020804E+02 -0.13054122527E+04  0.83440916785E+03  0.15500898971E+04  0.25500000920E-02 0.  1.
</event>
<event>
 5   0  0.3486236E-06  0.2855405E+04  0.7818609E-02  0.8286271E-01
        1   -1    0    0  501    0  0.00000000000E+00  0.00000000000E+00  0.22587352291E+04  0.22587352292E+04  0.50400001928E-02 0.  1.
       -1   -1    0    0    0  501  0.00000000000E+00  0.00000000000E+00 -0.90242272568E+03  0.90242272570E+03  0.50400001928E-02 0. -1.
    10030    2    1    2    0    0  0.00000000000E+00  0.00000000000E+00  0.13563125035E+04  0.31611579549E+04  0.28554047013E+04 0.  0.
        5    1    3    3  502    0  0.96916561284E+03  0.41616502417E+03 -0.38707941495E+03  0.11235336559E+04  0.46999998093E+01 0. -1.
       -5    1    3    3    0  502 -0.96916561284E+03 -0.41616502417E+03  0.17433919184E+04  0.20376242990E+04  0.46999998093E+01 0.  1.
</event>
<event>
 5   0  0.3564340E-06  0.2905729E+04  0.7818609E-02  0.8271175E-01
        1   -1    0    0  501    0  0.00000000000E+00  0.00000000000E+00  0.15610795411E+04  0.15610795412E+04  0.50400001928E-02 0.  1.
       -1   -1    0    0    0  501  0.00000000000E+00  0.00000000000E+00 -0.13521506599E+04  0.13521506599E+04  0.50400001928E-02 0. -1.
    10030    2    1    2    0    0  0.00000000000E+00  0.00000000000E+00  0.20892888123E+03  0.29132302011E+04  0.29057286396E+04 0.  0.
        1    1    3    3  502    0 -0.10853561341E+04 -0.96419006167E+03  0.16077275765E+03  0.14606533786E+04  0.50400001928E-02 0.  1.
       -1    1    3    3    0  502  0.10853561341E+04  0.96419006167E+03  0.48156123581E+02  0.14525768225E+04  0.50400001928E-02 0. -1.
</event>
<event>
 5   0  0.9360689E-06  0.2917509E+04  0.7818609E-02  0.8267687E-01
        2   -1    0    0  501    0  0.00000000000E+00  0.00000000000E+00  0.14070313526E+04  0.14070313526E+04  0.25500000920E-02 0.  1.
       -2   -1    0    0    0  501  0.00000000000E+00  0.00000000000E+00 -0.15123791621E+04  0.15123791621E+04  0.25500000920E-02 0. -1.
    10030    2    1    2    0    0  0.00000000000E+00  0.00000000000E+00 -0.10534780946E+03  0.29194105147E+04  0.29175091418E+04 0.  0.
        5    1    3    3  502    0  0.12506895716E+04  0.11513586719E+03 -0.79508878478E+03  0.14864955224E+04  0.46999998093E+01 0. -1.
       -5    1    3    3    0  502 -0.12506895716E+04 -0.11513586719E+03  0.68974097531E+03  0.14329149924E+04  0.46999998093E+01 0.  1.
</event>
<event>
 5   0  0.9646321E-06  0.2827199E+04  0.7818609E-02  0.8294873E-01
        2   -1    0    0  501    0  0.00000000000E+00  0.00000000000E+00  0.11840824998E+04  0.11840824998E+04  0.25500000920E-02 0.  1.
       -2   -1    0    0    0  501  0.00000000000E+00  0.00000000000E+00 -0.16876055863E+04  0.16876055863E+04  0.25500000920E-02 0. -1.
    10030    2    1    2    0    0  0.00000000000E+00  0.00000000000E+00 -0.50352308647E+03  0.28716880862E+04  0.28271994917E+04 0.  0.
        3    1    3    3  502    0  0.80525138767E+03  0.23295053115E+03  0.90437998113E+03  0.12331256659E+04  0.10100000352E+00 0.  1.
       -3    1    3    3    0  502 -0.80525138767E+03 -0.23295053115E+03 -0.14079030676E+04  0.16385624203E+04  0.10100000352E+00 0. -1.
</event>
<event>
 5   0  0.9505359E-06  0.2926457E+04  0.7818609E-02  0.8265049E-01
        2   -1    0    0  501    0  0.00000000000E+00  0.00000000000E+00  0.19918147574E+04  0.19918147574E+04  0.25500000920E-02 0.  1.
       -2   -1    0    0    0  501  0.00000000000E+00  0.00000000000E+00 -0.10749182768E+04  0.10749182768E+04  0.25500000920E-02 0. -1.
    10030    2    1    2    0    0  0.00000000000E+00  0.00000000000E+00  0.91689648056E+03  0.30667330342E+04  0.29264573031E+04 0.  0.
        4    1    3    3  502    0  0.67169396228E+03  0.12016414549E+04  0.97812349372E+03  0.16887398103E+04  0.12699999809E+01 0.  1.
       -4    1    3    3    0  502 -0.67169396228E+03 -0.12016414549E+04 -0.61227013160E+02  0.13779932239E+04  0.12699999809E+01 0. -1.
</event>
<event>
 5   0  0.9646321E-06  0.2413732E+04  0.7818609E-02  0.8434380E-01
       -2   -1    0    0    0  501  0.00000000000E+00  0.00000000000E+00  0.64836422441E+03  0.64836422441E+03  0.25500000920E-02 0. -1.
        2   -1    0    0  501    0  0.00000000000E+00  0.00000000000E+00 -0.22464621184E+04  0.22464621184E+04  0.25500000920E-02 0.  1.
    10030    2    1    2    0    0  0.00000000000E+00  0.00000000000E+00 -0.15980978940E+04  0.28948263428E+04  0.24137321053E+04 0.  0.
        3    1    3    3  502    0  0.95287405579E+03  0.68710276212E+03 -0.11306471857E+04  0.16304730113E+04  0.10100000352E+00 0.  1.
       -3    1    3    3    0  502 -0.95287405579E+03 -0.68710276212E+03 -0.46745070822E+03  0.12643533314E+04  0.10100000352E+00 0. -1.
</event>
<event>
 5   0  0.3486236E-06  0.2955292E+04  0.7818609E-02  0.8256614E-01
       -1   -1    0    0    0  501  0.00000000000E+00  0.00000000000E+00  0.13148222406E+04  0.13148222406E+04  0.50400001928E-02 0. -1.
        1   -1    0    0  501    0  0.00000000000E+00  0.00000000000E+00 -0.16606337376E+04  0.16606337377E+04  0.50400001928E-02 0.  1.
    10030    2    1    2    0    0  0.00000000000E+00  0.00000000000E+00 -0.34581149705E+03  0.29754559783E+04  0.29552923184E+04 0.  0.
        5    1    3    3  502    0 -0.38742495334E+03 -0.55295274291E+03  0.11504292897E+04  0.13339282105E+04  0.46999998093E+01 0. -1.
       -5    1    3    3    0  502  0.38742495334E+03  0.55295274291E+03 -0.14962407867E+04  0.16415277677E+04  0.46999998093E+01 0.  1.
</event>
<event>
 5   0  0.3746518E-06  0.2845295E+04  0.7818609E-02  0.8289342E-01
        1   -1    0    0  501    0  0.00000000000E+00  0.00000000000E+00  0.22242295674E+04  0.22242295674E+04  0.50400001928E-02 0.  1.
       -1   -1    0    0    0  501  0.00000000000E+00  0.00000000000E+00 -0.90994460267E+03  0.90994460268E+03  0.50400001928E-02 0. -1.
    10030    2    1    2    0    0  0.00000000000E+00  0.00000000000E+00  0.13142849647E+04  0.31341741701E+04  0.28452948459E+04 0.  0.
        4    1    3    3  502    0 -0.48242304851E+03  0.10637305849E+04 -0.23751952250E+03  0.11919194148E+04  0.12699999809E+01 0. -1.
       -4    1    3    3    0  502  0.48242304851E+03 -0.10637305849E+04  0.15518044872E+04  0.19422547553E+04  0.12699999809E+01 0.  1.
</event>
<event>
 5   0  0.3486236E-06  0.2890395E+04  0.7818609E-02  0.8275741E-01
       -1   -1    0    0    0  501  0.00000000000E+00  0.00000000000E+00  0.15676586780E+04  0.15676586780E+04  0.50400001928E-02 0. -1.
        1   -1    0    0  501    0  0.00000000000E+00  0.00000000000E+00 -0.13323030232E+04  0.13323030232E+04  0.50400001928E-02 0.  1.
    10030    2    1    2    0    0  0.00000000000E+00  0.00000000000E+00  0.23535565483E+03  0.28999617012E+04  0.28903954028E+04 0.  0.
        5    1    3    3  502    0 -0.98040101010E+03  0.82826391726E+03 -0.54887558789E+03  0.13958845791E+04  0.46999998093E+01 0.  1.
       -5    1    3    3    0  502  0.98040101010E+03 -0.82826391726E+03  0.78423124273E+03  0.15040771221E+04  0.46999998093E+01 0. -1.
</event>
<event>
 5   0  0.3746518E-06  0.2881787E+04  0.7818609E-02  0.8278317E-01
        1   -1    0    0  501    0  0.00000000000E+00  0.00000000000E+00  0.34377546495E+04  0.34377546495E+04  0.50400001928E-02 0.  1.
       -1   -1    0    0    0  501  0.00000000000E+00  0.00000000000E+00 -0.60393312578E+03  0.60393312580E+03  0.50400001928E-02 0. -1.
    10030    2    1    2    0    0  0.00000000000E+00  0.00000000000E+00  0.28338215238E+04  0.40416877754E+04  0.28817868840E+04 0.  0.
        4    1    3    3  502    0 -0.13203124074E+04  0.57471021804E+03  0.14891849261E+04  0.20715187773E+04  0.12699999809E+01 0. -1.
       -4    1    3    3    0  502  0.13203124074E+04 -0.57471021804E+03  0.13446365977E+04  0.19701689980E+04  0.12699999809E+01 0.  1.
</event>
<event>
 5   0  0.9646321E-06  0.2901033E+04  0.7818609E-02  0.8272570E-01
       -2   -1    0    0    0  501  0.00000000000E+00  0.00000000000E+00  0.13778997188E+04  0.13778997188E+04  0.25500000920E-02 0. -1.
        2   -1    0    0  501    0  0.00000000000E+00  0.00000000000E+00 -0.15269607651E+04  0.15269607651E+04  0.25500000920E-02 0.  1.
    10030    2    1    2    0    0  0.00000000000E+00  0.00000000000E+00 -0.14906104630E+03  0.29048604840E+04  0.29010334772E+04 0.  0.
        3    1    3    3  502    0  0.61083339670E+03  0.28352845676E+03  0.12118793904E+04  0.13864189451E+04  0.10100000352E+00 0. -1.
       -3    1    3    3    0  502 -0.61083339670E+03 -0.28352845676E+03 -0.13609404367E+04  0.15184415388E+04  0.10100000352E+00 0.  1.
</event>
<event>
 5   0  0.3474078E-06  0.2915855E+04  0.7818609E-02  0.8268176E-01
       -1   -1    0    0    0  501  0.00000000000E+00  0.00000000000E+00  0.65915422689E+03  0.65915422691E+03  0.50400001928E-02 0. -1.
        1   -1    0    0  501    0  0.00000000000E+00  0.00000000000E+00 -0.32246671275E+04  0.32246671276E+04  0.50400001928E-02 0.  1.
    10030    2    1    2    0    0  0.00000000000E+00  0.00000000000E+00 -0.25655129007E+04  0.38838213545E+04  0.29158552553E+04 0.  0.
        3    1    3    3  502    0 -0.53926745845E+03  0.28598424469E+03  0.48075735119E+03  0.77699679593E+03  0.10100000352E+00 0. -1.
       -3    1    3    3    0  502  0.53926745845E+03 -0.28598424469E+03 -0.30462702519E+04  0.31068245585E+04  0.10100000352E+00 0.  1.
</event>
<event>
 5   0  0.9360689E-06  0.2943875E+04  0.7818609E-02  0.8259942E-01
       -2   -1    0    0    0  501  0.00000000000E+00  0.00000000000E+00  0.82864632641E+03  0.82864632641E+03  0.25500000920E-02 0.  1.
        2   -1    0    0  501    0  0.00000000000E+00  0.00000000000E+00 -0.26146263521E+04  0.26146263521E+04  0.25500000920E-02 0. -1.
    10030    2    1    2    0    0  0.00000000000E+00  0.00000000000E+00 -0.17859800257E+04  0.34432726785E+04  0.29438753517E+04 0.  0.
        5    1    3    3  502    0  0.20315776027E+03  0.14466716088E+04 -0.11036764992E+04  0.18309166349E+04  0.46999998093E+01 0. -1.
       -5    1    3    3    0  502 -0.20315776027E+03 -0.14466716088E+04 -0.68230352653E+03  0.16123560436E+04  0.46999998093E+01 0.  1.
</event>
<event>
 5   0  0.9646321E-06  0.2899095E+04  0.7818609E-02  0.8273147E-01
       -2   -1    0    0    0  501  0.00000000000E+00  0.00000000000E+00  0.11090985259E+04  0.11090985259E+04  0.25500000920E-02 0. -1.
        2   -1    0    0  501    0  0.00000000000E+00  0.00000000000E+00 -0.18945012177E+04  0.18945012177E+04  0.25500000920E-02 0.  1.
    10030    2    1    2    0    0  0.00000000000E+00  0.00000000000E+00 -0.78540269185E+03  0.30035997436E+04  0.28990953816E+04 0.  0.
        3    1    3    3  502    0  0.14455001092E+04 -0.10719751662E+03 -0.40829805322E+03  0.15058782101E+04  0.10100000352E+00 0. -1.
       -3    1    3    3    0  502 -0.14455001092E+04  0.10719751662E+03 -0.37710463863E+03  0.14977215335E+04  0.10100000352E+00 0.  1.
</event>
<event>
 5   0  0.3474078E-06  0.2906301E+04  0.7818609E-02  0.8271005E-01
        1   -1    0    0  501    0  0.00000000000E+00  0.00000000000E+00  0.10685216103E+04  0.10685216103E+04  0.50400001928E-02 0.  1.
       -1   -1    0    0    0  501  0.00000000000E+00  0.00000000000E+00 -0.19762324577E+04  0.19762324578E+04  0.50400001928E-02 0. -1.
    10030    2    1    2    0    0  0.00000000000E+00  0.00000000000E+00 -0.90771084748E+03  0.30447540680E+04  0.29063014902E+04 0.  0.
        3    1    3    3  502    0 -0.10651772825E+04  0.83818505829E+03 -0.10027323957E+04  0.16860098169E+04  0.10100000352E+00 0. -1.
       -3    1    3    3    0  502  0.10651772825E+04 -0.83818505829E+03  0.95021548193E+02  0.13587442511E+04  0.10100000352E+00 0.  1.
</event>
<event>
 5   0  0.9505359E-06  0.3262627E+04  0.7818609E-02  0.8172470E-01
       -2   -1    0    0    0  501  0.00000000000E+00  0.00000000000E+00  0.11380085973E+04  0.11380085974E+04  0.25500000920E-02 0.  1.
        2   -1    0    0  501    0  0.00000000000E+00  0.00000000000E+00 -0.23384570853E+04  0.23384570853E+04  0.25500000920E-02 0. -1.
    10030    2    1    2    0    0  0.00000000000E+00  0.00000000000E+00 -0.12004484879E+04  0.34764656826E+04  0.32626273263E+04 0.  0.
        4    1    3    3  502    0  0.11986517010E+04 -0.79503386691E+03 -0.14203023921E+04  0.20214116967E+04  0.12699999809E+01 0. -1.
       -4    1    3    3    0  502 -0.11986517010E+04  0.79503386691E+03  0.21985390418E+03  0.14550539859E+04  0.12699999809E+01 0.  1.
</event>
<event>
 5   0  0.9360689E-06  0.2933989E+04  0.7818609E-02  0.8262836E-01
       -2   -1    0    0    0  501  0.00000000000E+00  0.00000000000E+00  0.13489451234E+04  0.13489451234E+04  0.25500000920E-02 0. -1.
        2   -1    0    0  501    0  0.00000000000E+00  0.00000000000E+00 -0.15953746592E+04  0.15953746592E+04  0.25500000920E-02 0.  1.
    10030    2    1    2    0    0  0.00000000000E+00  0.00000000000E+00 -0.24642953582E+03  0.29443197826E+04  0.29339890024E+04 0.  0.
        5    1    3    3  502    0 -0.93969934718E+03 -0.93858316753E+03  0.50193742059E+03  0.14198367828E+04  0.46999998093E+01 0. -1.
       -5    1    3    3    0  502  0.93969934718E+03  0.93858316753E+03 -0.74836695641E+03  0.15244829999E+04  0.46999998093E+01 0.  1.
</event>
<event>
 5   0  0.3649705E-06  0.2906563E+04  0.7818609E-02  0.8270927E-01
        1   -1    0    0  501    0  0.00000000000E+00  0.00000000000E+00  0.29685031673E+04  0.29685031673E+04  0.50400001928E-02 0. -1.
       -1   -1    0    0    0  501  0.00000000000E+00  0.00000000000E+00 -0.71147883698E+03  0.71147883700E+03  0.50400001928E-02 0.  1.
    10030    2    1    2    0    0  0.00000000000E+00  0.00000000000E+00  0.22570243303E+04  0.36799820043E+04  0.29065630432E+04 0.  0.
        2    1    3    3  502    0 -0.59378939860E+03  0.64998117420E+02  0.28058915589E+04  0.28687694306E+04  0.25500000920E-02 0. -1.
       -2    1    3    3    0  502  0.59378939860E+03 -0.64998117420E+02 -0.54886722862E+03  0.81121257375E+03  0.25500000920E-02 0.  1.
</event>
<event>
 5   0  0.3746518E-06  0.2916405E+04  0.7818609E-02  0.8268013E-01
        1   -1    0    0  501    0  0.00000000000E+00  0.00000000000E+00  0.15292233699E+04  0.15292233699E+04  0.50400001928E-02 0. -1.
       -1   -1    0    0    0  501  0.00000000000E+00  0.00000000000E+00 -0.13904797649E+04  0.13904797649E+04  0.50400001928E-02 0.  1.
    10030    2    1    2    0    0  0.00000000000E+00  0.00000000000E+00  0.13874360500E+03  0.29197031348E+04  0.29164047400E+04 0.  0.
        4    1    3    3  502    0 -0.14369621230E+04 -0.24593849795E+03  0.37608151577E+02  0.14583421662E+04  0.12699999809E+01 0. -1.
       -4    1    3    3    0  502  0.14369621230E+04  0.24593849795E+03  0.10113545343E+03  0.14613609686E+04  0.12699999809E+01 0.  1.
</event>
<event>
 5   0  0.3474078E-06  0.2913111E+04  0.7818609E-02  0.8268987E-01
       -1   -1    0    0    0  501  0.00000000000E+00  0.00000000000E+00  0.19716397198E+04  0.19716397198E+04  0.50400001928E-02 0.  1.
        1   -1    0    0  501    0  0.00000000000E+00  0.00000000000E+00 -0.10760354067E+04  0.10760354068E+04  0.50400001928E-02 0. -1.
    10030    2    1    2    0    0  0.00000000000E+00  0.00000000000E+00  0.89560431303E+03  0.30476751265E+04  0.29131111533E+04 0.  0.
        3    1    3    3  502    0 -0.88256784640E+03 -0.11581027605E+04  0.40829359617E+03  0.15122273897E+04  0.10100000352E+00 0. -1.
       -3    1    3    3    0  502  0.88256784640E+03  0.11581027605E+04  0.48731071686E+03  0.15354477368E+04  0.10100000352E+00 0.  1.
</event>
<event>
 5   0  0.3486236E-06  0.2498480E+04  0.7818609E-02  0.8403527E-01
        1   -1    0    0  501    0  0.00000000000E+00  0.00000000000E+00  0.12561398147E+04  0.12561398147E+04  0.50400001928E-02 0.  1.
       -1   -1    0    0    0  501  0.00000000000E+00  0.00000000000E+00 -0.12423777921E+04  0.12423777921E+04  0.50400001928E-02 0. -1.
    10030    2    1    2    0    0  0.00000000000E+00  0.00000000000E+00  0.13762022579E+02  0.24985176068E+04  0.24984797054E+04 0.  0.
        5    1    3    3  502    0 -0.11964504016E+04 -0.14713958392E+02 -0.35210640551E+03  0.12472814738E+04  0.46999998093E+01 0. -1.
       -5    1    3    3    0  502  0.11964504016E+04  0.14713958392E+02  0.36586842809E+03  0.12512361330E+04  0.46999998093E+01 0.  1.
</event>
<event>
 5   0  0.9646321E-06  0.2780876E+04  0.7818609E-02  0.8309230E-01
       -2   -1    0    0    0  501  0.00000000000E+00  0.00000000000E+00  0.10703858557E+04  0.10703858557E+04  0.25500000920E-02 0. -1.
        2   -1    0    0  501    0  0.00000000000E+00  0.00000000000E+00 -0.18061881616E+04  0.18061881616E+04  0.25500000920E-02 0.  1.
    10030    2    1    2    0    0  0.00000000000E+00  0.00000000000E+00 -0.73580230592E+03  0.28765740173E+04  0.27808763085E+04 0.  0.
        3    1    3    3  502    0 -0.71090074817E+03  0.27628633156E+02 -0.16036565087E+04  0.17543823480E+04  0.10100000352E+00 0.  1.
       -3    1    3    3    0  502  0.71090074817E+03 -0.27628633156E+02  0.86785420273E+03  0.11221916692E+04  0.10100000352E+00 0. -1.
</event>
<event>
 5   0  0.3564340E-06  0.2905870E+04  0.7818609E-02  0.8271133E-01
       -1   -1    0    0    0  501  0.00000000000E+00  0.00000000000E+00  0.80776148506E+03  0.80776148508E+03  0.50400001928E-02 0.  1.
        1   -1    0    0  501    0  0.00000000000E+00  0.00000000000E+00 -0.26134209909E+04  0.26134209909E+04  0.50400001928E-02 0. -1.
    10030    2    1    2    0    0  0.00000000000E+00  0.00000000000E+00 -0.18056595058E+04  0.34211824759E+04  0.29058704862E+04 0.  0.
        1    1    3    3  502    0 -0.29079235433E+03  0.49700061718E+03 -0.24733480601E+04  0.25394921605E+04  0.50400001928E-02 0. -1.
       -1    1    3    3    0  502  0.29079235433E+03 -0.49700061718E+03  0.66768855429E+03  0.88169031546E+03  0.50400001928E-02 0.  1.
</event>
<event>
 5   0  0.1001573E-05  0.2732108E+04  0.7818609E-02  0.8324661E-01
        2   -1    0    0  501    0  0.00000000000E+00  0.00000000000E+00  0.12311717779E+04  0.12311717779E+04  0.25500000920E-02 0. -1.
       -2   -1    0    0    0  501  0.00000000000E+00  0.00000000000E+00 -0.15157138890E+04  0.15157138890E+04  0.25500000920E-02 0.  1.
    10030    2    1    2    0    0  0.00000000000E+00  0.00000000000E+00 -0.28454211106E+03  0.27468856669E+04  0.27321084631E+04 0.  0.
        1    1    3    3  502    0 -0.75096377563E+03  0.11230019909E+04 -0.34591062766E+03  0.13945372803E+04  0.50400001928E-02 0.  1.
       -1    1    3    3    0  502  0.75096377563E+03 -0.11230019909E+04  0.61368516600E+02  0.13523483866E+04  0.50400001928E-02 0. -1.
</event>
<event>
 5   0  0.3474078E-06  0.2834060E+04  0.7818609E-02  0.8292772E-01
       -1   -1    0    0    0  501  0.00000000000E+00  0.00000000000E+00  0.85120441726E+03  0.85120441727E+03  0.50400001928E-02 0. -1.
        1   -1    0    0  501    0  0.00000000000E+00  0.00000000000E+00 -0.23589790504E+04  0.23589790504E+04  0.50400001928E-02 0.  1.
    10030    2    1    2    0    0  0.00000000000E+00  0.00000000000E+00 -0.15077746332E+04  0.32101834677E+04  0.28340595533E+04 0.  0.
        3    1    3    3  502    0 -0.76311845460E+03  0.84703387061E+03 -0.17070910325E+04  0.20527971057E+04  0.10100000352E+00 0.  1.
       -3    1    3    3    0  502  0.76311845460E+03 -0.84703387061E+03  0.19931639933E+03  0.11573863620E+04  0.10100000352E+00 0. -1.
</event>
<event>
 5   0  0.3649705E-06  0.2897668E+04  0.7818609E-02  0.8273572E-01
       -1   -1    0    0    0  501  0.00000000000E+00  0.00000000000E+00  0.13682389513E+04  0.13682389513E+04  0.50400001928E-02 0. -1.
        1   -1    0    0  501    0  0.00000000000E+00  0.00000000000E+00 -0.15341759538E+04  0.15341759538E+04  0.50400001928E-02 0.  1.
    10030    2    1    2    0    0  0.00000000000E+00  0.00000000000E+00 -0.16593700250E+03  0.29024149052E+04  0.28976675436E+04 0.  0.
        2    1    3    3  502    0  0.35903163945E+03  0.81308462053E+03 -0.12290060322E+04  0.15167287646E+04  0.25500000920E-02 0.  1.
       -2    1    3    3    0  502 -0.35903163945E+03 -0.81308462053E+03  0.10630690297E+04  0.13856861406E+04  0.25500000920E-02 0. -1.
</event>
<event>
 5   0  0.3486236E-06  0.2891284E+04  0.7818609E-02  0.8275476E-01
       -1   -1    0    0    0  501  0.00000000000E+00  0.00000000000E+00  0.12588470844E+04  0.12588470844E+04  0.50400001928E-02 0. -1.
        1   -1    0    0  501    0  0.00000000000E+00  0.00000000000E+00 -0.16601542402E+04  0.16601542402E+04  0.50400001928E-02 0.  1.
    10030    2    1    2    0    0  0.00000000000E+00  0.00000000000E+00 -0.40130715576E+03  0.29190013246E+04  0.28912836768E+04 0.  0.
        5    1    3    3  502    0  0.97890749712E+03  0.61034743642E+03 -0.10802546439E+04  0.15804290768E+04  0.46999998093E+01 0.  1.
       -5    1    3    3    0  502 -0.97890749712E+03 -0.61034743642E+03  0.67894748813E+03  0.13385722478E+04  0.46999998093E+01 0. -1.
</event>
<event>
 5   0  0.9360689E-06  0.2905636E+04  0.7818609E-02  0.8271203E-01
       -2   -1    0    0    0  501  0.00000000000E+00  0.00000000000E+00  0.11439120106E+04  0.11439120106E+04  0.25500000920E-02 0. -1.
        2   -1    0    0  501    0  0.00000000000E+00  0.00000000000E+00 -0.18451423639E+04  0.18451423639E+04  0.25500000920E-02 0.  1.
    10030    2    1    2    0    0  0.00000000000E+00  0.00000000000E+00 -0.70123035329E+03  0.29890543745E+04  0.29056362549E+04 0.  0.
        5    1    3    3  502    0  0.61970842066E+03  0.13758418693E+03 -0.16949181189E+04  0.18098998467E+04  0.46999998093E+01 0.  1.
       -5    1    3    3    0  502 -0.61970842066E+03 -0.13758418693E+03  0.99368776561E+03  0.11791545279E+04  0.46999998093E+01 0. -1.
</event>
<event>
 5   0  0.9360689E-06  0.2907359E+04  0.7818609E-02  0.8270691E-01
       -2   -1    0    0    0  501  0.00000000000E+00  0.00000000000E+00  0.10650053083E+04  0.10650053083E+04  0.25500000920E-02 0.  1.
        2   -1    0    0  501    0  0.00000000000E+00  0.00000000000E+00 -0.19842001769E+04  0.19842001769E+04  0.25500000920E-02 0. -1.
    10030    2    1    2    0    0  0.00000000000E+00  0.00000000000E+00 -0.91919486855E+03  0.30492054852E+04  0.29073587471E+04 0.  0.
        5    1    3    3  502    0  0.13438971633E+04 -0.67899383760E+02 -0.10364234158E+04  0.16984891812E+04  0.46999998093E+01 0. -1.
       -5    1    3    3    0  502 -0.13438971633E+04  0.67899383760E+02  0.11722854722E+03  0.13507163040E+04  0.46999998093E+01 0.  1.
</event>
<event>
 5   0  0.9360689E-06  0.2854385E+04  0.7818609E-02  0.8286580E-01
       -2   -1    0    0    0  501  0.00000000000E+00  0.00000000000E+00  0.17028752529E+04  0.17028752529E+04  0.25500000920E-02 0. -1.
        2   -1    0    0  501    0  0.00000000000E+00  0.00000000000E+00 -0.11961409748E+04  0.11961409748E+04  0.25500000920E-02 0.  1.
    10030    2    1    2    0    0  0.00000000000E+00  0.00000000000E+00  0.50673427808E+03  0.28990162277E+04  0.28543853033E+04 0.  0.
        5    1    3    3  502    0 -0.11689631735E+04  0.65310631976E+03 -0.24814931875E+03  0.13618454172E+04  0.46999998093E+01 0.  1.
       -5    1    3    3    0  502  0.11689631735E+04 -0.65310631976E+03  0.75488359682E+03  0.15371708105E+04  0.46999998093E+01 0. -1.
</event>
<event>
 5   0  0.3746518E-06  0.2892095E+04  0.7818609E-02  0.8275233E-01
        1   -1    0    0  501    0  0.00000000000E+00  0.00000000000E+00  0.28080825133E+04  0.28080825133E+04  0.50400001928E-02 0. -1.
       -1   -1    0    0    0  501  0.00000000000E+00  0.00000000000E+00 -0.74465524500E+03  0.74465524501E+03  0.50400001928E-02 0.  1.
    10030    2    1    2    0    0  0.00000000000E+00  0.00000000000E+00  0.20634272683E+04  0.35527377584E+04  0.28920949998E+04 0.  0.
        4    1    3    3  502    0 -0.13384026654E+04 -0.49122969611E+03  0.13286368779E+04  0.19488216633E+04  0.12699999809E+01 0. -1.
       -4    1    3    3    0  502  0.13384026654E+04  0.49122969611E+03  0.73479039049E+03  0.16039160951E+04  0.12699999809E+01 0.  1.
</event>
<event>
 5   0  0.9251510E-06  0.2490640E+04  0.7818609E-02  0.8406328E-01
       -2   -1    0    0    0  501  0.00000000000E+00  0.00000000000E+00  0.26208875745E+04  0.26208875745E+04  0.25500000920E-02 0.  1.
        2   -1    0    0  501    0  0.00000000000E+00  0.00000000000E+00 -0.59171612746E+03  0.59171612746E+03  0.25500000920E-02 0. -1.
    10030    2    1    2    0    0  0.00000000000E+00  0.00000000000E+00  0.20291714471E+04  0.32126037020E+04  0.24906396336E+04 0.  0.
        2    1    3    3  502    0  0.21501969938E+03  0.10668771095E+04  0.17953159650E+04  0.20994331740E+04  0.25500000920E-02 0. -1.
       -2    1    3    3    0  502 -0.21501969938E+03 -0.10668771095E+04  0.23385548206E+03  0.11131705280E+04  0.25500000920E-02 0.  1.
</event>
<event>
 5   0  0.9646321E-06  0.2926084E+04  0.7818609E-02  0.8265159E-01
        2   -1    0    0  501    0  0.00000000000E+00  0.00000000000E+00  0.31465655038E+04  0.31465655038E+04  0.25500000920E-02 0. -1.
       -2   -1    0    0    0  501  0.00000000000E+00  0.00000000000E+00 -0.68026293429E+03  0.68026293429E+03  0.25500000920E-02 0.  1.
    10030    2    1    2    0    0  0.00000000000E+00  0.00000000000E+00  0.24663025696E+04  0.38268284381E+04  0.29260839924E+04 0.  0.
        3    1    3    3  502    0  0.68801704851E+03 -0.68592934537E+03 -0.19749181074E+03  0.99139777657E+03  0.10100000352E+00 0.  1.
       -3    1    3    3    0  502 -0.68801704851E+03  0.68592934537E+03  0.26637943803E+04  0.28354306616E+04  0.10100000352E+00 0. -1.
</event>
<event>
 5   0  0.3474078E-06  0.2869631E+04  0.7818609E-02  0.8281971E-01
       -1   -1    0    0    0  501  0.00000000000E+00  0.00000000000E+00  0.90675234560E+03  0.90675234562E+03  0.50400001928E-02 0.  1.
        1   -1    0    0  501    0  0.00000000000E+00  0.00000000000E+00 -0.22704049623E+04  0.22704049623E+04  0.50400001928E-02 0. -1.
    10030    2    1    2    0    0  0.00000000000E+00  0.00000000000E+00 -0.13636526167E+04  0.31771573079E+04  0.28696306557E+04 0.  0.
        3    1    3    3  502    0  0.13930108775E+04 -0.22383957533E+03 -0.97077658271E+03  0.17125976305E+04  0.10100000352E+00 0. -1.
       -3    1    3    3    0  502 -0.13930108775E+04  0.22383957533E+03 -0.39287603401E+03  0.14645596774E+04  0.10100000352E+00 0.  1.
</event>
<event>
 5   0  0.9646321E-06  0.3257650E+04  0.7818609E-02  0.8173756E-01
       -2   -1    0    0    0  501  0.00000000000E+00  0.00000000000E+00  0.12248653283E+04  0.12248653283E+04  0.25500000920E-02 0.  1.
        2   -1    0    0  501    0  0.00000000000E+00  0.00000000000E+00 -0.21660106357E+04  0.21660106357E+04  0.25500000920E-02 0. -1.
    10030    2    1    2    0    0  0.00000000000E+00  0.00000000000E+00 -0.94114530740E+03  0.33908759640E+04  0.32576502749E+04 0.  0.
        3    1    3    3  502    0 -0.89959027755E+02 -0.16333371025E+03 -0.21548639853E+04  0.21629168576E+04  0.10100000352E+00 0. -1.
       -3    1    3    3    0  502  0.89959027755E+02  0.16333371025E+03  0.12137186779E+04  0.12279591064E+04  0.10100000352E+00 0.  1.
</event>
<event>
 5   0  0.3746518E-06  0.2910388E+04  0.7818609E-02  0.8269793E-01
        1   -1    0    0  501    0  0.00000000000E+00  0.00000000000E+00  0.24460682213E+04  0.24460682213E+04  0.50400001928E-02 0. -1.
       -1   -1    0    0    0  501  0.00000000000E+00  0.00000000000E+00 -0.86571164397E+03  0.86571164398E+03  0.50400001928E-02 0.  1.
    10030    2    1    2    0    0  0.00000000000E+00  0.00000000000E+00  0.15803565773E+04  0.33117798653E+04  0.29103881123E+04 0.  0.
        4    1    3    3  502    0 -0.14061062317E+04 -0.29492829369E+03  0.10533071390E+04  0.17814530516E+04  0.12699999809E+01 0. -1.
       -4    1    3    3    0  502  0.14061062317E+04  0.29492829369E+03  0.52704943831E+03  0.15303268136E+04  0.12699999809E+01 0.  1.
</event>
<event>
 5   0  0.9360689E-06  0.2833430E+04  0.7818609E-02  0.8292964E-01
        2   -1    0    0  501    0  0.00000000000E+00  0.00000000000E+00  0.20530526954E+04  0.20530526955E+04  0.25500000920E-02 0. -1.
       -2   -1    0    0    0  501  0.00000000000E+00  0.00000000000E+00 -0.97760815617E+03  0.97760815618E+03  0.25500000920E-02 0.  1.
    10030    2    1    2    0    0  0.00000000000E+00  0.00000000000E+00  0.10754445393E+04  0.30306608516E+04  0.28334297663E+04 0.  0.
        5    1    3    3  502    0 -0.35139597859E+02 -0.12362822689E+04 -0.20133805734E+03  0.12530713240E+04  0.46999998093E+01 0.  1.
       -5    1    3    3    0  502  0.35139597859E+02  0.12362822689E+04  0.12767825966E+04  0.17775895276E+04  0.46999998093E+01 0. -1.
</event>
<event>
 5   0  0.3474078E-06  0.2993763E+04  0.7818609E-02  0.8245514E-01
        1   -1    0    0  501    0  0.00000000000E+00  0.00000000000E+00  0.13248058722E+04  0.13248058722E+04  0.50400001928E-02 0.  1.
       -1   -1    0    0    0  501  0.00000000000E+00  0.00000000000E+00 -0.16913078401E+04  0.16913078401E+04  0.50400001928E-02 0. -1.
    10030    2    1    2    0    0  0.00000000000E+00  0.00000000000E+00 -0.36650196791E+03  0.30161137122E+04  0.29937632225E+04 0.  0.
        3    1    3    3  502    0  0.14484112643E+04  0.18754698293E+03  0.14720004343E+03  0.14679022189E+04  0.10100000352E+00 0.  1.
       -3    1    3    3    0  502 -0.14484112643E+04 -0.18754698293E+03 -0.51370201134E+03  0.15482114933E+04  0.10100000352E+00 0. -1.
</event>
<event>
 5   0  0.9251510E-06  0.2903450E+04  0.7818609E-02  0.8271852E-01
        2   -1    0    0  501    0  0.00000000000E+00  0.00000000000E+00  0.21748166056E+04  0.21748166056E+04  0.25500000920E-02 0. -1.
       -2   -1    0    0    0  501  0.00000000000E+00  0.00000000000E+00 -0.96904986741E+03  0.96904986742E+03  0.25500000920E-02 0.  1.
    10030    2    1    2    0    0  0.00000000000E+00  0.00000000000E+00  0.12057667382E+04  0.31438664730E+04  0.29034501844E+04 0.  0.
        2    1    3    3  502    0  0.11554570680E+04  0.95359652322E+02  0.15489162531E+04  0.19347651171E+04  0.25500000920E-02 0. -1.
       -2    1    3    3    0  502 -0.11554570680E+04 -0.95359652322E+02 -0.34314951493E+03  0.12091013559E+04  0.25500000920E-02 0.  1.
</event>
<event>
 5   0  0.3486236E-06  0.2942615E+04  0.7818609E-02  0.8260310E-01
        1   -1    0    0  501    0  0.00000000000E+00  0.00000000000E+00  0.15330499665E+04  0.15330499665E+04  0.50400001928E-02 0.  1.
       -1   -1    0    0    0  501  0.00000000000E+00  0.00000000000E+00 -0.14120514366E+04  0.14120514367E+04  0.50400001928E-02 0. -1.
    10030    2    1    2    0    0  0.00000000000E+00  0.00000000000E+00  0.12099852987E+03  0.29451014032E+04  0.29426147609E+04 0.  0.
        5    1    3    3  502    0 -0.13735472704E+04 -0.43664837269E+03  0.35643378190E+03  0.14847090746E+04  0.46999998093E+01 0.  1.
       -5    1    3    3    0  502  0.13735472704E+04  0.43664837269E+03 -0.23543525203E+03  0.14603923286E+04  0.46999998093E+01 0. -1.
</event>
<event>
 5   0  0.3649705E-06  0.2944185E+04  0.7818609E-02  0.8259851E-01
       -1   -1    0    0    0  501  0.00000000000E+00  0.00000000000E+00  0.19224179374E+04  0.19224179374E+04  0.50400001928E-02 0.  1.
        1   -1    0    0  501    0  0.00000000000E+00  0.00000000000E+00 -0.11272559313E+04  0.11272559313E+04  0.50400001928E-02 0. -1.
    10030    2    1    2    0    0  0.00000000000E+00  0.00000000000E+00  0.79516200610E+03  0.30496738687E+04  0.29441854713E+04 0.  0.
        2    1    3    3  502    0 -0.88109937092E+03 -0.62108128252E+03 -0.64082387190E+03  0.12540866380E+04  0.25500000920E-02 0. -1.
       -2    1    3    3    0  502  0.88109937092E+03  0.62108128252E+03  0.14359858780E+04  0.17955872306E+04  0.25500000920E-02 0.  1.
</event>
<event>
 5   0  0.3486236E-06  0.2901747E+04  0.7818609E-02  0.8272358E-01
        1   -1    0    0  501    0  0.00000000000E+00  0.00000000000E+00  0.20812828235E+04  0.20812828235E+04  0.50400001928E-02 0. -1.
       -1   -1    0    0    0  501  0.00000000000E+00  0.00000000000E+00 -0.10114114900E+04  0.10114114901E+04  0.50400001928E-02 0.  1.
    10030    2    1    2    0    0  0.00000000000E+00  0.00000000000E+00  0.10698713335E+04  0.30926943136E+04  0.29017466201E+04 0.  0.
        5    1    3    3  502    0  0.10884006635E+04  0.17513099144E+03 -0.47038650287E+03  0.11985709911E+04  0.46999998093E+01 0.  1.
       -5    1    3    3    0  502 -0.10884006635E+04 -0.17513099144E+03  0.15402578364E+04  0.18941233225E+04  0.46999998093E+01 0. -1.
</event>
<event>
 5   0  0.9360689E-06  0.2903132E+04  0.7818609E-02  0.8271946E-01
       -2   -1    0    0    0  501  0.00000000000E+00  0.00000000000E+00  0.11915902075E+04  0.11915902075E+04  0.25500000920E-02 0. -1.
        2   -1    0    0  501    0  0.00000000000E+00  0.00000000000E+00 -0.17682623915E+04  0.17682623915E+04  0.25500000920E-02 0.  1.
    10030    2    1    2    0    0  0.00000000000E+00  0.00000000000E+00 -0.57667218405E+03  0.29598525990E+04  0.29031322050E+04 0.  0.
        5    1    3    3  502    0 -0.70249311787E+03  0.12008940616E+04 -0.71040366442E+03  0.15621583096E+04  0.46999998093E+01 0.  1.
       -5    1    3    3    0  502  0.70249311787E+03 -0.12008940616E+04  0.13373148037E+03  0.13976942894E+04  0.46999998093E+01 0. -1.
</event>
<event>
 5   0  0.3486236E-06  0.2829785E+04  0.7818609E-02  0.8294081E-01
        1   -1    0    0  501    0  0.00000000000E+00  0.00000000000E+00  0.16010609616E+04  0.16010609616E+04  0.50400001928E-02 0. -1.
       -1   -1    0    0    0  501  0.00000000000E+00  0.00000000000E+00 -0.12503712149E+04  0.12503712149E+04  0.50400001928E-02 0.  1.
    10030    2    1    2    0    0  0.00000000000E+00  0.00000000000E+00  0.35068974670E+03  0.28514321765E+04  0.28297848255E+04 0.  0.
        5    1    3    3  502    0 -0.31830019673E+02 -0.69095605530E+03 -0.10683844603E+04  0.12727532619E+04  0.46999998093E+01 0.  1.
       -5    1    3    3    0  502  0.31830019673E+02  0.69095605530E+03  0.14190742070E+04  0.15786789146E+04  0.46999998093E+01 0. -1.
</event>
<event>
 5   0  0.1001573E-05  0.2921107E+04  0.7818609E-02  0.8266625E-01
        2   -1    0    0  501    0  0.00000000000E+00  0.00000000000E+00  0.20420174969E+04  0.20420174969E+04  0.25500000920E-02 0. -1.
       -2   -1    0    0    0  501  0.00000000000E+00  0.00000000000E+00 -0.10446610690E+04  0.10446610690E+04  0.25500000920E-02 0.  1.
    10030    2    1    2    0    0  0.00000000000E+00  0.00000000000E+00  0.99735642785E+03  0.30866785659E+04  0.29211067638E+04 0.  0.
        1    1    3    3  502    0  0.10385092415E+04 -0.26129352054E+03  0.15481708808E+04  0.18824475623E+04  0.50400001928E-02 0. -1.
       -1    1    3    3    0  502 -0.10385092415E+04  0.26129352054E+03 -0.55081445292E+03  0.12042310037E+04  0.50400001928E-02 0.  1.
</event>
<event>
 5   0  0.9360689E-06  0.2863711E+04  0.7818609E-02  0.8283757E-01
        2   -1    0    0  501    0  0.00000000000E+00  0.00000000000E+00  0.14829156356E+04  0.14829156356E+04  0.25500000920E-02 0.  1.
       -2   -1    0    0    0  501  0.00000000000E+00  0.00000000000E+00 -0.13825530216E+04  0.13825530216E+04  0.25500000920E-02 0. -1.
    10030    2    1    2    0    0  0.00000000000E+00  0.00000000000E+00  0.10036261399E+03  0.28654686573E+04  0.28637105251E+04 0.  0.
        5    1    3    3  502    0  0.18074040709E+03  0.12066585242E+03 -0.13659472853E+04  0.13831346351E+04  0.46999998093E+01 0. -1.
       -5    1    3    3    0  502 -0.18074040709E+03 -0.12066585242E+03  0.14663098992E+04  0.14823340222E+04  0.46999998093E+01 0.  1.
</event>
<event>
 5   0  0.9360689E-06  0.2901793E+04  0.7818609E-02  0.8272344E-01
       -2   -1    0    0    0  501  0.00000000000E+00  0.00000000000E+00  0.13874249837E+04  0.13874249837E+04  0.25500000920E-02 0. -1.
        2   -1    0    0  501    0  0.00000000000E+00  0.00000000000E+00 -0.15172720589E+04  0.15172720589E+04  0.25500000920E-02 0.  1.
    10030    2    1    2    0    0  0.00000000000E+00  0.00000000000E+00 -0.12984707524E+03  0.29046970426E+04  0.29017933500E+04 0.  0.
        5    1    3    3  502    0  0.89025386125E+03  0.61704252941E+03  0.90133283365E+03  0.14091544939E+04  0.46999998093E+01 0. -1.
       -5    1    3    3    0  502 -0.89025386125E+03 -0.61704252941E+03 -0.10311799089E+04  0.14955425487E+04  0.46999998093E+01 0.  1.
</event>
<event>
 5   0  0.3486236E-06  0.2887388E+04  0.7818609E-02  0.8276640E-01
       -1   -1    0    0    0  501  0.00000000000E+00  0.00000000000E+00  0.15294540717E+04  0.15294540717E+04  0.50400001928E-02 0.  1.
        1   -1    0    0  501    0  0.00000000000E+00  0.00000000000E+00 -0.13627428609E+04  0.13627428609E+04  0.50400001928E-02 0. -1.
    10030    2    1    2    0    0  0.00000000000E+00  0.00000000000E+00  0.16671121076E+03  0.28921969326E+04  0.28873881743E+04 0.  0.
        5    1    3    3  502    0  0.22733106802E+03 -0.45770663261E+03  0.14358101040E+04  0.15240562721E+04  0.46999998093E+01 0.  1.
       -5    1    3    3    0  502 -0.22733106802E+03  0.45770663261E+03 -0.12690988932E+04  0.13681406604E+04  0.46999998093E+01 0. -1.
</event>
<event>
 5   0  0.3486236E-06  0.2963817E+04  0.7818609E-02  0.8254139E-01
       -1   -1    0    0    0  501  0.00000000000E+00  0.00000000000E+00  0.12446842261E+04  0.12446842261E+04  0.50400001928E-02 0.  1.
        1   -1    0    0  501    0  0.00000000000E+00  0.00000000000E+00 -0.17643448756E+04  0.17643448756E+04  0.50400001928E-02 0. -1.
    10030    2    1    2    0    0  0.00000000000E+00  0.00000000000E+00 -0.51966064945E+03  0.30090291017E+04  0.29638166179E+04 0.  0.
        5    1    3    3  502    0 -0.74556336104E+03  0.64193302360E+03 -0.13849266327E+04  0.16988191781E+04  0.46999998093E+01 0. -1.
       -5    1    3    3    0  502  0.74556336104E+03 -0.64193302360E+03  0.86526598324E+03  0.13102099236E+04  0.46999998093E+01 0.  1.
</event>
<event>
 5   0  0.9360689E-06  0.2954368E+04  0.7818609E-02  0.8256883E-01
       -2   -1    0    0    0  501  0.00000000000E+00  0.00000000000E+00  0.14749284795E+04  0.14749284795E+04  0.25500000920E-02 0.  1.
        2   -1    0    0  501    0  0.00000000000E+00  0.00000000000E+00 -0.14794428503E+04  0.14794428503E+04  0.25500000920E-02 0. -1.
    10030    2    1    2    0    0  0.00000000000E+00  0.00000000000E+00 -0.45143708200E+01  0.29543713298E+04  0.29543678807E+04 0.  0.
        5    1    3    3  502    0 -0.95051030880E+03  0.73863343200E+03  0.85389865389E+03  0.14758774323E+04  0.46999998093E+01 0.  1.
       -5    1    3    3    0  502  0.95051030880E+03 -0.73863343200E+03 -0.85841302471E+03  0.14784938975E+04  0.46999998093E+01 0. -1.
</event>
<event>
 5   0  0.3746518E-06  0.2717987E+04  0.7818609E-02  0.8329192E-01
        1   -1    0    0  501    0  0.00000000000E+00  0.00000000000E+00  0.20792598675E+04  0.20792598675E+04  0.50400001928E-02 0. -1.
       -1   -1    0    0    0  501  0.00000000000E+00  0.00000000000E+00 -0.88823103365E+03  0.88823103366E+03  0.50400001928E-02 0.  1.
    10030    2    1    2    0    0  0.00000000000E+00  0.00000000000E+00  0.11910288339E+04  0.29674909012E+04  0.27179868590E+04 0.  0.
        4    1    3    3  502    0  0.11108396978E+04 -0.73905978122E+03  0.87745897809E+03  0.15969064048E+04  0.12699999809E+01 0. -1.
       -4    1    3    3    0  502 -0.11108396978E+04  0.73905978122E+03  0.31356985579E+03  0.13705844964E+04  0.12699999809E+01 0.  1.
</event>
<event>
 5   0  0.1001573E-05  0.2917400E+04  0.7818609E-02  0.8267719E-01
        2   -1    0    0  501    0  0.00000000000E+00  0.00000000000E+00  0.12137829414E+04  0.12137829414E+04  0.25500000920E-02 0.  1.
       -2   -1    0    0    0  501  0.00000000000E+00  0.00000000000E+00 -0.17530369547E+04  0.17530369547E+04  0.25500000920E-02 0. -1.
    10030    2    1    2    0    0  0.00000000000E+00  0.00000000000E+00 -0.53925401324E+03  0.29668198961E+04  0.29174004533E+04 0.  0.
        1    1    3    3  502    0 -0.18924342832E+03 -0.47893515761E+03  0.11182680016E+04  0.12311438924E+04  0.50400001928E-02 0.  1.
       -1    1    3    3    0  502  0.18924342832E+03  0.47893515761E+03 -0.16575220148E+04  0.17356760037E+04  0.50400001928E-02 0. -1.
</event>
<event>
 5   0  0.3486236E-06  0.2920367E+04  0.7818609E-02  0.8266843E-01
        1   -1    0    0  501    0  0.00000000000E+00  0.00000000000E+00  0.19357519113E+04  0.19357519113E+04  0.50400001928E-02 0.  1.
       -1   -1    0    0    0  501  0.00000000000E+00  0.00000000000E+00 -0.11014513128E+04  0.11014513128E+04  0.50400001928E-02 0. -1.
    10030    2    1    2    0    0  0.00000000000E+00  0.00000000000E+00  0.83430059850E+03  0.30372032241E+04  0.29203674317E+04 0.  0.
        5    1    3    3  502    0 -0.21043022189E+03 -0.35245830465E+03 -0.10401988235E+04  0.11182769859E+04  0.46999998093E+01 0. -1.
       -5    1    3    3    0  502  0.21043022189E+03  0.35245830465E+03  0.18744994220E+04  0.19189262382E+04  0.46999998093E+01 0.  1.
</event>
<event>
 5   0  0.3564340E-06  0.2897138E+04  0.7818609E-02  0.8273730E-01
        1   -1    0    0  501    0  0.00000000000E+00  0.00000000000E+00  0.16276286881E+04  0.16276286881E+04  0.50400001928E-02 0. -1.
       -1   -1    0    0    0  501  0.00000000000E+00  0.00000000000E+00 -0.12892080629E+04  0.12892080629E+04  0.50400001928E-02 0.  1.
    10030    2    1    2    0    0  0.00000000000E+00  0.00000000000E+00  0.33842062517E+03  0.29168367510E+04  0.28971379174E+04 0.  0.
        1    1    3    3  502    0 -0.50388259007E+03 -0.69240343197E+03  0.13455001520E+04  0.15948952430E+04  0.50400001928E-02 0. -1.
       -1    1    3    3    0  502  0.50388259007E+03  0.69240343197E+03 -0.10070795268E+04  0.13219415080E+04  0.50400001928E-02 0.  1.
</event>
<event>
 5   0  0.3564340E-06  0.2835381E+04  0.7818609E-02  0.8292367E-01
        1   -1    0    0  501    0  0.00000000000E+00  0.00000000000E+00  0.14270847494E+04  0.14270847494E+04  0.50400001928E-02 0. -1.
       -1   -1    0    0    0  501  0.00000000000E+00  0.00000000000E+00 -0.14083585170E+04  0.14083585170E+04  0.50400001928E-02 0.  1.
    10030    2    1    2    0    0  0.00000000000E+00  0.00000000000E+00  0.18726232406E+02  0.28354432665E+04  0.28353814286E+04 0.  0.
        1    1    3    3  502    0 -0.85579691227E+03  0.61863373907E+03  0.95529648146E+03  0.14239688991E+04  0.50400001928E-02 0. -1.
       -1    1    3    3    0  502  0.85579691227E+03 -0.61863373907E+03 -0.93657024906E+03  0.14114743673E+04  0.50400001928E-02 0.  1.
</event>
<event>
 5   0  0.3746518E-06  0.2961257E+04  0.7818609E-02  0.8254882E-01
       -1   -1    0    0    0  501  0.00000000000E+00  0.00000000000E+00  0.75510096146E+03  0.75510096148E+03  0.50400001928E-02 0.  1.
        1   -1    0    0  501    0  0.00000000000E+00  0.00000000000E+00 -0.29032674507E+04  0.29032674507E+04  0.50400001928E-02 0. -1.
    10030    2    1    2    0    0  0.00000000000E+00  0.00000000000E+00 -0.21481664892E+04  0.36583684121E+04  0.29612565194E+04 0.  0.
        4    1    3    3  502    0  0.11808803170E+04  0.47663913297E+03 -0.20072848614E+04  0.23771531952E+04  0.12699999809E+01 0. -1.
       -4    1    3    3    0  502 -0.11808803170E+04 -0.47663913297E+03 -0.14088162783E+03  0.12812152169E+04  0.12699999809E+01 0.  1.
</event>
<event>
 5   0  0.9505359E-06  0.2918152E+04  0.7818609E-02  0.8267497E-01
       -2   -1    0    0    0  501  0.00000000000E+00  0.00000000000E+00  0.23865466432E+04  0.23865466432E+04  0.25500000920E-02 0.  1.
        2   -1    0    0  501    0  0.00000000000E+00  0.00000000000E+00 -0.89204326569E+03  0.89204326569E+03  0.25500000920E-02 0. -1.
    10030    2    1    2    0    0  0.00000000000E+00  0.00000000000E+00  0.14945033775E+04  0.32785899089E+04  0.29181520600E+04 0.  0.
        4    1    3    3  502    0 -0.22381195565E+03  0.14402294040E+04  0.82302631812E+03  0.16738358524E+04  0.12699999809E+01 0. -1.
       -4    1    3    3    0  502  0.22381195565E+03 -0.14402294040E+04  0.67147705941E+03  0.16047540565E+04  0.12699999809E+01 0.  1.
</event>
<event>
 5   0  0.9646321E-06  0.2900965E+04  0.7818609E-02  0.8272590E-01
       -2   -1    0    0    0  501  0.00000000000E+00  0.00000000000E+00  0.11126982237E+04  0.11126982237E+04  0.25500000920E-02 0.  1.
        2   -1    0    0  501    0  0.00000000000E+00  0.00000000000E+00 -0.18908089937E+04  0.18908089937E+04  0.25500000920E-02 0. -1.
    10030    2    1    2    0    0  0.00000000000E+00  0.00000000000E+00 -0.77811076999E+03  0.30035072174E+04  0.29009652246E+04 0.  0.
        3    1    3    3  502    0 -0.11843382642E+04  0.58981649612E+03 -0.10045076064E+04  0.16611972082E+04  0.10100000352E+00 0. -1.
       -3    1    3    3    0  502  0.11843382642E+04 -0.58981649612E+03  0.22639683638E+03  0.13423100092E+04  0.10100000352E+00 0.  1.
</event>
<event>
 5   0  0.3746518E-06  0.2952037E+04  0.7818609E-02  0.8257561E-01
       -1   -1    0    0    0  501  0.00000000000E+00  0.00000000000E+00  0.12643149358E+04  0.12643149358E+04  0.50400001928E-02 0. -1.
        1   -1    0    0  501    0  0.00000000000E+00  0.00000000000E+00 -0.17231712429E+04  0.17231712429E+04  0.50400001928E-02 0.  1.
    10030    2    1    2    0    0  0.00000000000E+00  0.00000000000E+00 -0.45885630707E+03  0.29874861787E+04  0.29520373570E+04 0.  0.
        4    1    3    3  502    0  0.11412349094E+04 -0.79601201805E+03  0.26900751398E+03  0.14171869696E+04  0.12699999809E+01 0. -1.
       -4    1    3    3    0  502 -0.11412349094E+04  0.79601201805E+03 -0.72786382105E+03  0.15702992091E+04  0.12699999809E+01 0.  1.
</event>
<event>
 5   0  0.9360689E-06  0.2874042E+04  0.7818609E-02  0.8280643E-01
        2   -1    0    0  501    0  0.00000000000E+00  0.00000000000E+00  0.20101359762E+04  0.20101359762E+04  0.25500000920E-02 0. -1.
       -2   -1    0    0    0  501  0.00000000000E+00  0.00000000000E+00 -0.10273081450E+04  0.10273081450E+04  0.25500000920E-02 0.  1.
    10030    2    1    2    0    0  0.00000000000E+00  0.00000000000E+00  0.98282783123E+03  0.30374441212E+04  0.28740417957E+04 0.  0.
        5    1    3    3  502    0 -0.97407081107E+03  0.94709597812E+03 -0.33952157910E+01  0.13586163381E+04  0.46999998093E+01 0.  1.
       -5    1    3    3    0  502  0.97407081107E+03 -0.94709597812E+03  0.98622304702E+03  0.16788277831E+04  0.46999998093E+01 0. -1.
</event>
<event>
 5   0  0.9646321E-06  0.2892499E+04  0.7818609E-02  0.8275113E-01
       -2   -1    0    0    0  501  0.00000000000E+00  0.00000000000E+00  0.11394205019E+04  0.11394205019E+04  0.25500000920E-02 0.  1.
        2   -1    0    0  501    0  0.00000000000E+00  0.00000000000E+00 -0.18357028448E+04  0.18357028448E+04  0.25500000920E-02 0. -1.
    10030    2    1    2    0    0  0.00000000000E+00  0.00000000000E+00 -0.69628234289E+03  0.29751233467E+04  0.28924988897E+04 0.  0.
        3    1    3    3  502    0  0.10228783128E+04 -0.36941716117E+03 -0.13287302389E+04  0.17170536217E+04  0.10100000352E+00 0. -1.
       -3    1    3    3    0  502 -0.10228783128E+04  0.36941716117E+03  0.63244789600E+03  0.12580697250E+04  0.10100000352E+00 0.  1.
</event>
<event>
 5   0  0.9505359E-06  0.2896393E+04  0.7818609E-02  0.8273952E-01
       -2   -1    0    0    0  501  0.00000000000E+00  0.00000000000E+00  0.14651907164E+04  0.14651907164E+04  0.25500000920E-02 0. -1.
        2   -1    0    0  501    0  0.00000000000E+00  0.00000000000E+00 -0.14313990394E+04  0.14313990394E+04  0.25500000920E-02 0.  1.
    10030    2    1    2    0    0  0.00000000000E+00  0.00000000000E+00  0.33791676960E+02  0.28965897558E+04  0.28963926419E+04 0.  0.
        4    1    3    3  502    0  0.13522282165E+04 -0.51386173906E+03  0.85427392873E+02  0.14490943684E+04  0.12699999809E+01 0. -1.
       -4    1    3    3    0  502 -0.13522282165E+04  0.51386173906E+03 -0.51635715912E+02  0.14474953873E+04  0.12699999809E+01 0.  1.
</event>
<event>
 5   0  0.9251510E-06  0.2741798E+04  0.7818609E-02  0.8321569E-01
       -2   -1    0    0    0  501  0.00000000000E+00  0.00000000000E+00  0.13541431449E+04  0.13541431449E+04  0.25500000920E-02 0. -1.
        2   -1    0    0  501    0  0.00000000000E+00  0.00000000000E+00 -0.13878618876E+04  0.13878618876E+04  0.25500000920E-02 0.  1.
    10030    2    1    2    0    0  0.00000000000E+00  0.00000000000E+00 -0.33718742670E+02  0.27420050325E+04  0.27417977031E+04 0.  0.
        2    1    3    3  502    0 -0.10084636111E+04 -0.54778538195E+02  0.91022966957E+03  0.13596019986E+04  0.25500000920E-02 0. -1.
       -2    1    3    3    0  502  0.10084636111E+04  0.54778538195E+02 -0.94394841224E+03  0.13824030339E+04  0.25500000920E-02 0.  1.
</event>
<event>
 5   0  0.9251510E-06  0.2839208E+04  0.7818609E-02  0.8291198E-01
       -2   -1    0    0    0  501  0.00000000000E+00  0.00000000000E+00  0.11607397805E+04  0.11607397805E+04  0.25500000920E-02 0.  1.
        2   -1    0    0  501    0  0.00000000000E+00  0.00000000000E+00 -0.17361992514E+04  0.17361992514E+04  0.25500000920E-02 0. -1.
    10030    2    1    2    0    0  0.00000000000E+00  0.00000000000E+00 -0.57545947083E+03  0.28969390319E+04  0.28392080149E+04 0.  0.
        2    1    3    3  502    0  0.70757738801E+03 -0.97277565236E+03  0.48146726911E+03  0.12956731691E+04  0.25500000920E-02 0.  1.
       -2    1    3    3    0  502 -0.70757738801E+03  0.97277565236E+03 -0.10569267399E+04  0.16012658628E+04  0.25500000920E-02 0. -1.
</event>
<event>
 5   0  0.9251510E-06  0.2900491E+04  0.7818609E-02  0.8272731E-01
       -2   -1    0    0    0  501  0.00000000000E+00  0.00000000000E+00  0.16959018474E+04  0.16959018474E+04  0.25500000920E-02 0. -1.
        2   -1    0    0  501    0  0.00000000000E+00  0.00000000000E+00 -0.12401732595E+04  0.12401732595E+04  0.25500000920E-02 0.  1.
    10030    2    1    2    0    0  0.00000000000E+00  0.00000000000E+00  0.45572858796E+03  0.29360751069E+04  0.29004910770E+04 0.  0.
        2    1    3    3  502    0 -0.13504477995E+04 -0.34006963478E+03 -0.18189248502E+03  0.14044363609E+04  0.25500000920E-02 0. -1.
       -2    1    3    3    0  502  0.13504477995E+04  0.34006963478E+03  0.63762107298E+03  0.15316387460E+04  0.25500000920E-02 0.  1.
</event>
<event>
 5   0  0.9646321E-06  0.2881415E+04  0.7818609E-02  0.8278429E-01
       -2   -1    0    0    0  501  0.00000000000E+00  0.00000000000E+00  0.16970135195E+04  0.16970135195E+04  0.25500000920E-02 0.  1.
        2   -1    0    0  501    0  0.00000000000E+00  0.00000000000E+00 -0.12231121514E+04  0.12231121514E+04  0.25500000920E-02 0. -1.
    10030    2    1    2    0    0  0.00000000000E+00  0.00000000000E+00  0.47390136815E+03  0.29201256709E+04  0.28814148308E+04 0.  0.
        3    1    3    3  502    0 -0.53639945639E+03  0.12240272553E+04 -0.30849068687E+03  0.13715442438E+04  0.10100000352E+00 0. -1.
       -3    1    3    3    0  502  0.53639945639E+03 -0.12240272553E+04  0.78239205502E+03  0.15485814272E+04  0.10100000352E+00 0.  1.
</event>
<event>
 5   0  0.9505359E-06  0.2770731E+04  0.7818609E-02  0.8312413E-01
       -2   -1    0    0    0  501  0.00000000000E+00  0.00000000000E+00  0.11067162012E+04  0.11067162012E+04  0.25500000920E-02 0.  1.
        2   -1    0    0  501    0  0.00000000000E+00  0.00000000000E+00 -0.17341728474E+04  0.17341728474E+04  0.25500000920E-02 0. -1.
    10030    2    1    2    0    0  0.00000000000E+00  0.00000000000E+00 -0.62745664621E+03  0.28408890486E+04  0.27707307238E+04 0.  0.
        4    1    3    3  502    0  0.34308719814E+03 -0.36345265097E+02  0.10619630907E+04  0.11166006550E+04  0.12699999809E+01 0.  1.
       -4    1    3    3    0  502 -0.34308719814E+03  0.36345265097E+02 -0.16894197369E+04  0.17242883936E+04  0.12699999809E+01 0. -1.
</event>
<event>
 5   0  0.1001573E-05  0.2873169E+04  0.7818609E-02  0.8280906E-01
        2   -1    0    0  501    0  0.00000000000E+00  0.00000000000E+00  0.13649265900E+04  0.13649265900E+04  0.25500000920E-02 0. -1.
       -2   -1    0    0    0  501  0.00000000000E+00  0.00000000000E+00 -0.15120039005E+04  0.15120039005E+04  0.25500000920E-02 0.  1.
    10030    2    1    2    0    0  0.00000000000E+00  0.00000000000E+00 -0.14707731046E+03  0.28769304905E+04  0.28731685144E+04 0.  0.
        1    1    3    3  502    0  0.84714693035E+03  0.86851322379E+03 -0.84383207201E+03  0.14778449537E+04  0.50400001928E-02 0.  1.
       -1    1    3    3    0  502 -0.84714693035E+03 -0.86851322379E+03  0.69675476154E+03  0.13990855368E+04  0.50400001928E-02 0. -1.
</event>
<event>
 5   0  0.3564340E-06  0.2897834E+04  0.7818609E-02  0.8273522E-01
       -1   -1    0    0    0  501  0.00000000000E+00  0.00000000000E+00  0.13048685973E+04  0.13048685973E+04  0.50400001928E-02 0. -1.
        1   -1    0    0  501    0  0.00000000000E+00  0.00000000000E+00 -0.16088670228E+04  0.16088670228E+04  0.50400001928E-02 0.  1.
    10030    2    1    2    0    0  0.00000000000E+00  0.00000000000E+00 -0.30399842549E+03  0.29137356202E+04  0.28978337119E+04 0.  0.
        1    1    3    3  502    0 -0.93088916194E+03  0.44668461263E+03  0.87008182961E+03  0.13502311525E+04  0.50400001928E-02 0. -1.
       -1    1    3    3    0  502  0.93088916194E+03 -0.44668461263E+03 -0.11740802551E+04  0.15635044677E+04  0.50400001928E-02 0.  1.
</event>
<event>
 5   0  0.3474078E-06  0.2815750E+04  0.7818609E-02  0.8298395E-01
        1   -1    0    0  501    0  0.00000000000E+00  0.00000000000E+00  0.16876025957E+04  0.16876025957E+04  0.50400001928E-02 0.  1.
       -1   -1    0    0    0  501  0.00000000000E+00  0.00000000000E+00 -0.11745137180E+04  0.11745137180E+04  0.50400001928E-02 0. -1.
    10030    2    1    2    0    0  0.00000000000E+00  0.00000000000E+00  0.51308887773E+03  0.28621163138E+04  0.28157502725E+04 0.  0.
        3    1    3    3  502    0  0.27092776660E+03  0.13643679153E+04  0.47740261615E+03  0.14706511929E+04  0.10100000352E+00 0. -1.
       -3    1    3    3    0  502 -0.27092776660E+03 -0.13643679153E+04  0.35686261571E+02  0.13914651209E+04  0.10100000352E+00 0.  1.
</event>
<event>
 5   0  0.3564340E-06  0.2899340E+04  0.7818609E-02  0.8273074E-01
        1   -1    0    0  501    0  0.00000000000E+00  0.00000000000E+00  0.18025684577E+04  0.18025684577E+04  0.50400001928E-02 0. -1.
       -1   -1    0    0    0  501  0.00000000000E+00  0.00000000000E+00 -0.11658605809E+04  0.11658605809E+04  0.50400001928E-02 0.  1.
    10030    2    1    2    0    0  0.00000000000E+00  0.00000000000E+00  0.63670787679E+03  0.29684290386E+04  0.28993402761E+04 0.  0.
        1    1    3    3  502    0  0.11807327307E+04 -0.71417783446E+01  0.11794439816E+04  0.16689124878E+04  0.50400001928E-02 0. -1.
       -1    1    3    3    0  502 -0.11807327307E+04  0.71417783446E+01 -0.54273610478E+03  0.12995165508E+04  0.50400001928E-02 0.  1.
</event>
<event>
 5   0  0.9505359E-06  0.2925845E+04  0.7818609E-02  0.8265229E-01
        2   -1    0    0  501    0  0.00000000000E+00  0.00000000000E+00  0.11611186604E+04  0.11611186604E+04  0.25500000920E-02 0. -1.
       -2   -1    0    0    0  501  0.00000000000E+00  0.00000000000E+00 -0.18431729778E+04  0.18431729778E+04  0.25500000920E-02 0.  1.
    10030    2    1    2    0    0  0.00000000000E+00  0.00000000000E+00 -0.68205431749E+03  0.30042916382E+04  0.29258452036E+04 0.  0.
        4    1    3    3  502    0  0.39750029114E+03 -0.42030357580E+03  0.10386802815E+04  0.11889154374E+04  0.12699999809E+01 0. -1.
       -4    1    3    3    0  502 -0.39750029114E+03  0.42030357580E+03 -0.17207345990E+04  0.18153762008E+04  0.12699999809E+01 0.  1.
</event>
<event>
 5   0  0.9251510E-06  0.2907250E+04  0.7818609E-02  0.8270724E-01
       -2   -1    0    0    0  501  0.00000000000E+00  0.00000000000E+00  0.18645196090E+04  0.18645196090E+04  0.25500000920E-02 0. -1.
        2   -1    0    0  501    0  0.00000000000E+00  0.00000000000E+00 -0.11332811932E+04  0.11332811932E+04  0.25500000920E-02 0.  1.
    10030    2    1    2    0    0  0.00000000000E+00  0.00000000000E+00  0.73123841576E+03  0.29978008022E+04  0.29072495643E+04 0.  0.
        2    1    3    3  502    0  0.61419006405E+03  0.63580830113E+03 -0.82424696155E+03  0.12086623533E+04  0.25500000920E-02 0.  1.
       -2    1    3    3    0  502 -0.61419006405E+03 -0.63580830113E+03  0.15554853773E+04  0.17891384490E+04  0.25500000920E-02 0. -1.
</event>
<event>
 5   0  0.9251510E-06  0.2892490E+04  0.7818609E-02  0.8275115E-01
       -2   -1    0    0    0  501  0.00000000000E+00  0.00000000000E+00  0.13357969932E+04  0.13357969932E+04  0.25500000920E-02 0.  1.
        2   -1    0    0  501    0  0.00000000000E+00  0.00000000000E+00 -0.15658255667E+04  0.15658255667E+04  0.25500000920E-02 0. -1.
    10030    2    1    2    0    0  0.00000000000E+00  0.00000000000E+00 -0.23002857352E+03  0.29016225599E+04  0.28924903345E+04 0.  0.
        2    1    3    3  502    0 -0.25097138166E+03 -0.89933934823E+02  0.13109342107E+04  0.13377680112E+04  0.25500000920E-02 0.  1.
       -2    1    3    3    0  502  0.25097138166E+03  0.89933934823E+02 -0.15409627842E+04  0.15638545487E+04  0.25500000920E-02 0. -1.
</event>
<event>
 5   0  0.1001573E-05  0.2878157E+04  0.7818609E-02  0.8279406E-01
        2   -1    0    0  501    0  0.00000000000E+00  0.00000000000E+00  0.17524564527E+04  0.17524564527E+04  0.25500000920E-02 0. -1.
       -2   -1    0    0    0  501  0.00000000000E+00  0.00000000000E+00 -0.11817396981E+04  0.11817396981E+04  0.25500000920E-02 0.  1.
    10030    2    1    2    0    0  0.00000000000E+00  0.00000000000E+00  0.57071675455E+03  0.29341961508E+04  0.28781572989E+04 0.  0.
        1    1    3    3  502    0  0.11973747736E+04  0.40720258200E+03  0.98533232268E+03  0.16032467300E+04  0.50400001928E-02 0. -1.
       -1    1    3    3    0  502 -0.11973747736E+04 -0.40720258200E+03 -0.41461556812E+03  0.13309494207E+04  0.50400001928E-02 0.  1.
</event>
<event>
 5   0  0.9360689E-06  0.2867005E+04  0.7818609E-02  0.8282763E-01
        2   -1    0    0  501    0  0.00000000000E+00  0.00000000000E+00  0.19119921033E+04  0.19119921033E+04  0.25500000920E-02 0. -1.
       -2   -1    0    0    0  501  0.00000000000E+00  0.00000000000E+00 -0.10747586837E+04  0.10747586837E+04  0.25500000920E-02 0.  1.
    10030    2    1    2    0    0  0.00000000000E+00  0.00000000000E+00  0.83723341965E+03  0.29867507870E+04  0.28670054874E+04 0.  0.
        5    1    3    3  502    0  0.11907834542E+04 -0.61625109637E+03  0.94692429283E+03  0.16414683533E+04  0.46999998093E+01 0. -1.
       -5    1    3    3    0  502 -0.11907834542E+04  0.61625109637E+03 -0.10969087318E+03  0.13452824337E+04  0.46999998093E+01 0.  1.
</event>
<event>
 5   0  0.3649705E-06  0.2806159E+04  0.7818609E-02  0.8301359E-01
       -1   -1    0    0    0  501  0.00000000000E+00  0.00000000000E+00  0.12818024462E+04  0.12818024462E+04  0.50400001928E-02 0. -1.
        1   -1    0    0  501    0  0.00000000000E+00  0.00000000000E+00 -0.15358315900E+04  0.15358315900E+04  0.50400001928E-02 0.  1.
    10030    2    1    2    0    0  0.00000000000E+00  0.00000000000E+00 -0.25402914382E+03  0.28176340362E+04  0.28061594317E+04 0.  0.
        2    1    3    3  502    0  0.13512277473E+04  0.44520459283E+02  0.24979879232E+03  0.13748446942E+04  0.25500000920E-02 0. -1.
       -2    1    3    3    0  502 -0.13512277473E+04 -0.44520459283E+02 -0.50382793614E+03  0.14427893421E+04  0.25500000920E-02 0.  1.
</event>
<event>
 5   0  0.3474078E-06  0.2843585E+04  0.7818609E-02  0.8289863E-01
        1   -1    0    0  501    0  0.00000000000E+00  0.00000000000E+00  0.27872672722E+04  0.27872672722E+04  0.50400001928E-02 0.  1.
       -1   -1    0    0    0  501  0.00000000000E+00  0.00000000000E+00 -0.72526021062E+03  0.72526021064E+03  0.50400001928E-02 0. -1.
    10030    2    1    2    0    0  0.00000000000E+00  0.00000000000E+00  0.20620070615E+04  0.35125274828E+04  0.28435850956E+04 0.  0.
        3    1    3    3  502    0 -0.95586448216E+03  0.68814657330E+03  0.47239194188E+02  0.11787511045E+04  0.10100000352E+00 0. -1.
       -3    1    3    3    0  502  0.95586448216E+03 -0.68814657330E+03  0.20147678674E+04  0.23337763784E+04  0.10100000352E+00 0.  1.
</event>
<event>
 5   0  0.3564340E-06  0.2890323E+04  0.7818609E-02  0.8275763E-01
        1   -1    0    0  501    0  0.00000000000E+00  0.00000000000E+00  0.11892246042E+04  0.11892246042E+04  0.50400001928E-02 0.  1.
       -1   -1    0    0    0  501  0.00000000000E+00  0.00000000000E+00 -0.17561789834E+04  0.17561789835E+04  0.50400001928E-02 0. -1.
    10030    2    1    2    0    0  0.00000000000E+00  0.00000000000E+00 -0.56695437922E+03  0.29454035877E+04  0.28903226509E+04 0.  0.
        1    1    3    3  502    0  0.32305207834E+03 -0.91364951684E+03 -0.13759962259E+04  0.16829984250E+04  0.50400001928E-02 0. -1.
       -1    1    3    3    0  502 -0.32305207834E+03  0.91364951684E+03  0.80904184669E+03  0.12624051626E+04  0.50400001928E-02 0.  1.
</event>
<event>
 5   0  0.3649705E-06  0.2921999E+04  0.7818609E-02  0.8266362E-01
        1   -1    0    0  501    0  0.00000000000E+00  0.00000000000E+00  0.21935607297E+04  0.21935607297E+04  0.50400001928E-02 0.  1.
       -1   -1    0    0    0  501  0.00000000000E+00  0.00000000000E+00 -0.97308429892E+03  0.97308429894E+03  0.50400001928E-02 0. -1.
    10030    2    1    2    0    0  0.00000000000E+00  0.00000000000E+00  0.12204764308E+04  0.31666450287E+04  0.29219989766E+04 0.  0.
        2    1    3    3  502    0  0.20563021892E+03 -0.19309653108E+03  0.21637691115E+04  0.21820785562E+04  0.25500000920E-02 0.  1.
       -2    1    3    3    0  502 -0.20563021892E+03  0.19309653108E+03 -0.94329268073E+03  0.98456647250E+03  0.25500000920E-02 0. -1.
</event>
<event>
 5   0  0.9646321E-06  0.2891453E+04  0.7818609E-02  0.8275425E-01
        2   -1    0    0  501    0  0.00000000000E+00  0.00000000000E+00  0.10441885680E+04  0.10441885681E+04  0.25500000920E-02 0. -1.
       -2   -1    0    0    0  501  0.00000000000E+00  0.00000000000E+00 -0.20016743715E+04  0.20016743715E+04  0.25500000920E-02 0.  1.
    10030    2    1    2    0    0  0.00000000000E+00  0.00000000000E+00 -0.95748580348E+03  0.30458629396E+04  0.28914532649E+04 0.  0.
        3    1    3    3  502    0  0.61476773060E+03 -0.12780250393E+04 -0.77451848152E+03  0.16159103478E+04  0.10100000352E+00 0.  1.
       -3    1    3    3    0  502 -0.61476773060E+03  0.12780250393E+04 -0.18296732196E+03  0.14299525918E+04  0.10100000352E+00 0. -1.
</event>
<event>
 5   0  0.3649705E-06  0.2906106E+04  0.7818609E-02  0.8271063E-01
        1   -1    0    0  501    0  0.00000000000E+00  0.00000000000E+00  0.13586185504E+04  0.13586185504E+04  0.50400001928E-02 0. -1.
       -1   -1    0    0    0  501  0.00000000000E+00  0.00000000000E+00 -0.15540512935E+04  0.15540512935E+04  0.50400001928E-02 0.  1.
    10030    2    1    2    0    0  0.00000000000E+00  0.00000000000E+00 -0.19543274311E+03  0.29126698439E+04  0.29061059276E+04 0.  0.
        2    1    3    3  502    0 -0.41095232591E+03  0.13630233090E+04 -0.38931777382E+03  0.14759006349E+04  0.25500000920E-02 0.  1.
       -2    1    3    3    0  502  0.41095232591E+03 -0.13630233090E+04  0.19388503071E+03  0.14367692091E+04  0.25500000920E-02 0. -1.
</event>
<event>
 5   0  0.9360689E-06  0.2909202E+04  0.7818609E-02  0.8270145E-01
        2   -1    0    0  501    0  0.00000000000E+00  0.00000000000E+00  0.16718528683E+04  0.16718528683E+04  0.25500000920E-02 0.  1.
       -2   -1    0    0    0  501  0.00000000000E+00  0.00000000000E+00 -0.12655801991E+04  0.12655801991E+04  0.25500000920E-02 0. -1.
    10030    2    1    2    0    0  0.00000000000E+00  0.00000000000E+00  0.40627266916E+03  0.29374330675E+04  0.29092018741E+04 0.  0.
        5    1    3    3  502    0 -0.18227838171E+03  0.10073182120E+04  0.12465698535E+04  0.16130325100E+04  0.46999998093E+01 0.  1.
       -5    1    3    3    0  502  0.18227838171E+03 -0.10073182120E+04 -0.84029718435E+03  0.13244005575E+04  0.46999998093E+01 0. -1.
</event>
<event>
 5   0  0.9505359E-06  0.2954874E+04  0.7818609E-02  0.8256736E-01
       -2   -1    0    0    0  501  0.00000000000E+00  0.00000000000E+00  0.14430879897E+04  0.14430879897E+04  0.25500000920E-02 0.  1.
        2   -1    0    0  501    0  0.00000000000E+00  0.00000000000E+00 -0.15126032483E+04  0.15126032483E+04  0.25500000920E-02 0. -1.
    10030    2    1    2    0    0  0.00000000000E+00  0.00000000000E+00 -0.69515258617E+02  0.29556912379E+04  0.29548736560E+04 0.  0.
        4    1    3    3  502    0  0.77050212363E+03  0.11516119171E+04  0.47815557987E+03  0.14657823514E+04  0.12699999809E+01 0.  1.
       -4    1    3    3    0  502 -0.77050212363E+03 -0.11516119171E+04 -0.54767083849E+03  0.14899088866E+04  0.12699999809E+01 0. -1.
</event>
<event>
 5   0  0.3486236E-06  0.2900096E+04  0.7818609E-02  0.8272849E-01
        1   -1    0    0  501    0  0.00000000000E+00  0.00000000000E+00  0.13393884511E+04  0.13393884511E+04  0.50400001928E-02 0. -1.
       -1   -1    0    0    0  501  0.00000000000E+00  0.00000000000E+00 -0.15698504962E+04  0.15698504963E+04  0.50400001928E-02 0.  1.
    10030    2    1    2    0    0  0.00000000000E+00  0.00000000000E+00 -0.23046204516E+03  0.29092389473E+04  0.29000962912E+04 0.  0.
        5    1    3    3  502    0 -0.14344193153E+04 -0.17022629037E+02 -0.32748490186E+03  0.14714336522E+04  0.46999998093E+01 0.  1.
       -5    1    3    3    0  502  0.14344193153E+04  0.17022629037E+02  0.97022856701E+02  0.14378052951E+04  0.46999998093E+01 0. -1.
</event>
<event>
 5   0  0.3474078E-06  0.2873635E+04  0.7818609E-02  0.8280765E-01
        1   -1    0    0  501    0  0.00000000000E+00  0.00000000000E+00  0.12541272041E+04  0.12541272041E+04  0.50400001928E-02 0.  1.
       -1   -1    0    0    0  501  0.00000000000E+00  0.00000000000E+00 -0.16461209718E+04  0.16461209718E+04  0.50400001928E-02 0. -1.
    10030    2    1    2    0    0  0.00000000000E+00  0.00000000000E+00 -0.39199376765E+03  0.29002481759E+04  0.28736353923E+04 0.  0.
        3    1    3    3  502    0 -0.43199549993E+03 -0.56430367851E+03  0.10643217564E+04  0.12797810613E+04  0.10100000352E+00 0.  1.
       -3    1    3    3    0  502  0.43199549993E+03  0.56430367851E+03 -0.14563155241E+04  0.16204671146E+04  0.10100000352E+00 0. -1.
</event>
<event>
 5   0  0.3564340E-06  0.2858912E+04  0.7818609E-02  0.8285208E-01
        1   -1    0    0  501    0  0.00000000000E+00  0.00000000000E+00  0.25481548288E+04  0.25481548288E+04  0.50400001928E-02 0.  1.
       -1   -1    0    0    0  501  0.00000000000E+00  0.00000000000E+00 -0.80189197786E+03  0.80189197788E+03  0.50400001928E-02 0. -1.
    10030    2    1    2    0    0  0.00000000000E+00  0.00000000000E+00  0.17462628509E+04  0.33500468067E+04  0.28589123216E+04 0.  0.
        1    1    3    3  502    0 -0.39470490920E+02  0.84464687032E+03  0.22236722428E+04  0.23790133456E+04  0.50400001928E-02 0.  1.
       -1    1    3    3    0  502  0.39470490920E+02 -0.84464687032E+03 -0.47740939182E+03  0.97103346112E+03  0.50400001928E-02 0. -1.
</event>
<event>
 5   0  0.3486236E-06  0.2837709E+04  0.7818609E-02  0.8291656E-01
        1   -1    0    0  501    0  0.00000000000E+00  0.00000000000E+00  0.11797570687E+04  0.11797570687E+04  0.50400001928E-02 0. -1.
       -1   -1    0    0    0  501  0.00000000000E+00  0.00000000000E+00 -0.17064094642E+04  0.17064094642E+04  0.50400001928E-02 0.  1.
    10030    2    1    2    0    0  0.00000000000E+00  0.00000000000E+00 -0.52665239550E+03  0.28861665329E+04  0.28377093772E+04 0.  0.
        5    1    3    3  502    0  0.68150347946E+03 -0.59979313872E+03  0.84567291928E+03  0.12407189763E+04  0.46999998093E+01 0. -1.
       -5    1    3    3    0  502 -0.68150347946E+03  0.59979313872E+03 -0.13723253148E+04  0.16454475566E+04  0.46999998093E+01 0.  1.
</event>
<event>
 5   0  0.9251510E-06  0.2895477E+04  0.7818609E-02  0.8274224E-01
       -2   -1    0    0    0  501  0.00000000000E+00  0.00000000000E+00  0.16074763165E+04  0.16074763166E+04  0.25500000920E-02 0.  1.
        2   -1    0    0  501    0  0.00000000000E+00  0.00000000000E+00 -0.13038742996E+04  0.13038742996E+04  0.25500000920E-02 0. -1.
    10030    2    1    2    0    0  0.00000000000E+00  0.00000000000E+00  0.30360201695E+03  0.29113506162E+04  0.28954772017E+04 0.  0.
        2    1    3    3  502    0  0.34611364737E+02 -0.24616417961E+03 -0.12822549390E+04  0.13061288139E+04  0.25500000920E-02 0. -1.
       -2    1    3    3    0  502 -0.34611364737E+02  0.24616417961E+03  0.15858569559E+04  0.16052218023E+04  0.25500000920E-02 0.  1.
</event>
<event>
 5   0  0.3649705E-06  0.2859501E+04  0.7818609E-02  0.8285030E-01
       -1   -1    0    0    0  501  0.00000000000E+00  0.00000000000E+00  0.93646930088E+03  0.93646930090E+03  0.50400001928E-02 0. -1.
        1   -1    0    0  501    0  0.00000000000E+00  0.00000000000E+00 -0.21828648674E+04  0.21828648674E+04  0.50400001928E-02 0.  1.
    10030    2    1    2    0    0  0.00000000000E+00  0.00000000000E+00 -0.12463955665E+04  0.31193341683E+04  0.28595006111E+04 0.  0.
        2    1    3    3  502    0 -0.94650700733E+03 -0.10077906561E+04 -0.22586401262E+03  0.14009040202E+04  0.25500000920E-02 0. -1.
       -2    1    3    3    0  502  0.94650700733E+03  0.10077906561E+04 -0.10205315539E+04  0.17184301481E+04  0.25500000920E-02 0.  1.
</event>
<event>
 5   0  0.9360689E-06  0.2855227E+04  0.7818609E-02  0.8286325E-01
        2   -1    0    0  501    0  0.00000000000E+00  0.00000000000E+00  0.21254289747E+04  0.21254289747E+04  0.25500000920E-02 0.  1.
       -2   -1    0    0    0  501  0.00000000000E+00  0.00000000000E+00 -0.95890307619E+03  0.95890307619E+03  0.25500000920E-02 0. -1.
    10030    2    1    2    0    0  0.00000000000E+00  0.00000000000E+00  0.11665258985E+04  0.30843320509E+04  0.28552270537E+04 0.  0.
        5    1    3    3  502    0 -0.13306977436E+04  0.17264263372E+03  0.56822893019E+02  0.13430610168E+04  0.46999998093E+01 0. -1.
       -5    1    3    3    0  502  0.13306977436E+04 -0.17264263372E+03  0.11097030055E+04  0.17412710341E+04  0.46999998093E+01 0.  1.
</event>
<event>
 5   0  0.3564340E-06  0.2996489E+04  0.7818609E-02  0.8244734E-01
        1   -1    0    0  501    0  0.00000000000E+00  0.00000000000E+00  0.14637670974E+04  0.14637670974E+04  0.50400001928E-02 0.  1.
       -1   -1    0    0    0  501  0.00000000000E+00  0.00000000000E+00 -0.15335336189E+04  0.15335336189E+04  0.50400001928E-02 0. -1.
    10030    2    1    2    0    0  0.00000000000E+00  0.00000000000E+00 -0.69766521532E+02  0.29973007163E+04  0.29964886478E+04 0.  0.
        1    1    3    3  502    0 -0.11590867495E+04  0.73162015765E+03 -0.64001490123E+03  0.15127356748E+04  0.50400001928E-02 0. -1.
       -1    1    3    3    0  502  0.11590867495E+04 -0.73162015765E+03  0.57024837970E+03  0.14845650415E+04  0.50400001928E-02 0.  1.
</event>
<event>
 5   0  0.9646321E-06  0.2873775E+04  0.7818609E-02  0.8280723E-01
       -2   -1    0    0    0  501  0.00000000000E+00  0.00000000000E+00  0.15528772319E+04  0.15528772319E+04  0.25500000920E-02 0.  1.
        2   -1    0    0  501    0  0.00000000000E+00  0.00000000000E+00 -0.13295611555E+04  0.13295611555E+04  0.25500000920E-02 0. -1.
    10030    2    1    2    0    0  0.00000000000E+00  0.00000000000E+00  0.22331607640E+03  0.28824383874E+04  0.28737746932E+04 0.  0.
        3    1    3    3  502    0 -0.77208334510E+03 -0.11657605428E+03  0.13215044540E+04  0.15349516932E+04  0.10100000352E+00 0.  1.
       -3    1    3    3    0  502  0.77208334510E+03  0.11657605428E+03 -0.10981883776E+04  0.13474866942E+04  0.10100000352E+00 0. -1.
</event>
<event>
 5   0  0.9360689E-06  0.2958724E+04  0.7818609E-02  0.8255617E-01
        2   -1    0    0  501    0  0.00000000000E+00  0.00000000000E+00  0.21756270533E+04  0.21756270533E+04  0.25500000920E-02 0.  1.
       -2   -1    0    0    0  501  0.00000000000E+00  0.00000000000E+00 -0.10059226785E+04  0.10059226785E+04  0.25500000920E-02 0. -1.
    10030    2    1    2    0    0  0.00000000000E+00  0.00000000000E+00  0.11697043748E+04  0.31815497318E+04  0.29587244501E+04 0.  0.
        5    1    3    3  502    0  0.14731046917E+04 -0.13234139907E+03  0.55190439125E+03  0.15786615298E+04  0.46999998093E+01 0.  1.
       -5    1    3    3    0  502 -0.14731046917E+04  0.13234139907E+03  0.61779998354E+03  0.16028882020E+04  0.46999998093E+01 0. -1.
</event>
<event>
 5   0  0.9360689E-06  0.2838780E+04  0.7818609E-02  0.8291329E-01
       -2   -1    0    0    0  501  0.00000000000E+00  0.00000000000E+00  0.80313754610E+03  0.80313754610E+03  0.25500000920E-02 0.  1.
        2   -1    0    0  501    0  0.00000000000E+00  0.00000000000E+00 -0.25084971084E+04  0.25084971084E+04  0.25500000920E-02 0. -1.
    10030    2    1    2    0    0  0.00000000000E+00  0.00000000000E+00 -0.17053595623E+04  0.33116346545E+04  0.28387801690E+04 0.  0.
        5    1    3    3  502    0 -0.35867744020E+03  0.67588168956E+03 -0.22472943753E+04  0.23739881347E+04  0.46999998093E+01 0. -1.
       -5    1    3    3    0  502  0.35867744020E+03 -0.67588168956E+03  0.54193481306E+03  0.93764651975E+03  0.46999998093E+01 0.  1.
</event>
<event>
 5   0  0.9646321E-06  0.2690550E+04  0.7818609E-02  0.8338078E-01
        2   -1    0    0  501    0  0.00000000000E+00  0.00000000000E+00  0.21043845077E+04  0.21043845077E+04  0.25500000920E-02 0. -1.
       -2   -1    0    0    0  501  0.00000000000E+00  0.00000000000E+00 -0.85999700522E+03  0.85999700522E+03  0.25500000920E-02 0.  1.
    10030    2    1    2    0    0  0.00000000000E+00  0.00000000000E+00  0.12443875025E+04  0.29643815130E+04  0.26905496647E+04 0.  0.
        3    1    3    3  502    0  0.21669016486E+02  0.13450968211E+04  0.61882298210E+03  0.14807757756E+04  0.10100000352E+00 0. -1.
       -3    1    3    3    0  502 -0.21669016486E+02 -0.13450968211E+04  0.62556452041E+03  0.14836057373E+04  0.10100000352E+00 0.  1.
</event>
<event>
 5   0  0.3564340E-06  0.2387272E+04  0.7818609E-02  0.8444284E-01
       -1   -1    0    0    0  501  0.00000000000E+00  0.00000000000E+00  0.14617867889E+04  0.14617867889E+04  0.50400001928E-02 0.  1.
        1   -1    0    0  501    0  0.00000000000E+00  0.00000000000E+00 -0.97467529095E+03  0.97467529096E+03  0.50400001928E-02 0. -1.
    10030    2    1    2    0    0  0.00000000000E+00  0.00000000000E+00  0.48711149791E+03  0.24364620798E+04  0.23872724719E+04 0.  0.
        1    1    3    3  502    0 -0.24522442882E+03 -0.30113364283E+03 -0.90839529788E+03  0.98792636799E+03  0.50400001928E-02 0. -1.
       -1    1    3    3    0  502  0.24522442882E+03  0.30113364283E+03  0.13955067958E+04  0.14485357118E+04  0.50400001928E-02 0.  1.
</event>
<event>
 5   0  0.3746518E-06  0.2890556E+04  0.7818609E-02  0.8275693E-01
       -1   -1    0    0    0  501  0.00000000000E+00  0.00000000000E+00  0.14149266924E+04  0.14149266924E+04  0.50400001928E-02 0. -1.
        1   -1    0    0  501    0  0.00000000000E+00  0.00000000000E+00 -0.14762808701E+04  0.14762808701E+04  0.50400001928E-02 0.  1.
    10030    2    1    2    0    0  0.00000000000E+00  0.00000000000E+00 -0.61354177723E+02  0.28912075625E+04  0.28905564922E+04 0.  0.
        4    1    3    3  502    0  0.10886615198E+04  0.80470255017E+02 -0.97808008220E+03  0.14657085750E+04  0.12699999809E+01 0.  1.
       -4    1    3    3    0  502 -0.10886615198E+04 -0.80470255017E+02  0.91672590447E+03  0.14254989875E+04  0.12699999809E+01 0. -1.
</event>
<event>
 5   0  0.3486236E-06  0.2945342E+04  0.7818609E-02  0.8259513E-01
       -1   -1    0    0    0  501  0.00000000000E+00  0.00000000000E+00  0.11768177833E+04  0.11768177833E+04  0.50400001928E-02 0.  1.
        1   -1    0    0  501    0  0.00000000000E+00  0.00000000000E+00 -0.18429018958E+04  0.18429018958E+04  0.50400001928E-02 0. -1.
    10030    2    1    2    0    0  0.00000000000E+00  0.00000000000E+00 -0.66608411254E+03  0.30197196791E+04  0.29453418979E+04 0.  0.
        5    1    3    3  502    0  0.20969786271E+03 -0.25055708353E+02 -0.18272881881E+04  0.18394578534E+04  0.46999998093E+01 0. -1.
       -5    1    3    3    0  502 -0.20969786271E+03  0.25055708353E+02  0.11612040756E+04  0.11802618257E+04  0.46999998093E+01 0.  1.
</event>
<event>
 5   0  0.9251510E-06  0.2791673E+04  0.7818609E-02  0.8305858E-01
       -2   -1    0    0    0  501  0.00000000000E+00  0.00000000000E+00  0.87604812442E+03  0.87604812442E+03  0.25500000920E-02 0. -1.
        2   -1    0    0  501    0  0.00000000000E+00  0.00000000000E+00 -0.22240331415E+04  0.22240331415E+04  0.25500000920E-02 0.  1.
    10030    2    1    2    0    0  0.00000000000E+00  0.00000000000E+00 -0.13479850171E+04  0.31000812660E+04  0.27916733780E+04 0.  0.
        2    1    3    3  502    0 -0.45084497279E+03 -0.32109751899E+03 -0.20969581787E+04  0.21687780914E+04  0.25500000920E-02 0.  1.
       -2    1    3    3    0  502  0.45084497279E+03  0.32109751899E+03  0.74897316162E+03  0.93130317460E+03  0.25500000920E-02 0. -1.
</event>
<event>
 5   0  0.3474078E-06  0.2891618E+04  0.7818609E-02  0.8275376E-01
       -1   -1    0    0    0  501  0.00000000000E+00  0.00000000000E+00  0.15580417633E+04  0.15580417633E+04  0.50400001928E-02 0.  1.
        1   -1    0    0  501    0  0.00000000000E+00  0.00000000000E+00 -0.13416610203E+04  0.13416610203E+04  0.50400001928E-02 0. -1.
    10030    2    1    2    0    0  0.00000000000E+00  0.00000000000E+00  0.21638074304E+03  0.28997027836E+04  0.28916181642E+04 0.  0.
        3    1    3    3  502    0  0.84279193616E+03  0.32487774142E+03 -0.10239124826E+04  0.13653719555E+04  0.10100000352E+00 0. -1.
       -3    1    3    3    0  502 -0.84279193616E+03 -0.32487774142E+03  0.12402932256E+04  0.15343308282E+04  0.10100000352E+00 0.  1.
</event>
<event>
 5   0  0.3746518E-06  0.2811711E+04  0.7818609E-02  0.8299642E-01
       -1   -1    0    0    0  501  0.00000000000E+00  0.00000000000E+00  0.11528550539E+04  0.11528550539E+04  0.50400001928E-02 0.  1.
        1   -1    0    0  501    0  0.00000000000E+00  0.00000000000E+00 -0.17143787408E+04  0.17143787408E+04  0.50400001928E-02 0. -1.
    10030    2    1    2    0    0  0.00000000000E+00  0.00000000000E+00 -0.56152368686E+03  0.28672337947E+04  0.28117113619E+04 0.  0.
        4    1    3    3  502    0 -0.48924820622E+03 -0.13173755383E+04 -0.32137884287E+03  0.14415713960E+04  0.12699999809E+01 0.  1.
       -4    1    3    3    0  502  0.48924820622E+03  0.13173755383E+04 -0.24014484400E+03  0.14256623987E+04  0.12699999809E+01 0. -1.
</event>
<event>
 5   0  0.9505359E-06  0.2878438E+04  0.7818609E-02  0.8279322E-01
        2   -1    0    0  501    0  0.00000000000E+00  0.00000000000E+00  0.25080294018E+04  0.25080294018E+04  0.25500000920E-02 0.  1.
       -2   -1    0    0    0  501  0.00000000000E+00  0.00000000000E+00 -0.82588779302E+03  0.82588779303E+03  0.25500000920E-02 0. -1.
    10030    2    1    2    0    0  0.00000000000E+00  0.00000000000E+00  0.16821416088E+04  0.33339171948E+04  0.28784376787E+04 0.  0.
        4    1    3    3  502    0  0.14347388832E+04  0.75890503582E+02  0.74337819357E+03  0.16176673895E+04  0.12699999809E+01 0. -1.
       -4    1    3    3    0  502 -0.14347388832E+04 -0.75890503582E+02  0.93876341521E+03  0.17162498053E+04  0.12699999809E+01 0.  1.
</event>
<event>
 5   0  0.3746518E-06  0.2830458E+04  0.7818609E-02  0.8293874E-01
        1   -1    0    0  501    0  0.00000000000E+00  0.00000000000E+00  0.14891858230E+04  0.14891858230E+04  0.50400001928E-02 0. -1.
       -1   -1    0    0    0  501  0.00000000000E+00  0.00000000000E+00 -0.13449447783E+04  0.13449447784E+04  0.50400001928E-02 0.  1.
    10030    2    1    2    0    0  0.00000000000E+00  0.00000000000E+00  0.14424104468E+03  0.28341306014E+04  0.28304576992E+04 0.  0.
        4    1    3    3  502    0 -0.16152174766E+03 -0.13680290283E+04 -0.25276682707E+03  0.14005303920E+04  0.12699999809E+01 0.  1.
       -4    1    3    3    0  502  0.16152174766E+03  0.13680290283E+04  0.39700787174E+03  0.14336002094E+04  0.12699999809E+01 0. -1.
</event>
<event>
 5   0  0.3746518E-06  0.2501408E+04  0.7818609E-02  0.8402484E-01
        1   -1    0    0  501    0  0.00000000000E+00  0.00000000000E+00  0.19995305469E+04  0.19995305469E+04  0.50400001928E-02 0. -1.
       -1   -1    0    0    0  501  0.00000000000E+00  0.00000000000E+00 -0.78231392289E+03  0.78231392291E+03  0.50400001928E-02 0.  1.
    10030    2    1    2    0    0  0.00000000000E+00  0.00000000000E+00  0.12172166240E+04  0.27818444698E+04  0.25014080724E+04 0.  0.
        4    1    3    3  502    0  0.58218812310E+03 -0.92650066207E+03 -0.65034288416E+02  0.10961649324E+04  0.12699999809E+01 0. -1.
       -4    1    3    3    0  502 -0.58218812310E+03  0.92650066207E+03  0.12822509124E+04  0.16856795374E+04  0.12699999809E+01 0.  1.
</event>
<event>
 5   0  0.3564340E-06  0.2899030E+04  0.7818609E-02  0.8273166E-01
       -1   -1    0    0    0  501  0.00000000000E+00  0.00000000000E+00  0.83248021527E+03  0.83248021528E+03  0.50400001928E-02 0.  1.
        1   -1    0    0  501    0  0.00000000000E+00  0.00000000000E+00 -0.25238969270E+04  0.25238969270E+04  0.50400001928E-02 0. -1.
    10030    2    1    2    0    0  0.00000000000E+00  0.00000000000E+00 -0.16914167117E+04  0.33563771423E+04  0.28990303601E+04 0.  0.
        1    1    3    3  502    0 -0.83350914805E+03 -0.94887324214E+03 -0.22155128098E+02  0.12631661725E+04  0.50400001928E-02 0.  1.
       -1    1    3    3    0  502  0.83350914805E+03  0.94887324214E+03 -0.16692615836E+04  0.20932109698E+04  0.50400001928E-02 0. -1.
</event>
<event>
 5   0  0.1001573E-05  0.2872492E+04  0.7818609E-02  0.8281109E-01
        2   -1    0    0  501    0  0.00000000000E+00  0.00000000000E+00  0.13058095414E+04  0.13058095414E+04  0.25500000920E-02 0.  1.
       -2   -1    0    0    0  501  0.00000000000E+00  0.00000000000E+00 -0.15797119391E+04  0.15797119391E+04  0.25500000920E-02 0. -1.
    10030    2    1    2    0    0  0.00000000000E+00  0.00000000000E+00 -0.27390239777E+03  0.28855214805E+04  0.28724922438E+04 0.  0.
        1    1    3    3  502    0 -0.20525757150E+03 -0.87909997006E+03  0.98519022533E+03  0.13362436934E+04  0.50400001928E-02 0.  1.
       -1    1    3    3    0  502  0.20525757150E+03  0.87909997006E+03 -0.12590926231E+04  0.15492777871E+04  0.50400001928E-02 0. -1.
</event>
<event>
 5   0  0.3474078E-06  0.2907238E+04  0.7818609E-02  0.8270727E-01
       -1   -1    0    0    0  501  0.00000000000E+00  0.00000000000E+00  0.11017253970E+04  0.11017253970E+04  0.50400001928E-02 0. -1.
        1   -1    0    0  501    0  0.00000000000E+00  0.00000000000E+00 -0.19179088237E+04  0.19179088238E+04  0.50400001928E-02 0.  1.
    10030    2    1    2    0    0  0.00000000000E+00  0.00000000000E+00 -0.81618342674E+03  0.30196342208E+04  0.29072384562E+04 0.  0.
        3    1    3    3  502    0 -0.94213097413E+03 -0.10899044373E+04 -0.60924463581E+03  0.15641871663E+04  0.10100000352E+00 0.  1.
       -3    1    3    3    0  502  0.94213097413E+03  0.10899044373E+04 -0.20693879093E+03  0.14554470544E+04  0.10100000352E+00 0. -1.
</event>
<event>
 5   0  0.9251510E-06  0.2778821E+04  0.7818609E-02  0.8309874E-01
        2   -1    0    0  501    0  0.00000000000E+00  0.00000000000E+00  0.16689665447E+04  0.16689665447E+04  0.25500000920E-02 0.  1.
       -2   -1    0    0    0  501  0.00000000000E+00  0.00000000000E+00 -0.11566806430E+04  0.11566806431E+04  0.25500000920E-02 0. -1.
    10030    2    1    2    0    0  0.00000000000E+00  0.00000000000E+00  0.51228590167E+03  0.28256471878E+04  0.27788208263E+04 0.  0.
        2    1    3    3  502    0 -0.11516930513E+04 -0.47493127531E+03 -0.36945169795E+03  0.12994041549E+04  0.25500000920E-02 0. -1.
       -2    1    3    3    0  502  0.11516930513E+04  0.47493127531E+03  0.88173759963E+03  0.15262430328E+04  0.25500000920E-02 0.  1.
</event>
<event>
 5   0  0.9646321E-06  0.2866254E+04  0.7818609E-02  0.8282989E-01
        2   -1    0    0  501    0  0.00000000000E+00  0.00000000000E+00  0.16759953221E+04  0.16759953221E+04  0.25500000920E-02 0. -1.
       -2   -1    0    0    0  501  0.00000000000E+00  0.00000000000E+00 -0.12254526260E+04  0.12254526260E+04  0.25500000920E-02 0.  1.
    10030    2    1    2    0    0  0.00000000000E+00  0.00000000000E+00  0.45054269614E+03  0.29014479482E+04  0.28662539097E+04 0.  0.
        3    1    3    3  502    0  0.11331024385E+03 -0.96141411857E+03 -0.84444272362E+03  0.12846166130E+04  0.10100000352E+00 0.  1.
       -3    1    3    3    0  502 -0.11331024385E+03  0.96141411857E+03  0.12949854198E+04  0.16168313352E+04  0.10100000352E+00 0. -1.
</event>
<event>
 5   0  0.3188375E-06  0.2911192E+04  0.7818609E-02  0.8269555E-01
       -3   -1    0    0    0  501  0.00000000000E+00  0.00000000000E+00  0.61220992911E+03  0.61220993744E+03  0.10100000352E+00 0.  1.
        3   -1    0    0  501    0  0.00000000000E+00  0.00000000000E+00 -0.34608373315E+04  0.34608373329E+04  0.10100000352E+00 0. -1.
    10030    2    1    2    0    0  0.00000000000E+00  0.00000000000E+00 -0.28486274023E+04  0.40730472704E+04  0.29111915068E+04 0.  0.
        5    1    3    3  502    0  0.21833461210E+03 -0.13807085585E+04 -0.19921323971E+04  0.24336474075E+04  0.46999998093E+01 0. -1.
       -5    1    3    3    0  502 -0.21833461210E+03  0.13807085585E+04 -0.85649500520E+03  0.16393998628E+04  0.46999998093E+01 0.  1.
</event>
<event>
 5   0  0.3486236E-06  0.2909116E+04  0.7818609E-02  0.8270171E-01
        1   -1    0    0  501    0  0.00000000000E+00  0.00000000000E+00  0.11702634604E+04  0.11702634604E+04  0.50400001928E-02 0. -1.
       -1   -1    0    0    0  501  0.00000000000E+00  0.00000000000E+00 -0.18079162137E+04  0.18079162137E+04  0.50400001928E-02 0.  1.
    10030    2    1    2    0    0  0.00000000000E+00  0.00000000000E+00 -0.63765275327E+03  0.29781796741E+04  0.29091155250E+04 0.  0.
        5    1    3    3  502    0 -0.70368197263E+03  0.38772841090E+03  0.92248371526E+03  0.12233151410E+04  0.46999998093E+01 0. -1.
       -5    1    3    3    0  502  0.70368197263E+03 -0.38772841090E+03 -0.15601364685E+04  0.17548645331E+04  0.46999998093E+01 0.  1.
</event>
<event>
 5   0  0.9505359E-06  0.2900190E+04  0.7818609E-02  0.8272821E-01
       -2   -1    0    0    0  501  0.00000000000E+00  0.00000000000E+00  0.17623197235E+04  0.17623197235E+04  0.25500000920E-02 0.  1.
        2   -1    0    0  501    0  0.00000000000E+00  0.00000000000E+00 -0.11931862480E+04  0.11931862480E+04  0.25500000920E-02 0. -1.
    10030    2    1    2    0    0  0.00000000000E+00  0.00000000000E+00  0.56913347550E+03  0.29555059716E+04  0.29001901033E+04 0.  0.
        4    1    3    3  502    0  0.43047559459E+03 -0.82397404399E+03  0.14186864992E+04  0.16961472396E+04  0.12699999809E+01 0.  1.
       -4    1    3    3    0  502 -0.43047559459E+03  0.82397404399E+03 -0.84955302367E+03  0.12593587319E+04  0.12699999809E+01 0. -1.
</event>
<event>
 5   0  0.9505359E-06  0.2902025E+04  0.7818609E-02  0.8272275E-01
       -2   -1    0    0    0  501  0.00000000000E+00  0.00000000000E+00  0.10890393664E+04  0.10890393665E+04  0.25500000920E-02 0. -1.
        2   -1    0    0  501    0  0.00000000000E+00  0.00000000000E+00 -0.19332980351E+04  0.19332980351E+04  0.25500000920E-02 0.  1.
    10030    2    1    2    0    0  0.00000000000E+00  0.00000000000E+00 -0.84425866861E+03  0.30223374015E+04  0.29020252702E+04 0.  0.
        4    1    3    3  502    0 -0.58070771046E+03  0.29004738929E+03 -0.17736541773E+04  0.18887031759E+04  0.12699999809E+01 0.  1.
       -4    1    3    3    0  502  0.58070771046E+03 -0.29004738929E+03  0.92939550870E+03  0.11336342256E+04  0.12699999809E+01 0. -1.
</event>
<event>
 5   0  0.9251510E-06  0.2875765E+04  0.7818609E-02  0.8280125E-01
       -2   -1    0    0    0  501  0.00000000000E+00  0.00000000000E+00  0.89780384897E+03  0.89780384898E+03  0.25500000920E-02 0. -1.
        2   -1    0    0  501    0  0.00000000000E+00  0.00000000000E+00 -0.23028480978E+04  0.23028480978E+04  0.25500000920E-02 0.  1.
    10030    2    1    2    0    0  0.00000000000E+00  0.00000000000E+00 -0.14050442488E+04  0.32006519468E+04  0.28757648623E+04 0.  0.
        2    1    3    3  502    0 -0.11261882421E+04 -0.65988243016E+03 -0.31258353306E+02  0.13056499771E+04  0.25500000920E-02 0. -1.
       -2    1    3    3    0  502  0.11261882421E+04  0.65988243016E+03 -0.13737858955E+04  0.18950019696E+04  0.25500000920E-02 0.  1.
</event>
<event>
 5   0  0.3486236E-06  0.2894461E+04  0.7818609E-02  0.8274527E-01
        1   -1    0    0  501    0  0.00000000000E+00  0.00000000000E+00  0.17978975588E+04  0.17978975588E+04  0.50400001928E-02 0.  1.
       -1   -1    0    0    0  501  0.00000000000E+00  0.00000000000E+00 -0.11649585757E+04  0.11649585757E+04  0.50400001928E-02 0. -1.
    10030    2    1    2    0    0  0.00000000000E+00  0.00000000000E+00  0.63293898305E+03  0.29628561345E+04  0.28944610409E+04 0.  0.
        5    1    3    3  502    0  0.10710585265E+04 -0.61318917605E+02 -0.67783679678E+03  0.12690197753E+04  0.46999998093E+01 0. -1.
       -5    1    3    3    0  502 -0.10710585265E+04  0.61318917605E+02  0.13107757798E+04  0.16938363593E+04  0.46999998093E+01 0.  1.
</event>
<event>
 5   0  0.9646321E-06  0.2905850E+04  0.7818609E-02  0.8271139E-01
        2   -1    0    0  501    0  0.00000000000E+00  0.00000000000E+00  0.21056918931E+04  0.21056918931E+04  0.25500000920E-02 0.  1.
       -2   -1    0    0    0  501  0.00000000000E+00  0.00000000000E+00 -0.10025165460E+04  0.10025165460E+04  0.25500000920E-02 0. -1.
    10030    2    1    2    0    0  0.00000000000E+00  0.00000000000E+00  0.11031753471E+04  0.31082084391E+04  0.29058499366E+04 0.  0.
        3    1    3    3  502    0 -0.63507241734E+03  0.11798741660E+04  0.11524644897E+04  0.17673693538E+04  0.10100000352E+00 0.  1.
       -3    1    3    3    0  502  0.63507241734E+03 -0.11798741660E+04 -0.49289142528E+02  0.13408390852E+04  0.10100000352E+00 0. -1.
</event>
<event>
 5   0  0.3188375E-06  0.2905366E+04  0.7818609E-02  0.8271283E-01
       -3   -1    0    0    0  501  0.00000000000E+00  0.00000000000E+00  0.14138470247E+04  0.14138470283E+04  0.10100000352E+00 0.  1.
        3   -1    0    0  501    0  0.00000000000E+00  0.00000000000E+00 -0.14925856709E+04  0.14925856743E+04  0.10100000352E+00 0. -1.
    10030    2    1    2    0    0  0.00000000000E+00  0.00000000000E+00 -0.78738646230E+02  0.29064327026E+04  0.29053659460E+04 0.  0.
        4    1    3    3  502    0  0.75724020963E+03  0.67945753072E+03 -0.10766738331E+04  0.14813181383E+04  0.12699999809E+01 0. -1.
       -4    1    3    3    0  502 -0.75724020963E+03 -0.67945753072E+03  0.99793518688E+03  0.14251145642E+04  0.12699999809E+01 0.  1.
</event>
<event>
 5   0  0.3474078E-06  0.2774285E+04  0.7818609E-02  0.8311297E-01
        1   -1    0    0  501    0  0.00000000000E+00  0.00000000000E+00  0.16557695706E+04  0.16557695706E+04  0.50400001928E-02 0. -1.
       -1   -1    0    0    0  501  0.00000000000E+00  0.00000000000E+00 -0.11620964477E+04  0.11620964477E+04  0.50400001928E-02 0.  1.
    10030    2    1    2    0    0  0.00000000000E+00  0.00000000000E+00  0.49367312293E+03  0.28178660183E+04  0.27742847267E+04 0.  0.
        3    1    3    3  502    0 -0.12430486232E+04  0.57854311287E+03  0.33098190031E+02  0.13714873362E+04  0.10100000352E+00 0.  1.
       -3    1    3    3    0  502  0.12430486232E+04 -0.57854311287E+03  0.46057493290E+03  0.14463786821E+04  0.10100000352E+00 0. -1.
</event>
<event>
 5   0  0.3188375E-06  0.2847346E+04  0.7818609E-02  0.8288718E-01
       -3   -1    0    0    0  501  0.00000000000E+00  0.00000000000E+00  0.26920223713E+04  0.26920223732E+04  0.10100000352E+00 0. -1.
        3   -1    0    0  501    0  0.00000000000E+00  0.00000000000E+00 -0.75290782588E+03  0.75290783266E+03  0.10100000352E+00 0.  1.
    10030    2    1    2    0    0  0.00000000000E+00  0.00000000000E+00  0.19391145455E+04  0.34449302059E+04  0.28473459402E+04 0.  0.
        1    1    3    3  502    0 -0.11878909480E+04  0.75398331966E+03  0.70651334222E+03  0.15744004743E+04  0.50400001928E-02 0.  1.
       -1    1    3    3    0  502  0.11878909480E+04 -0.75398331966E+03  0.12326012032E+04  0.18705297316E+04  0.50400001928E-02 0. -1.
</event>
<event>
 5   0  0.9505359E-06  0.2865551E+04  0.7818609E-02  0.8283201E-01
        2   -1    0    0  501    0  0.00000000000E+00  0.00000000000E+00  0.25754823646E+04  0.25754823646E+04  0.25500000920E-02 0. -1.
       -2   -1    0    0    0  501  0.00000000000E+00  0.00000000000E+00 -0.79707229719E+03  0.79707229719E+03  0.25500000920E-02 0.  1.
    10030    2    1    2    0    0  0.00000000000E+00  0.00000000000E+00  0.17784100674E+04  0.33725546618E+04  0.28655510079E+04 0.  0.
        4    1    3    3  502    0  0.41028246851E+03  0.11757038211E+04  0.55133281594E+02  0.12464559641E+04  0.12699999809E+01 0.  1.
       -4    1    3    3    0  502 -0.41028246851E+03 -0.11757038211E+04  0.17232767858E+04  0.21260986977E+04  0.12699999809E+01 0. -1.
</event>
<event>
 5   0  0.3746518E-06  0.2321916E+04  0.7818609E-02  0.8469330E-01
       -1   -1    0    0    0  501  0.00000000000E+00  0.00000000000E+00  0.10192693277E+04  0.10192693277E+04  0.50400001928E-02 0.  1.
        1   -1    0    0  501    0  0.00000000000E+00  0.00000000000E+00 -0.13223425456E+04  0.13223425456E+04  0.50400001928E-02 0. -1.
    10030    2    1    2    0    0  0.00000000000E+00  0.00000000000E+00 -0.30307321785E+03  0.23416118733E+04  0.23219157586E+04 0.  0.
        4    1    3    3  502    0  0.12670275346E+03  0.81057298093E+03  0.67685654387E+03  0.10635875794E+04  0.12699999809E+01 0.  1.
       -4    1    3    3    0  502 -0.12670275346E+03 -0.81057298093E+03 -0.97992976172E+03  0.12780242940E+04  0.12699999809E+01 0. -1.
</event>
<event>
 5   0  0.3474078E-06  0.2995102E+04  0.7818609E-02  0.8245131E-01
        1   -1    0    0  501    0  0.00000000000E+00  0.00000000000E+00  0.11977835958E+04  0.11977835958E+04  0.50400001928E-02 0.  1.
       -1   -1    0    0    0  501  0.00000000000E+00  0.00000000000E+00 -0.18723410050E+04  0.18723410050E+04  0.50400001928E-02 0. -1.
    10030    2    1    2    0    0  0.00000000000E+00  0.00000000000E+00 -0.67455740919E+03  0.30701246009E+04  0.29951022297E+04 0.  0.
        3    1    3    3  502    0  0.44858850939E+03 -0.74031705812E+03  0.91536155640E+03  0.12598364126E+04  0.10100000352E+00 0.  1.
       -3    1    3    3    0  502 -0.44858850939E+03  0.74031705812E+03 -0.15899189656E+04  0.18102881883E+04  0.10100000352E+00 0. -1.
</event>
<event>
 5   0  0.9251510E-06  0.2983306E+04  0.7818609E-02  0.8248514E-01
        2   -1    0    0  501    0  0.00000000000E+00  0.00000000000E+00  0.18926377557E+04  0.18926377557E+04  0.25500000920E-02 0.  1.
       -2   -1    0    0    0  501  0.00000000000E+00  0.00000000000E+00 -0.11756231137E+04  0.11756231137E+04  0.25500000920E-02 0. -1.
    10030    2    1    2    0    0  0.00000000000E+00  0.00000000000E+00  0.71701464198E+03  0.30682608695E+04  0.29833060128E+04 0.  0.
        2    1    3    3  502    0  0.36239256389E+02 -0.28924168299E+03 -0.11460436684E+04  0.11825354645E+04  0.25500000920E-02 0. -1.
       -2    1    3    3    0  502 -0.36239256389E+02  0.28924168299E+03  0.18630583104E+04  0.18857254049E+04  0.25500000920E-02 0.  1.
</event>
<event>
 5   0  0.3474078E-06  0.2912337E+04  0.7818609E-02  0.8269216E-01
       -1   -1    0    0    0  501  0.00000000000E+00  0.00000000000E+00  0.22189673714E+04  0.22189673714E+04  0.50400001928E-02 0. -1.
        1   -1    0    0  501    0  0.00000000000E+00  0.00000000000E+00 -0.95559162657E+03  0.95559162658E+03  0.50400001928E-02 0.  1.
    10030    2    1    2    0    0  0.00000000000E+00  0.00000000000E+00  0.12633757449E+04  0.31745589980E+04  0.29123369584E+04 0.  0.
        3    1    3    3  502    0  0.27056221888E+03  0.31876096364E+03  0.21521308626E+04  0.21923685197E+04  0.10100000352E+00 0. -1.
       -3    1    3    3    0  502 -0.27056221888E+03 -0.31876096364E+03 -0.88875511773E+03  0.98219047832E+03  0.10100000352E+00 0.  1.
</event>
<event>
 5   0  0.9505359E-06  0.2693290E+04  0.7818609E-02  0.8337185E-01
       -2   -1    0    0    0  501  0.00000000000E+00  0.00000000000E+00  0.81471618573E+03  0.81471618573E+03  0.25500000920E-02 0. -1.
        2   -1    0    0  501    0  0.00000000000E+00  0.00000000000E+00 -0.22258701023E+04  0.22258701023E+04  0.25500000920E-02 0.  1.
    10030    2    1    2    0    0  0.00000000000E+00  0.00000000000E+00 -0.14111539166E+04  0.30405862880E+04  0.26932897354E+04 0.  0.
        4    1    3    3  502    0 -0.79060685221E+03  0.63317338471E+03  0.29625496422E+03  0.10553370772E+04  0.12699999809E+01 0. -1.
       -4    1    3    3    0  502  0.79060685221E+03 -0.63317338471E+03 -0.17074088808E+04  0.19852492108E+04  0.12699999809E+01 0.  1.
</event>
<event>
 5   0  0.1001573E-05  0.2770944E+04  0.7818609E-02  0.8312346E-01
       -2   -1    0    0    0  501  0.00000000000E+00  0.00000000000E+00  0.10170708844E+04  0.10170708844E+04  0.25500000920E-02 0.  1.
        2   -1    0    0  501    0  0.00000000000E+00  0.00000000000E+00 -0.18873145139E+04  0.18873145139E+04  0.25500000920E-02 0. -1.
    10030    2    1    2    0    0  0.00000000000E+00  0.00000000000E+00 -0.87024362950E+03  0.29043853983E+04  0.27709439849E+04 0.  0.
        1    1    3    3  502    0 -0.13579851678E+04 -0.21226731697E+03 -0.25251513358E+03  0.13974780938E+04  0.50400001928E-02 0.  1.
       -1    1    3    3    0  502  0.13579851678E+04  0.21226731697E+03 -0.61772849591E+03  0.15069073046E+04  0.50400001928E-02 0. -1.
</event>
<event>
 5   0  0.1001573E-05  0.2877224E+04  0.7818609E-02  0.8279686E-01
       -2   -1    0    0    0  501  0.00000000000E+00  0.00000000000E+00  0.91760439566E+03  0.91760439567E+03  0.25500000920E-02 0.  1.
        2   -1    0    0  501    0  0.00000000000E+00  0.00000000000E+00 -0.22554437875E+04  0.22554437875E+04  0.25500000920E-02 0. -1.
    10030    2    1    2    0    0  0.00000000000E+00  0.00000000000E+00 -0.13378393918E+04  0.31730481831E+04  0.28772244498E+04 0.  0.
        1    1    3    3  502    0  0.10224035082E+04 -0.87805936866E+03 -0.11387580026E+03  0.13525031928E+04  0.50400001928E-02 0.  1.
       -1    1    3    3    0  502 -0.10224035082E+04  0.87805936866E+03 -0.12239635915E+04  0.18205449904E+04  0.50400001928E-02 0. -1.
</event>
<event>
 5   0  0.9646321E-06  0.2894193E+04  0.7818609E-02  0.8274607E-01
        2   -1    0    0  501    0  0.00000000000E+00  0.00000000000E+00  0.19524407568E+04  0.19524407568E+04  0.25500000920E-02 0. -1.
       -2   -1    0    0    0  501  0.00000000000E+00  0.00000000000E+00 -0.10725488626E+04  0.10725488626E+04  0.25500000920E-02 0.  1.
    10030    2    1    2    0    0  0.00000000000E+00  0.00000000000E+00  0.87989189418E+03  0.30249896193E+04  0.28941928843E+04 0.  0.
        3    1    3    3  502    0 -0.12918175689E+04  0.64835368747E+03  0.51335515507E+03  0.15338476654E+04  0.10100000352E+00 0.  1.
       -3    1    3    3    0  502  0.12918175689E+04 -0.64835368747E+03  0.36653673910E+03  0.14911419539E+04  0.10100000352E+00 0. -1.
</event>
<event>
 5   0  0.9360689E-06  0.2876124E+04  0.7818609E-02  0.8280017E-01
       -2   -1    0    0    0  501  0.00000000000E+00  0.00000000000E+00  0.11841878933E+04  0.11841878933E+04  0.25500000920E-02 0. -1.
        2   -1    0    0  501    0  0.00000000000E+00  0.00000000000E+00 -0.17463629171E+04  0.17463629171E+04  0.25500000920E-02 0.  1.
    10030    2    1    2    0    0  0.00000000000E+00  0.00000000000E+00 -0.56217502384E+03  0.29305508104E+04  0.28761236578E+04 0.  0.
        5    1    3    3  502    0 -0.13565953099E+04  0.21803745091E+03  0.15133559115E+03  0.13823225803E+04  0.46999998093E+01 0. -1.
       -5    1    3    3    0  502  0.13565953099E+04 -0.21803745091E+03 -0.71351061499E+03  0.15482282301E+04  0.46999998093E+01 0.  1.
</event>
<event>
 5   0  0.3474078E-06  0.2850408E+04  0.7818609E-02  0.8287787E-01
       -1   -1    0    0    0  501  0.00000000000E+00  0.00000000000E+00  0.83152201332E+03  0.83152201333E+03  0.50400001928E-02 0.  1.
        1   -1    0    0  501    0  0.00000000000E+00  0.00000000000E+00 -0.24427581196E+04  0.24427581196E+04  0.50400001928E-02 0. -1.
    10030    2    1    2    0    0  0.00000000000E+00  0.00000000000E+00 -0.16112361062E+04  0.32742801329E+04  0.28504084968E+04 0.  0.
        3    1    3    3  502    0 -0.60741691700E+03 -0.76897533657E+03 -0.19943639200E+04  0.22221084211E+04  0.10100000352E+00 0. -1.
       -3    1    3    3    0  502  0.60741691700E+03  0.76897533657E+03  0.38312781377E+03  0.10521717118E+04  0.10100000352E+00 0.  1.
</event>
<event>
 5   0  0.3746518E-06  0.2893135E+04  0.7818609E-02  0.8274923E-01
       -1   -1    0    0    0  501  0.00000000000E+00  0.00000000000E+00  0.17192504604E+04  0.17192504604E+04  0.50400001928E-02 0. -1.
        1   -1    0    0  501    0  0.00000000000E+00  0.00000000000E+00 -0.12171337115E+04  0.12171337115E+04  0.50400001928E-02 0.  1.
    10030    2    1    2    0    0  0.00000000000E+00  0.00000000000E+00  0.50211674884E+03  0.29363841719E+04  0.28931351119E+04 0.  0.
        4    1    3    3  502    0 -0.63084939925E+03 -0.64002628993E+03  0.14015607513E+04  0.16649260551E+04  0.12699999809E+01 0. -1.
       -4    1    3    3    0  502  0.63084939925E+03  0.64002628993E+03 -0.89944400249E+03  0.12714581168E+04  0.12699999809E+01 0.  1.
</event>
<event>
 5   0  0.9505359E-06  0.2915072E+04  0.7818609E-02  0.8268407E-01
       -2   -1    0    0    0  501  0.00000000000E+00  0.00000000000E+00  0.10778011107E+04  0.10778011107E+04  0.25500000920E-02 0.  1.
        2   -1    0    0  501    0  0.00000000000E+00  0.00000000000E+00 -0.19710611590E+04  0.19710611590E+04  0.25500000920E-02 0. -1.
    10030    2    1    2    0    0  0.00000000000E+00  0.00000000000E+00 -0.89326004831E+03  0.30488622698E+04  0.29150724907E+04 0.  0.
        4    1    3    3  502    0  0.41858258158E+03 -0.61420011655E+03 -0.17579503596E+04  0.19086236508E+04  0.12699999809E+01 0. -1.
       -4    1    3    3    0  502 -0.41858258158E+03  0.61420011655E+03  0.86469031130E+03  0.11402386189E+04  0.12699999809E+01 0.  1.
</event>
<event>
 5   0  0.3474078E-06  0.2904776E+04  0.7818609E-02  0.8271458E-01
       -1   -1    0    0    0  501  0.00000000000E+00  0.00000000000E+00  0.11099363048E+04  0.11099363048E+04  0.50400001928E-02 0.  1.
        1   -1    0    0  501    0  0.00000000000E+00  0.00000000000E+00 -0.19004972137E+04  0.19004972137E+04  0.50400001928E-02 0. -1.
    10030    2    1    2    0    0  0.00000000000E+00  0.00000000000E+00 -0.79056090892E+03  0.30104335185E+04  0.29047759670E+04 0.  0.
        3    1    3    3  502    0 -0.92114076817E+02 -0.10643283278E+04  0.62445603239E+03  0.12374268217E+04  0.10100000352E+00 0.  1.
       -3    1    3    3    0  502  0.92114076817E+02  0.10643283278E+04 -0.14150169413E+04  0.17730066968E+04  0.10100000352E+00 0. -1.
</event>
<event>
 5   0  0.3649705E-06  0.2808577E+04  0.7818609E-02  0.8300610E-01
       -1   -1    0    0    0  501  0.00000000000E+00  0.00000000000E+00  0.91950940601E+03  0.91950940602E+03  0.50400001928E-02 0.  1.
        1   -1    0    0  501    0  0.00000000000E+00  0.00000000000E+00 -0.21446510379E+04  0.21446510379E+04  0.50400001928E-02 0. -1.
    10030    2    1    2    0    0  0.00000000000E+00  0.00000000000E+00 -0.12251416319E+04  0.30641604439E+04  0.28085774349E+04 0.  0.
        2    1    3    3  502    0 -0.19274784276E+03 -0.11054698001E+04 -0.15336828930E+04  0.19003679712E+04  0.25500000920E-02 0. -1.
       -2    1    3    3    0  502  0.19274784276E+03  0.11054698001E+04  0.30854126109E+03  0.11637924727E+04  0.25500000920E-02 0.  1.
</event>
<event>
 5   0  0.3474078E-06  0.2897079E+04  0.7818609E-02  0.8273747E-01
        1   -1    0    0  501    0  0.00000000000E+00  0.00000000000E+00  0.21982022503E+04  0.21982022503E+04  0.50400001928E-02 0. -1.
       -1   -1    0    0    0  501  0.00000000000E+00  0.00000000000E+00 -0.95453742467E+03  0.95453742469E+03  0.50400001928E-02 0.  1.
    10030    2    1    2    0    0  0.00000000000E+00  0.00000000000E+00  0.12436648256E+04  0.31527396750E+04  0.28970787459E+04 0.  0.
        3    1    3    3  502    0  0.20594458388E+03 -0.50880713302E+03  0.20806400769E+04  0.21518273653E+04  0.10100000352E+00 0. -1.
       -3    1    3    3    0  502 -0.20594458388E+03  0.50880713302E+03 -0.83697525128E+03  0.10009123097E+04  0.10100000352E+00 0.  1.
</event>
<event>
 5   0  0.3474078E-06  0.2871793E+04  0.7818609E-02  0.8281320E-01
        1   -1    0    0  501    0  0.00000000000E+00  0.00000000000E+00  0.17928384525E+04  0.17928384525E+04  0.50400001928E-02 0. -1.
       -1   -1    0    0    0  501  0.00000000000E+00  0.00000000000E+00 -0.11500194407E+04  0.11500194407E+04  0.50400001928E-02 0.  1.
    10030    2    1    2    0    0  0.00000000000E+00  0.00000000000E+00  0.64281901179E+03  0.29428578932E+04  0.28717932199E+04 0.  0.
        3    1    3    3  502    0  0.13256401095E+03  0.14053849915E+04  0.59081996290E+03  0.15302772397E+04  0.10100000352E+00 0. -1.
       -3    1    3    3    0  502 -0.13256401095E+03 -0.14053849915E+04  0.51999048896E+02  0.14125806535E+04  0.10100000352E+00 0.  1.
</event>
<event>
 5   0  0.3486236E-06  0.2117099E+04  0.7818609E-02  0.8553748E-01
       -1   -1    0    0    0  501  0.00000000000E+00  0.00000000000E+00  0.77677091425E+03  0.77677091427E+03  0.50400001928E-02 0. -1.
        1   -1    0    0  501    0  0.00000000000E+00  0.00000000000E+00 -0.14425452094E+04  0.14425452094E+04  0.50400001928E-02 0.  1.
    10030    2    1    2    0    0  0.00000000000E+00  0.00000000000E+00 -0.66577429516E+03  0.22193161237E+04  0.21170991108E+04 0.  0.
        5    1    3    3  502    0 -0.39696248934E+03  0.18112853448E+03 -0.13438776482E+04  0.14129458543E+04  0.46999998093E+01 0.  1.
       -5    1    3    3    0  502  0.39696248934E+03 -0.18112853448E+03  0.67810335302E+03  0.80637026937E+03  0.46999998093E+01 0. -1.
</event>
<event>
 5   0  0.3649705E-06  0.2905365E+04  0.7818609E-02  0.8271283E-01
        1   -1    0    0  501    0  0.00000000000E+00  0.00000000000E+00  0.19977264061E+04  0.19977264061E+04  0.50400001928E-02 0. -1.
       -1   -1    0    0    0  501  0.00000000000E+00  0.00000000000E+00 -0.10563441527E+04  0.10563441527E+04  0.50400001928E-02 0.  1.
    10030    2    1    2    0    0  0.00000000000E+00  0.00000000000E+00  0.94138225345E+03  0.30540705588E+04  0.29053651115E+04 0.  0.
        2    1    3    3  502    0  0.83368343198E+03 -0.45069747709E+03 -0.68662767308E+03  0.11703050210E+04  0.25500000920E-02 0.  1.
       -2    1    3    3    0  502 -0.83368343198E+03  0.45069747709E+03  0.16280099265E+04  0.18837655378E+04  0.25500000920E-02 0. -1.
</event>
<event>
 5   0  0.3649705E-06  0.2928248E+04  0.7818609E-02  0.8264522E-01
       -1   -1    0    0    0  501  0.00000000000E+00  0.00000000000E+00  0.12578144609E+04  0.12578144609E+04  0.50400001928E-02 0.  1.
        1   -1    0    0  501    0  0.00000000000E+00  0.00000000000E+00 -0.17042726058E+04  0.17042726058E+04  0.50400001928E-02 0. -1.
    10030    2    1    2    0    0  0.00000000000E+00  0.00000000000E+00 -0.44645814493E+03  0.29620870667E+04  0.29282477551E+04 0.  0.
        2    1    3    3  502    0 -0.48301929367E+03 -0.59449306522E+03 -0.14854181479E+04  0.16712859470E+04  0.25500000920E-02 0. -1.
       -2    1    3    3    0  502  0.48301929367E+03  0.59449306522E+03  0.10389600030E+04  0.12908011196E+04  0.25500000920E-02 0.  1.
</event>
<event>
 5   0  0.9360689E-06  0.2830474E+04  0.7818609E-02  0.8293869E-01
        2   -1    0    0  501    0  0.00000000000E+00  0.00000000000E+00  0.14233846614E+04  0.14233846614E+04  0.25500000920E-02 0.  1.
       -2   -1    0    0    0  501  0.00000000000E+00  0.00000000000E+00 -0.14071362906E+04  0.14071362906E+04  0.25500000920E-02 0. -1.
    10030    2    1    2    0    0  0.00000000000E+00  0.00000000000E+00  0.16248370837E+02  0.28305209520E+04  0.28304743154E+04 0.  0.
        5    1    3    3  502    0 -0.10805351502E+04 -0.41886312021E+02  0.92113618832E+03  0.14205015457E+04  0.46999998093E+01 0.  1.
       -5    1    3    3    0  502  0.10805351502E+04  0.41886312021E+02 -0.90488781749E+03  0.14100194063E+04  0.46999998093E+01 0. -1.
</event>
<event>
 5   0  0.3474078E-06  0.2881928E+04  0.7818609E-02  0.8278275E-01
       -1   -1    0    0    0  501  0.00000000000E+00  0.00000000000E+00  0.19038960118E+04  0.19038960118E+04  0.50400001928E-02 0.  1.
        1   -1    0    0  501    0  0.00000000000E+00  0.00000000000E+00 -0.10905936838E+04  0.10905936839E+04  0.50400001928E-02 0. -1.
    10030    2    1    2    0    0  0.00000000000E+00  0.00000000000E+00  0.81330232793E+03  0.29944896956E+04  0.28819278028E+04 0.  0.
        3    1    3    3  502    0  0.76027685462E+02 -0.13538648438E+04 -0.99879391220E+02  0.13596713306E+04  0.10100000352E+00 0. -1.
       -3    1    3    3    0  502 -0.76027685462E+02  0.13538648438E+04  0.91318171915E+03  0.16348183650E+04  0.10100000352E+00 0.  1.
</event>
<event>
 5   0  0.9360689E-06  0.2876242E+04  0.7818609E-02  0.8279981E-01
       -2   -1    0    0    0  501  0.00000000000E+00  0.00000000000E+00  0.18214562491E+04  0.18214562491E+04  0.25500000920E-02 0.  1.
        2   -1    0    0  501    0  0.00000000000E+00  0.00000000000E+00 -0.11354608184E+04  0.11354608184E+04  0.25500000920E-02 0. -1.
    10030    2    1    2    0    0  0.00000000000E+00  0.00000000000E+00  0.68599543065E+03  0.29569170675E+04  0.28762421340E+04 0.  0.
        5    1    3    3  502    0 -0.68527784768E+02 -0.57872949582E+03  0.16946164390E+04  0.17920298133E+04  0.46999998093E+01 0.  1.
       -5    1    3    3    0  502  0.68527784768E+02  0.57872949582E+03 -0.10086210083E+04  0.11648872542E+04  0.46999998093E+01 0. -1.
</event>
<event>
 5   0  0.3474078E-06  0.2876054E+04  0.7818609E-02  0.8280038E-01
       -1   -1    0    0    0  501  0.00000000000E+00  0.00000000000E+00  0.12780165000E+04  0.12780165000E+04  0.50400001928E-02 0.  1.
        1   -1    0    0  501    0  0.00000000000E+00  0.00000000000E+00 -0.16180709591E+04  0.16180709591E+04  0.50400001928E-02 0. -1.
    10030    2    1    2    0    0  0.00000000000E+00  0.00000000000E+00 -0.34005445910E+03  0.28960874591E+04  0.28760538131E+04 0.  0.
        3    1    3    3  502    0 -0.59034380687E+03 -0.85854997876E+03 -0.11680452765E+04  0.15652295853E+04  0.10100000352E+00 0. -1.
       -3    1    3    3    0  502  0.59034380687E+03  0.85854997876E+03  0.82799081745E+03  0.13308578738E+04  0.10100000352E+00 0.  1.
</event>
<event>
 5   0  0.9505359E-06  0.2852039E+04  0.7818609E-02  0.8287292E-01
       -2   -1    0    0    0  501  0.00000000000E+00  0.00000000000E+00  0.75593649739E+03  0.75593649739E+03  0.25500000920E-02 0.  1.
        2   -1    0    0  501    0  0.00000000000E+00  0.00000000000E+00 -0.26900829413E+04  0.26900829413E+04  0.25500000920E-02 0. -1.
    10030    2    1    2    0    0  0.00000000000E+00  0.00000000000E+00 -0.19341464439E+04  0.34460194387E+04  0.28520391837E+04 0.  0.
        4    1    3    3  502    0  0.24797243420E+03  0.13143129283E+04 -0.15646717424E+04  0.20584236872E+04  0.12699999809E+01 0.  1.
       -4    1    3    3    0  502 -0.24797243420E+03 -0.13143129283E+04 -0.36947470153E+03  0.13875957515E+04  0.12699999809E+01 0. -1.
</event>
<event>
 5   0  0.3746518E-06  0.2894039E+04  0.7818609E-02  0.8274653E-01
        1   -1    0    0  501    0  0.00000000000E+00  0.00000000000E+00  0.17032152128E+04  0.17032152128E+04  0.50400001928E-02 0. -1.
       -1   -1    0    0    0  501  0.00000000000E+00  0.00000000000E+00 -0.12293607598E+04  0.12293607598E+04  0.50400001928E-02 0.  1.
    10030    2    1    2    0    0  0.00000000000E+00  0.00000000000E+00  0.47385445299E+03  0.29325759727E+04  0.28940393558E+04 0.  0.
        4    1    3    3  502    0  0.13013019119E+04 -0.96579587356E+02 -0.39682067715E+03  0.13638850924E+04  0.12699999809E+01 0.  1.
       -4    1    3    3    0  502 -0.13013019119E+04  0.96579587356E+02  0.87067513014E+03  0.15686908802E+04  0.12699999809E+01 0. -1.
</event>
<event>
 5   0  0.9505359E-06  0.2417257E+04  0.7818609E-02  0.8433071E-01
       -2   -1    0    0    0  501  0.00000000000E+00  0.00000000000E+00  0.13539022763E+04  0.13539022763E+04  0.25500000920E-02 0. -1.
        2   -1    0    0  501    0  0.00000000000E+00  0.00000000000E+00 -0.10789424615E+04  0.10789424615E+04  0.25500000920E-02 0.  1.
    10030    2    1    2    0    0  0.00000000000E+00  0.00000000000E+00  0.27495981483E+03  0.24328447378E+04  0.24172568375E+04 0.  0.
        4    1    3    3  502    0 -0.65054346672E+03  0.38098481745E+03  0.10882541625E+04  0.13238787590E+04  0.12699999809E+01 0. -1.
       -4    1    3    3    0  502  0.65054346672E+03 -0.38098481745E+03 -0.81329434771E+03  0.11089659788E+04  0.12699999809E+01 0.  1.
</event>
<event>
 5   0  0.9251510E-06  0.2885942E+04  0.7818609E-02  0.8277073E-01
       -2   -1    0    0    0  501  0.00000000000E+00  0.00000000000E+00  0.11956606157E+04  0.11956606157E+04  0.25500000920E-02 0.  1.
        2   -1    0    0  501    0  0.00000000000E+00  0.00000000000E+00 -0.17414347342E+04  0.17414347342E+04  0.25500000920E-02 0. -1.
    10030    2    1    2    0    0  0.00000000000E+00  0.00000000000E+00 -0.54577411856E+03  0.29370953499E+04  0.28859417364E+04 0.  0.
        2    1    3    3  502    0  0.21450929407E+03 -0.13517828489E+04 -0.73797052667E+03  0.15549699695E+04  0.25500000920E-02 0. -1.
       -2    1    3    3    0  502 -0.21450929407E+03  0.13517828489E+04  0.19219640810E+03  0.13821253804E+04  0.25500000920E-02 0.  1.
</event>
<event>
 5   0  0.3564340E-06  0.2439717E+04  0.7818609E-02  0.8424782E-01
        1   -1    0    0  501    0  0.00000000000E+00  0.00000000000E+00  0.85330303576E+03  0.85330303577E+03  0.50400001928E-02 0. -1.
       -1   -1    0    0    0  501  0.00000000000E+00  0.00000000000E+00 -0.17438759862E+04  0.17438759863E+04  0.50400001928E-02 0.  1.
    10030    2    1    2    0    0  0.00000000000E+00  0.00000000000E+00 -0.89057295049E+03  0.25971790220E+04  0.24397169287E+04 0.  0.
        1    1    3    3  502    0  0.44954195427E+03 -0.88244667949E+03  0.31289894283E+03  0.10386076541E+04  0.50400001928E-02 0. -1.
       -1    1    3    3    0  502 -0.44954195427E+03  0.88244667949E+03 -0.12034718933E+04  0.15585713679E+04  0.50400001928E-02 0.  1.
</event>
<event>
 5   0  0.3188375E-06  0.2897527E+04  0.7818609E-02  0.8273614E-01
       -3   -1    0    0    0  501  0.00000000000E+00  0.00000000000E+00  0.10436717776E+04  0.10436717825E+04  0.10100000352E+00 0. -1.
        3   -1    0    0  501    0  0.00000000000E+00  0.00000000000E+00 -0.20110873995E+04  0.20110874020E+04  0.10100000352E+00 0.  1.
    10030    2    1    2    0    0  0.00000000000E+00  0.00000000000E+00 -0.96741562188E+03  0.30547591846E+04  0.28975266505E+04 0.  0.
        1    1    3    3  502    0  0.35159843739E+03  0.14037523981E+04 -0.41087258919E+03  0.15043133121E+04  0.50400001928E-02 0.  1.
       -1    1    3    3    0  502 -0.35159843739E+03 -0.14037523981E+04 -0.55654303269E+03  0.15504458725E+04  0.50400001928E-02 0. -1.
</event>
<event>
 5   0  0.3564340E-06  0.2948103E+04  0.7818609E-02  0.8258708E-01
        1   -1    0    0  501    0  0.00000000000E+00  0.00000000000E+00  0.18732253898E+04  0.18732253898E+04  0.50400001928E-02 0.  1.
       -1   -1    0    0    0  501  0.00000000000E+00  0.00000000000E+00 -0.11599391111E+04  0.11599391111E+04  0.50400001928E-02 0. -1.
    10030    2    1    2    0    0  0.00000000000E+00  0.00000000000E+00  0.71328627871E+03  0.30331645010E+04  0.29481027076E+04 0.  0.
        1    1    3    3  502    0 -0.12933141554E+04  0.65237058653E+03  0.63761329811E+03  0.15826558706E+04  0.50400001928E-02 0.  1.
       -1    1    3    3    0  502  0.12933141554E+04 -0.65237058653E+03  0.75672980597E+02  0.14505086304E+04  0.50400001928E-02 0. -1.
</event>
<event>
 5   0  0.9360689E-06  0.2866902E+04  0.7818609E-02  0.8282794E-01
       -2   -1    0    0    0  501  0.00000000000E+00  0.00000000000E+00  0.30581817854E+04  0.30581817854E+04  0.25500000920E-02 0. -1.
        2   -1    0    0  501    0  0.00000000000E+00  0.00000000000E+00 -0.67189663782E+03  0.67189663783E+03  0.25500000920E-02 0.  1.
    10030    2    1    2    0    0  0.00000000000E+00  0.00000000000E+00  0.23862851475E+04  0.37300784232E+04  0.28669022023E+04 0.  0.
        5    1    3    3  502    0  0.76008617138E+03  0.86032592182E+03  0.23100058686E+04  0.25795427662E+04  0.46999998093E+01 0. -1.
       -5    1    3    3    0  502 -0.76008617138E+03 -0.86032592182E+03  0.76279278974E+02  0.11505356570E+04  0.46999998093E+01 0.  1.
</event>
<event>
 5   0  0.9646321E-06  0.2938427E+04  0.7818609E-02  0.8261535E-01
        2   -1    0    0  501    0  0.00000000000E+00  0.00000000000E+00  0.21937004816E+04  0.21937004816E+04  0.25500000920E-02 0.  1.
       -2   -1    0    0    0  501  0.00000000000E+00  0.00000000000E+00 -0.98399377664E+03  0.98399377664E+03  0.25500000920E-02 0. -1.
    10030    2    1    2    0    0  0.00000000000E+00  0.00000000000E+00  0.12097067050E+04  0.31776942583E+04  0.29384265325E+04 0.  0.
        3    1    3    3  502    0 -0.19592298387E+03 -0.35653774924E+03 -0.92186850925E+03  0.10076440546E+04  0.10100000352E+00 0. -1.
       -3    1    3    3    0  502  0.19592298387E+03  0.35653774924E+03  0.21315752143E+04  0.21700502037E+04  0.10100000352E+00 0.  1.
</event>
<event>
 5   0  0.9360689E-06  0.2670769E+04  0.7818609E-02  0.8344552E-01
       -2   -1    0    0    0  501  0.00000000000E+00  0.00000000000E+00  0.15329354050E+04  0.15329354050E+04  0.25500000920E-02 0. -1.
        2   -1    0    0  501    0  0.00000000000E+00  0.00000000000E+00 -0.11632922521E+04  0.11632922521E+04  0.25500000920E-02 0.  1.
    10030    2    1    2    0    0  0.00000000000E+00  0.00000000000E+00  0.36964315286E+03  0.26962276571E+04  0.26707690875E+04 0.  0.
        5    1    3    3  502    0  0.55834910862E+03 -0.11780416018E+04 -0.10723534448E+03  0.13080738710E+04  0.46999998093E+01 0.  1.
       -5    1    3    3    0  502 -0.55834910862E+03  0.11780416018E+04  0.47687849734E+03  0.13881537861E+04  0.46999998093E+01 0. -1.
</event>
<event>
 5   0  0.3649705E-06  0.2873205E+04  0.7818609E-02  0.8280895E-01
        1   -1    0    0  501    0  0.00000000000E+00  0.00000000000E+00  0.24611035640E+04  0.24611035640E+04  0.50400001928E-02 0.  1.
       -1   -1    0    0    0  501  0.00000000000E+00  0.00000000000E+00 -0.83857786067E+03  0.83857786069E+03  0.50400001928E-02 0. -1.
    10030    2    1    2    0    0  0.00000000000E+00  0.00000000000E+00  0.16225257034E+04  0.32996814247E+04  0.28732051522E+04 0.  0.
        2    1    3    3  502    0  0.37781388982E+03 -0.12343264992E+04  0.87184094155E+02  0.12937953116E+04  0.25500000920E-02 0. -1.
       -2    1    3    3    0  502 -0.37781388982E+03  0.12343264992E+04  0.15353416092E+04  0.20058861131E+04  0.25500000920E-02 0.  1.
</event>
<event>
 5   0  0.9505359E-06  0.3061063E+04  0.7818609E-02  0.8226506E-01
        2   -1    0    0  501    0  0.00000000000E+00  0.00000000000E+00  0.17689078577E+04  0.17689078577E+04  0.25500000920E-02 0.  1.
       -2   -1    0    0    0  501  0.00000000000E+00  0.00000000000E+00 -0.13242783174E+04  0.13242783174E+04  0.25500000920E-02 0. -1.
    10030    2    1    2    0    0  0.00000000000E+00  0.00000000000E+00  0.44462954035E+03  0.30931861751E+04  0.30610627706E+04 0.  0.
        4    1    3    3  502    0  0.46040130803E+03 -0.14588846200E+04  0.17479994564E+03  0.15397630769E+04  0.12699999809E+01 0.  1.
       -4    1    3    3    0  502 -0.46040130803E+03  0.14588846200E+04  0.26982959471E+03  0.15534230982E+04  0.12699999809E+01 0. -1.
</event>
<event>
 5   0  0.3564340E-06  0.3089080E+04  0.7818609E-02  0.8218741E-01
        1   -1    0    0  501    0  0.00000000000E+00  0.00000000000E+00  0.13729082249E+04  0.13729082249E+04  0.50400001928E-02 0. -1.
       -1   -1    0    0    0  501  0.00000000000E+00  0.00000000000E+00 -0.17376277211E+04  0.17376277211E+04  0.50400001928E-02 0.  1.
    10030    2    1    2    0    0  0.00000000000E+00  0.00000000000E+00 -0.36471949618E+03  0.31105359459E+04  0.30890797271E+04 0.  0.
        1    1    3    3  502    0  0.12932097447E+04  0.82900455427E+03 -0.20108946943E+02  0.15362435889E+04  0.50400001928E-02 0. -1.
       -1    1    3    3    0  502 -0.12932097447E+04 -0.82900455427E+03 -0.34461054923E+03  0.15742923570E+04  0.50400001928E-02 0.  1.
</event>
<event>
 5   0  0.9646321E-06  0.2748944E+04  0.7818609E-02  0.8319297E-01
        2   -1    0    0  501    0  0.00000000000E+00  0.00000000000E+00  0.19050666991E+04  0.19050666991E+04  0.25500000920E-02 0.  1.
       -2   -1    0    0    0  501  0.00000000000E+00  0.00000000000E+00 -0.99165726507E+03  0.99165726507E+03  0.25500000920E-02 0. -1.
    10030    2    1    2    0    0  0.00000000000E+00  0.00000000000E+00  0.91340943401E+03  0.28967239642E+04  0.27489439664E+04 0.  0.
        3    1    3    3  502    0  0.43118335190E+03  0.10959416830E+04  0.12034368892E+04  0.16838252914E+04  0.10100000352E+00 0.  1.
       -3    1    3    3    0  502 -0.43118335190E+03 -0.10959416830E+04 -0.29002745515E+03  0.12128986728E+04  0.10100000352E+00 0. -1.
</event>
<event>
 5   0  0.3564340E-06  0.2883355E+04  0.7818609E-02  0.8277847E-01
        1   -1    0    0  501    0  0.00000000000E+00  0.00000000000E+00  0.14208549995E+04  0.14208549995E+04  0.50400001928E-02 0.  1.
       -1   -1    0    0    0  501  0.00000000000E+00  0.00000000000E+00 -0.14628048457E+04  0.14628048457E+04  0.50400001928E-02 0. -1.
    10030    2    1    2    0    0  0.00000000000E+00  0.00000000000E+00 -0.41949846198E+02  0.28836598452E+04  0.28833546978E+04 0.  0.
        1    1    3    3  502    0 -0.14786863317E+03 -0.67908404006E+03 -0.12842053128E+04  0.14602066811E+04  0.50400001928E-02 0. -1.
       -1    1    3    3    0  502  0.14786863317E+03  0.67908404006E+03  0.12422554666E+04  0.14234531641E+04  0.50400001928E-02 0.  1.
</event>
<event>
 5   0  0.9360689E-06  0.2273941E+04  0.7818609E-02  0.8488267E-01
        2   -1    0    0  501    0  0.00000000000E+00  0.00000000000E+00  0.27214159137E+04  0.27214159137E+04  0.25500000920E-02 0. -1.
       -2   -1    0    0    0  501  0.00000000000E+00  0.00000000000E+00 -0.47501095964E+03  0.47501095965E+03  0.25500000920E-02 0.  1.
    10030    2    1    2    0    0  0.00000000000E+00  0.00000000000E+00  0.22464049540E+04  0.31964268733E+04  0.22739414106E+04 0.  0.
        5    1    3    3  502    0  0.37304254697E+03 -0.63155993881E+03 -0.97918664128E+02  0.74002625152E+03  0.46999998093E+01 0.  1.
       -5    1    3    3    0  502 -0.37304254697E+03  0.63155993881E+03  0.23443236182E+04  0.24564006218E+04  0.46999998093E+01 0. -1.
</event>
<event>
 5   0  0.3188375E-06  0.2922833E+04  0.7818609E-02  0.8266116E-01
        3   -1    0    0  501    0  0.00000000000E+00  0.00000000000E+00  0.15557483953E+04  0.15557483986E+04  0.10100000352E+00 0.  1.
       -3   -1    0    0    0  501  0.00000000000E+00  0.00000000000E+00 -0.13728046904E+04  0.13728046941E+04  0.10100000352E+00 0. -1.
    10030    2    1    2    0    0  0.00000000000E+00  0.00000000000E+00  0.18294370491E+03  0.29285530927E+04  0.29228333544E+04 0.  0.
        5    1    3    3  502    0  0.11534622840E+04  0.63476129454E+03 -0.54405597844E+03  0.14245757753E+04  0.46999998093E+01 0. -1.
       -5    1    3    3    0  502 -0.11534622840E+04 -0.63476129454E+03  0.72699968336E+03  0.15039773174E+04  0.46999998093E+01 0.  1.
</event>
<event>
 5   0  0.3746518E-06  0.2756787E+04  0.7818609E-02  0.8316811E-01
       -1   -1    0    0    0  501  0.00000000000E+00  0.00000000000E+00  0.13045151706E+04  0.13045151706E+04  0.50400001928E-02 0. -1.
        1   -1    0    0  501    0  0.00000000000E+00  0.00000000000E+00 -0.14564560480E+04  0.14564560480E+04  0.50400001928E-02 0.  1.
    10030    2    1    2    0    0  0.00000000000E+00  0.00000000000E+00 -0.15194087738E+03  0.27609712186E+04  0.27567872677E+04 0.  0.
        4    1    3    3  502    0 -0.40223144522E+03 -0.64041609182E+03  0.10781866874E+04  0.13169704067E+04  0.12699999809E+01 0. -1.
       -4    1    3    3    0  502  0.40223144522E+03  0.64041609182E+03 -0.12301275648E+04  0.14440008119E+04  0.12699999809E+01 0.  1.
</event>
<event>
 5   0  0.9251510E-06  0.2418948E+04  0.7818609E-02  0.8432444E-01
        2   -1    0    0  501    0  0.00000000000E+00  0.00000000000E+00  0.17906596178E+04  0.17906596178E+04  0.25500000920E-02 0. -1.
       -2   -1    0    0    0  501  0.00000000000E+00  0.00000000000E+00 -0.81692082697E+03  0.81692082698E+03  0.25500000920E-02 0.  1.
    10030    2    1    2    0    0  0.00000000000E+00  0.00000000000E+00  0.97373879078E+03  0.26075804447E+04  0.24189478174E+04 0.  0.
        2    1    3    3  502    0 -0.11442421621E+04  0.37959494019E+03  0.59163171479E+03  0.13429112146E+04  0.25500000920E-02 0.  1.
       -2    1    3    3    0  502  0.11442421621E+04 -0.37959494019E+03  0.38210707599E+03  0.12646692302E+04  0.25500000920E-02 0. -1.
</event>
<event>
 5   0  0.9646321E-06  0.2913780E+04  0.7818609E-02  0.8268789E-01
        2   -1    0    0  501    0  0.00000000000E+00  0.00000000000E+00  0.14148361388E+04  0.14148361388E+04  0.25500000920E-02 0.  1.
       -2   -1    0    0    0  501  0.00000000000E+00  0.00000000000E+00 -0.15001942364E+04  0.15001942364E+04  0.25500000920E-02 0. -1.
    10030    2    1    2    0    0  0.00000000000E+00  0.00000000000E+00 -0.85358097581E+02  0.29150303753E+04  0.29137803768E+04 0.  0.
        3    1    3    3  502    0  0.11480413998E+04 -0.71527178025E+03  0.49877049535E+03  0.14416604290E+04  0.10100000352E+00 0.  1.
       -3    1    3    3    0  502 -0.11480413998E+04  0.71527178025E+03 -0.58412859293E+03  0.14733699463E+04  0.10100000352E+00 0. -1.
</event>
<event>
 5   0  0.3486236E-06  0.2619789E+04  0.7818609E-02  0.8361510E-01
        1   -1    0    0  501    0  0.00000000000E+00  0.00000000000E+00  0.23353543105E+04  0.23353543106E+04  0.50400001928E-02 0.  1.
       -1   -1    0    0    0  501  0.00000000000E+00  0.00000000000E+00 -0.73471644269E+03  0.73471644271E+03  0.50400001928E-02 0. -1.
    10030    2    1    2    0    0  0.00000000000E+00  0.00000000000E+00  0.16006378679E+04  0.30700707533E+04  0.26197887026E+04 0.  0.
        5    1    3    3  502    0 -0.40931509204E+03  0.11880623191E+04  0.36692995317E+03  0.13090800584E+04  0.46999998093E+01 0. -1.
       -5    1    3    3    0  502  0.40931509204E+03 -0.11880623191E+04  0.12337079147E+04  0.17609906949E+04  0.46999998093E+01 0.  1.
</event>
<event>
 5   0  0.3188375E-06  0.2920912E+04  0.7818609E-02  0.8266683E-01
        4   -1    0    0  501    0  0.00000000000E+00  0.00000000000E+00  0.13474264311E+04  0.13474270296E+04  0.12699999809E+01 0. -1.
       -4   -1    0    0    0  501  0.00000000000E+00  0.00000000000E+00 -0.15829657523E+04  0.15829662618E+04  0.12699999809E+01 0.  1.
    10030    2    1    2    0    0  0.00000000000E+00  0.00000000000E+00 -0.23553932124E+03  0.29303932914E+04  0.29209118560E+04 0.  0.
        2    1    3    3  502    0 -0.14588400312E+04  0.24961169982E+02 -0.53575859527E+02  0.14600368727E+04  0.25500000920E-02 0.  1.
       -2    1    3    3    0  502  0.14588400312E+04 -0.24961169982E+02 -0.18196346171E+03  0.14703564188E+04  0.25500000920E-02 0. -1.
</event>
<event>
 5   0  0.9505359E-06  0.2221771E+04  0.7818609E-02  0.8509421E-01
       -2   -1    0    0    0  501  0.00000000000E+00  0.00000000000E+00  0.11007206325E+04  0.11007206325E+04  0.25500000920E-02 0.  1.
        2   -1    0    0  501    0  0.00000000000E+00  0.00000000000E+00 -0.11211443217E+04  0.11211443217E+04  0.25500000920E-02 0. -1.
    10030    2    1    2    0    0  0.00000000000E+00  0.00000000000E+00 -0.20423689128E+02  0.22218649542E+04  0.22217710835E+04 0.  0.
        4    1    3    3  502    0 -0.54792628135E+03  0.70584483858E+03 -0.67025861524E+03  0.11169997181E+04  0.12699999809E+01 0. -1.
       -4    1    3    3    0  502  0.54792628135E+03 -0.70584483858E+03  0.64983492611E+03  0.11048652361E+04  0.12699999809E+01 0.  1.
</event>
<event>
 5   0  0.9251510E-06  0.2174452E+04  0.7818609E-02  0.8529137E-01
       -2   -1    0    0    0  501  0.00000000000E+00  0.00000000000E+00  0.16714028725E+04  0.16714028725E+04  0.25500000920E-02 0. -1.
        2   -1    0    0  501    0  0.00000000000E+00  0.00000000000E+00 -0.70722671721E+03  0.70722671721E+03  0.25500000920E-02 0.  1.
    10030    2    1    2    0    0  0.00000000000E+00  0.00000000000E+00  0.96417615529E+03  0.23786295897E+04  0.21744523602E+04 0.  0.
        2    1    3    3  502    0 -0.30033070748E+03  0.69136615866E+02 -0.65844568085E+03  0.72700008264E+03  0.25500000920E-02 0.  1.
       -2    1    3    3    0  502  0.30033070748E+03 -0.69136615866E+02  0.16226218361E+04  0.16516295071E+04  0.25500000920E-02 0. -1.
</event>
<event>
 5   0  0.3649705E-06  0.3031631E+04  0.7818609E-02  0.8234756E-01
       -1   -1    0    0    0  501  0.00000000000E+00  0.00000000000E+00  0.18045712646E+04  0.18045712647E+04  0.50400001928E-02 0.  1.
        1   -1    0    0  501    0  0.00000000000E+00  0.00000000000E+00 -0.12732647551E+04  0.12732647552E+04  0.50400001928E-02 0. -1.
    10030    2    1    2    0    0  0.00000000000E+00  0.00000000000E+00  0.53130650950E+03  0.30778360198E+04  0.30316312371E+04 0.  0.
        2    1    3    3  502    0  0.13817300619E+04  0.61890200987E+03  0.19050260481E+03  0.15259452494E+04  0.25500000920E-02 0.  1.
       -2    1    3    3    0  502 -0.13817300619E+04 -0.61890200987E+03  0.34080390469E+03  0.15518907704E+04  0.25500000920E-02 0. -1.
</event>
<event>
 5   0  0.9251510E-06  0.2836836E+04  0.7818609E-02  0.8291923E-01
        2   -1    0    0  501    0  0.00000000000E+00  0.00000000000E+00  0.17167690689E+04  0.17167690689E+04  0.25500000920E-02 0.  1.
       -2   -1    0    0    0  501  0.00000000000E+00  0.00000000000E+00 -0.11719165580E+04  0.11719165580E+04  0.25500000920E-02 0. -1.
    10030    2    1    2    0    0  0.00000000000E+00  0.00000000000E+00  0.54485251088E+03  0.28886856270E+04  0.28368363352E+04 0.  0.
        2    1    3    3  502    0  0.11008680393E+04  0.49741889495E+03  0.10293659187E+04  0.15871137929E+04  0.25500000920E-02 0.  1.
       -2    1    3    3    0  502 -0.11008680393E+04 -0.49741889495E+03 -0.48451340785E+03  0.13015718341E+04  0.25500000920E-02 0. -1.
</event>
<event>
 5   0  0.9360689E-06  0.2077542E+04  0.7818609E-02  0.8571201E-01
       -2   -1    0    0    0  501  0.00000000000E+00  0.00000000000E+00  0.91087327786E+03  0.91087327786E+03  0.25500000920E-02 0. -1.
        2   -1    0    0  501    0  0.00000000000E+00  0.00000000000E+00 -0.11846272700E+04  0.11846272700E+04  0.25500000920E-02 0.  1.
    10030    2    1    2    0    0  0.00000000000E+00  0.00000000000E+00 -0.27375399216E+03  0.20955005479E+04  0.20775421290E+04 0.  0.
        5    1    3    3  502    0  0.47105861842E+03 -0.46501935972E+03  0.67059534795E+03  0.94226293443E+03  0.46999998093E+01 0. -1.
       -5    1    3    3    0  502 -0.47105861842E+03  0.46501935972E+03 -0.94434934011E+03  0.11532376134E+04  0.46999998093E+01 0.  1.
</event>
<event>
 5   0  0.9505359E-06  0.2920540E+04  0.7818609E-02  0.8266792E-01
       -2   -1    0    0    0  501  0.00000000000E+00  0.00000000000E+00  0.16586510898E+04  0.16586510898E+04  0.25500000920E-02 0. -1.
        2   -1    0    0  501    0  0.00000000000E+00  0.00000000000E+00 -0.12856164934E+04  0.12856164934E+04  0.25500000920E-02 0.  1.
    10030    2    1    2    0    0  0.00000000000E+00  0.00000000000E+00  0.37303459639E+03  0.29442675832E+04  0.29205404964E+04 0.  0.
        4    1    3    3  502    0  0.16724641156E+03 -0.12954626000E+03  0.16431203794E+04  0.16566833704E+04  0.12699999809E+01 0. -1.
       -4    1    3    3    0  502 -0.16724641156E+03  0.12954626000E+03 -0.12700857831E+04  0.12875842127E+04  0.12699999809E+01 0.  1.
</event>
<event>
 5   0  0.9251510E-06  0.2880452E+04  0.7818609E-02  0.8278718E-01
        2   -1    0    0  501    0  0.00000000000E+00  0.00000000000E+00  0.13392172283E+04  0.13392172283E+04  0.25500000920E-02 0.  1.
       -2   -1    0    0    0  501  0.00000000000E+00  0.00000000000E+00 -0.15488528031E+04  0.15488528031E+04  0.25500000920E-02 0. -1.
    10030    2    1    2    0    0  0.00000000000E+00  0.00000000000E+00 -0.20963557479E+03  0.28880700313E+04  0.28804516020E+04 0.  0.
        2    1    3    3  502    0 -0.50568918513E+03 -0.10715046478E+04  0.71613139886E+03  0.13844449944E+04  0.25500000920E-02 0. -1.
       -2    1    3    3    0  502  0.50568918513E+03  0.10715046478E+04 -0.92576697366E+03  0.15036250369E+04  0.25500000920E-02 0.  1.
</event>
<event>
 5   0  0.9360689E-06  0.2927896E+04  0.7818609E-02  0.8264626E-01
       -2   -1    0    0    0  501  0.00000000000E+00  0.00000000000E+00  0.74241255315E+03  0.74241255315E+03  0.25500000920E-02 0.  1.
        2   -1    0    0  501    0  0.00000000000E+00  0.00000000000E+00 -0.28867291005E+04  0.28867291005E+04  0.25500000920E-02 0. -1.
    10030    2    1    2    0    0  0.00000000000E+00  0.00000000000E+00 -0.21443165473E+04  0.36291416537E+04  0.29278961196E+04 0.  0.
        5    1    3    3  502    0 -0.32546347509E+03  0.81944447197E+03  0.37636968796E+03  0.95869283312E+03  0.46999998093E+01 0.  1.
       -5    1    3    3    0  502  0.32546347509E+03 -0.81944447197E+03 -0.25206862353E+04  0.26704488205E+04  0.46999998093E+01 0. -1.
</event>
<event>
 5   0  0.3564340E-06  0.2889859E+04  0.7818609E-02  0.8275901E-01
        1   -1    0    0  501    0  0.00000000000E+00  0.00000000000E+00  0.14614587610E+04  0.14614587610E+04  0.50400001928E-02 0.  1.
       -1   -1    0    0    0  501  0.00000000000E+00  0.00000000000E+00 -0.14285873770E+04  0.14285873771E+04  0.50400001928E-02 0. -1.
    10030    2    1    2    0    0  0.00000000000E+00  0.00000000000E+00  0.32871383948E+02  0.28900461381E+04  0.28898591925E+04 0.  0.
        1    1    3    3  502    0  0.48396835107E+03 -0.12423001070E+04 -0.54063410947E+03  0.14386869573E+04  0.50400001928E-02 0. -1.
       -1    1    3    3    0  502 -0.48396835107E+03  0.12423001070E+04  0.57350549342E+03  0.14513591808E+04  0.50400001928E-02 0.  1.
</event>
<event>
 5   0  0.9646321E-06  0.2682241E+04  0.7818609E-02  0.8340790E-01
       -2   -1    0    0    0  501  0.00000000000E+00  0.00000000000E+00  0.84809080821E+03  0.84809080822E+03  0.25500000920E-02 0. -1.
        2   -1    0    0  501    0  0.00000000000E+00  0.00000000000E+00 -0.21207676501E+04  0.21207676501E+04  0.25500000920E-02 0.  1.
    10030    2    1    2    0    0  0.00000000000E+00  0.00000000000E+00 -0.12726768419E+04  0.29688584584E+04  0.26822405190E+04 0.  0.
        3    1    3    3  502    0 -0.82634145117E+03 -0.14940800346E+03 -0.17937541252E+04  0.19805849685E+04  0.10100000352E+00 0.  1.
       -3    1    3    3    0  502  0.82634145117E+03  0.14940800346E+03  0.52107728330E+03  0.98827348987E+03  0.10100000352E+00 0. -1.
</event>
<event>
 5   0  0.3564340E-06  0.2869578E+04  0.7818609E-02  0.8281987E-01
        1   -1    0    0  501    0  0.00000000000E+00  0.00000000000E+00  0.20212498003E+04  0.20212498003E+04  0.50400001928E-02 0. -1.
       -1   -1    0    0    0  501  0.00000000000E+00  0.00000000000E+00 -0.10184881749E+04  0.10184881749E+04  0.50400001928E-02 0.  1.
    10030    2    1    2    0    0  0.00000000000E+00  0.00000000000E+00  0.10027616254E+04  0.30397379752E+04  0.28695776833E+04 0.  0.
        1    1    3    3  502    0  0.32942714413E+01 -0.15662771439E+03 -0.10094009825E+04  0.10214858964E+04  0.50400001928E-02 0.  1.
       -1    1    3    3    0  502 -0.32942714413E+01  0.15662771439E+03  0.20121626078E+04  0.20182520788E+04  0.50400001928E-02 0. -1.
</event>
<event>
 5   0  0.9251510E-06  0.2678672E+04  0.7818609E-02  0.8341959E-01
        2   -1    0    0  501    0  0.00000000000E+00  0.00000000000E+00  0.14068104023E+04  0.14068104023E+04  0.25500000920E-02 0. -1.
       -2   -1    0    0    0  501  0.00000000000E+00  0.00000000000E+00 -0.12750975292E+04  0.12750975292E+04  0.25500000920E-02 0.  1.
    10030    2    1    2    0    0  0.00000000000E+00  0.00000000000E+00  0.13171287308E+03  0.26819079315E+04  0.26786716619E+04 0.  0.
        2    1    3    3  502    0  0.66442043991E+02  0.89768039561E+03 -0.92709567909E+03  0.12921884677E+04  0.25500000920E-02 0.  1.
       -2    1    3    3    0  502 -0.66442043991E+02 -0.89768039561E+03  0.10588085522E+04  0.13897194638E+04  0.25500000920E-02 0. -1.
</event>
<event>
 5   0  0.9360689E-06  0.2953936E+04  0.7818609E-02  0.8257008E-01
        2   -1    0    0  501    0  0.00000000000E+00  0.00000000000E+00  0.11249932981E+04  0.11249932981E+04  0.25500000920E-02 0.  1.
       -2   -1    0    0    0  501  0.00000000000E+00  0.00000000000E+00 -0.19390641415E+04  0.19390641415E+04  0.25500000920E-02 0. -1.
    10030    2    1    2    0    0  0.00000000000E+00  0.00000000000E+00 -0.81407084342E+03  0.30640574396E+04  0.29539357906E+04 0.  0.
        5    1    3    3  502    0  0.46039990675E+03 -0.72912848954E+03 -0.16508265481E+04  0.18624840429E+04  0.46999998093E+01 0. -1.
       -5    1    3    3    0  502 -0.46039990675E+03  0.72912848954E+03  0.83675570465E+03  0.12015733967E+04  0.46999998093E+01 0.  1.
</event>
<event>
 5   0  0.3474078E-06  0.2892078E+04  0.7818609E-02  0.8275238E-01
        1   -1    0    0  501    0  0.00000000000E+00  0.00000000000E+00  0.10813295343E+04  0.10813295343E+04  0.50400001928E-02 0.  1.
       -1   -1    0    0    0  501  0.00000000000E+00  0.00000000000E+00 -0.19337574220E+04  0.19337574220E+04  0.50400001928E-02 0. -1.
    10030    2    1    2    0    0  0.00000000000E+00  0.00000000000E+00 -0.85242788771E+03  0.30150869563E+04  0.28920781542E+04 0.  0.
        3    1    3    3  502    0 -0.47459175837E+03 -0.36317412803E+03  0.94656739400E+03  0.11194295985E+04  0.10100000352E+00 0.  1.
       -3    1    3    3    0  502  0.47459175837E+03  0.36317412803E+03 -0.17989952817E+04  0.18956573578E+04  0.10100000352E+00 0. -1.
</event>
<event>
 5   0  0.3564340E-06  0.2390292E+04  0.7818609E-02  0.8443147E-01
        1   -1    0    0  501    0  0.00000000000E+00  0.00000000000E+00  0.11373013591E+04  0.11373013591E+04  0.50400001928E-02 0. -1.
       -1   -1    0    0    0  501  0.00000000000E+00  0.00000000000E+00 -0.12559324051E+04  0.12559324051E+04  0.50400001928E-02 0.  1.
    10030    2    1    2    0    0  0.00000000000E+00  0.00000000000E+00 -0.11863104599E+03  0.23932337641E+04  0.23902917238E+04 0.  0.
        1    1    3    3  502    0 -0.67794456419E+03 -0.50453547948E+03 -0.90546442753E+03  0.12385599346E+04  0.50400001928E-02 0.  1.
       -1    1    3    3    0  502  0.67794456419E+03  0.50453547948E+03  0.78683338154E+03  0.11546738295E+04  0.50400001928E-02 0. -1.
</event>
<event>
 5   0  0.3486236E-06  0.2698640E+04  0.7818609E-02  0.8335446E-01
        1   -1    0    0  501    0  0.00000000000E+00  0.00000000000E+00  0.16172294281E+04  0.16172294281E+04  0.50400001928E-02 0. -1.
       -1   -1    0    0    0  501  0.00000000000E+00  0.00000000000E+00 -0.11257923599E+04  0.11257923599E+04  0.50400001928E-02 0.  1.
    10030    2    1    2    0    0  0.00000000000E+00  0.00000000000E+00  0.49143706824E+03  0.27430217880E+04  0.26986400533E+04 0.  0.
        5    1    3    3  502    0 -0.99563324585E+02  0.12587358254E+04  0.72926668634E+03  0.14581429023E+04  0.46999998093E+01 0. -1.
       -5    1    3    3    0  502  0.99563324585E+02 -0.12587358254E+04 -0.23782961810E+03  0.12848788857E+04  0.46999998093E+01 0.  1.
</event>
<event>
 5   0  0.3188375E-06  0.2918852E+04  0.7818609E-02  0.8267291E-01
       -3   -1    0    0    0  501  0.00000000000E+00  0.00000000000E+00  0.12936722353E+04  0.12936722393E+04  0.10100000352E+00 0. -1.
        3   -1    0    0  501    0  0.00000000000E+00  0.00000000000E+00 -0.16464169173E+04  0.16464169204E+04  0.10100000352E+00 0.  1.
    10030    2    1    2    0    0  0.00000000000E+00  0.00000000000E+00 -0.35274468196E+03  0.29400891597E+04  0.29188517359E+04 0.  0.
        5    1    3    3  502    0  0.67102234278E+03  0.74115002666E+03 -0.12472764831E+04  0.15985290306E+04  0.46999998093E+01 0.  1.
       -5    1    3    3    0  502 -0.67102234278E+03 -0.74115002666E+03  0.89453180114E+03  0.13415601290E+04  0.46999998093E+01 0. -1.
</event>
<event>
 5   0  0.3188375E-06  0.2837734E+04  0.7818609E-02  0.8291648E-01
       -3   -1    0    0    0  501  0.00000000000E+00  0.00000000000E+00  0.15625344279E+04  0.15625344312E+04  0.10100000352E+00 0.  1.
        3   -1    0    0  501    0  0.00000000000E+00  0.00000000000E+00 -0.12884089996E+04  0.12884090035E+04  0.10100000352E+00 0. -1.
    10030    2    1    2    0    0  0.00000000000E+00  0.00000000000E+00  0.27412542835E+03  0.28509434347E+04  0.28377339054E+04 0.  0.
        4    1    3    3  502    0  0.69759269920E+03  0.27541839503E+03 -0.10729902569E+04  0.13091220610E+04  0.12699999809E+01 0. -1.
       -4    1    3    3    0  502 -0.69759269920E+03 -0.27541839503E+03  0.13471156852E+04  0.15418213738E+04  0.12699999809E+01 0.  1.
</event>
<event>
 5   0  0.3474078E-06  0.2968307E+04  0.7818609E-02  0.8252839E-01
        1   -1    0    0  501    0  0.00000000000E+00  0.00000000000E+00  0.14865454709E+04  0.14865454709E+04  0.50400001928E-02 0. -1.
       -1   -1    0    0    0  501  0.00000000000E+00  0.00000000000E+00 -0.14817655426E+04  0.14817655426E+04  0.50400001928E-02 0.  1.
    10030    2    1    2    0    0  0.00000000000E+00  0.00000000000E+00  0.47799283146E+01  0.29683110135E+04  0.29683071649E+04 0.  0.
        3    1    3    3  502    0  0.65330000030E+03 -0.36435576076E+03 -0.12794680998E+04  0.14820913060E+04  0.10100000352E+00 0.  1.
       -3    1    3    3    0  502 -0.65330000030E+03  0.36435576076E+03  0.12842480281E+04  0.14862197074E+04  0.10100000352E+00 0. -1.
</event>
<event>
 5   0  0.9360689E-06  0.2915735E+04  0.7818609E-02  0.8268211E-01
        2   -1    0    0  501    0  0.00000000000E+00  0.00000000000E+00  0.16174770459E+04  0.16174770459E+04  0.25500000920E-02 0. -1.
       -2   -1    0    0    0  501  0.00000000000E+00  0.00000000000E+00 -0.13140083279E+04  0.13140083279E+04  0.25500000920E-02 0.  1.
    10030    2    1    2    0    0  0.00000000000E+00  0.00000000000E+00  0.30346871802E+03  0.29314853738E+04  0.29157354534E+04 0.  0.
        5    1    3    3  502    0  0.13819300256E+04 -0.24033865566E+03  0.55120027170E+03  0.15070955824E+04  0.46999998093E+01 0. -1.
       -5    1    3    3    0  502 -0.13819300256E+04  0.24033865566E+03 -0.24773155367E+03  0.14243897914E+04  0.46999998093E+01 0.  1.
</event>
<event>
 5   0  0.3188375E-06  0.2845625E+04  0.7818609E-02  0.8289242E-01
       -3   -1    0    0    0  501  0.00000000000E+00  0.00000000000E+00  0.32304253729E+04  0.32304253744E+04  0.10100000352E+00 0.  1.
        3   -1    0    0  501    0  0.00000000000E+00  0.00000000000E+00 -0.62666534435E+03  0.62666535249E+03  0.10100000352E+00 0. -1.
    10030    2    1    2    0    0  0.00000000000E+00  0.00000000000E+00  0.26037600285E+04  0.38570907269E+04  0.28456251668E+04 0.  0.
        4    1    3    3  502    0 -0.13318522603E+04 -0.38119535331E+03  0.17416249378E+04  0.22253987008E+04  0.12699999809E+01 0.  1.
       -4    1    3    3    0  502  0.13318522603E+04  0.38119535331E+03  0.86213509067E+03  0.16316920261E+04  0.12699999809E+01 0. -1.
</event>
<event>
 5   0  0.9360689E-06  0.2572994E+04  0.7818609E-02  0.8377433E-01
        2   -1    0    0  501    0  0.00000000000E+00  0.00000000000E+00  0.15059277407E+04  0.15059277407E+04  0.25500000920E-02 0. -1.
       -2   -1    0    0    0  501  0.00000000000E+00  0.00000000000E+00 -0.10990394807E+04  0.10990394807E+04  0.25500000920E-02 0.  1.
    10030    2    1    2    0    0  0.00000000000E+00  0.00000000000E+00  0.40688825994E+03  0.26049672214E+04  0.25729936200E+04 0.  0.
        5    1    3    3  502    0 -0.76059271978E+03 -0.10073332924E+04 -0.48302836966E+02  0.12631614709E+04  0.46999998093E+01 0.  1.
       -5    1    3    3    0  502  0.76059271978E+03  0.10073332924E+04  0.45519109691E+03  0.13418057505E+04  0.46999998093E+01 0. -1.
</event>
<event>
 5   0  0.3564340E-06  0.2901786E+04  0.7818609E-02  0.8272346E-01
        1   -1    0    0  501    0  0.00000000000E+00  0.00000000000E+00  0.22198569395E+04  0.22198569395E+04  0.50400001928E-02 0.  1.
       -1   -1    0    0    0  501  0.00000000000E+00  0.00000000000E+00 -0.94830038863E+03  0.94830038865E+03  0.50400001928E-02 0. -1.
    10030    2    1    2    0    0  0.00000000000E+00  0.00000000000E+00  0.12715565509E+04  0.31681573282E+04  0.29017864832E+04 0.  0.
        1    1    3    3  502    0  0.45177789858E+03  0.83096379519E+03 -0.56543844719E+03  0.11019640358E+04  0.50400001928E-02 0. -1.
       -1    1    3    3    0  502 -0.45177789858E+03 -0.83096379519E+03  0.18369949981E+04  0.20661932924E+04  0.50400001928E-02 0.  1.
</event>
<event>
 5   0  0.3486236E-06  0.2903021E+04  0.7818609E-02  0.8271979E-01
        1   -1    0    0  501    0  0.00000000000E+00  0.00000000000E+00  0.19697111873E+04  0.19697111873E+04  0.50400001928E-02 0.  1.
       -1   -1    0    0    0  501  0.00000000000E+00  0.00000000000E+00 -0.10696405209E+04  0.10696405209E+04  0.50400001928E-02 0. -1.
    10030    2    1    2    0    0  0.00000000000E+00  0.00000000000E+00  0.90007066639E+03  0.30393517082E+04  0.29030211163E+04 0.  0.
        5    1    3    3  502    0  0.36938337687E+03  0.76268483806E+03  0.16838202280E+04  0.18850477159E+04  0.46999998093E+01 0.  1.
       -5    1    3    3    0  502 -0.36938337687E+03 -0.76268483806E+03 -0.78374956157E+03  0.11543039923E+04  0.46999998093E+01 0. -1.
</event>
<event>
 5   0  0.9646321E-06  0.2891140E+04  0.7818609E-02  0.8275518E-01
       -2   -1    0    0    0  501  0.00000000000E+00  0.00000000000E+00  0.12070676664E+04  0.12070676665E+04  0.25500000920E-02 0.  1.
        2   -1    0    0  501    0  0.00000000000E+00  0.00000000000E+00 -0.17311980138E+04  0.17311980138E+04  0.25500000920E-02 0. -1.
    10030    2    1    2    0    0  0.00000000000E+00  0.00000000000E+00 -0.52413034733E+03  0.29382656802E+04  0.28911403609E+04 0.  0.
        3    1    3    3  502    0 -0.11896460343E+04  0.72774037582E+03 -0.64880620893E+03  0.15381200371E+04  0.10100000352E+00 0. -1.
       -3    1    3    3    0  502  0.11896460343E+04 -0.72774037582E+03  0.12467586161E+03  0.14001456432E+04  0.10100000352E+00 0.  1.
</event>
<event>
 5   0  0.9360689E-06  0.2849308E+04  0.7818609E-02  0.8288122E-01
       -2   -1    0    0    0  501  0.00000000000E+00  0.00000000000E+00  0.99627569236E+03  0.99627569236E+03  0.25500000920E-02 0.  1.
        2   -1    0    0  501    0  0.00000000000E+00  0.00000000000E+00 -0.20372265665E+04  0.20372265665E+04  0.25500000920E-02 0. -1.
    10030    2    1    2    0    0  0.00000000000E+00  0.00000000000E+00 -0.10409508741E+04  0.30335022588E+04  0.28493082024E+04 0.  0.
        5    1    3    3  502    0 -0.12156213849E+04  0.46748148422E+03 -0.11351574681E+04  0.17276801952E+04  0.46999998093E+01 0. -1.
       -5    1    3    3    0  502  0.12156213849E+04 -0.46748148422E+03  0.94206593944E+02  0.13058220636E+04  0.46999998093E+01 0.  1.
</event>
<event>
 5   0  0.3188375E-06  0.2894204E+04  0.7818609E-02  0.8274604E-01
       -3   -1    0    0    0  501  0.00000000000E+00  0.00000000000E+00  0.84065779533E+03  0.84065780139E+03  0.10100000352E+00 0.  1.
        3   -1    0    0  501    0  0.00000000000E+00  0.00000000000E+00 -0.24910305324E+04  0.24910305345E+04  0.10100000352E+00 0. -1.
    10030    2    1    2    0    0  0.00000000000E+00  0.00000000000E+00 -0.16503727371E+04  0.33316883359E+04  0.28942040350E+04 0.  0.
        1    1    3    3  502    0  0.99704043944E+03  0.31549365703E+03  0.32624769737E+03  0.10954740734E+04  0.50400001928E-02 0.  1.
       -1    1    3    3    0  502 -0.99704043944E+03 -0.31549365703E+03 -0.19766204345E+04  0.22362142624E+04  0.50400001928E-02 0. -1.
</event>
<event>
 5   0  0.9505359E-06  0.2783262E+04  0.7818609E-02  0.8308484E-01
        2   -1    0    0  501    0  0.00000000000E+00  0.00000000000E+00  0.14090400406E+04  0.14090400406E+04  0.25500000920E-02 0. -1.
       -2   -1    0    0    0  501  0.00000000000E+00  0.00000000000E+00 -0.13744374623E+04  0.13744374623E+04  0.25500000920E-02 0.  1.
    10030    2    1    2    0    0  0.00000000000E+00  0.00000000000E+00  0.34602578355E+02  0.27834775029E+04  0.27832624150E+04 0.  0.
        4    1    3    3  502    0  0.32671522119E+03  0.53286581512E+03 -0.12261559638E+04  0.13762808119E+04  0.12699999809E+01 0.  1.
       -4    1    3    3    0  502 -0.32671522119E+03 -0.53286581512E+03  0.12607585422E+04  0.14071966910E+04  0.12699999809E+01 0. -1.
</event>
<event>
 5   0  0.3474078E-06  0.2922526E+04  0.7818609E-02  0.8266207E-01
        1   -1    0    0  501    0  0.00000000000E+00  0.00000000000E+00  0.19831027438E+04  0.19831027438E+04  0.50400001928E-02 0. -1.
       -1   -1    0    0    0  501  0.00000000000E+00  0.00000000000E+00 -0.10767418522E+04  0.10767418522E+04  0.50400001928E-02 0.  1.
    10030    2    1    2    0    0  0.00000000000E+00  0.00000000000E+00  0.90636089166E+03  0.30598445960E+04  0.29225261138E+04 0.  0.
        3    1    3    3  502    0  0.10904916182E+04  0.67548053649E+03 -0.27959308172E+03  0.13128664159E+04  0.10100000352E+00 0.  1.
       -3    1    3    3    0  502 -0.10904916182E+04 -0.67548053649E+03  0.11859539734E+04  0.17469781801E+04  0.10100000352E+00 0. -1.
</event>
<event>
 5   0  0.3746518E-06  0.2877195E+04  0.7818609E-02  0.8279695E-01
       -1   -1    0    0    0  501  0.00000000000E+00  0.00000000000E+00  0.10349178948E+04  0.10349178949E+04  0.50400001928E-02 0. -1.
        1   -1    0    0  501    0  0.00000000000E+00  0.00000000000E+00 -0.19997358710E+04  0.19997358710E+04  0.50400001928E-02 0.  1.
    10030    2    1    2    0    0  0.00000000000E+00  0.00000000000E+00 -0.96481797618E+03  0.30346537659E+04  0.28771947712E+04 0.  0.
        4    1    3    3  502    0 -0.10469581133E+04 -0.62081711348E+03  0.32638519550E+03  0.12601841485E+04  0.12699999809E+01 0. -1.
       -4    1    3    3    0  502  0.10469581133E+04  0.62081711348E+03 -0.12912031717E+04  0.17744696174E+04  0.12699999809E+01 0.  1.
</event>
<event>
 5   0  0.3746518E-06  0.2923071E+04  0.7818609E-02  0.8266046E-01
       -1   -1    0    0    0  501  0.00000000000E+00  0.00000000000E+00  0.11687986386E+04  0.11687986386E+04  0.50400001928E-02 0.  1.
        1   -1    0    0  501    0  0.00000000000E+00  0.00000000000E+00 -0.18275911988E+04  0.18275911988E+04  0.50400001928E-02 0. -1.
    10030    2    1    2    0    0  0.00000000000E+00  0.00000000000E+00 -0.65879256013E+03  0.29963898374E+04  0.29230710598E+04 0.  0.
        4    1    3    3  502    0 -0.50433999829E+03 -0.88639589041E+03 -0.14025693441E+04  0.17341450015E+04  0.12699999809E+01 0. -1.
       -4    1    3    3    0  502  0.50433999829E+03  0.88639589041E+03  0.74377678398E+03  0.12622448359E+04  0.12699999809E+01 0.  1.
</event>
<event>
 5   0  0.3746518E-06  0.2911777E+04  0.7818609E-02  0.8269382E-01
        1   -1    0    0  501    0  0.00000000000E+00  0.00000000000E+00  0.12709757089E+04  0.12709757089E+04  0.50400001928E-02 0. -1.
       -1   -1    0    0    0  501  0.00000000000E+00  0.00000000000E+00 -0.16677040256E+04  0.16677040257E+04  0.50400001928E-02 0.  1.
    10030    2    1    2    0    0  0.00000000000E+00  0.00000000000E+00 -0.39672831676E+03  0.29386797345E+04  0.29117769875E+04 0.  0.
        4    1    3    3  502    0  0.29583756741E+03  0.74089376893E+03 -0.14274693862E+04  0.16352718137E+04  0.12699999809E+01 0.  1.
       -4    1    3    3    0  502 -0.29583756741E+03 -0.74089376893E+03  0.10307410694E+04  0.13034079209E+04  0.12699999809E+01 0. -1.
</event>
<event>
 5   0  0.3564340E-06  0.2922484E+04  0.7818609E-02  0.8266219E-01
        1   -1    0    0  501    0  0.00000000000E+00  0.00000000000E+00  0.17977452763E+04  0.17977452763E+04  0.50400001928E-02 0.  1.
       -1   -1    0    0    0  501  0.00000000000E+00  0.00000000000E+00 -0.11877255699E+04  0.11877255699E+04  0.50400001928E-02 0. -1.
    10030    2    1    2    0    0  0.00000000000E+00  0.00000000000E+00  0.61001970639E+03  0.29854708462E+04  0.29224838975E+04 0.  0.
        1    1    3    3  502    0  0.11815661400E+03  0.88566168954E+03  0.14861606968E+04  0.17340793611E+04  0.50400001928E-02 0.  1.
       -1    1    3    3    0  502 -0.11815661400E+03 -0.88566168954E+03 -0.87614099045E+03  0.12513914851E+04  0.50400001928E-02 0. -1.
</event>
<event>
 5   0  0.3486236E-06  0.2951739E+04  0.7818609E-02  0.8257648E-01
        1   -1    0    0  501    0  0.00000000000E+00  0.00000000000E+00  0.17574348284E+04  0.17574348284E+04  0.50400001928E-02 0.  1.
       -1   -1    0    0    0  501  0.00000000000E+00  0.00000000000E+00 -0.12394150929E+04  0.12394150929E+04  0.50400001928E-02 0. -1.
    10030    2    1    2    0    0  0.00000000000E+00  0.00000000000E+00  0.51801973556E+03  0.29968499213E+04  0.29517393185E+04 0.  0.
        5    1    3    3  502    0  0.19175708624E+03  0.81017394609E+03 -0.97822640011E+03  0.12845627983E+04  0.46999998093E+01 0.  1.
       -5    1    3    3    0  502 -0.19175708624E+03 -0.81017394609E+03  0.14962461357E+04  0.17122871230E+04  0.46999998093E+01 0. -1.
</event>
<event>
 5   0  0.9505359E-06  0.2909144E+04  0.7818609E-02  0.8270162E-01
        2   -1    0    0  501    0  0.00000000000E+00  0.00000000000E+00  0.12573574754E+04  0.12573574754E+04  0.25500000920E-02 0.  1.
       -2   -1    0    0    0  501  0.00000000000E+00  0.00000000000E+00 -0.16827196781E+04  0.16827196781E+04  0.25500000920E-02 0. -1.
    10030    2    1    2    0    0  0.00000000000E+00  0.00000000000E+00 -0.42536220264E+03  0.29400771535E+04  0.29091443184E+04 0.  0.
        4    1    3    3  502    0  0.77654551326E+03  0.20089976802E+03  0.10136439876E+04  0.12926172664E+04  0.12699999809E+01 0.  1.
       -4    1    3    3    0  502 -0.77654551326E+03 -0.20089976802E+03 -0.14390061903E+04  0.16474598871E+04  0.12699999809E+01 0. -1.
</event>
<event>
 5   0  0.3486236E-06  0.2545685E+04  0.7818609E-02  0.8386888E-01
        1   -1    0    0  501    0  0.00000000000E+00  0.00000000000E+00  0.17799262835E+04  0.17799262835E+04  0.50400001928E-02 0. -1.
       -1   -1    0    0    0  501  0.00000000000E+00  0.00000000000E+00 -0.91022209525E+03  0.91022209526E+03  0.50400001928E-02 0.  1.
    10030    2    1    2    0    0  0.00000000000E+00  0.00000000000E+00  0.86970418821E+03  0.26901483787E+04  0.25456851582E+04 0.  0.
        5    1    3    3  502    0 -0.66528079481E+03  0.73831994067E+03  0.12752103622E+04  0.16167555253E+04  0.46999998093E+01 0. -1.
       -5    1    3    3    0  502  0.66528079481E+03 -0.73831994067E+03 -0.40550617395E+03  0.10733928535E+04  0.46999998093E+01 0.  1.
</event>
<event>
 5   0  0.9505359E-06  0.2885322E+04  0.7818609E-02  0.8277258E-01
        2   -1    0    0  501    0  0.00000000000E+00  0.00000000000E+00  0.24417947654E+04  0.24417947654E+04  0.25500000920E-02 0. -1.
       -2   -1    0    0    0  501  0.00000000000E+00  0.00000000000E+00 -0.85235256922E+03  0.85235256923E+03  0.25500000920E-02 0.  1.
    10030    2    1    2    0    0  0.00000000000E+00  0.00000000000E+00  0.15894421961E+04  0.32941473346E+04  0.28853215015E+04 0.  0.
        4    1    3    3  502    0  0.33011543103E+03  0.13693224114E+04  0.43868833812E+03  0.14752861197E+04  0.12699999809E+01 0. -1.
       -4    1    3    3    0  502 -0.33011543103E+03 -0.13693224114E+04  0.11507538580E+04  0.18188612148E+04  0.12699999809E+01 0.  1.
</event>
<event>
 5   0  0.3564340E-06  0.2875467E+04  0.7818609E-02  0.8280214E-01
       -1   -1    0    0    0  501  0.00000000000E+00  0.00000000000E+00  0.20251845942E+04  0.20251845942E+04  0.50400001928E-02 0.  1.
        1   -1    0    0  501    0  0.00000000000E+00  0.00000000000E+00 -0.10206863133E+04  0.10206863133E+04  0.50400001928E-02 0. -1.
    10030    2    1    2    0    0  0.00000000000E+00  0.00000000000E+00  0.10044982809E+04  0.30458709075E+04  0.28754674035E+04 0.  0.
        1    1    3    3  502    0  0.21834467445E+03 -0.13873934923E+04  0.82794929011E+03  0.16303481611E+04  0.50400001928E-02 0. -1.
       -1    1    3    3    0  502 -0.21834467445E+03  0.13873934923E+04  0.17654899078E+03  0.14155227464E+04  0.50400001928E-02 0.  1.
</event>
<event>
 5   0  0.1001573E-05  0.2890909E+04  0.7818609E-02  0.8275587E-01
       -2   -1    0    0    0  501  0.00000000000E+00  0.00000000000E+00  0.12824292529E+04  0.12824292529E+04  0.25500000920E-02 0.  1.
        2   -1    0    0  501    0  0.00000000000E+00  0.00000000000E+00 -0.16292038533E+04  0.16292038533E+04  0.25500000920E-02 0. -1.
    10030    2    1    2    0    0  0.00000000000E+00  0.00000000000E+00 -0.34677460037E+03  0.29116331061E+04  0.28909089784E+04 0.  0.
        1    1    3    3  502    0 -0.64583916572E+03  0.11468766996E+04  0.42831007086E+03  0.13841545827E+04  0.50400001928E-02 0.  1.
       -1    1    3    3    0  502  0.64583916572E+03 -0.11468766996E+04 -0.77508467123E+03  0.15274785234E+04  0.50400001928E-02 0. -1.
</event>
<event>
 5   0  0.3474078E-06  0.2901743E+04  0.7818609E-02  0.8272359E-01
        1   -1    0    0  501    0  0.00000000000E+00  0.00000000000E+00  0.17468190610E+04  0.17468190610E+04  0.50400001928E-02 0. -1.
       -1   -1    0    0    0  501  0.00000000000E+00  0.00000000000E+00 -0.12050636118E+04  0.12050636118E+04  0.50400001928E-02 0.  1.
    10030    2    1    2    0    0  0.00000000000E+00  0.00000000000E+00  0.54175544917E+03  0.29518826728E+04  0.29017429844E+04 0.  0.
        3    1    3    3  502    0  0.72114346954E+03  0.51788774330E+03 -0.89645729879E+03  0.12617017544E+04  0.10100000352E+00 0.  1.
       -3    1    3    3    0  502 -0.72114346954E+03 -0.51788774330E+03  0.14382127480E+04  0.16901809184E+04  0.10100000352E+00 0. -1.
</event>
<event>
 5   0  0.9251510E-06  0.2885419E+04  0.7818609E-02  0.8277229E-01
        2   -1    0    0  501    0  0.00000000000E+00  0.00000000000E+00  0.15663218418E+04  0.15663218418E+04  0.25500000920E-02 0. -1.
       -2   -1    0    0    0  501  0.00000000000E+00  0.00000000000E+00 -0.13288528367E+04  0.13288528367E+04  0.25500000920E-02 0.  1.
    10030    2    1    2    0    0  0.00000000000E+00  0.00000000000E+00  0.23746900505E+03  0.28951746785E+04  0.28854193614E+04 0.  0.
        2    1    3    3  502    0  0.33026381535E+02 -0.10121031178E+04 -0.91234264055E+03  0.13630159781E+04  0.25500000920E-02 0.  1.
       -2    1    3    3    0  502 -0.33026381535E+02  0.10121031178E+04  0.11498116456E+04  0.15321587004E+04  0.25500000920E-02 0. -1.
</event>
<event>
 5   0  0.3564340E-06  0.2891671E+04  0.7818609E-02  0.8275360E-01
        1   -1    0    0  501    0  0.00000000000E+00  0.00000000000E+00  0.23252228922E+04  0.23252228922E+04  0.50400001928E-02 0. -1.
       -1   -1    0    0    0  501  0.00000000000E+00  0.00000000000E+00 -0.89902764023E+03  0.89902764024E+03  0.50400001928E-02 0.  1.
    10030    2    1    2    0    0  0.00000000000E+00  0.00000000000E+00  0.14261952520E+04  0.32242505325E+04  0.28916705551E+04 0.  0.
        1    1    3    3  502    0 -0.12496413077E+04 -0.62252062431E+03  0.11322362599E+04  0.17975244850E+04  0.50400001928E-02 0. -1.
       -1    1    3    3    0  502  0.12496413077E+04  0.62252062431E+03  0.29395899208E+03  0.14267260475E+04  0.50400001928E-02 0.  1.
</event>
<event>
 5   0  0.3474078E-06  0.2898925E+04  0.7818609E-02  0.8273197E-01
        1   -1    0    0  501    0  0.00000000000E+00  0.00000000000E+00  0.16388135224E+04  0.16388135224E+04  0.50400001928E-02 0.  1.
       -1   -1    0    0    0  501  0.00000000000E+00  0.00000000000E+00 -0.12819895507E+04  0.12819895507E+04  0.50400001928E-02 0. -1.
    10030    2    1    2    0    0  0.00000000000E+00  0.00000000000E+00  0.35682397169E+03  0.29208030731E+04  0.28989251879E+04 0.  0.
        3    1    3    3  502    0 -0.94069087641E+03 -0.98019483760E+03 -0.33063412639E+03  0.13982132099E+04  0.10100000352E+00 0. -1.
       -3    1    3    3    0  502  0.94069087641E+03  0.98019483760E+03  0.68745809808E+03  0.15225898632E+04  0.10100000352E+00 0.  1.
</event>
<event>
 5   0  0.3564340E-06  0.2893914E+04  0.7818609E-02  0.8274691E-01
        1   -1    0    0  501    0  0.00000000000E+00  0.00000000000E+00  0.14226176952E+04  0.14226176952E+04  0.50400001928E-02 0.  1.
       -1   -1    0    0    0  501  0.00000000000E+00  0.00000000000E+00 -0.14717122319E+04  0.14717122320E+04  0.50400001928E-02 0. -1.
    10030    2    1    2    0    0  0.00000000000E+00  0.00000000000E+00 -0.49094536711E+02  0.28943299272E+04  0.28939135187E+04 0.  0.
        1    1    3    3  502    0  0.10024958530E+04 -0.83111213511E+03  0.60636720670E+03  0.14364631934E+04  0.50400001928E-02 0.  1.
       -1    1    3    3    0  502 -0.10024958530E+04  0.83111213511E+03 -0.65546174342E+03  0.14578667338E+04  0.50400001928E-02 0. -1.
</event>
<event>
 5   0  0.9360689E-06  0.2909420E+04  0.7818609E-02  0.8270080E-01
        2   -1    0    0  501    0  0.00000000000E+00  0.00000000000E+00  0.21580477766E+04  0.21580477766E+04  0.25500000920E-02 0.  1.
       -2   -1    0    0    0  501  0.00000000000E+00  0.00000000000E+00 -0.98059983416E+03  0.98059983416E+03  0.25500000920E-02 0. -1.
    10030    2    1    2    0    0  0.00000000000E+00  0.00000000000E+00  0.11774479424E+04  0.31386476107E+04  0.29094200740E+04 0.  0.
        5    1    3    3  502    0 -0.99516043662E+03 -0.45271087776E+03  0.16239490001E+04  0.19576832937E+04  0.46999998093E+01 0.  1.
       -5    1    3    3    0  502  0.99516043662E+03  0.45271087776E+03 -0.44650105774E+03  0.11809643170E+04  0.46999998093E+01 0. -1.
</event>
<event>
 5   0  0.9646321E-06  0.2843005E+04  0.7818609E-02  0.8290040E-01
       -2   -1    0    0    0  501  0.00000000000E+00  0.00000000000E+00  0.68557685801E+03  0.68557685801E+03  0.25500000920E-02 0. -1.
        2   -1    0    0  501    0  0.00000000000E+00  0.00000000000E+00 -0.29474003958E+04  0.29474003958E+04  0.25500000920E-02 0.  1.
    10030    2    1    2    0    0  0.00000000000E+00  0.00000000000E+00 -0.22618235378E+04  0.36329772538E+04  0.28430051021E+04 0.  0.
        3    1    3    3  502    0  0.19817695557E+03  0.37110387314E+03 -0.28660236921E+04  0.28967367855E+04  0.10100000352E+00 0.  1.
       -3    1    3    3    0  502 -0.19817695557E+03 -0.37110387314E+03  0.60420015438E+03  0.73624046828E+03  0.10100000352E+00 0. -1.
</event>
<event>
 5   0  0.1001573E-05  0.2945489E+04  0.7818609E-02  0.8259470E-01
       -2   -1    0    0    0  501  0.00000000000E+00  0.00000000000E+00  0.15384707118E+04  0.15384707118E+04  0.25500000920E-02 0.  1.
        2   -1    0    0  501    0  0.00000000000E+00  0.00000000000E+00 -0.14098265570E+04  0.14098265570E+04  0.25500000920E-02 0. -1.
    10030    2    1    2    0    0  0.00000000000E+00  0.00000000000E+00  0.12864415487E+03  0.29482972688E+04  0.29454893425E+04 0.  0.
        1    1    3    3  502    0  0.82483660747E+03 -0.12126990542E+04 -0.69904384981E+02  0.14682918811E+04  0.50400001928E-02 0. -1.
       -1    1    3    3    0  502 -0.82483660747E+03  0.12126990542E+04  0.19854853985E+03  0.14800053877E+04  0.50400001928E-02 0.  1.
</event>
<event>
 5   0  0.3649705E-06  0.2827634E+04  0.7818609E-02  0.8294740E-01
        1   -1    0    0  501    0  0.00000000000E+00  0.00000000000E+00  0.32000425008E+04  0.32000425008E+04  0.50400001928E-02 0. -1.
       -1   -1    0    0    0  501  0.00000000000E+00  0.00000000000E+00 -0.62464110722E+03  0.62464110724E+03  0.50400001928E-02 0.  1.
    10030    2    1    2    0    0  0.00000000000E+00  0.00000000000E+00  0.25754013935E+04  0.38246836080E+04  0.28276337039E+04 0.  0.
        2    1    3    3  502    0  0.42388611398E+02  0.14125048764E+04  0.12285672126E+04  0.18725234888E+04  0.25500000920E-02 0.  1.
       -2    1    3    3    0  502 -0.42388611398E+02 -0.14125048764E+04  0.13468341810E+04  0.19521601192E+04  0.25500000920E-02 0. -1.
</event>
<event>
 5   0  0.3564340E-06  0.2892693E+04  0.7818609E-02  0.8275055E-01
        1   -1    0    0  501    0  0.00000000000E+00  0.00000000000E+00  0.18157991282E+04  0.18157991282E+04  0.50400001928E-02 0. -1.
       -1   -1    0    0    0  501  0.00000000000E+00  0.00000000000E+00 -0.11520648570E+04  0.11520648570E+04  0.50400001928E-02 0.  1.
    10030    2    1    2    0    0  0.00000000000E+00  0.00000000000E+00  0.66373427114E+03  0.29678639852E+04  0.28926931140E+04 0.  0.
        1    1    3    3  502    0  0.89002025108E+03  0.38321166165E+03 -0.76978204627E+03  0.12375587355E+04  0.50400001928E-02 0.  1.
       -1    1    3    3    0  502 -0.89002025108E+03 -0.38321166165E+03  0.14335163174E+04  0.17303052497E+04  0.50400001928E-02 0. -1.
</event>
<event>
 5   0  0.9360689E-06  0.2885341E+04  0.7818609E-02  0.8277252E-01
        2   -1    0    0  501    0  0.00000000000E+00  0.00000000000E+00  0.18304432083E+04  0.18304432083E+04  0.25500000920E-02 0. -1.
       -2   -1    0    0    0  501  0.00000000000E+00  0.00000000000E+00 -0.11370462199E+04  0.11370462199E+04  0.25500000920E-02 0.  1.
    10030    2    1    2    0    0  0.00000000000E+00  0.00000000000E+00  0.69339698845E+03  0.29674894282E+04  0.28853412489E+04 0.  0.
        5    1    3    3  502    0 -0.99685240851E+03  0.87910475194E+03 -0.23028791948E+03  0.13489234615E+04  0.46999998093E+01 0.  1.
       -5    1    3    3    0  502  0.99685240851E+03 -0.87910475194E+03  0.92368490793E+03  0.16185659666E+04  0.46999998093E+01 0. -1.
</event>
<event>
 5   0  0.3486236E-06  0.3350422E+04  0.7818609E-02  0.8150183E-01
        1   -1    0    0  501    0  0.00000000000E+00  0.00000000000E+00  0.18558965810E+04  0.18558965810E+04  0.50400001928E-02 0.  1.
       -1   -1    0    0    0  501  0.00000000000E+00  0.00000000000E+00 -0.15121163703E+04  0.15121163703E+04  0.50400001928E-02 0. -1.
    10030    2    1    2    0    0  0.00000000000E+00  0.00000000000E+00  0.34378021071E+03  0.33680129513E+04  0.33504218252E+04 0.  0.
        5    1    3    3  502    0  0.72929064399E+02 -0.63755598070E+03 -0.13836559887E+04  0.15252285934E+04  0.46999998093E+01 0. -1.
       -5    1    3    3    0  502 -0.72929064399E+02  0.63755598070E+03  0.17274361994E+04  0.18427843580E+04  0.46999998093E+01 0.  1.
</event>
<event>
 5   0  0.3746518E-06  0.2856406E+04  0.7818609E-02  0.8285967E-01
       -1   -1    0    0    0  501  0.00000000000E+00  0.00000000000E+00  0.92359810691E+03  0.92359810692E+03  0.50400001928E-02 0.  1.
        1   -1    0    0  501    0  0.00000000000E+00  0.00000000000E+00 -0.22084977679E+04  0.22084977679E+04  0.50400001928E-02 0. -1.
    10030    2    1    2    0    0  0.00000000000E+00  0.00000000000E+00 -0.12848996609E+04  0.31320958748E+04  0.28564063839E+04 0.  0.
        4    1    3    3  502    0  0.12170948127E+04  0.74485902514E+03 -0.70849610878E+03  0.15931425233E+04  0.12699999809E+01 0.  1.
       -4    1    3    3    0  502 -0.12170948127E+04 -0.74485902514E+03 -0.57640355217E+03  0.15389533515E+04  0.12699999809E+01 0. -1.
</event>
<event>
 5   0  0.9360689E-06  0.2855290E+04  0.7818609E-02  0.8286306E-01
       -2   -1    0    0    0  501  0.00000000000E+00  0.00000000000E+00  0.10232883378E+04  0.10232883378E+04  0.25500000920E-02 0.  1.
        2   -1    0    0  501    0  0.00000000000E+00  0.00000000000E+00 -0.19917854721E+04  0.19917854721E+04  0.25500000920E-02 0. -1.
    10030    2    1    2    0    0  0.00000000000E+00  0.00000000000E+00 -0.96849713428E+03  0.30150738099E+04  0.28552904196E+04 0.  0.
        5    1    3    3  502    0 -0.28814796137E+03 -0.33574043014E+03 -0.19175560615E+04  0.19679416209E+04  0.46999998093E+01 0. -1.
       -5    1    3    3    0  502  0.28814796137E+03  0.33574043014E+03  0.94905892723E+03  0.10471321891E+04  0.46999998093E+01 0.  1.
</event>
<event>
 5   0  0.3486236E-06  0.2906362E+04  0.7818609E-02  0.8270987E-01
       -1   -1    0    0    0  501  0.00000000000E+00  0.00000000000E+00  0.13247025817E+04  0.13247025817E+04  0.50400001928E-02 0. -1.
        1   -1    0    0  501    0  0.00000000000E+00  0.00000000000E+00 -0.15941198603E+04  0.15941198603E+04  0.50400001928E-02 0.  1.
    10030    2    1    2    0    0  0.00000000000E+00  0.00000000000E+00 -0.26941727857E+03  0.29188224420E+04  0.29063617769E+04 0.  0.
        5    1    3    3  502    0  0.34709039061E+03 -0.95192688506E+03  0.91142723812E+03  0.13628493072E+04  0.46999998093E+01 0. -1.
       -5    1    3    3    0  502 -0.34709039061E+03  0.95192688506E+03 -0.11808445167E+04  0.15559731348E+04  0.46999998093E+01 0.  1.
</event>
<event>
 5   0  0.9360689E-06  0.2804521E+04  0.7818609E-02  0.8301866E-01
       -2   -1    0    0    0  501  0.00000000000E+00  0.00000000000E+00  0.86580339939E+03  0.86580339939E+03  0.25500000920E-02 0. -1.
        2   -1    0    0  501    0  0.00000000000E+00  0.00000000000E+00 -0.22711090801E+04  0.22711090801E+04  0.25500000920E-02 0.  1.
    10030    2    1    2    0    0  0.00000000000E+00  0.00000000000E+00 -0.14053056807E+04  0.31369124794E+04  0.28045206092E+04 0.  0.
        5    1    3    3  502    0 -0.31957560820E+03 -0.12716464620E+04 -0.12586580866E+04  0.18175410759E+04  0.46999998093E+01 0.  1.
       -5    1    3    3    0  502  0.31957560820E+03  0.12716464620E+04 -0.14664759405E+03  0.13193714035E+04  0.46999998093E+01 0. -1.
</event>
<event>
 5   0  0.9505359E-06  0.2763766E+04  0.7818609E-02  0.8314607E-01
        2   -1    0    0  501    0  0.00000000000E+00  0.00000000000E+00  0.18136157120E+04  0.18136157120E+04  0.25500000920E-02 0.  1.
       -2   -1    0    0    0  501  0.00000000000E+00  0.00000000000E+00 -0.10529247673E+04  0.10529247673E+04  0.25500000920E-02 0. -1.
    10030    2    1    2    0    0  0.00000000000E+00  0.00000000000E+00  0.76069094476E+03  0.28665404793E+04  0.27637661996E+04 0.  0.
        4    1    3    3  502    0 -0.10445612698E+04 -0.89288255911E+03  0.22914455978E+03  0.13931462066E+04  0.12699999809E+01 0.  1.
       -4    1    3    3    0  502  0.10445612698E+04  0.89288255911E+03  0.53154638498E+03  0.14733942727E+04  0.12699999809E+01 0. -1.
</event>
<event>
 5   0  0.1001573E-05  0.2870363E+04  0.7818609E-02  0.8281750E-01
       -2   -1    0    0    0  501  0.00000000000E+00  0.00000000000E+00  0.13765492780E+04  0.13765492780E+04  0.25500000920E-02 0.  1.
        2   -1    0    0  501    0  0.00000000000E+00  0.00000000000E+00 -0.14963109092E+04  0.14963109092E+04  0.25500000920E-02 0. -1.
    10030    2    1    2    0    0  0.00000000000E+00  0.00000000000E+00 -0.11976163118E+03  0.28728601872E+04  0.28703628354E+04 0.  0.
        1    1    3    3  502    0  0.29062464651E+03  0.10463163931E+04  0.87928788638E+03  0.13972787363E+04  0.50400001928E-02 0.  1.
       -1    1    3    3    0  502 -0.29062464651E+03 -0.10463163931E+04 -0.99904951756E+03  0.14755814509E+04  0.50400001928E-02 0. -1.
</event>
<event>
 5   0  0.1001573E-05  0.2875053E+04  0.7818609E-02  0.8280339E-01
        2   -1    0    0  501    0  0.00000000000E+00  0.00000000000E+00  0.26322518825E+04  0.26322518825E+04  0.25500000920E-02 0.  1.
       -2   -1    0    0    0  501  0.00000000000E+00  0.00000000000E+00 -0.78506243762E+03  0.78506243763E+03  0.25500000920E-02 0. -1.
    10030    2    1    2    0    0  0.00000000000E+00  0.00000000000E+00  0.18471894449E+04  0.34173143201E+04  0.28750527504E+04 0.  0.
        1    1    3    3  502    0  0.11790622024E+04  0.81773344892E+03  0.10272589549E+04  0.17646916533E+04  0.50400001928E-02 0. -1.
       -1    1    3    3    0  502 -0.11790622024E+04 -0.81773344892E+03  0.81993048999E+03  0.16526226669E+04  0.50400001928E-02 0.  1.
</event>
<event>
 5   0  0.3649705E-06  0.2922450E+04  0.7818609E-02  0.8266229E-01
       -1   -1    0    0    0  501  0.00000000000E+00  0.00000000000E+00  0.25763649462E+04  0.25763649462E+04  0.50400001928E-02 0. -1.
        1   -1    0    0  501    0  0.00000000000E+00  0.00000000000E+00 -0.82875636844E+03  0.82875636846E+03  0.50400001928E-02 0.  1.
    10030    2    1    2    0    0  0.00000000000E+00  0.00000000000E+00  0.17476085778E+04  0.34051213147E+04  0.29224502437E+04 0.  0.
        2    1    3    3  502    0  0.36527666502E+03  0.21603977940E+03  0.25029786903E+04  0.25387009576E+04  0.25500000920E-02 0. -1.
       -2    1    3    3    0  502 -0.36527666502E+03 -0.21603977940E+03 -0.75537011249E+03  0.86642035706E+03  0.25500000920E-02 0.  1.
</event>
<event>
 5   0  0.1001573E-05  0.2854917E+04  0.7818609E-02  0.8286419E-01
       -2   -1    0    0    0  501  0.00000000000E+00  0.00000000000E+00  0.13978090069E+04  0.13978090069E+04  0.25500000920E-02 0.  1.
        2   -1    0    0  501    0  0.00000000000E+00  0.00000000000E+00 -0.14577370367E+04  0.14577370367E+04  0.25500000920E-02 0. -1.
    10030    2    1    2    0    0  0.00000000000E+00  0.00000000000E+00 -0.59928029710E+02  0.28555460436E+04  0.28549171334E+04 0.  0.
        1    1    3    3  502    0  0.27429525009E+03  0.34991690572E+03 -0.13867134292E+04  0.14562464969E+04  0.50400001928E-02 0. -1.
       -1    1    3    3    0  502 -0.27429525009E+03 -0.34991690572E+03  0.13267853995E+04  0.13992995467E+04  0.50400001928E-02 0.  1.
</event>
<event>
 5   0  0.3486236E-06  0.2728573E+04  0.7818609E-02  0.8325793E-01
        1   -1    0    0  501    0  0.00000000000E+00  0.00000000000E+00  0.10063409966E+04  0.10063409966E+04  0.50400001928E-02 0.  1.
       -1   -1    0    0    0  501  0.00000000000E+00  0.00000000000E+00 -0.18495503101E+04  0.18495503101E+04  0.50400001928E-02 0. -1.
    10030    2    1    2    0    0  0.00000000000E+00  0.00000000000E+00 -0.84320931348E+03  0.28558913068E+04  0.27285734752E+04 0.  0.
        5    1    3    3  502    0  0.27667771714E+03  0.13329741551E+04 -0.51454882717E+03  0.14553876607E+04  0.46999998093E+01 0.  1.
       -5    1    3    3    0  502 -0.27667771714E+03 -0.13329741551E+04 -0.32866048631E+03  0.14005036461E+04  0.46999998093E+01 0. -1.
</event>
<event>
 5   0  0.3474078E-06  0.2803053E+04  0.7818609E-02  0.8302321E-01
        1   -1    0    0  501    0  0.00000000000E+00  0.00000000000E+00  0.11851336951E+04  0.11851336951E+04  0.50400001928E-02 0. -1.
       -1   -1    0    0    0  501  0.00000000000E+00  0.00000000000E+00 -0.16574307546E+04  0.16574307546E+04  0.50400001928E-02 0.  1.
    10030    2    1    2    0    0  0.00000000000E+00  0.00000000000E+00 -0.47229705950E+03  0.28425644497E+04  0.28030533599E+04 0.  0.
        3    1    3    3  502    0 -0.11885039189E+04  0.63442506893E+03  0.15561319112E+03  0.13561903291E+04  0.10100000352E+00 0. -1.
       -3    1    3    3    0  502  0.11885039189E+04 -0.63442506893E+03 -0.62791025062E+03  0.14863741206E+04  0.10100000352E+00 0.  1.
</event>
<event>
 5   0  0.9505359E-06  0.2899516E+04  0.7818609E-02  0.8273021E-01
        2   -1    0    0  501    0  0.00000000000E+00  0.00000000000E+00  0.20872822585E+04  0.20872822585E+04  0.25500000920E-02 0. -1.
       -2   -1    0    0    0  501  0.00000000000E+00  0.00000000000E+00 -0.10069545120E+04  0.10069545120E+04  0.25500000920E-02 0.  1.
    10030    2    1    2    0    0  0.00000000000E+00  0.00000000000E+00  0.10803277465E+04  0.30942367705E+04  0.28995160203E+04 0.  0.
        4    1    3    3  502    0  0.22944019404E+03 -0.29829848390E+03  0.20342481941E+04  0.20687658438E+04  0.12699999809E+01 0. -1.
       -4    1    3    3    0  502 -0.22944019404E+03  0.29829848390E+03 -0.95392044767E+03  0.10254709267E+04  0.12699999809E+01 0.  1.
</event>
<event>
 5   0  0.3564340E-06  0.2771976E+04  0.7818609E-02  0.8312022E-01
       -1   -1    0    0    0  501  0.00000000000E+00  0.00000000000E+00  0.64457572761E+03  0.64457572763E+03  0.50400001928E-02 0. -1.
        1   -1    0    0  501    0  0.00000000000E+00  0.00000000000E+00 -0.29801964570E+04  0.29801964570E+04  0.50400001928E-02 0.  1.
    10030    2    1    2    0    0  0.00000000000E+00  0.00000000000E+00 -0.23356207294E+04  0.36247721846E+04  0.27719756851E+04 0.  0.
        1    1    3    3  502    0 -0.53994006719E+03  0.20966114657E+03 -0.28143424901E+04  0.28733285096E+04  0.50400001928E-02 0.  1.
       -1    1    3    3    0  502  0.53994006719E+03 -0.20966114657E+03  0.47872176071E+03  0.75144367503E+03  0.50400001928E-02 0. -1.
</event>
<event>
 5   0  0.9646321E-06  0.2922561E+04  0.7818609E-02  0.8266196E-01
       -2   -1    0    0    0  501  0.00000000000E+00  0.00000000000E+00  0.20732928696E+04  0.20732928696E+04  0.25500000920E-02 0.  1.
        2   -1    0    0  501    0  0.00000000000E+00  0.00000000000E+00 -0.10299271986E+04  0.10299271986E+04  0.25500000920E-02 0. -1.
    10030    2    1    2    0    0  0.00000000000E+00  0.00000000000E+00  0.10433656710E+04  0.31032200682E+04  0.29225610119E+04 0.  0.
        3    1    3    3  502    0 -0.86643415417E+03 -0.10116878800E+04 -0.11639679076E+03  0.13370746925E+04  0.10100000352E+00 0. -1.
       -3    1    3    3    0  502  0.86643415417E+03  0.10116878800E+04  0.11597624618E+04  0.17661453757E+04  0.10100000352E+00 0.  1.
</event>
<event>
 5   0  0.9646321E-06  0.2347352E+04  0.7818609E-02  0.8459481E-01
       -2   -1    0    0    0  501  0.00000000000E+00  0.00000000000E+00  0.72010205898E+03  0.72010205899E+03  0.25500000920E-02 0.  1.
        2   -1    0    0  501    0  0.00000000000E+00  0.00000000000E+00 -0.19129453207E+04  0.19129453207E+04  0.25500000920E-02 0. -1.
    10030    2    1    2    0    0  0.00000000000E+00  0.00000000000E+00 -0.11928432617E+04  0.26330473797E+04  0.23473524355E+04 0.  0.
        3    1    3    3  502    0  0.27250467736E+03  0.88924914953E+03  0.20659463929E+03  0.95273511760E+03  0.10100000352E+00 0.  1.
       -3    1    3    3    0  502 -0.27250467736E+03 -0.88924914953E+03 -0.13994379010E+04  0.16803122621E+04  0.10100000352E+00 0. -1.
</event>
<event>
 5   0  0.9646321E-06  0.2897508E+04  0.7818609E-02  0.8273619E-01
       -2   -1    0    0    0  501  0.00000000000E+00  0.00000000000E+00  0.17192268649E+04  0.17192268649E+04  0.25500000920E-02 0.  1.
        2   -1    0    0  501    0  0.00000000000E+00  0.00000000000E+00 -0.12208324217E+04  0.12208324217E+04  0.25500000920E-02 0. -1.
    10030    2    1    2    0    0  0.00000000000E+00  0.00000000000E+00  0.49839444322E+03  0.29400592866E+04  0.28975078236E+04 0.  0.
        3    1    3    3  502    0  0.53025296842E+03  0.40156387312E+02 -0.11182236480E+04  0.12382265072E+04  0.10100000352E+00 0. -1.
       -3    1    3    3    0  502 -0.53025296842E+03 -0.40156387312E+02  0.16166180912E+04  0.17018327794E+04  0.10100000352E+00 0.  1.
</event>
<event>
 5   0  0.3649705E-06  0.2902054E+04  0.7818609E-02  0.8272267E-01
       -1   -1    0    0    0  501  0.00000000000E+00  0.00000000000E+00  0.14767632730E+04  0.14767632730E+04  0.50400001928E-02 0.  1.
        1   -1    0    0  501    0  0.00000000000E+00  0.00000000000E+00 -0.14257394809E+04  0.14257394809E+04  0.50400001928E-02 0. -1.
    10030    2    1    2    0    0  0.00000000000E+00  0.00000000000E+00  0.51023792045E+02  0.29025027539E+04  0.29020542395E+04 0.  0.
        2    1    3    3  502    0 -0.10040004592E+04 -0.31537430346E+03 -0.97364291498E+03  0.14336869949E+04  0.25500000920E-02 0. -1.
       -2    1    3    3    0  502  0.10040004592E+04  0.31537430346E+03  0.10246667070E+04  0.14688157590E+04  0.25500000920E-02 0.  1.
</event>
<event>
 5   0  0.9360689E-06  0.2931379E+04  0.7818609E-02  0.8263602E-01
        2   -1    0    0  501    0  0.00000000000E+00  0.00000000000E+00  0.14585441957E+04  0.14585441957E+04  0.25500000920E-02 0. -1.
       -2   -1    0    0    0  501  0.00000000000E+00  0.00000000000E+00 -0.14728693328E+04  0.14728693328E+04  0.25500000920E-02 0.  1.
    10030    2    1    2    0    0  0.00000000000E+00  0.00000000000E+00 -0.14325137088E+02  0.29314135286E+04  0.29313785265E+04 0.  0.
        5    1    3    3  502    0 -0.73617518793E+03 -0.11651052746E+04 -0.50596579604E+03  0.14681442998E+04  0.46999998093E+01 0.  1.
       -5    1    3    3    0  502  0.73617518793E+03  0.11651052746E+04  0.49164065895E+03  0.14632692288E+04  0.46999998093E+01 0. -1.
</event>
<event>
 5   0  0.9360689E-06  0.2884074E+04  0.7818609E-02  0.8277632E-01
        2   -1    0    0  501    0  0.00000000000E+00  0.00000000000E+00  0.16804144214E+04  0.16804144214E+04  0.25500000920E-02 0. -1.
       -2   -1    0    0    0  501  0.00000000000E+00  0.00000000000E+00 -0.12374748047E+04  0.12374748047E+04  0.25500000920E-02 0.  1.
    10030    2    1    2    0    0  0.00000000000E+00  0.00000000000E+00  0.44293961663E+03  0.29178892261E+04  0.28840738603E+04 0.  0.
        5    1    3    3  502    0  0.26872926273E+03  0.14040247986E+04  0.29648892136E+02  0.14298259329E+04  0.46999998093E+01 0. -1.
       -5    1    3    3    0  502 -0.26872926273E+03 -0.14040247986E+04  0.41329072450E+03  0.14880632932E+04  0.46999998093E+01 0.  1.
</event>
<event>
 5   0  0.9505359E-06  0.2971597E+04  0.7818609E-02  0.8251888E-01
       -2   -1    0    0    0  501  0.00000000000E+00  0.00000000000E+00  0.90598629747E+03  0.90598629747E+03  0.25500000920E-02 0. -1.
        2   -1    0    0  501    0  0.00000000000E+00  0.00000000000E+00 -0.24366780478E+04  0.24366780478E+04  0.25500000920E-02 0.  1.
    10030    2    1    2    0    0  0.00000000000E+00  0.00000000000E+00 -0.15306917503E+04  0.33426643453E+04  0.29715968250E+04 0.  0.
        4    1    3    3  502    0  0.10066514585E+04 -0.18806619404E+03 -0.19762840711E+04  0.22258518357E+04  0.12699999809E+01 0.  1.
       -4    1    3    3    0  502 -0.10066514585E+04  0.18806619404E+03  0.44559232077E+03  0.11168125095E+04  0.12699999809E+01 0. -1.
</event>
<event>
 5   0  0.9505359E-06  0.2913438E+04  0.7818609E-02  0.8268891E-01
       -2   -1    0    0    0  501  0.00000000000E+00  0.00000000000E+00  0.21336820019E+04  0.21336820019E+04  0.25500000920E-02 0.  1.
        2   -1    0    0  501    0  0.00000000000E+00  0.00000000000E+00 -0.99453891744E+03  0.99453891745E+03  0.25500000920E-02 0. -1.
    10030    2    1    2    0    0  0.00000000000E+00  0.00000000000E+00  0.11391430844E+04  0.31282209193E+04  0.29134376865E+04 0.  0.
        4    1    3    3  502    0 -0.43509801403E+03  0.43392804654E+03  0.19877071168E+04  0.20805251804E+04  0.12699999809E+01 0.  1.
       -4    1    3    3    0  502  0.43509801403E+03 -0.43392804654E+03 -0.84856403235E+03  0.10476957389E+04  0.12699999809E+01 0. -1.
</event>
<event>
 5   0  0.3649705E-06  0.2959181E+04  0.7818609E-02  0.8255484E-01
       -1   -1    0    0    0  501  0.00000000000E+00  0.00000000000E+00  0.11457106531E+04  0.11457106531E+04  0.50400001928E-02 0. -1.
        1   -1    0    0  501    0  0.00000000000E+00  0.00000000000E+00 -0.19107681243E+04  0.19107681243E+04  0.50400001928E-02 0.  1.
    10030    2    1    2    0    0  0.00000000000E+00  0.00000000000E+00 -0.76505747119E+03  0.30564787775E+04  0.29591805594E+04 0.  0.
        2    1    3    3  502    0 -0.80228730989E+03 -0.12365875356E+04 -0.25036150330E+03  0.14951570296E+04  0.25500000920E-02 0.  1.
       -2    1    3    3    0  502  0.80228730989E+03  0.12365875356E+04 -0.51469596789E+03  0.15613217478E+04  0.25500000920E-02 0. -1.
</event>
<event>
 5   0  0.9646321E-06  0.2901736E+04  0.7818609E-02  0.8272361E-01
        2   -1    0    0  501    0  0.00000000000E+00  0.00000000000E+00  0.18066269433E+04  0.18066269433E+04  0.25500000920E-02 0.  1.
       -2   -1    0    0    0  501  0.00000000000E+00  0.00000000000E+00 -0.11651644093E+04  0.11651644093E+04  0.25500000920E-02 0. -1.
    10030    2    1    2    0    0  0.00000000000E+00  0.00000000000E+00  0.64146253395E+03  0.29717913526E+04  0.29017356290E+04 0.  0.
        3    1    3    3  502    0  0.32704872539E+03  0.13991386595E+04  0.52675341735E+03  0.15303656525E+04  0.10100000352E+00 0. -1.
       -3    1    3    3    0  502 -0.32704872539E+03 -0.13991386595E+04  0.11470911660E+03  0.14414257001E+04  0.10100000352E+00 0.  1.
</event>
<event>
 5   0  0.3746518E-06  0.2922429E+04  0.7818609E-02  0.8266235E-01
        1   -1    0    0  501    0  0.00000000000E+00  0.00000000000E+00  0.22174141335E+04  0.22174141335E+04  0.50400001928E-02 0. -1.
       -1   -1    0    0    0  501  0.00000000000E+00  0.00000000000E+00 -0.96290013909E+03  0.96290013911E+03  0.50400001928E-02 0.  1.
    10030    2    1    2    0    0  0.00000000000E+00  0.00000000000E+00  0.12545139944E+04  0.31803142726E+04  0.29224293850E+04 0.  0.
        4    1    3    3  502    0 -0.83056630934E+03 -0.90622859575E+03  0.14869389891E+04  0.19292692483E+04  0.12699999809E+01 0. -1.
       -4    1    3    3    0  502  0.83056630934E+03  0.90622859575E+03 -0.23242499469E+03  0.12510450244E+04  0.12699999809E+01 0.  1.
</event>
<event>
 5   0  0.1001573E-05  0.2904396E+04  0.7818609E-02  0.8271571E-01
       -2   -1    0    0    0  501  0.00000000000E+00  0.00000000000E+00  0.79406728208E+03  0.79406728209E+03  0.25500000920E-02 0. -1.
        2   -1    0    0  501    0  0.00000000000E+00  0.00000000000E+00 -0.26557943697E+04  0.26557943697E+04  0.25500000920E-02 0.  1.
    10030    2    1    2    0    0  0.00000000000E+00  0.00000000000E+00 -0.18617270876E+04  0.34498616518E+04  0.29043962656E+04 0.  0.
        1    1    3    3  502    0 -0.13841946852E+04 -0.34370446271E+03 -0.12556189887E+04  0.19001859722E+04  0.50400001928E-02 0. -1.
       -1    1    3    3    0  502  0.13841946852E+04  0.34370446271E+03 -0.60610809896E+03  0.15496756796E+04  0.50400001928E-02 0.  1.
</event>
<event>
 5   0  0.9251510E-06  0.2978996E+04  0.7818609E-02  0.8249754E-01
        2   -1    0    0  501    0  0.00000000000E+00  0.00000000000E+00  0.17489349974E+04  0.17489349974E+04  0.25500000920E-02 0.  1.
       -2   -1    0    0    0  501  0.00000000000E+00  0.00000000000E+00 -0.12685460148E+04  0.12685460148E+04  0.25500000920E-02 0. -1.
    10030    2    1    2    0    0  0.00000000000E+00  0.00000000000E+00  0.48038898263E+03  0.30174810121E+04  0.29789961537E+04 0.  0.
        2    1    3    3  502    0 -0.15675710875E+03 -0.14066587789E+04 -0.22985089131E+03  0.14339083457E+04  0.25500000920E-02 0. -1.
       -2    1    3    3    0  502  0.15675710875E+03  0.14066587789E+04  0.71023987395E+03  0.15835726665E+04  0.25500000920E-02 0.  1.
</event>
<event>
 5   0  0.3746518E-06  0.2886632E+04  0.7818609E-02  0.8276866E-01
        1   -1    0    0  501    0  0.00000000000E+00  0.00000000000E+00  0.15091965179E+04  0.15091965179E+04  0.50400001928E-02 0.  1.
       -1   -1    0    0    0  501  0.00000000000E+00  0.00000000000E+00 -0.13803112931E+04  0.13803112931E+04  0.50400001928E-02 0. -1.
    10030    2    1    2    0    0  0.00000000000E+00  0.00000000000E+00  0.12888522480E+03  0.28895078111E+04  0.28866319456E+04 0.  0.
        4    1    3    3  502    0  0.14115539353E+04 -0.26842669469E+03 -0.72155722782E+02  0.14386609969E+04  0.12699999809E+01 0. -1.
       -4    1    3    3    0  502 -0.14115539353E+04  0.26842669469E+03  0.20104094758E+03  0.14508468142E+04  0.12699999809E+01 0.  1.
</event>
<event>
 5   0  0.3649705E-06  0.2853979E+04  0.7818609E-02  0.8286703E-01
        1   -1    0    0  501    0  0.00000000000E+00  0.00000000000E+00  0.21492197983E+04  0.21492197983E+04  0.50400001928E-02 0. -1.
       -1   -1    0    0    0  501  0.00000000000E+00  0.00000000000E+00 -0.94745997303E+03  0.94745997304E+03  0.50400001928E-02 0.  1.
    10030    2    1    2    0    0  0.00000000000E+00  0.00000000000E+00  0.12017598252E+04  0.30966797713E+04  0.28539794898E+04 0.  0.
        2    1    3    3  502    0 -0.47183399101E+03 -0.13339959050E+04  0.80132558560E+03  0.16261288644E+04  0.25500000920E-02 0. -1.
       -2    1    3    3    0  502  0.47183399101E+03  0.13339959050E+04  0.40043423963E+03  0.14705509069E+04  0.25500000920E-02 0.  1.
</event>
<event>
 5   0  0.9505359E-06  0.3049903E+04  0.7818609E-02  0.8229623E-01
        2   -1    0    0  501    0  0.00000000000E+00  0.00000000000E+00  0.15793949451E+04  0.15793949451E+04  0.25500000920E-02 0.  1.
       -2   -1    0    0    0  501  0.00000000000E+00  0.00000000000E+00 -0.14723844383E+04  0.14723844383E+04  0.25500000920E-02 0. -1.
    10030    2    1    2    0    0  0.00000000000E+00  0.00000000000E+00  0.10701050685E+03  0.30517793834E+04  0.30499026471E+04 0.  0.
        4    1    3    3  502    0 -0.67418300292E+03 -0.64417126848E+03 -0.11538836675E+04  0.14835526535E+04  0.12699999809E+01 0. -1.
       -4    1    3    3    0  502  0.67418300292E+03  0.64417126848E+03  0.12608941744E+04  0.15682267299E+04  0.12699999809E+01 0.  1.
</event>
<event>
 5   0  0.9505359E-06  0.2843649E+04  0.7818609E-02  0.8289844E-01
        2   -1    0    0  501    0  0.00000000000E+00  0.00000000000E+00  0.98928027386E+03  0.98928027386E+03  0.25500000920E-02 0. -1.
       -2   -1    0    0    0  501  0.00000000000E+00  0.00000000000E+00 -0.20434906163E+04  0.20434906163E+04  0.25500000920E-02 0.  1.
    10030    2    1    2    0    0  0.00000000000E+00  0.00000000000E+00 -0.10542103424E+04  0.30327708901E+04  0.28436490336E+04 0.  0.
        4    1    3    3  502    0  0.47525940561E+03 -0.37396483113E+03  0.84527899154E+03  0.10393360303E+04  0.12699999809E+01 0. -1.
       -4    1    3    3    0  502 -0.47525940561E+03  0.37396483113E+03 -0.18994893339E+04  0.19934348598E+04  0.12699999809E+01 0.  1.
</event>
<event>
 5   0  0.3746518E-06  0.2852930E+04  0.7818609E-02  0.8287021E-01
       -1   -1    0    0    0  501  0.00000000000E+00  0.00000000000E+00  0.11480154603E+04  0.11480154603E+04  0.50400001928E-02 0. -1.
        1   -1    0    0  501    0  0.00000000000E+00  0.00000000000E+00 -0.17724526672E+04  0.17724526672E+04  0.50400001928E-02 0.  1.
    10030    2    1    2    0    0  0.00000000000E+00  0.00000000000E+00 -0.62443720687E+03  0.29204681275E+04  0.28529304685E+04 0.  0.
        4    1    3    3  502    0  0.79885620385E+03 -0.10278602572E+04 -0.90923463515E+03  0.15878844975E+04  0.12699999809E+01 0.  1.
       -4    1    3    3    0  502 -0.79885620385E+03  0.10278602572E+04  0.28479742828E+03  0.13325836300E+04  0.12699999809E+01 0. -1.
</event>
<event>
 5   0  0.3649705E-06  0.2911523E+04  0.7818609E-02  0.8269457E-01
       -1   -1    0    0    0  501  0.00000000000E+00  0.00000000000E+00  0.10683399955E+04  0.10683399955E+04  0.50400001928E-02 0.  1.
        1   -1    0    0  501    0  0.00000000000E+00  0.00000000000E+00 -0.19836765996E+04  0.19836765996E+04  0.50400001928E-02 0. -1.
    10030    2    1    2    0    0  0.00000000000E+00  0.00000000000E+00 -0.91533660417E+03  0.30520165951E+04  0.29115226597E+04 0.  0.
        2    1    3    3  502    0  0.81336769977E+03  0.11008402364E+04  0.62063833962E+02  0.13701343586E+04  0.25500000920E-02 0.  1.
       -2    1    3    3    0  502 -0.81336769977E+03 -0.11008402364E+04 -0.97740043813E+03  0.16818822365E+04  0.25500000920E-02 0. -1.
</event>
<event>
 5   0  0.9360689E-06  0.2885697E+04  0.7818609E-02  0.8277146E-01
       -2   -1    0    0    0  501  0.00000000000E+00  0.00000000000E+00  0.20494598227E+04  0.20494598227E+04  0.25500000920E-02 0. -1.
        2   -1    0    0  501    0  0.00000000000E+00  0.00000000000E+00 -0.10157859204E+04  0.10157859204E+04  0.25500000920E-02 0.  1.
    10030    2    1    2    0    0  0.00000000000E+00  0.00000000000E+00  0.10336739023E+04  0.30652457431E+04  0.28856974425E+04 0.  0.
        5    1    3    3  502    0  0.57819388002E+03  0.10543531443E+04  0.13638344956E+04  0.18182506256E+04  0.46999998093E+01 0. -1.
       -5    1    3    3    0  502 -0.57819388002E+03 -0.10543531443E+04 -0.33016059334E+03  0.12469951176E+04  0.46999998093E+01 0.  1.
</event>
<event>
 5   0  0.9360689E-06  0.2906573E+04  0.7818609E-02  0.8270924E-01
       -2   -1    0    0    0  501  0.00000000000E+00  0.00000000000E+00  0.89375702966E+03  0.89375702967E+03  0.25500000920E-02 0.  1.
        2   -1    0    0  501    0  0.00000000000E+00  0.00000000000E+00 -0.23631054913E+04  0.23631054913E+04  0.25500000920E-02 0. -1.
    10030    2    1    2    0    0  0.00000000000E+00  0.00000000000E+00 -0.14693484616E+04  0.32568625209E+04  0.29065733396E+04 0.  0.
        5    1    3    3  502    0 -0.11069459494E+04  0.86521279580E+03 -0.11510746023E+04  0.18162921976E+04  0.46999998093E+01 0. -1.
       -5    1    3    3    0  502  0.11069459494E+04 -0.86521279580E+03 -0.31827385932E+03  0.14405703233E+04  0.46999998093E+01 0.  1.
</event>
<event>
 5   0  0.3486236E-06  0.2702812E+04  0.7818609E-02  0.8334093E-01
        1   -1    0    0  501    0  0.00000000000E+00  0.00000000000E+00  0.85808119887E+03  0.85808119888E+03  0.50400001928E-02 0.  1.
       -1   -1    0    0    0  501  0.00000000000E+00  0.00000000000E+00 -0.21283514647E+04  0.21283514647E+04  0.50400001928E-02 0. -1.
    10030    2    1    2    0    0  0.00000000000E+00  0.00000000000E+00 -0.12702702658E+04  0.29864326636E+04  0.27028121477E+04 0.  0.
        5    1    3    3  502    0  0.33387887529E+03  0.90834808160E+03 -0.16773562470E+04  0.19365219880E+04  0.46999998093E+01 0. -1.
       -5    1    3    3    0  502 -0.33387887529E+03 -0.90834808160E+03  0.40708598113E+03  0.10499106756E+04  0.46999998093E+01 0.  1.
</event>
<event>
 5   0  0.9251510E-06  0.2913556E+04  0.7818609E-02  0.8268856E-01
        2   -1    0    0  501    0  0.00000000000E+00  0.00000000000E+00  0.27989291062E+04  0.27989291062E+04  0.25500000920E-02 0. -1.
       -2   -1    0    0    0  501  0.00000000000E+00  0.00000000000E+00 -0.75821939557E+03  0.75821939558E+03  0.25500000920E-02 0.  1.
    10030    2    1    2    0    0  0.00000000000E+00  0.00000000000E+00  0.20407097106E+04  0.35571485018E+04  0.29135561331E+04 0.  0.
        2    1    3    3  502    0 -0.13372914147E+04 -0.32088793248E+03  0.43370845331E+03  0.14420195615E+04  0.25500000920E-02 0.  1.
       -2    1    3    3    0  502  0.13372914147E+04  0.32088793248E+03  0.16070012573E+04  0.21151289403E+04  0.25500000920E-02 0. -1.
</event>
<event>
 5   0  0.3746518E-06  0.2892909E+04  0.7818609E-02  0.8274990E-01
        1   -1    0    0  501    0  0.00000000000E+00  0.00000000000E+00  0.64066244839E+03  0.64066244841E+03  0.50400001928E-02 0. -1.
       -1   -1    0    0    0  501  0.00000000000E+00  0.00000000000E+00 -0.32657310228E+04  0.32657310228E+04  0.50400001928E-02 0.  1.
    10030    2    1    2    0    0  0.00000000000E+00  0.00000000000E+00 -0.26250685744E+04  0.39063934712E+04  0.28929094233E+04 0.  0.
        4    1    3    3  502    0 -0.39008278199E+03  0.45592936525E+03  0.46467815968E+03  0.75892263630E+03  0.12699999809E+01 0. -1.
       -4    1    3    3    0  502  0.39008278199E+03 -0.45592936525E+03 -0.30897467341E+04  0.31474708349E+04  0.12699999809E+01 0.  1.
</event>
<event>
 5   0  0.9646321E-06  0.2908847E+04  0.7818609E-02  0.8270250E-01
       -2   -1    0    0    0  501  0.00000000000E+00  0.00000000000E+00  0.98156987391E+03  0.98156987391E+03  0.25500000920E-02 0. -1.
        2   -1    0    0  501    0  0.00000000000E+00  0.00000000000E+00 -0.21550652095E+04  0.21550652095E+04  0.25500000920E-02 0.  1.
    10030    2    1    2    0    0  0.00000000000E+00  0.00000000000E+00 -0.11734953356E+04  0.31366350834E+04  0.29088465659E+04 0.  0.
        3    1    3    3  502    0 -0.93122699847E+03  0.76109084503E+02  0.61515359809E+03  0.11186555658E+04  0.10100000352E+00 0. -1.
       -3    1    3    3    0  502  0.93122699847E+03 -0.76109084503E+02 -0.17886489337E+04  0.20179795177E+04  0.10100000352E+00 0.  1.
</event>
<event>
 5   0  0.9360689E-06  0.2863195E+04  0.7818609E-02  0.8283913E-01
        2   -1    0    0  501    0  0.00000000000E+00  0.00000000000E+00  0.14826808061E+04  0.14826808061E+04  0.25500000920E-02 0. -1.
       -2   -1    0    0    0  501  0.00000000000E+00  0.00000000000E+00 -0.13822740057E+04  0.13822740057E+04  0.25500000920E-02 0.  1.
    10030    2    1    2    0    0  0.00000000000E+00  0.00000000000E+00  0.10040680037E+03  0.28649548119E+04  0.28631948150E+04 0.  0.
        5    1    3    3  502    0  0.52184823432E+03  0.52335934061E+03 -0.11766083553E+04  0.13894818786E+04  0.46999998093E+01 0.  1.
       -5    1    3    3    0  502 -0.52184823432E+03 -0.52335934061E+03  0.12770151557E+04  0.14754729333E+04  0.46999998093E+01 0. -1.
</event>
<event>
 5   0  0.9251510E-06  0.2841631E+04  0.7818609E-02  0.8290459E-01
       -2   -1    0    0    0  501  0.00000000000E+00  0.00000000000E+00  0.12634299108E+04  0.12634299108E+04  0.25500000920E-02 0.  1.
        2   -1    0    0  501    0  0.00000000000E+00  0.00000000000E+00 -0.15978067544E+04  0.15978067544E+04  0.25500000920E-02 0. -1.
    10030    2    1    2    0    0  0.00000000000E+00  0.00000000000E+00 -0.33437684359E+03  0.28612366653E+04  0.28416311128E+04 0.  0.
        2    1    3    3  502    0 -0.92895953227E+03 -0.52325453139E+02 -0.12483813575E+04  0.15569713483E+04  0.25500000920E-02 0. -1.
       -2    1    3    3    0  502  0.92895953227E+03  0.52325453139E+02  0.91400451391E+03  0.13042653170E+04  0.25500000920E-02 0.  1.
</event>
<event>
 5   0  0.3474078E-06  0.2900120E+04  0.7818609E-02  0.8272842E-01
       -1   -1    0    0    0  501  0.00000000000E+00  0.00000000000E+00  0.12084609921E+04  0.12084609921E+04  0.50400001928E-02 0.  1.
        1   -1    0    0  501    0  0.00000000000E+00  0.00000000000E+00 -0.17399603658E+04  0.17399603658E+04  0.50400001928E-02 0. -1.
    10030    2    1    2    0    0  0.00000000000E+00  0.00000000000E+00 -0.53149937372E+03  0.29484213579E+04  0.29001201560E+04 0.  0.
        3    1    3    3  502    0  0.10401137711E+04  0.58624432491E+03 -0.11023492840E+04  0.16250209289E+04  0.10100000352E+00 0. -1.
       -3    1    3    3    0  502 -0.10401137711E+04 -0.58624432491E+03  0.57084991023E+03  0.13234004290E+04  0.10100000352E+00 0.  1.
</event>
<event>
 5   0  0.9251510E-06  0.2929214E+04  0.7818609E-02  0.8264238E-01
        2   -1    0    0  501    0  0.00000000000E+00  0.00000000000E+00  0.12094945109E+04  0.12094945109E+04  0.25500000920E-02 0. -1.
       -2   -1    0    0    0  501  0.00000000000E+00  0.00000000000E+00 -0.17735291361E+04  0.17735291361E+04  0.25500000920E-02 0.  1.
    10030    2    1    2    0    0  0.00000000000E+00  0.00000000000E+00 -0.56403462517E+03  0.29830236471E+04  0.29292140619E+04 0.  0.
        2    1    3    3  502    0  0.10856605955E+04  0.75110436603E+03 -0.92790561948E+03  0.16136373620E+04  0.25500000920E-02 0.  1.
       -2    1    3    3    0  502 -0.10856605955E+04 -0.75110436603E+03  0.36387099431E+03  0.13693862851E+04  0.25500000920E-02 0. -1.
</event>
<event>
 5   0  0.3486236E-06  0.2875151E+04  0.7818609E-02  0.8280309E-01
        1   -1    0    0  501    0  0.00000000000E+00  0.00000000000E+00  0.20078615177E+04  0.20078615177E+04  0.50400001928E-02 0. -1.
       -1   -1    0    0    0  501  0.00000000000E+00  0.00000000000E+00 -0.10292661179E+04  0.10292661179E+04  0.50400001928E-02 0.  1.
    10030    2    1    2    0    0  0.00000000000E+00  0.00000000000E+00  0.97859539987E+03  0.30371276356E+04  0.28751513557E+04 0.  0.
        5    1    3    3  502    0 -0.65430084852E+02  0.15981447291E+03 -0.10182615511E+04  0.10328119084E+04  0.46999998093E+01 0.  1.
       -5    1    3    3    0  502  0.65430084852E+02 -0.15981447291E+03  0.19968569509E+04  0.20043157272E+04  0.46999998093E+01 0. -1.
</event>
<event>
 5   0  0.3746518E-06  0.2897084E+04  0.7818609E-02  0.8273746E-01
        1   -1    0    0  501    0  0.00000000000E+00  0.00000000000E+00  0.21286602885E+04  0.21286602885E+04  0.50400001928E-02 0.  1.
       -1   -1    0    0    0  501  0.00000000000E+00  0.00000000000E+00 -0.98572520744E+03  0.98572520745E+03  0.50400001928E-02 0. -1.
    10030    2    1    2    0    0  0.00000000000E+00  0.00000000000E+00  0.11429350810E+04  0.31143854959E+04  0.28970841234E+04 0.  0.
        4    1    3    3  502    0 -0.20598452767E+03  0.12456880541E+03 -0.96407194474E+03  0.99367164620E+03  0.12699999809E+01 0. -1.
       -4    1    3    3    0  502  0.20598452767E+03 -0.12456880541E+03  0.21070070258E+04  0.21207138497E+04  0.12699999809E+01 0.  1.
</event>
<event>
 5   0  0.9646321E-06  0.2723130E+04  0.7818609E-02  0.8327539E-01
        2   -1    0    0  501    0  0.00000000000E+00  0.00000000000E+00  0.12617109679E+04  0.12617109679E+04  0.25500000920E-02 0.  1.
       -2   -1    0    0    0  501  0.00000000000E+00  0.00000000000E+00 -0.14693211536E+04  0.14693211536E+04  0.25500000920E-02 0. -1.
    10030    2    1    2    0    0  0.00000000000E+00  0.00000000000E+00 -0.20761018567E+03  0.27310321215E+04  0.27231295341E+04 0.  0.
        3    1    3    3  502    0 -0.24093344534E+03 -0.10607427445E+04 -0.92510440029E+03  0.14279503692E+04  0.10100000352E+00 0. -1.
       -3    1    3    3    0  502  0.24093344534E+03  0.10607427445E+04  0.71749421462E+03  0.13030817524E+04  0.10100000352E+00 0.  1.
</event>
<event>
 5   0  0.3474078E-06  0.2978412E+04  0.7818609E-02  0.8249922E-01
        1   -1    0    0  501    0  0.00000000000E+00  0.00000000000E+00  0.15462463369E+04  0.15462463369E+04  0.50400001928E-02 0.  1.
       -1   -1    0    0    0  501  0.00000000000E+00  0.00000000000E+00 -0.14342701491E+04  0.14342701491E+04  0.50400001928E-02 0. -1.
    10030    2    1    2    0    0  0.00000000000E+00  0.00000000000E+00  0.11197618780E+03  0.29805164860E+04  0.29784123046E+04 0.  0.
        3    1    3    3  502    0 -0.84955637329E+03  0.12062159825E+04 -0.14671840016E+03  0.14826426835E+04  0.10100000352E+00 0. -1.
       -3    1    3    3    0  502  0.84955637329E+03 -0.12062159825E+04  0.25869458796E+03  0.14978738024E+04  0.10100000352E+00 0.  1.
</event>
<event>
 5   0  0.3649705E-06  0.2919798E+04  0.7818609E-02  0.8267011E-01
        1   -1    0    0  501    0  0.00000000000E+00  0.00000000000E+00  0.20265888888E+04  0.20265888888E+04  0.50400001928E-02 0. -1.
       -1   -1    0    0    0  501  0.00000000000E+00  0.00000000000E+00 -0.10516711056E+04  0.10516711056E+04  0.50400001928E-02 0.  1.
    10030    2    1    2    0    0  0.00000000000E+00  0.00000000000E+00  0.97491778327E+03  0.30782599944E+04  0.29197979227E+04 0.  0.
        2    1    3    3  502    0  0.90210523522E+03 -0.11405766600E+04  0.35164184724E+03  0.14961152902E+04  0.25500000920E-02 0.  1.
       -2    1    3    3    0  502 -0.90210523522E+03  0.11405766600E+04  0.62327593603E+03  0.15821447043E+04  0.25500000920E-02 0. -1.
</event>
<event>
 5   0  0.3649705E-06  0.2513136E+04  0.7818609E-02  0.8398321E-01
        1   -1    0    0  501    0  0.00000000000E+00  0.00000000000E+00  0.84840157854E+03  0.84840157856E+03  0.50400001928E-02 0. -1.
       -1   -1    0    0    0  501  0.00000000000E+00  0.00000000000E+00 -0.18611031299E+04  0.18611031299E+04  0.50400001928E-02 0.  1.
    10030    2    1    2    0    0  0.00000000000E+00  0.00000000000E+00 -0.10127015514E+04  0.27095047085E+04  0.25131357570E+04 0.  0.
        2    1    3    3  502    0 -0.40103605521E+03 -0.44327309477E+03 -0.16979930916E+04  0.18001392983E+04  0.25500000920E-02 0.  1.
       -2    1    3    3    0  502  0.40103605521E+03  0.44327309477E+03  0.68529154023E+03  0.90936541019E+03  0.25500000920E-02 0. -1.
</event>
<event>
 5   0  0.9505359E-06  0.2975019E+04  0.7818609E-02  0.8250901E-01
       -2   -1    0    0    0  501  0.00000000000E+00  0.00000000000E+00  0.95322730329E+03  0.95322730330E+03  0.25500000920E-02 0.  1.
        2   -1    0    0  501    0  0.00000000000E+00  0.00000000000E+00 -0.23212555088E+04  0.23212555088E+04  0.25500000920E-02 0. -1.
    10030    2    1    2    0    0  0.00000000000E+00  0.00000000000E+00 -0.13680282055E+04  0.32744828121E+04  0.29750187421E+04 0.  0.
        4    1    3    3  502    0 -0.13622952484E+04  0.33770577582E+03 -0.14167927425E+03  0.14106623141E+04  0.12699999809E+01 0.  1.
       -4    1    3    3    0  502  0.13622952484E+04 -0.33770577582E+03 -0.12263489312E+04  0.18638204980E+04  0.12699999809E+01 0. -1.
</event>
<event>
 5   0  0.3564340E-06  0.2907497E+04  0.7818609E-02  0.8270651E-01
       -1   -1    0    0    0  501  0.00000000000E+00  0.00000000000E+00  0.13534569250E+04  0.13534569250E+04  0.50400001928E-02 0. -1.
        1   -1    0    0  501    0  0.00000000000E+00  0.00000000000E+00 -0.15614712081E+04  0.15614712081E+04  0.50400001928E-02 0.  1.
    10030    2    1    2    0    0  0.00000000000E+00  0.00000000000E+00 -0.20801428311E+03  0.29149281331E+04  0.29074965313E+04 0.  0.
        1    1    3    3  502    0  0.73847698202E+03  0.11366175039E+04  0.42282284788E+03  0.14198685728E+04  0.50400001928E-02 0.  1.
       -1    1    3    3    0  502 -0.73847698202E+03 -0.11366175039E+04 -0.63083713099E+03  0.14950595604E+04  0.50400001928E-02 0. -1.
</event>
<event>
 5   0  0.3564340E-06  0.2697724E+04  0.7818609E-02  0.8335744E-01
       -1   -1    0    0    0  501  0.00000000000E+00  0.00000000000E+00  0.21202230327E+04  0.21202230327E+04  0.50400001928E-02 0. -1.
        1   -1    0    0  501    0  0.00000000000E+00  0.00000000000E+00 -0.85813067233E+03  0.85813067234E+03  0.50400001928E-02 0.  1.
    10030    2    1    2    0    0  0.00000000000E+00  0.00000000000E+00  0.12620923603E+04  0.29783537050E+04  0.26977237935E+04 0.  0.
        1    1    3    3  502    0  0.15980977086E+03  0.17870833414E+03 -0.83442033262E+03  0.86817804803E+03  0.50400001928E-02 0.  1.
       -1    1    3    3    0  502 -0.15980977086E+03 -0.17870833414E+03  0.20965126930E+04  0.21101756570E+04  0.50400001928E-02 0. -1.
</event>
<event>
 5   0  0.9360689E-06  0.2937142E+04  0.7818609E-02  0.8261912E-01
        2   -1    0    0  501    0  0.00000000000E+00  0.00000000000E+00  0.10022116327E+04  0.10022116327E+04  0.25500000920E-02 0.  1.
       -2   -1    0    0    0  501  0.00000000000E+00  0.00000000000E+00 -0.21519418727E+04  0.21519418727E+04  0.25500000920E-02 0. -1.
    10030    2    1    2    0    0  0.00000000000E+00  0.00000000000E+00 -0.11497302399E+04  0.31541535054E+04  0.29371422695E+04 0.  0.
        5    1    3    3  502    0 -0.10393540418E+04  0.48569757171E+03 -0.15594018033E+04  0.19359532612E+04  0.46999998093E+01 0.  1.
       -5    1    3    3    0  502  0.10393540418E+04 -0.48569757171E+03  0.40967156335E+03  0.12182002443E+04  0.46999998093E+01 0. -1.
</event>
<event>
 5   0  0.1001573E-05  0.2823921E+04  0.7818609E-02  0.8295880E-01
       -2   -1    0    0    0  501  0.00000000000E+00  0.00000000000E+00  0.17696135236E+04  0.17696135236E+04  0.25500000920E-02 0.  1.
        2   -1    0    0  501    0  0.00000000000E+00  0.00000000000E+00 -0.11265922334E+04  0.11265922334E+04  0.25500000920E-02 0. -1.
    10030    2    1    2    0    0  0.00000000000E+00  0.00000000000E+00  0.64302129020E+03  0.28962057570E+04  0.28239212820E+04 0.  0.
        1    1    3    3  502    0 -0.55969872682E+03 -0.12566328717E+04  0.64784402622E+03  0.15205560567E+04  0.50400001928E-02 0.  1.
       -1    1    3    3    0  502  0.55969872682E+03  0.12566328717E+04 -0.48227360177E+01  0.13756497003E+04  0.50400001928E-02 0. -1.
</event>
<event>
 5   0  0.1001573E-05  0.2864094E+04  0.7818609E-02  0.8283641E-01
       -2   -1    0    0    0  501  0.00000000000E+00  0.00000000000E+00  0.11829347693E+04  0.11829347693E+04  0.25500000920E-02 0.  1.
        2   -1    0    0  501    0  0.00000000000E+00  0.00000000000E+00 -0.17336196418E+04  0.17336196418E+04  0.25500000920E-02 0. -1.
    10030    2    1    2    0    0  0.00000000000E+00  0.00000000000E+00 -0.55068487252E+03  0.29165544111E+04  0.28640942380E+04 0.  0.
        1    1    3    3  502    0  0.72895807149E+03 -0.11800937814E+04  0.87209339701E+02  0.13898225325E+04  0.50400001928E-02 0.  1.
       -1    1    3    3    0  502 -0.72895807149E+03  0.11800937814E+04 -0.63789421222E+03  0.15267318785E+04  0.50400001928E-02 0. -1.
</event>
<event>
 5   0  0.3474078E-06  0.2900602E+04  0.7818609E-02  0.8272698E-01
        1   -1    0    0  501    0  0.00000000000E+00  0.00000000000E+00  0.17103634253E+04  0.17103634253E+04  0.50400001928E-02 0.  1.
       -1   -1    0    0    0  501  0.00000000000E+00  0.00000000000E+00 -0.12297814629E+04  0.12297814629E+04  0.50400001928E-02 0. -1.
    10030    2    1    2    0    0  0.00000000000E+00  0.00000000000E+00  0.48058196239E+03  0.29401448882E+04  0.29006021687E+04 0.  0.
        3    1    3    3  502    0  0.18758589378E+03 -0.73335163806E+03 -0.10136590333E+04  0.12651077972E+04  0.10100000352E+00 0. -1.
       -3    1    3    3    0  502 -0.18758589378E+03  0.73335163806E+03  0.14942409957E+04  0.16750370909E+04  0.10100000352E+00 0.  1.
</event>
<event>
 5   0  0.9360689E-06  0.2870114E+04  0.7818609E-02  0.8281825E-01
       -2   -1    0    0    0  501  0.00000000000E+00  0.00000000000E+00  0.14107429195E+04  0.14107429195E+04  0.25500000920E-02 0.  1.
        2   -1    0    0  501    0  0.00000000000E+00  0.00000000000E+00 -0.14597903146E+04  0.14597903146E+04  0.25500000920E-02 0. -1.
    10030    2    1    2    0    0  0.00000000000E+00  0.00000000000E+00 -0.49047395110E+02  0.28705332341E+04  0.28701141792E+04 0.  0.
        5    1    3    3  502    0 -0.39105562360E+03  0.30293651862E+03  0.13227705061E+04  0.14122460610E+04  0.46999998093E+01 0.  1.
       -5    1    3    3    0  502  0.39105562360E+03 -0.30293651862E+03 -0.13718179012E+04  0.14582871731E+04  0.46999998093E+01 0. -1.
</event>
<event>
 5   0  0.9251510E-06  0.2892689E+04  0.7818609E-02  0.8275056E-01
        2   -1    0    0  501    0  0.00000000000E+00  0.00000000000E+00  0.23664248085E+04  0.23664248085E+04  0.25500000920E-02 0.  1.
       -2   -1    0    0    0  501  0.00000000000E+00  0.00000000000E+00 -0.88399720922E+03  0.88399720922E+03  0.25500000920E-02 0. -1.
    10030    2    1    2    0    0  0.00000000000E+00  0.00000000000E+00  0.14824275993E+04  0.32504220177E+04  0.28926893553E+04 0.  0.
        2    1    3    3  502    0 -0.12131368590E+04  0.54587786099E+03  0.10336104836E+03  0.13343040074E+04  0.25500000920E-02 0. -1.
       -2    1    3    3    0  502  0.12131368590E+04 -0.54587786099E+03  0.13790665509E+04  0.19161180104E+04  0.25500000920E-02 0.  1.
</event>
<event>
 5   0  0.3486236E-06  0.2891625E+04  0.7818609E-02  0.8275374E-01
        1   -1    0    0  501    0  0.00000000000E+00  0.00000000000E+00  0.12731996651E+04  0.12731996651E+04  0.50400001928E-02 0. -1.
       -1   -1    0    0    0  501  0.00000000000E+00  0.00000000000E+00 -0.16418267337E+04  0.16418267337E+04  0.50400001928E-02 0.  1.
    10030    2    1    2    0    0  0.00000000000E+00  0.00000000000E+00 -0.36862706864E+03  0.29150263988E+04  0.28916246281E+04 0.  0.
        5    1    3    3  502    0  0.12488309556E+03  0.16357519518E+03  0.12583511378E+04  0.12750773733E+04  0.46999998093E+01 0. -1.
       -5    1    3    3    0  502 -0.12488309556E+03 -0.16357519518E+03 -0.16269782064E+04  0.16399490255E+04  0.46999998093E+01 0.  1.
</event>
<event>
 5   0  0.1001573E-05  0.2899827E+04  0.7818609E-02  0.8272929E-01
       -2   -1    0    0    0  501  0.00000000000E+00  0.00000000000E+00  0.28084694949E+04  0.28084694949E+04  0.25500000920E-02 0. -1.
        2   -1    0    0  501    0  0.00000000000E+00  0.00000000000E+00 -0.74853914564E+03  0.74853914565E+03  0.25500000920E-02 0.  1.
    10030    2    1    2    0    0  0.00000000000E+00  0.00000000000E+00  0.20599303493E+04  0.35570086406E+04  0.28998271371E+04 0.  0.
        1    1    3    3  502    0  0.13412130769E+03 -0.64960210391E+03 -0.55151820025E+03  0.86263766659E+03  0.50400001928E-02 0.  1.
       -1    1    3    3    0  502 -0.13412130769E+03  0.64960210391E+03  0.26114485495E+04  0.26943709740E+04  0.50400001928E-02 0. -1.
</event>
<event>
 5   0  0.9505359E-06  0.2901064E+04  0.7818609E-02  0.8272561E-01
       -2   -1    0    0    0  501  0.00000000000E+00  0.00000000000E+00  0.14001024946E+04  0.14001024946E+04  0.25500000920E-02 0.  1.
        2   -1    0    0  501    0  0.00000000000E+00  0.00000000000E+00 -0.15027777031E+04  0.15027777031E+04  0.25500000920E-02 0. -1.
    10030    2    1    2    0    0  0.00000000000E+00  0.00000000000E+00 -0.10267520853E+03  0.29028801977E+04  0.29010638124E+04 0.  0.
        4    1    3    3  502    0  0.43615011900E+03  0.69846377181E+03 -0.12462220377E+04  0.14937032995E+04  0.12699999809E+01 0. -1.
       -4    1    3    3    0  502 -0.43615011900E+03 -0.69846377181E+03  0.11435468292E+04  0.14091768981E+04  0.12699999809E+01 0.  1.
</event>
<event>
 5   0  0.1001573E-05  0.2868516E+04  0.7818609E-02  0.8282307E-01
        2   -1    0    0  501    0  0.00000000000E+00  0.00000000000E+00  0.11543133014E+04  0.11543133014E+04  0.25500000920E-02 0. -1.
       -2   -1    0    0    0  501  0.00000000000E+00  0.00000000000E+00 -0.17820947630E+04  0.17820947630E+04  0.25500000920E-02 0.  1.
    10030    2    1    2    0    0  0.00000000000E+00  0.00000000000E+00 -0.62778146160E+03  0.29364080644E+04  0.28685157760E+04 0.  0.
        1    1    3    3  502    0 -0.38206605044E+03  0.10574579261E+04 -0.12254175644E+04  0.16630814591E+04  0.50400001928E-02 0.  1.
       -1    1    3    3    0  502  0.38206605044E+03 -0.10574579261E+04  0.59763610277E+03  0.12733266053E+04  0.50400001928E-02 0. -1.
</event>
<event>
 5   0  0.9251510E-06  0.2879371E+04  0.7818609E-02  0.8279042E-01
        2   -1    0    0  501    0  0.00000000000E+00  0.00000000000E+00  0.10686103456E+04  0.10686103456E+04  0.25500000920E-02 0. -1.
       -2   -1    0    0    0  501  0.00000000000E+00  0.00000000000E+00 -0.19396168229E+04  0.19396168229E+04  0.25500000920E-02 0.  1.
    10030    2    1    2    0    0  0.00000000000E+00  0.00000000000E+00 -0.87100647733E+03  0.30082271685E+04  0.28793711837E+04 0.  0.
        2    1    3    3  502    0 -0.15792745948E+02 -0.12719157109E+04  0.26896887707E+03  0.13001397014E+04  0.25500000920E-02 0. -1.
       -2    1    3    3    0  502  0.15792745948E+02  0.12719157109E+04 -0.11399753544E+04  0.17080874670E+04  0.25500000920E-02 0.  1.
</event>
<event>
 5   0  0.3649705E-06  0.2997867E+04  0.7818609E-02  0.8244340E-01
       -1   -1    0    0    0  501  0.00000000000E+00  0.00000000000E+00  0.85701371750E+03  0.85701371752E+03  0.50400001928E-02 0. -1.
        1   -1    0    0  501    0  0.00000000000E+00  0.00000000000E+00 -0.26216627662E+04  0.26216627662E+04  0.50400001928E-02 0.  1.
    10030    2    1    2    0    0  0.00000000000E+00  0.00000000000E+00 -0.17646490487E+04  0.34786764837E+04  0.29978665436E+04 0.  0.
        2    1    3    3  502    0 -0.41516940727E+03 -0.13608911412E+04 -0.14295666292E+04  0.20169410210E+04  0.25500000920E-02 0.  1.
       -2    1    3    3    0  502  0.41516940727E+03  0.13608911412E+04 -0.33508241953E+03  0.14617354627E+04  0.25500000920E-02 0. -1.
</event>
<event>
 5   0  0.3649705E-06  0.2797231E+04  0.7818609E-02  0.8304129E-01
        1   -1    0    0  501    0  0.00000000000E+00  0.00000000000E+00  0.10084551391E+04  0.10084551391E+04  0.50400001928E-02 0.  1.
       -1   -1    0    0    0  501  0.00000000000E+00  0.00000000000E+00 -0.19397247375E+04  0.19397247375E+04  0.50400001928E-02 0. -1.
    10030    2    1    2    0    0  0.00000000000E+00  0.00000000000E+00 -0.93126959836E+03  0.29481798766E+04  0.27972310451E+04 0.  0.
        2    1    3    3  502    0 -0.71421662606E+03  0.12025057086E+04 -0.46552033499E+03  0.14740537814E+04  0.25500000920E-02 0.  1.
       -2    1    3    3    0  502  0.71421662606E+03 -0.12025057086E+04 -0.46574926337E+03  0.14741260952E+04  0.25500000920E-02 0. -1.
</event>
<event>
 5   0  0.1001573E-05  0.2870215E+04  0.7818609E-02  0.8281795E-01
        2   -1    0    0  501    0  0.00000000000E+00  0.00000000000E+00  0.16562566863E+04  0.16562566863E+04  0.25500000920E-02 0. -1.
       -2   -1    0    0    0  501  0.00000000000E+00  0.00000000000E+00 -0.12434871037E+04  0.12434871037E+04  0.25500000920E-02 0.  1.
    10030    2    1    2    0    0  0.00000000000E+00  0.00000000000E+00  0.41276958257E+03  0.28997437900E+04  0.28702152044E+04 0.  0.
        1    1    3    3  502    0  0.65298500429E+03  0.31981559786E+03  0.14563940913E+04  0.16278068625E+04  0.50400001928E-02 0. -1.
       -1    1    3    3    0  502 -0.65298500429E+03 -0.31981559786E+03 -0.10436245087E+04  0.12719369275E+04  0.50400001928E-02 0.  1.
</event>
<event>
 5   0  0.3564340E-06  0.2854325E+04  0.7818609E-02  0.8286598E-01
       -1   -1    0    0    0  501  0.00000000000E+00  0.00000000000E+00  0.89515218070E+03  0.89515218071E+03  0.50400001928E-02 0.  1.
        1   -1    0    0  501    0  0.00000000000E+00  0.00000000000E+00 -0.22753595945E+04  0.22753595945E+04  0.50400001928E-02 0. -1.
    10030    2    1    2    0    0  0.00000000000E+00  0.00000000000E+00 -0.13802074138E+04  0.31705117752E+04  0.28543252113E+04 0.  0.
        1    1    3    3  502    0  0.93917848235E+03 -0.95164532624E+03 -0.13570807255E+03  0.13439128430E+04  0.50400001928E-02 0.  1.
       -1    1    3    3    0  502 -0.93917848235E+03  0.95164532624E+03 -0.12444993412E+04  0.18265989322E+04  0.50400001928E-02 0. -1.
</event>
<event>
 5   0  0.3486236E-06  0.2918198E+04  0.7818609E-02  0.8267484E-01
       -1   -1    0    0    0  501  0.00000000000E+00  0.00000000000E+00  0.19458921743E+04  0.19458921743E+04  0.50400001928E-02 0. -1.
        1   -1    0    0  501    0  0.00000000000E+00  0.00000000000E+00 -0.10940841062E+04  0.10940841063E+04  0.50400001928E-02 0.  1.
    10030    2    1    2    0    0  0.00000000000E+00  0.00000000000E+00  0.85180806805E+03  0.30399762806E+04  0.29181978688E+04 0.  0.
        5    1    3    3  502    0  0.10515309608E+04 -0.10115484411E+04  0.42591115350E+03  0.15199901352E+04  0.46999998093E+01 0. -1.
       -5    1    3    3    0  502 -0.10515309608E+04  0.10115484411E+04  0.42589691455E+03  0.15199861454E+04  0.46999998093E+01 0.  1.
</event>
<event>
 5   0  0.1001573E-05  0.2961929E+04  0.7818609E-02  0.8254687E-01
        2   -1    0    0  501    0  0.00000000000E+00  0.00000000000E+00  0.89937699058E+03  0.89937699059E+03  0.25500000920E-02 0. -1.
       -2   -1    0    0    0  501  0.00000000000E+00  0.00000000000E+00 -0.24386387692E+04  0.24386387692E+04  0.25500000920E-02 0.  1.
    10030    2    1    2    0    0  0.00000000000E+00  0.00000000000E+00 -0.15392617786E+04  0.33380157598E+04  0.29619288292E+04 0.  0.
        1    1    3    3  502    0 -0.44285124656E+02 -0.13804950813E+04 -0.13718269769E+04  0.19466990257E+04  0.50400001928E-02 0.  1.
       -1    1    3    3    0  502  0.44285124656E+02  0.13804950813E+04 -0.16743480165E+03  0.13913167341E+04  0.50400001928E-02 0. -1.
</event>
<event>
 5   0  0.3746518E-06  0.3060388E+04  0.7818609E-02  0.8226694E-01
       -1   -1    0    0    0  501  0.00000000000E+00  0.00000000000E+00  0.10995000372E+04  0.10995000372E+04  0.50400001928E-02 0. -1.
        1   -1    0    0  501    0  0.00000000000E+00  0.00000000000E+00 -0.21295991583E+04  0.21295991583E+04  0.50400001928E-02 0.  1.
    10030    2    1    2    0    0  0.00000000000E+00  0.00000000000E+00 -0.10300991211E+04  0.32290991955E+04  0.30603884418E+04 0.  0.
        4    1    3    3  502    0  0.81843106813E+03  0.12209287307E+04 -0.96393938023E+03  0.17577477408E+04  0.12699999809E+01 0.  1.
       -4    1    3    3    0  502 -0.81843106813E+03 -0.12209287307E+04 -0.66159740821E+02  0.14713514546E+04  0.12699999809E+01 0. -1.
</event>
<event>
 5   0  0.9251510E-06  0.2900021E+04  0.7818609E-02  0.8272871E-01
        2   -1    0    0  501    0  0.00000000000E+00  0.00000000000E+00  0.21539699199E+04  0.21539699199E+04  0.25500000920E-02 0.  1.
       -2   -1    0    0    0  501  0.00000000000E+00  0.00000000000E+00 -0.97611887188E+03  0.97611887189E+03  0.25500000920E-02 0. -1.
    10030    2    1    2    0    0  0.00000000000E+00  0.00000000000E+00  0.11778510480E+04  0.31300887918E+04  0.29000211642E+04 0.  0.
        2    1    3    3  502    0  0.89052307230E+03 -0.11171544918E+04  0.32133539102E+03  0.14643503455E+04  0.25500000920E-02 0. -1.
       -2    1    3    3    0  502 -0.89052307230E+03  0.11171544918E+04  0.85651565698E+03  0.16657384463E+04  0.25500000920E-02 0.  1.
</event>
<event>
 5   0  0.3746518E-06  0.2902745E+04  0.7818609E-02  0.8272061E-01
       -1   -1    0    0    0  501  0.00000000000E+00  0.00000000000E+00  0.12435235496E+04  0.12435235496E+04  0.50400001928E-02 0.  1.
        1   -1    0    0  501    0  0.00000000000E+00  0.00000000000E+00 -0.16939625019E+04  0.16939625019E+04  0.50400001928E-02 0. -1.
    10030    2    1    2    0    0  0.00000000000E+00  0.00000000000E+00 -0.45043895236E+03  0.29374860515E+04  0.29027450892E+04 0.  0.
        4    1    3    3  502    0  0.76170453740E+03 -0.26076930523E+03 -0.14472675749E+04  0.16561338952E+04  0.12699999809E+01 0. -1.
       -4    1    3    3    0  502 -0.76170453740E+03  0.26076930523E+03  0.99682862249E+03  0.12813521563E+04  0.12699999809E+01 0.  1.
</event>
<event>
 5   0  0.3564340E-06  0.2869735E+04  0.7818609E-02  0.8281940E-01
       -1   -1    0    0    0  501  0.00000000000E+00  0.00000000000E+00  0.97450368790E+03  0.97450368791E+03  0.50400001928E-02 0.  1.
        1   -1    0    0  501    0  0.00000000000E+00  0.00000000000E+00 -0.21127110247E+04  0.21127110247E+04  0.50400001928E-02 0. -1.
    10030    2    1    2    0    0  0.00000000000E+00  0.00000000000E+00 -0.11382073368E+04  0.30872147126E+04  0.28697349599E+04 0.  0.
        1    1    3    3  502    0 -0.10716839793E+04  0.94176640820E+03 -0.73371676799E+03  0.16042976079E+04  0.50400001928E-02 0. -1.
       -1    1    3    3    0  502  0.10716839793E+04 -0.94176640820E+03 -0.40449056881E+03  0.14829171047E+04  0.50400001928E-02 0.  1.
</event>
<event>
 5   0  0.9360689E-06  0.2862275E+04  0.7818609E-02  0.8284191E-01
        2   -1    0    0  501    0  0.00000000000E+00  0.00000000000E+00  0.16551380157E+04  0.16551380157E+04  0.25500000920E-02 0.  1.
       -2   -1    0    0    0  501  0.00000000000E+00  0.00000000000E+00 -0.12374520912E+04  0.12374520912E+04  0.25500000920E-02 0. -1.
    10030    2    1    2    0    0  0.00000000000E+00  0.00000000000E+00  0.41768592443E+03  0.28925901069E+04  0.28622746191E+04 0.  0.
        5    1    3    3  502    0 -0.37060617374E+03  0.73197639761E+03 -0.97617770227E+03  0.12751797438E+04  0.46999998093E+01 0. -1.
       -5    1    3    3    0  502  0.37060617374E+03 -0.73197639761E+03  0.13938636267E+04  0.16174103630E+04  0.46999998093E+01 0.  1.
</event>
<event>
 5   0  0.3474078E-06  0.2911424E+04  0.7818609E-02  0.8269487E-01
        1   -1    0    0  501    0  0.00000000000E+00  0.00000000000E+00  0.23018642978E+04  0.23018642978E+04  0.50400001928E-02 0.  1.
       -1   -1    0    0    0  501  0.00000000000E+00  0.00000000000E+00 -0.92060041424E+03  0.92060041425E+03  0.50400001928E-02 0. -1.
    10030    2    1    2    0    0  0.00000000000E+00  0.00000000000E+00  0.13812638835E+04  0.32224647120E+04  0.29114238620E+04 0.  0.
        3    1    3    3  502    0 -0.11112014906E+04 -0.89734316906E+03  0.37933050001E+03  0.14777973996E+04  0.10100000352E+00 0. -1.
       -3    1    3    3    0  502  0.11112014906E+04  0.89734316906E+03  0.10019333835E+04  0.17446673124E+04  0.10100000352E+00 0.  1.
</event>
<event>
 5   0  0.3474078E-06  0.2922935E+04  0.7818609E-02  0.8266086E-01
       -1   -1    0    0    0  501  0.00000000000E+00  0.00000000000E+00  0.10463734832E+04  0.10463734832E+04  0.50400001928E-02 0. -1.
        1   -1    0    0  501    0  0.00000000000E+00  0.00000000000E+00 -0.20412278652E+04  0.20412278652E+04  0.50400001928E-02 0.  1.
    10030    2    1    2    0    0  0.00000000000E+00  0.00000000000E+00 -0.99485438201E+03  0.30876013485E+04  0.29229346291E+04 0.  0.
        3    1    3    3  502    0 -0.88217181777E+03  0.11211387045E+04 -0.83264973851E+03  0.16518125523E+04  0.10100000352E+00 0. -1.
       -3    1    3    3    0  502  0.88217181777E+03 -0.11211387045E+04 -0.16220464350E+03  0.14357887962E+04  0.10100000352E+00 0.  1.
</event>
<event>
 5   0  0.9251510E-06  0.2986999E+04  0.7818609E-02  0.8247453E-01
       -2   -1    0    0    0  501  0.00000000000E+00  0.00000000000E+00  0.16134402773E+04  0.16134402773E+04  0.25500000920E-02 0.  1.
        2   -1    0    0  501    0  0.00000000000E+00  0.00000000000E+00 -0.13824750301E+04  0.13824750301E+04  0.25500000920E-02 0. -1.
    10030    2    1    2    0    0  0.00000000000E+00  0.00000000000E+00  0.23096524724E+03  0.29959153075E+04  0.29869990934E+04 0.  0.
        2    1    3    3  502    0  0.86953398284E+03  0.78904376845E+03  0.10412010991E+04  0.15693244230E+04  0.25500000920E-02 0.  1.
       -2    1    3    3    0  502 -0.86953398284E+03 -0.78904376845E+03 -0.81023585189E+03  0.14265908844E+04  0.25500000920E-02 0. -1.
</event>
<event>
 5   0  0.9505359E-06  0.2924536E+04  0.7818609E-02  0.8265614E-01
        2   -1    0    0  501    0  0.00000000000E+00  0.00000000000E+00  0.11830113035E+04  0.11830113035E+04  0.25500000920E-02 0.  1.
       -2   -1    0    0    0  501  0.00000000000E+00  0.00000000000E+00 -0.18074454809E+04  0.18074454809E+04  0.25500000920E-02 0. -1.
    10030    2    1    2    0    0  0.00000000000E+00  0.00000000000E+00 -0.62443417743E+03  0.29904567844E+04  0.29245364996E+04 0.  0.
        4    1    3    3  502    0 -0.83603794647E+03 -0.90925242990E+03  0.48806526790E+03  0.13281222639E+04  0.12699999809E+01 0.  1.
       -4    1    3    3    0  502  0.83603794647E+03  0.90925242990E+03 -0.11124994453E+04  0.16623345205E+04  0.12699999809E+01 0. -1.
</event>
<event>
 5   0  0.3474078E-06  0.2842898E+04  0.7818609E-02  0.8290073E-01
       -1   -1    0    0    0  501  0.00000000000E+00  0.00000000000E+00  0.13523106538E+04  0.13523106538E+04  0.50400001928E-02 0.  1.
        1   -1    0    0  501    0  0.00000000000E+00  0.00000000000E+00 -0.14941221030E+04  0.14941221030E+04  0.50400001928E-02 0. -1.
    10030    2    1    2    0    0  0.00000000000E+00  0.00000000000E+00 -0.14181144924E+03  0.28464327568E+04  0.28428979847E+04 0.  0.
        3    1    3    3  502    0 -0.99663036469E+03 -0.94651556381E+03 -0.43378349477E+03  0.14412952254E+04  0.10100000352E+00 0. -1.
       -3    1    3    3    0  502  0.99663036469E+03  0.94651556381E+03  0.29197204552E+03  0.14051375313E+04  0.10100000352E+00 0.  1.
</event>
<event>
 5   0  0.9251510E-06  0.2927530E+04  0.7818609E-02  0.8264733E-01
        2   -1    0    0  501    0  0.00000000000E+00  0.00000000000E+00  0.13723167015E+04  0.13723167015E+04  0.25500000920E-02 0. -1.
       -2   -1    0    0    0  501  0.00000000000E+00  0.00000000000E+00 -0.15613076026E+04  0.15613076026E+04  0.25500000920E-02 0.  1.
    10030    2    1    2    0    0  0.00000000000E+00  0.00000000000E+00 -0.18899090112E+03  0.29336243041E+04  0.29275303580E+04 0.  0.
        2    1    3    3  502    0 -0.26409182540E+03 -0.11557125446E+04 -0.95488187248E+03  0.15222402466E+04  0.25500000920E-02 0.  1.
       -2    1    3    3    0  502  0.26409182540E+03  0.11557125446E+04  0.76589097137E+03  0.14113840575E+04  0.25500000920E-02 0. -1.
</event>
<event>
 5   0  0.9505359E-06  0.2806883E+04  0.7818609E-02  0.8301135E-01
       -2   -1    0    0    0  501  0.00000000000E+00  0.00000000000E+00  0.17723545198E+04  0.17723545198E+04  0.25500000920E-02 0.  1.
        2   -1    0    0  501    0  0.00000000000E+00  0.00000000000E+00 -0.11113170853E+04  0.11113170853E+04  0.25500000920E-02 0. -1.
    10030    2    1    2    0    0  0.00000000000E+00  0.00000000000E+00  0.66103743454E+03  0.28836716051E+04  0.28068828683E+04 0.  0.
        4    1    3    3  502    0  0.70451923635E+03 -0.85225256669E+03 -0.55739645902E+03  0.12382948830E+04  0.12699999809E+01 0. -1.
       -4    1    3    3    0  502 -0.70451923635E+03  0.85225256669E+03  0.12184338936E+04  0.16453767221E+04  0.12699999809E+01 0.  1.
</event>
<event>
 5   0  0.9646321E-06  0.2877017E+04  0.7818609E-02  0.8279749E-01
        2   -1    0    0  501    0  0.00000000000E+00  0.00000000000E+00  0.18484148343E+04  0.18484148343E+04  0.25500000920E-02 0.  1.
       -2   -1    0    0    0  501  0.00000000000E+00  0.00000000000E+00 -0.11195035468E+04  0.11195035468E+04  0.25500000920E-02 0. -1.
    10030    2    1    2    0    0  0.00000000000E+00  0.00000000000E+00  0.72891128755E+03  0.29679183811E+04  0.28770171796E+04 0.  0.
        3    1    3    3  502    0 -0.96870656367E+02  0.12601517563E+04  0.10731405107E+04  0.16580099333E+04  0.10100000352E+00 0.  1.
       -3    1    3    3    0  502  0.96870656367E+02 -0.12601517563E+04 -0.34422922319E+03  0.13099084477E+04  0.10100000352E+00 0. -1.
</event>
<event>
 5   0  0.3474078E-06  0.2895281E+04  0.7818609E-02  0.8274283E-01
       -1   -1    0    0    0  501  0.00000000000E+00  0.00000000000E+00  0.71193609735E+03  0.71193609737E+03  0.50400001928E-02 0.  1.
        1   -1    0    0  501    0  0.00000000000E+00  0.00000000000E+00 -0.29436101664E+04  0.29436101664E+04  0.50400001928E-02 0. -1.
    10030    2    1    2    0    0  0.00000000000E+00  0.00000000000E+00 -0.22316740691E+04  0.36555462638E+04  0.28952805280E+04 0.  0.
        3    1    3    3  502    0  0.41927310198E+03 -0.92801485826E+03 -0.24149294698E+04  0.26208559414E+04  0.10100000352E+00 0. -1.
       -3    1    3    3    0  502 -0.41927310198E+03  0.92801485826E+03  0.18325540071E+03  0.10346903224E+04  0.10100000352E+00 0.  1.
</event>
<event>
 5   0  0.9251510E-06  0.2421918E+04  0.7818609E-02  0.8431343E-01
        2   -1    0    0  501    0  0.00000000000E+00  0.00000000000E+00  0.14829371871E+04  0.14829371871E+04  0.25500000920E-02 0.  1.
       -2   -1    0    0    0  501  0.00000000000E+00  0.00000000000E+00 -0.98886298261E+03  0.98886298261E+03  0.25500000920E-02 0. -1.
    10030    2    1    2    0    0  0.00000000000E+00  0.00000000000E+00  0.49407420448E+03  0.24718001697E+04  0.24219179919E+04 0.  0.
        2    1    3    3  502    0  0.13496251492E+03 -0.92232447083E+03  0.10359548735E+04  0.13935924117E+04  0.25500000920E-02 0.  1.
       -2    1    3    3    0  502 -0.13496251492E+03  0.92232447083E+03 -0.54188066905E+03  0.10782077580E+04  0.25500000920E-02 0. -1.
</event>
<event>
 5   0  0.3188375E-06  0.2960306E+04  0.7818609E-02  0.8255157E-01
        3   -1    0    0  501    0  0.00000000000E+00  0.00000000000E+00  0.12628569451E+04  0.12628569491E+04  0.10100000352E+00 0. -1.
       -3   -1    0    0    0  501  0.00000000000E+00  0.00000000000E+00 -0.17348389651E+04  0.17348389680E+04  0.10100000352E+00 0.  1.
    10030    2    1    2    0    0  0.00000000000E+00  0.00000000000E+00 -0.47198201998E+03  0.29976959171E+04  0.29603063667E+04 0.  0.
        2    1    3    3  502    0 -0.12187148102E+04  0.34166248565E+03 -0.10130515951E+04  0.16211947992E+04  0.25500000920E-02 0.  1.
       -2    1    3    3    0  502  0.12187148102E+04 -0.34166248565E+03  0.54106957511E+03  0.13765011180E+04  0.25500000920E-02 0. -1.
</event>
<event>
 5   0  0.3746518E-06  0.2891514E+04  0.7818609E-02  0.8275407E-01
       -1   -1    0    0    0  501  0.00000000000E+00  0.00000000000E+00  0.20760419226E+04  0.20760419227E+04  0.50400001928E-02 0. -1.
        1   -1    0    0  501    0  0.00000000000E+00  0.00000000000E+00 -0.10068258898E+04  0.10068258899E+04  0.50400001928E-02 0.  1.
    10030    2    1    2    0    0  0.00000000000E+00  0.00000000000E+00  0.10692160328E+04  0.30828678125E+04  0.28915136217E+04 0.  0.
        4    1    3    3  502    0 -0.25568017810E+03 -0.56804528728E+03 -0.85640206440E+03  0.10589966528E+04  0.12699999809E+01 0.  1.
       -4    1    3    3    0  502  0.25568017810E+03  0.56804528728E+03  0.19256180972E+04  0.20238711597E+04  0.12699999809E+01 0. -1.
</event>
<event>
 5   0  0.9251510E-06  0.2866282E+04  0.7818609E-02  0.8282981E-01
        2   -1    0    0  501    0  0.00000000000E+00  0.00000000000E+00  0.14213749584E+04  0.14213749584E+04  0.25500000920E-02 0. -1.
       -2   -1    0    0    0  501  0.00000000000E+00  0.00000000000E+00 -0.14450041361E+04  0.14450041361E+04  0.25500000920E-02 0.  1.
    10030    2    1    2    0    0  0.00000000000E+00  0.00000000000E+00 -0.23629177749E+02  0.28663790945E+04  0.28662816985E+04 0.  0.
        2    1    3    3  502    0  0.13175757315E+04 -0.49251059662E+03  0.26263999119E+03  0.14309270635E+04  0.25500000920E-02 0. -1.
       -2    1    3    3    0  502 -0.13175757315E+04  0.49251059662E+03 -0.28626916894E+03  0.14354520310E+04  0.25500000920E-02 0.  1.
</event>
<event>
 5   0  0.3486236E-06  0.2845023E+04  0.7818609E-02  0.8289425E-01
        1   -1    0    0  501    0  0.00000000000E+00  0.00000000000E+00  0.23284394053E+04  0.23284394053E+04  0.50400001928E-02 0.  1.
       -1   -1    0    0    0  501  0.00000000000E+00  0.00000000000E+00 -0.86905364083E+03  0.86905364085E+03  0.50400001928E-02 0. -1.
    10030    2    1    2    0    0  0.00000000000E+00  0.00000000000E+00  0.14593857645E+04  0.31974930462E+04  0.28450228419E+04 0.  0.
        5    1    3    3  502    0 -0.63932072581E+02 -0.10573473553E+04 -0.33737902924E+03  0.11117182372E+04  0.46999998093E+01 0. -1.
       -5    1    3    3    0  502  0.63932072581E+02  0.10573473553E+04  0.17967647937E+04  0.20857748089E+04  0.46999998093E+01 0.  1.
</event>
<event>
 5   0  0.3486236E-06  0.2935573E+04  0.7818609E-02  0.8262371E-01
        1   -1    0    0  501    0  0.00000000000E+00  0.00000000000E+00  0.17787227000E+04  0.17787227000E+04  0.50400001928E-02 0.  1.
       -1   -1    0    0    0  501  0.00000000000E+00  0.00000000000E+00 -0.12112048856E+04  0.12112048856E+04  0.50400001928E-02 0. -1.
    10030    2    1    2    0    0  0.00000000000E+00  0.00000000000E+00  0.56751781436E+03  0.29899275856E+04  0.29355732826E+04 0.  0.
        5    1    3    3  502    0  0.58907554525E+03  0.37745688996E+02 -0.10849764889E+04  0.12351642832E+04  0.46999998093E+01 0. -1.
       -5    1    3    3    0  502 -0.58907554525E+03 -0.37745688996E+02  0.16524943033E+04  0.17547633024E+04  0.46999998093E+01 0.  1.
</event>
<event>
 5   0  0.3474078E-06  0.2867274E+04  0.7818609E-02  0.8282681E-01
        1   -1    0    0  501    0  0.00000000000E+00  0.00000000000E+00  0.15741457591E+04  0.15741457591E+04  0.50400001928E-02 0. -1.
       -1   -1    0    0    0  501  0.00000000000E+00  0.00000000000E+00 -0.13056704717E+04  0.13056704717E+04  0.50400001928E-02 0.  1.
    10030    2    1    2    0    0  0.00000000000E+00  0.00000000000E+00  0.26847528739E+03  0.28798162309E+04  0.28672744103E+04 0.  0.
        3    1    3    3  502    0  0.29282634396E+03 -0.10778312419E+04 -0.76849758251E+03  0.13557492387E+04  0.10100000352E+00 0.  1.
       -3    1    3    3    0  502 -0.29282634396E+03  0.10778312419E+04  0.10369728699E+04  0.15240669922E+04  0.10100000352E+00 0. -1.
</event>
<event>
 5   0  0.3649705E-06  0.2883930E+04  0.7818609E-02  0.8277675E-01
       -1   -1    0    0    0  501  0.00000000000E+00  0.00000000000E+00  0.16022001618E+04  0.16022001618E+04  0.50400001928E-02 0.  1.
        1   -1    0    0  501    0  0.00000000000E+00  0.00000000000E+00 -0.12977548719E+04  0.12977548719E+04  0.50400001928E-02 0. -1.
    10030    2    1    2    0    0  0.00000000000E+00  0.00000000000E+00  0.30444528989E+03  0.28999550338E+04  0.28839300032E+04 0.  0.
        2    1    3    3  502    0 -0.13346191455E+04 -0.26074038403E+03 -0.33009798843E+03  0.13993421645E+04  0.25500000920E-02 0. -1.
       -2    1    3    3    0  502  0.13346191455E+04  0.26074038403E+03  0.63454327832E+03  0.15006128693E+04  0.25500000920E-02 0.  1.
</event>
<event>
 5   0  0.9360689E-06  0.2915754E+04  0.7818609E-02  0.8268206E-01
        2   -1    0    0  501    0  0.00000000000E+00  0.00000000000E+00  0.30102189957E+04  0.30102189957E+04  0.25500000920E-02 0.  1.
       -2   -1    0    0    0  501  0.00000000000E+00  0.00000000000E+00 -0.70606345358E+03  0.70606345358E+03  0.25500000920E-02 0. -1.
    10030    2    1    2    0    0  0.00000000000E+00  0.00000000000E+00  0.23041555421E+04  0.37162824492E+04  0.29157541872E+04 0.  0.
        5    1    3    3  502    0  0.26627544109E+03  0.20845552844E+03 -0.65537425943E+03  0.73749157811E+03  0.46999998093E+01 0. -1.
       -5    1    3    3    0  502 -0.26627544109E+03 -0.20845552844E+03  0.29595298015E+04  0.29787908711E+04  0.46999998093E+01 0.  1.
</event>
<event>
 5   0  0.3746518E-06  0.2676091E+04  0.7818609E-02  0.8342805E-01
       -1   -1    0    0    0  501  0.00000000000E+00  0.00000000000E+00  0.17495884624E+04  0.17495884624E+04  0.50400001928E-02 0.  1.
        1   -1    0    0  501    0  0.00000000000E+00  0.00000000000E+00 -0.10233067225E+04  0.10233067225E+04  0.50400001928E-02 0. -1.
    10030    2    1    2    0    0  0.00000000000E+00  0.00000000000E+00  0.72628173994E+03  0.27728951850E+04  0.26760909067E+04 0.  0.
        4    1    3    3  502    0  0.42213826358E+03  0.89070994045E+03 -0.57446706144E+03  0.11408676212E+04  0.12699999809E+01 0. -1.
       -4    1    3    3    0  502 -0.42213826358E+03 -0.89070994045E+03  0.13007488014E+04  0.16320275637E+04  0.12699999809E+01 0.  1.
</event>
<event>
 5   0  0.3486236E-06  0.2931866E+04  0.7818609E-02  0.8263459E-01
        1   -1    0    0  501    0  0.00000000000E+00  0.00000000000E+00  0.14501099742E+04  0.14501099742E+04  0.50400001928E-02 0.  1.
       -1   -1    0    0    0  501  0.00000000000E+00  0.00000000000E+00 -0.14819284309E+04  0.14819284309E+04  0.50400001928E-02 0. -1.
    10030    2    1    2    0    0  0.00000000000E+00  0.00000000000E+00 -0.31818456729E+02  0.29320384051E+04  0.29318657532E+04 0.  0.
        5    1    3    3  502    0  0.67271663326E+03  0.68334382524E+03  0.10929530076E+04  0.14539858387E+04  0.46999998093E+01 0.  1.
       -5    1    3    3    0  502 -0.67271663326E+03 -0.68334382524E+03 -0.11247714644E+04  0.14780525665E+04  0.46999998093E+01 0. -1.
</event>
<event>
 5   0  0.9251510E-06  0.2893766E+04  0.7818609E-02  0.8274735E-01
       -2   -1    0    0    0  501  0.00000000000E+00  0.00000000000E+00  0.29791260961E+04  0.29791260961E+04  0.25500000920E-02 0.  1.
        2   -1    0    0  501    0  0.00000000000E+00  0.00000000000E+00 -0.70271285293E+03  0.70271285293E+03  0.25500000920E-02 0. -1.
    10030    2    1    2    0    0  0.00000000000E+00  0.00000000000E+00  0.22764132431E+04  0.36818389490E+04  0.28937658497E+04 0.  0.
        2    1    3    3  502    0 -0.89737349561E+03  0.10792749966E+04  0.15850778574E+04  0.21172117332E+04  0.25500000920E-02 0. -1.
       -2    1    3    3    0  502  0.89737349561E+03 -0.10792749966E+04  0.69133538572E+03  0.15646272158E+04  0.25500000920E-02 0.  1.
</event>
<event>
 5   0  0.3649705E-06  0.2970683E+04  0.7818609E-02  0.8252152E-01
        1   -1    0    0  501    0  0.00000000000E+00  0.00000000000E+00  0.31027840015E+04  0.31027840015E+04  0.50400001928E-02 0.  1.
       -1   -1    0    0    0  501  0.00000000000E+00  0.00000000000E+00 -0.71105153979E+03  0.71105153981E+03  0.50400001928E-02 0. -1.
    10030    2    1    2    0    0  0.00000000000E+00  0.00000000000E+00  0.23917324617E+04  0.38138355413E+04  0.29706829800E+04 0.  0.
        2    1    3    3  502    0  0.12888286077E+04  0.31925282938E+03  0.20505865833E+04  0.24429299795E+04  0.25500000920E-02 0.  1.
       -2    1    3    3    0  502 -0.12888286077E+04 -0.31925282938E+03  0.34114587841E+03  0.13709055618E+04  0.25500000920E-02 0. -1.
</event>
<event>
 5   0  0.9360689E-06  0.2921056E+04  0.7818609E-02  0.8266640E-01
        2   -1    0    0  501    0  0.00000000000E+00  0.00000000000E+00  0.21653799349E+04  0.21653799349E+04  0.25500000920E-02 0.  1.
       -2   -1    0    0    0  501  0.00000000000E+00  0.00000000000E+00 -0.98511219532E+03  0.98511219533E+03  0.25500000920E-02 0. -1.
    10030    2    1    2    0    0  0.00000000000E+00  0.00000000000E+00  0.11802677396E+04  0.31504921303E+04  0.29210560977E+04 0.  0.
        5    1    3    3  502    0  0.38202759138E+03 -0.12444806100E+04  0.13042931482E+04  0.18427913001E+04  0.46999998093E+01 0. -1.
       -5    1    3    3    0  502 -0.38202759138E+03  0.12444806100E+04 -0.12402540863E+03  0.13077008302E+04  0.46999998093E+01 0.  1.
</event>
<event>
 5   0  0.3564340E-06  0.2864611E+04  0.7818609E-02  0.8283485E-01
       -1   -1    0    0    0  501  0.00000000000E+00  0.00000000000E+00  0.98760929664E+03  0.98760929665E+03  0.50400001928E-02 0.  1.
        1   -1    0    0  501    0  0.00000000000E+00  0.00000000000E+00 -0.20772381427E+04  0.20772381427E+04  0.50400001928E-02 0. -1.
    10030    2    1    2    0    0  0.00000000000E+00  0.00000000000E+00 -0.10896288461E+04  0.30648474394E+04  0.28646114578E+04 0.  0.
        1    1    3    3  502    0  0.12265199611E+03 -0.73667579041E+03 -0.18524426045E+04  0.19973177853E+04  0.50400001928E-02 0. -1.
       -1    1    3    3    0  502 -0.12265199611E+03  0.73667579041E+03  0.76281375843E+03  0.10675296541E+04  0.50400001928E-02 0.  1.
</event>
<event>
 5   0  0.9646321E-06  0.2898498E+04  0.7818609E-02  0.8273324E-01
        2   -1    0    0  501    0  0.00000000000E+00  0.00000000000E+00  0.81054706492E+03  0.81054706492E+03  0.25500000920E-02 0. -1.
       -2   -1    0    0    0  501  0.00000000000E+00  0.00000000000E+00 -0.25912415908E+04  0.25912415908E+04  0.25500000920E-02 0.  1.
    10030    2    1    2    0    0  0.00000000000E+00  0.00000000000E+00 -0.17806945259E+04  0.34017886557E+04  0.28984984153E+04 0.  0.
        3    1    3    3  502    0 -0.54587598931E+03  0.71442350678E+02 -0.24637399821E+04  0.25244998147E+04  0.10100000352E+00 0.  1.
       -3    1    3    3    0  502  0.54587598931E+03 -0.71442350678E+02  0.68304545616E+03  0.87728884101E+03  0.10100000352E+00 0. -1.
</event>
<event>
 5   0  0.9360689E-06  0.2894704E+04  0.7818609E-02  0.8274455E-01
        2   -1    0    0  501    0  0.00000000000E+00  0.00000000000E+00  0.21057738316E+04  0.21057738316E+04  0.25500000920E-02 0.  1.
       -2   -1    0    0    0  501  0.00000000000E+00  0.00000000000E+00 -0.99480208456E+03  0.99480208457E+03  0.25500000920E-02 0. -1.
    10030    2    1    2    0    0  0.00000000000E+00  0.00000000000E+00  0.11109717471E+04  0.31005759162E+04  0.28947042663E+04 0.  0.
        5    1    3    3  502    0  0.78989705273E+03  0.93282770120E+03  0.13856566281E+04  0.18477476167E+04  0.46999998093E+01 0.  1.
       -5    1    3    3    0  502 -0.78989705273E+03 -0.93282770120E+03 -0.27468488108E+03  0.12528282995E+04  0.46999998093E+01 0. -1.
</event>
<event>
 5   0  0.3564340E-06  0.2978562E+04  0.7818609E-02  0.8249879E-01
       -1   -1    0    0    0  501  0.00000000000E+00  0.00000000000E+00  0.11016637701E+04  0.11016637701E+04  0.50400001928E-02 0.  1.
        1   -1    0    0  501    0  0.00000000000E+00  0.00000000000E+00 -0.20132801780E+04  0.20132801780E+04  0.50400001928E-02 0. -1.
    10030    2    1    2    0    0  0.00000000000E+00  0.00000000000E+00 -0.91161640787E+03  0.31149439480E+04  0.29785619558E+04 0.  0.
        1    1    3    3  502    0  0.13039617989E+04 -0.40960721644E+03 -0.10743838903E+04  0.17385037212E+04  0.50400001928E-02 0. -1.
       -1    1    3    3    0  502 -0.13039617989E+04  0.40960721644E+03  0.16276748243E+03  0.13764402269E+04  0.50400001928E-02 0.  1.
</event>
<event>
 5   0  0.9251510E-06  0.2599659E+04  0.7818609E-02  0.8368317E-01
       -2   -1    0    0    0  501  0.00000000000E+00  0.00000000000E+00  0.17677609863E+04  0.17677609863E+04  0.25500000920E-02 0.  1.
        2   -1    0    0  501    0  0.00000000000E+00  0.00000000000E+00 -0.95576055969E+03  0.95576055970E+03  0.25500000920E-02 0. -1.
    10030    2    1    2    0    0  0.00000000000E+00  0.00000000000E+00  0.81200042656E+03  0.27235215460E+04  0.25996586158E+04 0.  0.
        2    1    3    3  502    0 -0.66861809931E+03  0.10276215149E+04 -0.46432518016E+02  0.12268708650E+04  0.25500000920E-02 0. -1.
       -2    1    3    3    0  502  0.66861809931E+03 -0.10276215149E+04  0.85843294458E+03  0.14966506810E+04  0.25500000920E-02 0.  1.
</event>
<event>
 5   0  0.9360689E-06  0.2889413E+04  0.7818609E-02  0.8276034E-01
        2   -1    0    0  501    0  0.00000000000E+00  0.00000000000E+00  0.13935095684E+04  0.13935095684E+04  0.25500000920E-02 0.  1.
       -2   -1    0    0    0  501  0.00000000000E+00  0.00000000000E+00 -0.14977842640E+04  0.14977842640E+04  0.25500000920E-02 0. -1.
    10030    2    1    2    0    0  0.00000000000E+00  0.00000000000E+00 -0.10427469559E+03  0.28912938323E+04  0.28894128838E+04 0.  0.
        5    1    3    3  502    0 -0.99218027905E+03  0.45700552793E+03  0.89392978881E+03  0.14115269448E+04  0.46999998093E+01 0.  1.
       -5    1    3    3    0  502  0.99218027905E+03 -0.45700552793E+03 -0.99820448440E+03  0.14797668875E+04  0.46999998093E+01 0. -1.
</event>
<event>
 5   0  0.3649705E-06  0.2899202E+04  0.7818609E-02  0.8273115E-01
        1   -1    0    0  501    0  0.00000000000E+00  0.00000000000E+00  0.23066114550E+04  0.23066114550E+04  0.50400001928E-02 0. -1.
       -1   -1    0    0    0  501  0.00000000000E+00  0.00000000000E+00 -0.91100878376E+03  0.91100878377E+03  0.50400001928E-02 0.  1.
    10030    2    1    2    0    0  0.00000000000E+00  0.00000000000E+00  0.13956026712E+04  0.32176202387E+04  0.28992021635E+04 0.  0.
        2    1    3    3  502    0  0.33131217174E+02 -0.60707166436E+03 -0.76267262705E+03  0.97534774275E+03  0.25500000920E-02 0.  1.
       -2    1    3    3    0  502 -0.33131217174E+02  0.60707166436E+03  0.21582752982E+04  0.22422724960E+04  0.25500000920E-02 0. -1.
</event>
<event>
 5   0  0.9360689E-06  0.2884195E+04  0.7818609E-02  0.8277596E-01
       -2   -1    0    0    0  501  0.00000000000E+00  0.00000000000E+00  0.10371037305E+04  0.10371037305E+04  0.25500000920E-02 0. -1.
        2   -1    0    0  501    0  0.00000000000E+00  0.00000000000E+00 -0.20052426124E+04  0.20052426124E+04  0.25500000920E-02 0.  1.
    10030    2    1    2    0    0  0.00000000000E+00  0.00000000000E+00 -0.96813888196E+03  0.30423463429E+04  0.28841945800E+04 0.  0.
        5    1    3    3  502    0 -0.13866247168E+04  0.21738552105E+03 -0.83334204145E+03  0.16323190920E+04  0.46999998093E+01 0.  1.
       -5    1    3    3    0  502  0.13866247168E+04 -0.21738552105E+03 -0.13479684051E+03  0.14100272509E+04  0.46999998093E+01 0. -1.
</event>
<event>
 5   0  0.3746518E-06  0.2844639E+04  0.7818609E-02  0.8289542E-01
       -1   -1    0    0    0  501  0.00000000000E+00  0.00000000000E+00  0.16076621390E+04  0.16076621390E+04  0.50400001928E-02 0.  1.
        1   -1    0    0  501    0  0.00000000000E+00  0.00000000000E+00 -0.12583440552E+04  0.12583440552E+04  0.50400001928E-02 0. -1.
    10030    2    1    2    0    0  0.00000000000E+00  0.00000000000E+00  0.34931808380E+03  0.28660061942E+04  0.28446385327E+04 0.  0.
        4    1    3    3  502    0 -0.69679144220E+02  0.10773577188E+03  0.16018190951E+04  0.16069499700E+04  0.12699999809E+01 0.  1.
       -4    1    3    3    0  502  0.69679144220E+02 -0.10773577188E+03 -0.12525010113E+04  0.12590562243E+04  0.12699999809E+01 0. -1.
</event>
<event>
 5   0  0.3486236E-06  0.2898777E+04  0.7818609E-02  0.8273241E-01
        1   -1    0    0  501    0  0.00000000000E+00  0.00000000000E+00  0.18137006282E+04  0.18137006283E+04  0.50400001928E-02 0.  1.
       -1   -1    0    0    0  501  0.00000000000E+00  0.00000000000E+00 -0.11582544944E+04  0.11582544944E+04  0.50400001928E-02 0. -1.
    10030    2    1    2    0    0  0.00000000000E+00  0.00000000000E+00  0.65544613389E+03  0.29719551226E+04  0.28987769173E+04 0.  0.
        5    1    3    3  502    0 -0.41036737518E+03 -0.12457660956E+04 -0.30458792741E+03  0.13465253221E+04  0.46999998093E+01 0. -1.
       -5    1    3    3    0  502  0.41036737518E+03  0.12457660956E+04  0.96003406129E+03  0.16254298005E+04  0.46999998093E+01 0.  1.
</event>
<event>
 5   0  0.3486236E-06  0.2822709E+04  0.7818609E-02  0.8296253E-01
       -1   -1    0    0    0  501  0.00000000000E+00  0.00000000000E+00  0.11015349015E+04  0.11015349015E+04  0.50400001928E-02 0. -1.
        1   -1    0    0  501    0  0.00000000000E+00  0.00000000000E+00 -0.18083146650E+04  0.18083146650E+04  0.50400001928E-02 0.  1.
    10030    2    1    2    0    0  0.00000000000E+00  0.00000000000E+00 -0.70677976347E+03  0.29098495666E+04  0.28227091359E+04 0.  0.
        5    1    3    3  502    0  0.37476769371E+03  0.56923378011E+03  0.92065253584E+03  0.11454698173E+04  0.46999998093E+01 0. -1.
       -5    1    3    3    0  502 -0.37476769371E+03 -0.56923378011E+03 -0.16274322993E+04  0.17643797492E+04  0.46999998093E+01 0.  1.
</event>
<event>
 5   0  0.3188375E-06  0.2910456E+04  0.7818609E-02  0.8269773E-01
        3   -1    0    0  501    0  0.00000000000E+00  0.00000000000E+00  0.17480525522E+04  0.17480525551E+04  0.10100000352E+00 0. -1.
       -3   -1    0    0    0  501  0.00000000000E+00  0.00000000000E+00 -0.12114559150E+04  0.12114559192E+04  0.10100000352E+00 0.  1.
    10030    2    1    2    0    0  0.00000000000E+00  0.00000000000E+00  0.53659663721E+03  0.29595084744E+04  0.29104560568E+04 0.  0.
        4    1    3    3  502    0  0.15234271322E+03  0.13383699818E+04  0.82825573550E+03  0.15812816596E+04  0.12699999809E+01 0.  1.
       -4    1    3    3    0  502 -0.15234271322E+03 -0.13383699818E+04 -0.29165909829E+03  0.13782268148E+04  0.12699999809E+01 0. -1.
</event>
<event>
 5   0  0.9646321E-06  0.2861562E+04  0.7818609E-02  0.8284407E-01
        2   -1    0    0  501    0  0.00000000000E+00  0.00000000000E+00  0.17139250069E+04  0.17139250069E+04  0.25500000920E-02 0. -1.
       -2   -1    0    0    0  501  0.00000000000E+00  0.00000000000E+00 -0.11944132227E+04  0.11944132227E+04  0.25500000920E-02 0.  1.
    10030    2    1    2    0    0  0.00000000000E+00  0.00000000000E+00  0.51951178418E+03  0.29083382296E+04  0.28615622943E+04 0.  0.
        3    1    3    3  502    0  0.97633745066E+03  0.28876194264E+03 -0.76192057784E+03  0.12716686889E+04  0.10100000352E+00 0.  1.
       -3    1    3    3    0  502 -0.97633745066E+03 -0.28876194264E+03  0.12814323620E+04  0.16366695408E+04  0.10100000352E+00 0. -1.
</event>
<event>
 5   0  0.3486236E-06  0.2896041E+04  0.7818609E-02  0.8274056E-01
        1   -1    0    0  501    0  0.00000000000E+00  0.00000000000E+00  0.22779513451E+04  0.22779513451E+04  0.50400001928E-02 0.  1.
       -1   -1    0    0    0  501  0.00000000000E+00  0.00000000000E+00 -0.92046004074E+03  0.92046004075E+03  0.50400001928E-02 0. -1.
    10030    2    1    2    0    0  0.00000000000E+00  0.00000000000E+00  0.13574913043E+04  0.31984113858E+04  0.28960408753E+04 0.  0.
        5    1    3    3  502    0 -0.96235410397E+03 -0.63339786185E+02  0.18716107156E+04  0.21054895181E+04  0.46999998093E+01 0.  1.
       -5    1    3    3    0  502  0.96235410397E+03  0.63339786185E+02 -0.51411941129E+03  0.10929218677E+04  0.46999998093E+01 0. -1.
</event>
<event>
 5   0  0.3486236E-06  0.2898296E+04  0.7818609E-02  0.8273385E-01
       -1   -1    0    0    0  501  0.00000000000E+00  0.00000000000E+00  0.91107021098E+03  0.91107021099E+03  0.50400001928E-02 0.  1.
        1   -1    0    0  501    0  0.00000000000E+00  0.00000000000E+00 -0.23050138223E+04  0.23050138223E+04  0.50400001928E-02 0. -1.
    10030    2    1    2    0    0  0.00000000000E+00  0.00000000000E+00 -0.13939436114E+04  0.32160840333E+04  0.28982956574E+04 0.  0.
        5    1    3    3  502    0 -0.29852495318E+02 -0.10190430473E+04  0.44583895115E+03  0.11127148620E+04  0.46999998093E+01 0.  1.
       -5    1    3    3    0  502  0.29852495318E+02  0.10190430473E+04 -0.18397825625E+04  0.21033691714E+04  0.46999998093E+01 0. -1.
</event>
<event>
 5   0  0.9646321E-06  0.2890148E+04  0.7818609E-02  0.8275815E-01
       -2   -1    0    0    0  501  0.00000000000E+00  0.00000000000E+00  0.14194125946E+04  0.14194125946E+04  0.25500000920E-02 0.  1.
        2   -1    0    0  501    0  0.00000000000E+00  0.00000000000E+00 -0.14711993473E+04  0.14711993473E+04  0.25500000920E-02 0. -1.
    10030    2    1    2    0    0  0.00000000000E+00  0.00000000000E+00 -0.51786752660E+02  0.28906119419E+04  0.28901480120E+04 0.  0.
        3    1    3    3  502    0  0.66935515585E+03 -0.10965466067E+04  0.63586839883E+03  0.14334501792E+04  0.10100000352E+00 0.  1.
       -3    1    3    3    0  502 -0.66935515585E+03  0.10965466067E+04 -0.68765515149E+03  0.14571617628E+04  0.10100000352E+00 0. -1.
</event>
<event>
 5   0  0.1001573E-05  0.2729906E+04  0.7818609E-02  0.8325366E-01
       -2   -1    0    0    0  501  0.00000000000E+00  0.00000000000E+00  0.75101375984E+03  0.75101375984E+03  0.25500000920E-02 0. -1.
        2   -1    0    0  501    0  0.00000000000E+00  0.00000000000E+00 -0.24807765514E+04  0.24807765514E+04  0.25500000920E-02 0.  1.
    10030    2    1    2    0    0  0.00000000000E+00  0.00000000000E+00 -0.17297627916E+04  0.32317903113E+04  0.27299064638E+04 0.  0.
        1    1    3    3  502    0  0.80451892652E+03  0.10878019243E+04 -0.65135014702E+03  0.15016060547E+04  0.50400001928E-02 0. -1.
       -1    1    3    3    0  502 -0.80451892652E+03 -0.10878019243E+04 -0.10784126446E+04  0.17301842565E+04  0.50400001928E-02 0.  1.
</event>
<event>
 5   0  0.9505359E-06  0.2926009E+04  0.7818609E-02  0.8265181E-01
       -2   -1    0    0    0  501  0.00000000000E+00  0.00000000000E+00  0.13168603256E+04  0.13168603256E+04  0.25500000920E-02 0.  1.
        2   -1    0    0  501    0  0.00000000000E+00  0.00000000000E+00 -0.16253672745E+04  0.16253672745E+04  0.25500000920E-02 0. -1.
    10030    2    1    2    0    0  0.00000000000E+00  0.00000000000E+00 -0.30850694893E+03  0.29422276001E+04  0.29260086659E+04 0.  0.
        4    1    3    3  502    0 -0.42556644956E+03  0.13200131673E+04  0.31398689610E+03  0.14220165079E+04  0.12699999809E+01 0.  1.
       -4    1    3    3    0  502  0.42556644956E+03 -0.13200131673E+04 -0.62249384504E+03  0.15202110922E+04  0.12699999809E+01 0. -1.
</event>
<event>
 5   0  0.3649705E-06  0.2886291E+04  0.7818609E-02  0.8276968E-01
        1   -1    0    0  501    0  0.00000000000E+00  0.00000000000E+00  0.16538664628E+04  0.16538664628E+04  0.50400001928E-02 0. -1.
       -1   -1    0    0    0  501  0.00000000000E+00  0.00000000000E+00 -0.12592729915E+04  0.12592729915E+04  0.50400001928E-02 0.  1.
    10030    2    1    2    0    0  0.00000000000E+00  0.00000000000E+00  0.39459347133E+03  0.29131394543E+04  0.28862913007E+04 0.  0.
        2    1    3    3  502    0  0.21831591704E+03  0.50319434388E+03  0.15445553071E+04  0.16390599391E+04  0.25500000920E-02 0. -1.
       -2    1    3    3    0  502 -0.21831591704E+03 -0.50319434388E+03 -0.11499618358E+04  0.12740795152E+04  0.25500000920E-02 0.  1.
</event>
<event>
 5   0  0.9360689E-06  0.2386594E+04  0.7818609E-02  0.8444540E-01
        2   -1    0    0  501    0  0.00000000000E+00  0.00000000000E+00  0.10914985844E+04  0.10914985844E+04  0.25500000920E-02 0.  1.
       -2   -1    0    0    0  501  0.00000000000E+00  0.00000000000E+00 -0.13045896901E+04  0.13045896901E+04  0.25500000920E-02 0. -1.
    10030    2    1    2    0    0  0.00000000000E+00  0.00000000000E+00 -0.21309110574E+03  0.23960882745E+04  0.23865940584E+04 0.  0.
        5    1    3    3  502    0  0.31431046735E+03 -0.41264886384E+03 -0.11854673646E+04  0.12939957949E+04  0.46999998093E+01 0. -1.
       -5    1    3    3    0  502 -0.31431046735E+03  0.41264886384E+03  0.97237625886E+03  0.11020924796E+04  0.46999998093E+01 0.  1.
</event>
<event>
 5   0  0.3746518E-06  0.2905049E+04  0.7818609E-02  0.8271377E-01
       -1   -1    0    0    0  501  0.00000000000E+00  0.00000000000E+00  0.11594408647E+04  0.11594408647E+04  0.50400001928E-02 0. -1.
        1   -1    0    0  501    0  0.00000000000E+00  0.00000000000E+00 -0.18196934729E+04  0.18196934729E+04  0.50400001928E-02 0.  1.
    10030    2    1    2    0    0  0.00000000000E+00  0.00000000000E+00 -0.66025260815E+03  0.29791343376E+04  0.29050486906E+04 0.  0.
        4    1    3    3  502    0  0.82700031160E+00  0.27611256958E+03 -0.17925324353E+04  0.18136738900E+04  0.12699999809E+01 0.  1.
       -4    1    3    3    0  502 -0.82700031160E+00 -0.27611256958E+03  0.11322798271E+04  0.11654604475E+04  0.12699999809E+01 0. -1.
</event>
<event>
 5   0  0.1001573E-05  0.2882687E+04  0.7818609E-02  0.8278047E-01
        2   -1    0    0  501    0  0.00000000000E+00  0.00000000000E+00  0.13007022105E+04  0.13007022105E+04  0.25500000920E-02 0.  1.
       -2   -1    0    0    0  501  0.00000000000E+00  0.00000000000E+00 -0.15971914377E+04  0.15971914377E+04  0.25500000920E-02 0. -1.
    10030    2    1    2    0    0  0.00000000000E+00  0.00000000000E+00 -0.29648922722E+03  0.28978936481E+04  0.28826865480E+04 0.  0.
        1    1    3    3  502    0 -0.24688025714E+03 -0.87561120328E+03 -0.12720981803E+04  0.15639305039E+04  0.50400001928E-02 0. -1.
       -1    1    3    3    0  502  0.24688025714E+03  0.87561120328E+03  0.97560895311E+03  0.13339631442E+04  0.50400001928E-02 0.  1.
</event>
<event>
 5   0  0.9360689E-06  0.2871614E+04  0.7818609E-02  0.8281373E-01
       -2   -1    0    0    0  501  0.00000000000E+00  0.00000000000E+00  0.18062236448E+04  0.18062236448E+04  0.25500000920E-02 0.  1.
        2   -1    0    0  501    0  0.00000000000E+00  0.00000000000E+00 -0.11413549403E+04  0.11413549403E+04  0.25500000920E-02 0. -1.
    10030    2    1    2    0    0  0.00000000000E+00  0.00000000000E+00  0.66486870452E+03  0.29475785852E+04  0.28716143755E+04 0.  0.
        5    1    3    3  502    0 -0.88900247699E+03 -0.10722720427E+04  0.69011687193E+03  0.15544697245E+04  0.46999998093E+01 0.  1.
       -5    1    3    3    0  502  0.88900247699E+03  0.10722720427E+04 -0.25248167413E+02  0.13931088606E+04  0.46999998093E+01 0. -1.
</event>
<event>
 5   0  0.9251510E-06  0.2657892E+04  0.7818609E-02  0.8348798E-01
        2   -1    0    0  501    0  0.00000000000E+00  0.00000000000E+00  0.12855271949E+04  0.12855271949E+04  0.25500000920E-02 0.  1.
       -2   -1    0    0    0  501  0.00000000000E+00  0.00000000000E+00 -0.13738317177E+04  0.13738317177E+04  0.25500000920E-02 0. -1.
    10030    2    1    2    0    0  0.00000000000E+00  0.00000000000E+00 -0.88304522719E+02  0.26593589126E+04  0.26578924240E+04 0.  0.
        2    1    3    3  502    0  0.92739379288E+03 -0.92377936140E+03  0.18547486351E+03  0.13220546436E+04  0.25500000920E-02 0.  1.
       -2    1    3    3    0  502 -0.92739379288E+03  0.92377936140E+03 -0.27377938623E+03  0.13373042690E+04  0.25500000920E-02 0. -1.
</event>
<event>
 5   0  0.3564340E-06  0.2878683E+04  0.7818609E-02  0.8279248E-01
       -1   -1    0    0    0  501  0.00000000000E+00  0.00000000000E+00  0.96573457111E+03  0.96573457113E+03  0.50400001928E-02 0. -1.
        1   -1    0    0  501    0  0.00000000000E+00  0.00000000000E+00 -0.21452112337E+04  0.21452112338E+04  0.50400001928E-02 0.  1.
    10030    2    1    2    0    0  0.00000000000E+00  0.00000000000E+00 -0.11794766626E+04  0.31109458049E+04  0.28786834844E+04 0.  0.
        1    1    3    3  502    0  0.13704832187E+03 -0.65907442332E+03  0.78512868175E+03  0.10342090625E+04  0.50400001928E-02 0. -1.
       -1    1    3    3    0  502 -0.13704832187E+03  0.65907442332E+03 -0.19646053444E+04  0.20767367424E+04  0.50400001928E-02 0.  1.
</event>
<event>
 5   0  0.3746518E-06  0.2933594E+04  0.7818609E-02  0.8262952E-01
        1   -1    0    0  501    0  0.00000000000E+00  0.00000000000E+00  0.20571856321E+04  0.20571856321E+04  0.50400001928E-02 0. -1.
       -1   -1    0    0    0  501  0.00000000000E+00  0.00000000000E+00 -0.10458433846E+04  0.10458433846E+04  0.50400001928E-02 0.  1.
    10030    2    1    2    0    0  0.00000000000E+00  0.00000000000E+00  0.10113422475E+04  0.31030290167E+04  0.29335943716E+04 0.  0.
        4    1    3    3  502    0  0.35816129523E+03  0.12843577098E+02  0.20101595666E+04  0.20418588509E+04  0.12699999809E+01 0. -1.
       -4    1    3    3    0  502 -0.35816129523E+03 -0.12843577098E+02 -0.99881731913E+03  0.10611701658E+04  0.12699999809E+01 0.  1.
</event>
<event>
 5   0  0.9251510E-06  0.2768365E+04  0.7818609E-02  0.8313157E-01
       -2   -1    0    0    0  501  0.00000000000E+00  0.00000000000E+00  0.89341578418E+03  0.89341578419E+03  0.25500000920E-02 0.  1.
        2   -1    0    0  501    0  0.00000000000E+00  0.00000000000E+00 -0.21445352198E+04  0.21445352198E+04  0.25500000920E-02 0. -1.
    10030    2    1    2    0    0  0.00000000000E+00  0.00000000000E+00 -0.12511194356E+04  0.30379510039E+04  0.27683653047E+04 0.  0.
        2    1    3    3  502    0 -0.27766316321E+03  0.92676360889E+03 -0.17118968975E+04  0.19663617690E+04  0.25500000920E-02 0. -1.
       -2    1    3    3    0  502  0.27766316321E+03 -0.92676360889E+03  0.46077746193E+03  0.10715892349E+04  0.25500000920E-02 0.  1.
</event>
<event>
 5   0  0.9360689E-06  0.3008177E+04  0.7818609E-02  0.8241400E-01
        2   -1    0    0  501    0  0.00000000000E+00  0.00000000000E+00  0.13724355836E+04  0.13724355836E+04  0.25500000920E-02 0.  1.
       -2   -1    0    0    0  501  0.00000000000E+00  0.00000000000E+00 -0.16483705203E+04  0.16483705203E+04  0.25500000920E-02 0. -1.
    10030    2    1    2    0    0  0.00000000000E+00  0.00000000000E+00 -0.27593493663E+03  0.30208061039E+04  0.30081770939E+04 0.  0.
        5    1    3    3  502    0  0.80388228408E+02  0.91744772886E+03 -0.13321139877E+04  0.16194821298E+04  0.46999998093E+01 0. -1.
       -5    1    3    3    0  502 -0.80388228408E+02 -0.91744772886E+03  0.10561790511E+04  0.14013239741E+04  0.46999998093E+01 0.  1.
</event>
<event>
 5   0  0.3746518E-06  0.2858414E+04  0.7818609E-02  0.8285359E-01
       -1   -1    0    0    0  501  0.00000000000E+00  0.00000000000E+00  0.12838347237E+04  0.12838347237E+04  0.50400001928E-02 0.  1.
        1   -1    0    0  501    0  0.00000000000E+00  0.00000000000E+00 -0.15910402248E+04  0.15910402248E+04  0.50400001928E-02 0. -1.
    10030    2    1    2    0    0  0.00000000000E+00  0.00000000000E+00 -0.30720550103E+03  0.28748749485E+04  0.28584140270E+04 0.  0.
        4    1    3    3  502    0 -0.12560921799E+04  0.55647177639E+03 -0.54982916200E+03  0.14797777275E+04  0.12699999809E+01 0. -1.
       -4    1    3    3    0  502  0.12560921799E+04 -0.55647177639E+03  0.24262366097E+03  0.13950972210E+04  0.12699999809E+01 0.  1.
</event>
<event>
 5   0  0.3649705E-06  0.2890249E+04  0.7818609E-02  0.8275784E-01
       -1   -1    0    0    0  501  0.00000000000E+00  0.00000000000E+00  0.95840882588E+03  0.95840882590E+03  0.50400001928E-02 0. -1.
        1   -1    0    0  501    0  0.00000000000E+00  0.00000000000E+00 -0.21790130784E+04  0.21790130784E+04  0.50400001928E-02 0.  1.
    10030    2    1    2    0    0  0.00000000000E+00  0.00000000000E+00 -0.12206042526E+04  0.31374219043E+04  0.28902493776E+04 0.  0.
        2    1    3    3  502    0  0.11006019127E+04 -0.25341373525E+03 -0.15889822072E+04  0.19494633996E+04  0.25500000920E-02 0.  1.
       -2    1    3    3    0  502 -0.11006019127E+04  0.25341373525E+03  0.36837795465E+03  0.11879585047E+04  0.25500000920E-02 0. -1.
</event>
<event>
 5   0  0.9505359E-06  0.2905331E+04  0.7818609E-02  0.8271293E-01
        2   -1    0    0  501    0  0.00000000000E+00  0.00000000000E+00  0.18620372710E+04  0.18620372710E+04  0.25500000920E-02 0.  1.
       -2   -1    0    0    0  501  0.00000000000E+00  0.00000000000E+00 -0.11332947838E+04  0.11332947838E+04  0.25500000920E-02 0. -1.
    10030    2    1    2    0    0  0.00000000000E+00  0.00000000000E+00  0.72874248718E+03  0.29953320548E+04  0.29053310493E+04 0.  0.
        4    1    3    3  502    0 -0.90647463414E+02  0.96147083916E+03 -0.75441428828E+03  0.12254736506E+04  0.12699999809E+01 0. -1.
       -4    1    3    3    0  502  0.90647463414E+02 -0.96147083916E+03  0.14831567755E+04  0.17698584041E+04  0.12699999809E+01 0.  1.
</event>
<event>
 5   0  0.3486236E-06  0.2896670E+04  0.7818609E-02  0.8273869E-01
       -1   -1    0    0    0  501  0.00000000000E+00  0.00000000000E+00  0.77164738026E+03  0.77164738027E+03  0.50400001928E-02 0. -1.
        1   -1    0    0  501    0  0.00000000000E+00  0.00000000000E+00 -0.27184371574E+04  0.27184371574E+04  0.50400001928E-02 0.  1.
    10030    2    1    2    0    0  0.00000000000E+00  0.00000000000E+00 -0.19467897771E+04  0.34900845376E+04  0.28966704410E+04 0.  0.
        5    1    3    3  502    0 -0.23182487141E+03  0.72887166727E+03  0.50846439993E+03  0.91845240178E+03  0.46999998093E+01 0. -1.
       -5    1    3    3    0  502  0.23182487141E+03 -0.72887166727E+03 -0.24552541770E+04  0.25716321359E+04  0.46999998093E+01 0.  1.
</event>
<event>
 5   0  0.9505359E-06  0.2886372E+04  0.7818609E-02  0.8276944E-01
       -2   -1    0    0    0  501  0.00000000000E+00  0.00000000000E+00  0.79795175101E+03  0.79795175102E+03  0.25500000920E-02 0.  1.
        2   -1    0    0  501    0  0.00000000000E+00  0.00000000000E+00 -0.26101659804E+04  0.26101659804E+04  0.25500000920E-02 0. -1.
    10030    2    1    2    0    0  0.00000000000E+00  0.00000000000E+00 -0.18122142294E+04  0.34081177314E+04  0.28863724739E+04 0.  0.
        4    1    3    3  502    0 -0.12997084927E+04  0.62726084618E+03 -0.89512118157E+03  0.16982172646E+04  0.12699999809E+01 0. -1.
       -4    1    3    3    0  502  0.12997084927E+04 -0.62726084618E+03 -0.91709304783E+03  0.17099004668E+04  0.12699999809E+01 0.  1.
</event>
<event>
 5   0  0.9505359E-06  0.2894185E+04  0.7818609E-02  0.8274610E-01
       -2   -1    0    0    0  501  0.00000000000E+00  0.00000000000E+00  0.14876406914E+04  0.14876406914E+04  0.25500000920E-02 0.  1.
        2   -1    0    0  501    0  0.00000000000E+00  0.00000000000E+00 -0.14076497459E+04  0.14076497459E+04  0.25500000920E-02 0. -1.
    10030    2    1    2    0    0  0.00000000000E+00  0.00000000000E+00  0.79990945528E+02  0.28952904373E+04  0.28941852334E+04 0.  0.
        4    1    3    3  502    0 -0.33813436125E+03 -0.25576708202E+03  0.14241147265E+04  0.14858855991E+04  0.12699999809E+01 0.  1.
       -4    1    3    3    0  502  0.33813436125E+03  0.25576708202E+03 -0.13441237810E+04  0.14094048382E+04  0.12699999809E+01 0. -1.
</event>
<event>
 5   0  0.9646321E-06  0.2925969E+04  0.7818609E-02  0.8265193E-01
        2   -1    0    0  501    0  0.00000000000E+00  0.00000000000E+00  0.29173383177E+04  0.29173383177E+04  0.25500000920E-02 0.  1.
       -2   -1    0    0    0  501  0.00000000000E+00  0.00000000000E+00 -0.73365607754E+03  0.73365607754E+03  0.25500000920E-02 0. -1.
    10030    2    1    2    0    0  0.00000000000E+00  0.00000000000E+00  0.21836822402E+04  0.36509943953E+04  0.29259685487E+04 0.  0.
        3    1    3    3  502    0 -0.10670275524E+04  0.68927855594E+03  0.18629430612E+03  0.12838840695E+04  0.10100000352E+00 0. -1.
       -3    1    3    3    0  502  0.10670275524E+04 -0.68927855594E+03  0.19973879341E+04  0.23671103258E+04  0.10100000352E+00 0.  1.
</event>
<event>
 5   0  0.3649705E-06  0.2908080E+04  0.7818609E-02  0.8270477E-01
        1   -1    0    0  501    0  0.00000000000E+00  0.00000000000E+00  0.15712615831E+04  0.15712615831E+04  0.50400001928E-02 0. -1.
       -1   -1    0    0    0  501  0.00000000000E+00  0.00000000000E+00 -0.13455639703E+04  0.13455639703E+04  0.50400001928E-02 0.  1.
    10030    2    1    2    0    0  0.00000000000E+00  0.00000000000E+00  0.22569761278E+03  0.29168255534E+04  0.29080804488E+04 0.  0.
        2    1    3    3  502    0 -0.14298131236E+04  0.97716248773E+02  0.35918651154E+03  0.14774738522E+04  0.25500000920E-02 0. -1.
       -2    1    3    3    0  502  0.14298131236E+04 -0.97716248773E+02 -0.13348889876E+03  0.14393517012E+04  0.25500000920E-02 0.  1.
</event>
<event>
 5   0  0.3564340E-06  0.2139905E+04  0.7818609E-02  0.8543866E-01
       -1   -1    0    0    0  501  0.00000000000E+00  0.00000000000E+00  0.12571536433E+04  0.12571536433E+04  0.50400001928E-02 0.  1.
        1   -1    0    0  501    0  0.00000000000E+00  0.00000000000E+00 -0.91062717370E+03  0.91062717371E+03  0.50400001928E-02 0. -1.
    10030    2    1    2    0    0  0.00000000000E+00  0.00000000000E+00  0.34652646962E+03  0.21677808170E+04  0.21399049223E+04 0.  0.
        1    1    3    3  502    0  0.33397181534E+02  0.54566195270E+02  0.12552143655E+04  0.12568436438E+04  0.50400001928E-02 0.  1.
       -1    1    3    3    0  502 -0.33397181534E+02 -0.54566195270E+02 -0.90868789593E+03  0.91093717326E+03  0.50400001928E-02 0. -1.
</event>
<event>
 5   0  0.3486236E-06  0.2869934E+04  0.7818609E-02  0.8281880E-01
       -1   -1    0    0    0  501  0.00000000000E+00  0.00000000000E+00  0.19776232398E+04  0.19776232398E+04  0.50400001928E-02 0. -1.
        1   -1    0    0  501    0  0.00000000000E+00  0.00000000000E+00 -0.10412145827E+04  0.10412145827E+04  0.50400001928E-02 0.  1.
    10030    2    1    2    0    0  0.00000000000E+00  0.00000000000E+00  0.93640865715E+03  0.30188378225E+04  0.28699339061E+04 0.  0.
        5    1    3    3  502    0 -0.20440068206E+03  0.27922085944E+02 -0.10255261890E+04  0.10460809414E+04  0.46999998093E+01 0.  1.
       -5    1    3    3    0  502  0.20440068206E+03 -0.27922085944E+02  0.19619348461E+04  0.19727568811E+04  0.46999998093E+01 0. -1.
</event>
<event>
 5   0  0.1001573E-05  0.2873503E+04  0.7818609E-02  0.8280805E-01
        2   -1    0    0  501    0  0.00000000000E+00  0.00000000000E+00  0.10488067798E+04  0.10488067799E+04  0.25500000920E-02 0. -1.
       -2   -1    0    0    0  501  0.00000000000E+00  0.00000000000E+00 -0.19681940747E+04  0.19681940747E+04  0.25500000920E-02 0.  1.
    10030    2    1    2    0    0  0.00000000000E+00  0.00000000000E+00 -0.91938729485E+03  0.30170008545E+04  0.28735032901E+04 0.  0.
        1    1    3    3  502    0  0.37129109665E+03 -0.13716729099E+04 -0.68220039677E+03  0.15763061351E+04  0.50400001928E-02 0. -1.
       -1    1    3    3    0  502 -0.37129109665E+03  0.13716729099E+04 -0.23718689808E+03  0.14406947195E+04  0.50400001928E-02 0.  1.
</event>
<event>
 5   0  0.9360689E-06  0.2564770E+04  0.7818609E-02  0.8380267E-01
       -2   -1    0    0    0  501  0.00000000000E+00  0.00000000000E+00  0.12760857757E+04  0.12760857757E+04  0.25500000920E-02 0. -1.
        2   -1    0    0  501    0  0.00000000000E+00  0.00000000000E+00 -0.12887157324E+04  0.12887157324E+04  0.25500000920E-02 0.  1.
    10030    2    1    2    0    0  0.00000000000E+00  0.00000000000E+00 -0.12629956714E+02  0.25648015081E+04  0.25647704108E+04 0.  0.
        5    1    3    3  502    0  0.34679392289E+03  0.12159961443E+04 -0.21980545223E+03  0.12834520539E+04  0.46999998093E+01 0. -1.
       -5    1    3    3    0  502 -0.34679392289E+03 -0.12159961443E+04  0.20717549551E+03  0.12813494542E+04  0.46999998093E+01 0.  1.
</event>
<event>
 5   0  0.9505359E-06  0.2858741E+04  0.7818609E-02  0.8285260E-01
        2   -1    0    0  501    0  0.00000000000E+00  0.00000000000E+00  0.17828594517E+04  0.17828594517E+04  0.25500000920E-02 0. -1.
       -2   -1    0    0    0  501  0.00000000000E+00  0.00000000000E+00 -0.11459683285E+04  0.11459683285E+04  0.25500000920E-02 0.  1.
    10030    2    1    2    0    0  0.00000000000E+00  0.00000000000E+00  0.63689112316E+03  0.29288277802E+04  0.28587413075E+04 0.  0.
        4    1    3    3  502    0 -0.41342811060E+03 -0.49227956027E+03 -0.98950415833E+03  0.11799923984E+04  0.12699999809E+01 0.  1.
       -4    1    3    3    0  502  0.41342811060E+03  0.49227956027E+03  0.16263952815E+04  0.17488353818E+04  0.12699999809E+01 0. -1.
</event>
<event>
 5   0  0.3486236E-06  0.3154516E+04  0.7818609E-02  0.8200934E-01
       -1   -1    0    0    0  501  0.00000000000E+00  0.00000000000E+00  0.10198438046E+04  0.10198438047E+04  0.50400001928E-02 0.  1.
        1   -1    0    0  501    0  0.00000000000E+00  0.00000000000E+00 -0.24393377659E+04  0.24393377659E+04  0.50400001928E-02 0. -1.
    10030    2    1    2    0    0  0.00000000000E+00  0.00000000000E+00 -0.14194939612E+04  0.34591815705E+04  0.31545164498E+04 0.  0.
        5    1    3    3  502    0 -0.11870337203E+04  0.10225181244E+04 -0.90933986510E+03  0.18114948104E+04  0.46999998093E+01 0.  1.
       -5    1    3    3    0  502  0.11870337203E+04 -0.10225181244E+04 -0.51015409612E+03  0.16476867601E+04  0.46999998093E+01 0. -1.
</event>
<event>
 5   0  0.3564340E-06  0.2920644E+04  0.7818609E-02  0.8266762E-01
        1   -1    0    0  501    0  0.00000000000E+00  0.00000000000E+00  0.89864716648E+03  0.89864716649E+03  0.50400001928E-02 0.  1.
       -1   -1    0    0    0  501  0.00000000000E+00  0.00000000000E+00 -0.23730556726E+04  0.23730556726E+04  0.50400001928E-02 0. -1.
    10030    2    1    2    0    0  0.00000000000E+00  0.00000000000E+00 -0.14744085061E+04  0.32717028391E+04  0.29206435976E+04 0.  0.
        1    1    3    3  502    0  0.62298200542E+03  0.11558418394E+02  0.74226459549E+03  0.96912171880E+03  0.50400001928E-02 0.  1.
       -1    1    3    3    0  502 -0.62298200542E+03 -0.11558418394E+02 -0.22166731016E+04  0.23025811203E+04  0.50400001928E-02 0. -1.
</event>
<event>
 5   0  0.3649705E-06  0.2784555E+04  0.7818609E-02  0.8308080E-01
       -1   -1    0    0    0  501  0.00000000000E+00  0.00000000000E+00  0.10619317437E+04  0.10619317437E+04  0.50400001928E-02 0. -1.
        1   -1    0    0  501    0  0.00000000000E+00  0.00000000000E+00 -0.18253870573E+04  0.18253870574E+04  0.50400001928E-02 0.  1.
    10030    2    1    2    0    0  0.00000000000E+00  0.00000000000E+00 -0.76345531364E+03  0.28873188011E+04  0.27845548734E+04 0.  0.
        2    1    3    3  502    0  0.35864474929E+03  0.82187905931E+03  0.72262492669E+03  0.11516501331E+04  0.25500000920E-02 0. -1.
       -2    1    3    3    0  502 -0.35864474929E+03 -0.82187905931E+03 -0.14860802403E+04  0.17356686680E+04  0.25500000920E-02 0.  1.
</event>
<event>
 5   0  0.3649705E-06  0.2879215E+04  0.7818609E-02  0.8279089E-01
       -1   -1    0    0    0  501  0.00000000000E+00  0.00000000000E+00  0.10112300790E+04  0.10112300790E+04  0.50400001928E-02 0.  1.
        1   -1    0    0  501    0  0.00000000000E+00  0.00000000000E+00 -0.20494538702E+04  0.20494538702E+04  0.50400001928E-02 0. -1.
    10030    2    1    2    0    0  0.00000000000E+00  0.00000000000E+00 -0.10382237912E+04  0.30606839492E+04  0.28792147534E+04 0.  0.
        2    1    3    3  502    0 -0.19539139307E+03  0.23110414885E+03 -0.20152572275E+04  0.20378539244E+04  0.25500000920E-02 0. -1.
       -2    1    3    3    0  502  0.19539139307E+03 -0.23110414885E+03  0.97703343628E+03  0.10228300248E+04  0.25500000920E-02 0.  1.
</event>
<event>
 5   0  0.3486236E-06  0.2642024E+04  0.7818609E-02  0.8354065E-01
       -1   -1    0    0    0  501  0.00000000000E+00  0.00000000000E+00  0.92913381333E+03  0.92913381334E+03  0.50400001928E-02 0. -1.
        1   -1    0    0  501    0  0.00000000000E+00  0.00000000000E+00 -0.18781715253E+04  0.18781715253E+04  0.50400001928E-02 0.  1.
    10030    2    1    2    0    0  0.00000000000E+00  0.00000000000E+00 -0.94903771201E+03  0.28073053387E+04  0.26420239752E+04 0.  0.
        5    1    3    3  502    0  0.77733094735E+03  0.69209153775E+03 -0.13389326468E+04  0.16958764168E+04  0.46999998093E+01 0.  1.
       -5    1    3    3    0  502 -0.77733094735E+03 -0.69209153775E+03  0.38989493477E+03  0.11114289219E+04  0.46999998093E+01 0. -1.
</event>
<event>
 5   0  0.1001573E-05  0.2897880E+04  0.7818609E-02  0.8273508E-01
        2   -1    0    0  501    0  0.00000000000E+00  0.00000000000E+00  0.11562367586E+04  0.11562367586E+04  0.25500000920E-02 0.  1.
       -2   -1    0    0    0  501  0.00000000000E+00  0.00000000000E+00 -0.18157418200E+04  0.18157418200E+04  0.25500000920E-02 0. -1.
    10030    2    1    2    0    0  0.00000000000E+00  0.00000000000E+00 -0.65950506140E+03  0.29719785786E+04  0.28978802159E+04 0.  0.
        1    1    3    3  502    0 -0.11660027402E+04 -0.32037966394E+03  0.48892071401E+03  0.13043193565E+04  0.50400001928E-02 0.  1.
       -1    1    3    3    0  502  0.11660027402E+04  0.32037966394E+03 -0.11484257754E+04  0.16676592221E+04  0.50400001928E-02 0. -1.
</event>
<event>
 5   0  0.3649705E-06  0.2217138E+04  0.7818609E-02  0.8511329E-01
       -1   -1    0    0    0  501  0.00000000000E+00  0.00000000000E+00  0.86433483072E+03  0.86433483074E+03  0.50400001928E-02 0.  1.
        1   -1    0    0  501    0  0.00000000000E+00  0.00000000000E+00 -0.14218158306E+04  0.14218158306E+04  0.50400001928E-02 0. -1.
    10030    2    1    2    0    0  0.00000000000E+00  0.00000000000E+00 -0.55748099987E+03  0.22861506613E+04  0.22171377452E+04 0.  0.
        2    1    3    3  502    0  0.79064260783E+03  0.31101528394E+03  0.45551948071E+03  0.96402501911E+03  0.25500000920E-02 0.  1.
       -2    1    3    3    0  502 -0.79064260783E+03 -0.31101528394E+03 -0.10130004806E+04  0.13221256422E+04  0.25500000920E-02 0. -1.
</event>
<event>
 5   0  0.3564340E-06  0.2699459E+04  0.7818609E-02  0.8335181E-01
        1   -1    0    0  501    0  0.00000000000E+00  0.00000000000E+00  0.10452710201E+04  0.10452710201E+04  0.50400001928E-02 0. -1.
       -1   -1    0    0    0  501  0.00000000000E+00  0.00000000000E+00 -0.17428678726E+04  0.17428678726E+04  0.50400001928E-02 0.  1.
    10030    2    1    2    0    0  0.00000000000E+00  0.00000000000E+00 -0.69759685247E+03  0.27881388928E+04  0.26994586711E+04 0.  0.
        1    1    3    3  502    0 -0.82925013127E+03  0.10465014657E+04 -0.55263462570E+03  0.14450695926E+04  0.50400001928E-02 0.  1.
       -1    1    3    3    0  502  0.82925013127E+03 -0.10465014657E+04 -0.14496222676E+03  0.13430693002E+04  0.50400001928E-02 0. -1.
</event>
<event>
 5   0  0.9505359E-06  0.2904089E+04  0.7818609E-02  0.8271662E-01
       -2   -1    0    0    0  501  0.00000000000E+00  0.00000000000E+00  0.90633437840E+03  0.90633437841E+03  0.25500000920E-02 0. -1.
        2   -1    0    0  501    0  0.00000000000E+00  0.00000000000E+00 -0.23263299508E+04  0.23263299508E+04  0.25500000920E-02 0.  1.
    10030    2    1    2    0    0  0.00000000000E+00  0.00000000000E+00 -0.14199955724E+04  0.32326643292E+04  0.29040887107E+04 0.  0.
        4    1    3    3  502    0 -0.32663540377E+03  0.11272872132E+04  0.24169930359E+03  0.11982851557E+04  0.12699999809E+01 0. -1.
       -4    1    3    3    0  502  0.32663540377E+03 -0.11272872132E+04 -0.16616948760E+04  0.20343791736E+04  0.12699999809E+01 0.  1.
</event>
<event>
 5   0  0.3486236E-06  0.3012019E+04  0.7818609E-02  0.8240307E-01
       -1   -1    0    0    0  501  0.00000000000E+00  0.00000000000E+00  0.15558056030E+04  0.15558056030E+04  0.50400001928E-02 0. -1.
        1   -1    0    0  501    0  0.00000000000E+00  0.00000000000E+00 -0.14578068017E+04  0.14578068017E+04  0.50400001928E-02 0.  1.
    10030    2    1    2    0    0  0.00000000000E+00  0.00000000000E+00  0.97998801304E+02  0.30136124047E+04  0.30120185857E+04 0.  0.
        5    1    3    3  502    0  0.68168977328E+03 -0.13406902230E+04  0.12579077304E+03  0.15093033591E+04  0.46999998093E+01 0. -1.
       -5    1    3    3    0  502 -0.68168977328E+03  0.13406902230E+04 -0.27791971741E+02  0.15043090456E+04  0.46999998093E+01 0.  1.
</event>
<event>
 5   0  0.3486236E-06  0.2884682E+04  0.7818609E-02  0.8277450E-01
       -1   -1    0    0    0  501  0.00000000000E+00  0.00000000000E+00  0.18598389904E+04  0.18598389904E+04  0.50400001928E-02 0. -1.
        1   -1    0    0  501    0  0.00000000000E+00  0.00000000000E+00 -0.11185632154E+04  0.11185632154E+04  0.50400001928E-02 0.  1.
    10030    2    1    2    0    0  0.00000000000E+00  0.00000000000E+00  0.74127577498E+03  0.29784022058E+04  0.28846819452E+04 0.  0.
        5    1    3    3  502    0 -0.20232864449E+03 -0.47619841079E+03  0.17607160527E+04  0.18351689064E+04  0.46999998093E+01 0. -1.
       -5    1    3    3    0  502  0.20232864449E+03  0.47619841079E+03 -0.10194402777E+04  0.11432332993E+04  0.46999998093E+01 0.  1.
</event>
<event>
 5   0  0.3649705E-06  0.2840712E+04  0.7818609E-02  0.8290739E-01
        1   -1    0    0  501    0  0.00000000000E+00  0.00000000000E+00  0.12257773160E+04  0.12257773160E+04  0.50400001928E-02 0.  1.
       -1   -1    0    0    0  501  0.00000000000E+00  0.00000000000E+00 -0.16458221876E+04  0.16458221876E+04  0.50400001928E-02 0. -1.
    10030    2    1    2    0    0  0.00000000000E+00  0.00000000000E+00 -0.42004487156E+03  0.28715995036E+04  0.28407122373E+04 0.  0.
        2    1    3    3  502    0 -0.10210393448E+03  0.14049946986E+03 -0.16350473715E+04  0.16442460951E+04  0.25500000920E-02 0. -1.
       -2    1    3    3    0  502  0.10210393448E+03 -0.14049946986E+03  0.12150024999E+04  0.12273534085E+04  0.25500000920E-02 0.  1.
</event>
<event>
 5   0  0.1001573E-05  0.3058902E+04  0.7818609E-02  0.8227108E-01
       -2   -1    0    0    0  501  0.00000000000E+00  0.00000000000E+00  0.12786571360E+04  0.12786571360E+04  0.25500000920E-02 0. -1.
        2   -1    0    0  501    0  0.00000000000E+00  0.00000000000E+00 -0.18294354381E+04  0.18294354381E+04  0.25500000920E-02 0.  1.
    10030    2    1    2    0    0  0.00000000000E+00  0.00000000000E+00 -0.55077830203E+03  0.31080925741E+04  0.30589022069E+04 0.  0.
        1    1    3    3  502    0 -0.95494484711E+03  0.27440561401E+02 -0.14889779306E+04  0.17691037062E+04  0.50400001928E-02 0.  1.
       -1    1    3    3    0  502  0.95494484711E+03 -0.27440561401E+02  0.93819962856E+03  0.13389888679E+04  0.50400001928E-02 0. -1.
</event>
<event>
 5   0  0.3746518E-06  0.2436872E+04  0.7818609E-02  0.8425827E-01
       -1   -1    0    0    0  501  0.00000000000E+00  0.00000000000E+00  0.12482442301E+04  0.12482442302E+04  0.50400001928E-02 0. -1.
        1   -1    0    0  501    0  0.00000000000E+00  0.00000000000E+00 -0.11893393396E+04  0.11893393396E+04  0.50400001928E-02 0.  1.
    10030    2    1    2    0    0  0.00000000000E+00  0.00000000000E+00  0.58904890515E+02  0.24375835698E+04  0.24368717393E+04 0.  0.
        4    1    3    3  502    0  0.55519012084E+02  0.11504188034E+04 -0.36820433378E+03  0.12091822973E+04  0.12699999809E+01 0.  1.
       -4    1    3    3    0  502 -0.55519012084E+02 -0.11504188034E+04  0.42710922430E+03  0.12284012725E+04  0.12699999809E+01 0. -1.
</event>
<event>
 5   0  0.1001573E-05  0.3113921E+04  0.7818609E-02  0.8211928E-01
        2   -1    0    0  501    0  0.00000000000E+00  0.00000000000E+00  0.13730920232E+04  0.13730920232E+04  0.25500000920E-02 0. -1.
       -2   -1    0    0    0  501  0.00000000000E+00  0.00000000000E+00 -0.17654508562E+04  0.17654508562E+04  0.25500000920E-02 0.  1.
    10030    2    1    2    0    0  0.00000000000E+00  0.00000000000E+00 -0.39235883295E+03  0.31385428794E+04  0.31139213144E+04 0.  0.
        1    1    3    3  502    0  0.77315021575E+03  0.13467057848E+04 -0.30998260303E+03  0.15834983237E+04  0.50400001928E-02 0. -1.
       -1    1    3    3    0  502 -0.77315021575E+03 -0.13467057848E+04 -0.82376229914E+02  0.15550445557E+04  0.50400001928E-02 0.  1.
</event>
<event>
 5   0  0.9646321E-06  0.3179498E+04  0.7818609E-02  0.8194253E-01
       -2   -1    0    0    0  501  0.00000000000E+00  0.00000000000E+00  0.12945928185E+04  0.12945928185E+04  0.25500000920E-02 0. -1.
        2   -1    0    0  501    0  0.00000000000E+00  0.00000000000E+00 -0.19521986101E+04  0.19521986101E+04  0.25500000920E-02 0.  1.
    10030    2    1    2    0    0  0.00000000000E+00  0.00000000000E+00 -0.65760579166E+03  0.32467914286E+04  0.31794982629E+04 0.  0.
        3    1    3    3  502    0 -0.82481917315E+03  0.12999146565E+04 -0.73367572026E+03  0.17053987379E+04  0.10100000352E+00 0.  1.
       -3    1    3    3    0  502  0.82481917315E+03 -0.12999146565E+04  0.76069928609E+02  0.15413926907E+04  0.10100000352E+00 0. -1.
</event>
<event>
 5   0  0.9646321E-06  0.2905951E+04  0.7818609E-02  0.8271109E-01
        2   -1    0    0  501    0  0.00000000000E+00  0.00000000000E+00  0.19327014517E+04  0.19327014517E+04  0.25500000920E-02 0.  1.
       -2   -1    0    0    0  501  0.00000000000E+00  0.00000000000E+00 -0.10923251837E+04  0.10923251837E+04  0.25500000920E-02 0. -1.
    10030    2    1    2    0    0  0.00000000000E+00  0.00000000000E+00  0.84037626800E+03  0.30250266353E+04  0.29059514574E+04 0.  0.
        3    1    3    3  502    0 -0.28656791316E+03  0.11525201021E+04  0.12915759093E+04  0.17545917173E+04  0.10100000352E+00 0.  1.
       -3    1    3    3    0  502  0.28656791316E+03 -0.11525201021E+04 -0.45119964134E+03  0.12704349181E+04  0.10100000352E+00 0. -1.
</event>
<event>
 5   0  0.3564340E-06  0.2951936E+04  0.7818609E-02  0.8257591E-01
       -1   -1    0    0    0  501  0.00000000000E+00  0.00000000000E+00  0.16349936192E+04  0.16349936192E+04  0.50400001928E-02 0.  1.
        1   -1    0    0  501    0  0.00000000000E+00  0.00000000000E+00 -0.13324096660E+04  0.13324096661E+04  0.50400001928E-02 0. -1.
    10030    2    1    2    0    0  0.00000000000E+00  0.00000000000E+00  0.30258395314E+03  0.29674032853E+04  0.29519358409E+04 0.  0.
        1    1    3    3  502    0  0.93913216062E+03 -0.81958580502E+03  0.94587102525E+03  0.15647242899E+04  0.50400001928E-02 0.  1.
       -1    1    3    3    0  502 -0.93913216062E+03  0.81958580502E+03 -0.64328707211E+03  0.14026789954E+04  0.50400001928E-02 0. -1.
</event>
<event>
 5   0  0.3486236E-06  0.2880559E+04  0.7818609E-02  0.8278685E-01
       -1   -1    0    0    0  501  0.00000000000E+00  0.00000000000E+00  0.13847250707E+04  0.13847250708E+04  0.50400001928E-02 0.  1.
        1   -1    0    0  501    0  0.00000000000E+00  0.00000000000E+00 -0.14980626499E+04  0.14980626499E+04  0.50400001928E-02 0. -1.
    10030    2    1    2    0    0  0.00000000000E+00  0.00000000000E+00 -0.11333757913E+03  0.28827877206E+04  0.28805589103E+04 0.  0.
        5    1    3    3  502    0 -0.14286456609E+04  0.16844406666E+03  0.13961953743E+02  0.14386169935E+04  0.46999998093E+01 0.  1.
       -5    1    3    3    0  502  0.14286456609E+04 -0.16844406666E+03 -0.12729953288E+03  0.14441707271E+04  0.46999998093E+01 0. -1.
</event>
<event>
 5   0  0.9646321E-06  0.2836074E+04  0.7818609E-02  0.8292156E-01
       -2   -1    0    0    0  501  0.00000000000E+00  0.00000000000E+00  0.13012484904E+04  0.13012484904E+04  0.25500000920E-02 0.  1.
        2   -1    0    0  501    0  0.00000000000E+00  0.00000000000E+00 -0.15453075033E+04  0.15453075033E+04  0.25500000920E-02 0. -1.
    10030    2    1    2    0    0  0.00000000000E+00  0.00000000000E+00 -0.24405901286E+03  0.28465559937E+04  0.28360740864E+04 0.  0.
        3    1    3    3  502    0  0.32078273175E+03  0.11035525444E+03  0.12599213533E+04  0.13047918109E+04  0.10100000352E+00 0.  1.
       -3    1    3    3    0  502 -0.32078273175E+03 -0.11035525444E+03 -0.15039803662E+04  0.15417641827E+04  0.10100000352E+00 0. -1.
</event>
<event>
 5   0  0.3486236E-06  0.2903049E+04  0.7818609E-02  0.8271971E-01
        1   -1    0    0  501    0  0.00000000000E+00  0.00000000000E+00  0.13825561408E+04  0.13825561408E+04  0.50400001928E-02 0.  1.
       -1   -1    0    0    0  501  0.00000000000E+00  0.00000000000E+00 -0.15239331475E+04  0.15239331475E+04  0.50400001928E-02 0. -1.
    10030    2    1    2    0    0  0.00000000000E+00  0.00000000000E+00 -0.14137700672E+03  0.29064892884E+04  0.29030488328E+04 0.  0.
        5    1    3    3  502    0  0.29157499296E+03  0.11315628582E+04  0.79140720887E+03  0.14113107166E+04  0.46999998093E+01 0.  1.
       -5    1    3    3    0  502 -0.29157499296E+03 -0.11315628582E+04 -0.93278421559E+03  0.14951785718E+04  0.46999998093E+01 0. -1.
</event>
<event>
 5   0  0.9251510E-06  0.2859908E+04  0.7818609E-02  0.8284907E-01
        2   -1    0    0  501    0  0.00000000000E+00  0.00000000000E+00  0.12229840310E+04  0.12229840310E+04  0.25500000920E-02 0.  1.
       -2   -1    0    0    0  501  0.00000000000E+00  0.00000000000E+00 -0.16719507728E+04  0.16719507728E+04  0.25500000920E-02 0. -1.
    10030    2    1    2    0    0  0.00000000000E+00  0.00000000000E+00 -0.44896674178E+03  0.28949348038E+04  0.28599084571E+04 0.  0.
        2    1    3    3  502    0  0.12398662717E+04 -0.70856316985E+03 -0.14983084278E+03  0.14358897656E+04  0.25500000920E-02 0.  1.
       -2    1    3    3    0  502 -0.12398662717E+04  0.70856316985E+03 -0.29913589900E+03  0.14590450382E+04  0.25500000920E-02 0. -1.
</event>
<event>
 5   0  0.3474078E-06  0.2946766E+04  0.7818609E-02  0.8259098E-01
        1   -1    0    0  501    0  0.00000000000E+00  0.00000000000E+00  0.12261186205E+04  0.12261186205E+04  0.50400001928E-02 0.  1.
       -1   -1    0    0    0  501  0.00000000000E+00  0.00000000000E+00 -0.17705112776E+04  0.17705112776E+04  0.50400001928E-02 0. -1.
    10030    2    1    2    0    0  0.00000000000E+00  0.00000000000E+00 -0.54439265710E+03  0.29966298982E+04  0.29467655797E+04 0.  0.
        3    1    3    3  502    0 -0.14259862176E+04  0.28358957265E+03 -0.29415780794E+02  0.14542094199E+04  0.10100000352E+00 0.  1.
       -3    1    3    3    0  502  0.14259862176E+04 -0.28358957265E+03 -0.51497687630E+03  0.15424204783E+04  0.10100000352E+00 0. -1.
</event>
<event>
 5   0  0.3564340E-06  0.2843123E+04  0.7818609E-02  0.8290004E-01
        1   -1    0    0  501    0  0.00000000000E+00  0.00000000000E+00  0.21002994253E+04  0.21002994253E+04  0.50400001928E-02 0. -1.
       -1   -1    0    0    0  501  0.00000000000E+00  0.00000000000E+00 -0.96216641444E+03  0.96216641445E+03  0.50400001928E-02 0.  1.
    10030    2    1    2    0    0  0.00000000000E+00  0.00000000000E+00  0.11381330108E+04  0.30624658397E+04  0.28431233299E+04 0.  0.
        1    1    3    3  502    0  0.13379610879E+04  0.86636102587E+02  0.60187247370E+02  0.13421133305E+04  0.50400001928E-02 0. -1.
       -1    1    3    3    0  502 -0.13379610879E+04 -0.86636102587E+02  0.10779457635E+04  0.17203525092E+04  0.50400001928E-02 0.  1.
</event>
<event>
 5   0  0.3746518E-06  0.3013307E+04  0.7818609E-02  0.8239941E-01
       -1   -1    0    0    0  501  0.00000000000E+00  0.00000000000E+00  0.11200930841E+04  0.11200930841E+04  0.50400001928E-02 0.  1.
        1   -1    0    0  501    0  0.00000000000E+00  0.00000000000E+00 -0.20266220678E+04  0.20266220678E+04  0.50400001928E-02 0. -1.
    10030    2    1    2    0    0  0.00000000000E+00  0.00000000000E+00 -0.90652898376E+03  0.31467151519E+04  0.30133073937E+04 0.  0.
        4    1    3    3  502    0  0.10684597833E+04  0.93238108404E+03 -0.98478087025E+03  0.17264807470E+04  0.12699999809E+01 0.  1.
       -4    1    3    3    0  502 -0.10684597833E+04 -0.93238108404E+03  0.78251886496E+02  0.14202344050E+04  0.12699999809E+01 0. -1.
</event>
<event>
 5   0  0.9505359E-06  0.2899693E+04  0.7818609E-02  0.8272969E-01
        2   -1    0    0  501    0  0.00000000000E+00  0.00000000000E+00  0.17116234413E+04  0.17116234413E+04  0.25500000920E-02 0.  1.
       -2   -1    0    0    0  501  0.00000000000E+00  0.00000000000E+00 -0.12281061595E+04  0.12281061595E+04  0.25500000920E-02 0. -1.
    10030    2    1    2    0    0  0.00000000000E+00  0.00000000000E+00  0.48351728172E+03  0.29397296008E+04  0.28996932879E+04 0.  0.
        4    1    3    3  502    0  0.88296174881E+02  0.82956172204E+03 -0.96039805816E+03  0.12721379281E+04  0.12699999809E+01 0. -1.
       -4    1    3    3    0  502 -0.88296174881E+02 -0.82956172204E+03  0.14439153399E+04  0.16675916727E+04  0.12699999809E+01 0.  1.
</event>
<event>
 5   0  0.3474078E-06  0.2916032E+04  0.7818609E-02  0.8268123E-01
        1   -1    0    0  501    0  0.00000000000E+00  0.00000000000E+00  0.17204817426E+04  0.17204817426E+04  0.50400001928E-02 0. -1.
       -1   -1    0    0    0  501  0.00000000000E+00  0.00000000000E+00 -0.12355906637E+04  0.12355906637E+04  0.50400001928E-02 0.  1.
    10030    2    1    2    0    0  0.00000000000E+00  0.00000000000E+00  0.48489107891E+03  0.29560724063E+04  0.29160323580E+04 0.  0.
        3    1    3    3  502    0 -0.31057427876E+03 -0.14174400910E+04  0.38658929729E+03  0.15016804218E+04  0.10100000352E+00 0.  1.
       -3    1    3    3    0  502  0.31057427876E+03  0.14174400910E+04  0.98301781626E+02  0.14543919845E+04  0.10100000352E+00 0. -1.
</event>
<event>
 5   0  0.3486236E-06  0.2897804E+04  0.7818609E-02  0.8273531E-01
       -1   -1    0    0    0  501  0.00000000000E+00  0.00000000000E+00  0.77750432217E+03  0.77750432218E+03  0.50400001928E-02 0. -1.
        1   -1    0    0  501    0  0.00000000000E+00  0.00000000000E+00 -0.27000706779E+04  0.27000706779E+04  0.50400001928E-02 0.  1.
    10030    2    1    2    0    0  0.00000000000E+00  0.00000000000E+00 -0.19225663557E+04  0.34775750001E+04  0.28978037354E+04 0.  0.
        5    1    3    3  502    0  0.66131424069E+03  0.53538682492E+03  0.44608994045E+03  0.96072571643E+03  0.46999998093E+01 0.  1.
       -5    1    3    3    0  502 -0.66131424069E+03 -0.53538682492E+03 -0.23686562962E+04  0.25168492837E+04  0.46999998093E+01 0. -1.
</event>
<event>
 5   0  0.3746518E-06  0.2839966E+04  0.7818609E-02  0.8290967E-01
       -1   -1    0    0    0  501  0.00000000000E+00  0.00000000000E+00  0.13772038751E+04  0.13772038751E+04  0.50400001928E-02 0.  1.
        1   -1    0    0  501    0  0.00000000000E+00  0.00000000000E+00 -0.14640907798E+04  0.14640907798E+04  0.50400001928E-02 0. -1.
    10030    2    1    2    0    0  0.00000000000E+00  0.00000000000E+00 -0.86886904676E+02  0.28412946549E+04  0.28399658416E+04 0.  0.
        4    1    3    3  502    0  0.33176107656E+03  0.35594784709E+03  0.12911918229E+04  0.13798341271E+04  0.12699999809E+01 0.  1.
       -4    1    3    3    0  502 -0.33176107656E+03 -0.35594784709E+03 -0.13780787276E+04  0.14614605278E+04  0.12699999809E+01 0. -1.
</event>
<event>
 5   0  0.9251510E-06  0.2886862E+04  0.7818609E-02  0.8276797E-01
       -2   -1    0    0    0  501  0.00000000000E+00  0.00000000000E+00  0.13367028377E+04  0.13367028377E+04  0.25500000920E-02 0. -1.
        2   -1    0    0  501    0  0.00000000000E+00  0.00000000000E+00 -0.15586806087E+04  0.15586806087E+04  0.25500000920E-02 0.  1.
    10030    2    1    2    0    0  0.00000000000E+00  0.00000000000E+00 -0.22197777099E+03  0.28953834464E+04  0.28868618205E+04 0.  0.
        2    1    3    3  502    0  0.54111422206E+03  0.68164717851E+03 -0.12659284869E+04  0.15362364438E+04  0.25500000920E-02 0.  1.
       -2    1    3    3    0  502 -0.54111422206E+03 -0.68164717851E+03  0.10439507160E+04  0.13591470026E+04  0.25500000920E-02 0. -1.
</event>
<event>
 5   0  0.9505359E-06  0.2875774E+04  0.7818609E-02  0.8280122E-01
       -2   -1    0    0    0  501  0.00000000000E+00  0.00000000000E+00  0.14750530563E+04  0.14750530563E+04  0.25500000920E-02 0. -1.
        2   -1    0    0  501    0  0.00000000000E+00  0.00000000000E+00 -0.14016573736E+04  0.14016573736E+04  0.25500000920E-02 0.  1.
    10030    2    1    2    0    0  0.00000000000E+00  0.00000000000E+00  0.73395682705E+02  0.28767104299E+04  0.28757739778E+04 0.  0.
        4    1    3    3  502    0 -0.77947148021E+03  0.10429336875E+04 -0.57360812869E+03  0.14227840185E+04  0.12699999809E+01 0.  1.
       -4    1    3    3    0  502  0.77947148021E+03 -0.10429336875E+04  0.64700381140E+03  0.14539264114E+04  0.12699999809E+01 0. -1.
</event>
<event>
 5   0  0.9505359E-06  0.2886397E+04  0.7818609E-02  0.8276936E-01
       -2   -1    0    0    0  501  0.00000000000E+00  0.00000000000E+00  0.98549302728E+03  0.98549302729E+03  0.25500000920E-02 0.  1.
        2   -1    0    0  501    0  0.00000000000E+00  0.00000000000E+00 -0.21134825734E+04  0.21134825734E+04  0.25500000920E-02 0. -1.
    10030    2    1    2    0    0  0.00000000000E+00  0.00000000000E+00 -0.11279895462E+04  0.30989756007E+04  0.28863972973E+04 0.  0.
        4    1    3    3  502    0 -0.12091101227E+04 -0.41544061377E+03  0.15485469692E+03  0.12878353087E+04  0.12699999809E+01 0.  1.
       -4    1    3    3    0  502  0.12091101227E+04  0.41544061377E+03 -0.12828442431E+04  0.18111402920E+04  0.12699999809E+01 0. -1.
</event>
<event>
 5   0  0.3746518E-06  0.2960209E+04  0.7818609E-02  0.8255185E-01
        1   -1    0    0  501    0  0.00000000000E+00  0.00000000000E+00  0.13117219309E+04  0.13117219309E+04  0.50400001928E-02 0. -1.
       -1   -1    0    0    0  501  0.00000000000E+00  0.00000000000E+00 -0.16701024045E+04  0.16701024045E+04  0.50400001928E-02 0.  1.
    10030    2    1    2    0    0  0.00000000000E+00  0.00000000000E+00 -0.35838047364E+03  0.29818243354E+04  0.29602094188E+04 0.  0.
        4    1    3    3  502    0 -0.80667144849E+03 -0.11304406691E+04  0.33649852349E+03  0.14289323991E+04  0.12699999809E+01 0.  1.
       -4    1    3    3    0  502  0.80667144849E+03  0.11304406691E+04 -0.69487899713E+03  0.15528919362E+04  0.12699999809E+01 0. -1.
</event>
<event>
 5   0  0.9251510E-06  0.2928412E+04  0.7818609E-02  0.8264474E-01
        2   -1    0    0  501    0  0.00000000000E+00  0.00000000000E+00  0.16420402587E+04  0.16420402587E+04  0.25500000920E-02 0. -1.
       -2   -1    0    0    0  501  0.00000000000E+00  0.00000000000E+00 -0.13056311541E+04  0.13056311541E+04  0.25500000920E-02 0.  1.
    10030    2    1    2    0    0  0.00000000000E+00  0.00000000000E+00  0.33640910454E+03  0.29476714128E+04  0.29284118003E+04 0.  0.
        2    1    3    3  502    0 -0.56121408737E+03  0.67049185318E+03 -0.10139890985E+04  0.13389154077E+04  0.25500000920E-02 0.  1.
       -2    1    3    3    0  502  0.56121408737E+03 -0.67049185318E+03  0.13503982031E+04  0.16087560051E+04  0.25500000920E-02 0. -1.
</event>
<event>
 5   0  0.9505359E-06  0.3053017E+04  0.7818609E-02  0.8228752E-01
       -2   -1    0    0    0  501  0.00000000000E+00  0.00000000000E+00  0.90160999359E+03  0.90160999359E+03  0.25500000920E-02 0.  1.
        2   -1    0    0  501    0  0.00000000000E+00  0.00000000000E+00 -0.25845183025E+04  0.25845183025E+04  0.25500000920E-02 0. -1.
    10030    2    1    2    0    0  0.00000000000E+00  0.00000000000E+00 -0.16829083090E+04  0.34861282961E+04  0.30530165608E+04 0.  0.
        4    1    3    3  502    0  0.89941539088E+03 -0.88980324759E+02  0.56325167546E+03  0.10649505183E+04  0.12699999809E+01 0.  1.
       -4    1    3    3    0  502 -0.89941539088E+03  0.88980324759E+02 -0.22461599844E+04  0.24211777779E+04  0.12699999809E+01 0. -1.
</event>
<event>
 5   0  0.9360689E-06  0.2381694E+04  0.7818609E-02  0.8446389E-01
       -2   -1    0    0    0  501  0.00000000000E+00  0.00000000000E+00  0.96677697790E+03  0.96677697791E+03  0.25500000920E-02 0. -1.
        2   -1    0    0  501    0  0.00000000000E+00  0.00000000000E+00 -0.14668492020E+04  0.14668492020E+04  0.25500000920E-02 0.  1.
    10030    2    1    2    0    0  0.00000000000E+00  0.00000000000E+00 -0.50007222409E+03  0.24336261799E+04  0.23816935475E+04 0.  0.
        5    1    3    3  502    0  0.10881078926E+04 -0.43568516714E+03 -0.34986597049E+02  0.11726237686E+04  0.46999998093E+01 0.  1.
       -5    1    3    3    0  502 -0.10881078926E+04  0.43568516714E+03 -0.46508562704E+03  0.12610024113E+04  0.46999998093E+01 0. -1.
</event>
<event>
 5   0  0.3188375E-06  0.2963854E+04  0.7818609E-02  0.8254129E-01
        4   -1    0    0  501    0  0.00000000000E+00  0.00000000000E+00  0.13501172379E+04  0.13501178352E+04  0.12699999809E+01 0. -1.
       -4   -1    0    0    0  501  0.00000000000E+00  0.00000000000E+00 -0.16266040898E+04  0.16266045856E+04  0.12699999809E+01 0.  1.
    10030    2    1    2    0    0  0.00000000000E+00  0.00000000000E+00 -0.27648685193E+03  0.29767224208E+04  0.29638541447E+04 0.  0.
        3    1    3    3  502    0 -0.92716922771E+03  0.11553885628E+04 -0.98800407334E+02  0.14846976253E+04  0.10100000352E+00 0. -1.
       -3    1    3    3    0  502  0.92716922771E+03 -0.11553885628E+04 -0.17768644459E+03  0.14920247956E+04  0.10100000352E+00 0.  1.
</event>
<event>
 5   0  0.9360689E-06  0.2918268E+04  0.7818609E-02  0.8267463E-01
        2   -1    0    0  501    0  0.00000000000E+00  0.00000000000E+00  0.23301463228E+04  0.23301463228E+04  0.25500000920E-02 0. -1.
       -2   -1    0    0    0  501  0.00000000000E+00  0.00000000000E+00 -0.91370758557E+03  0.91370758557E+03  0.25500000920E-02 0.  1.
    10030    2    1    2    0    0  0.00000000000E+00  0.00000000000E+00  0.14164387372E+04  0.32438539083E+04  0.29182682334E+04 0.  0.
        5    1    3    3  502    0 -0.12733466752E+03 -0.39207634378E+03 -0.84762354190E+03  0.94256338550E+03  0.46999998093E+01 0.  1.
       -5    1    3    3    0  502  0.12733466752E+03  0.39207634378E+03  0.22640622791E+04  0.23012905228E+04  0.46999998093E+01 0. -1.
</event>
<event>
 5   0  0.3486236E-06  0.3186442E+04  0.7818609E-02  0.8192407E-01
        1   -1    0    0  501    0  0.00000000000E+00  0.00000000000E+00  0.22136453756E+04  0.22136453756E+04  0.50400001928E-02 0.  1.
       -1   -1    0    0    0  501  0.00000000000E+00  0.00000000000E+00 -0.11466849564E+04  0.11466849564E+04  0.50400001928E-02 0. -1.
    10030    2    1    2    0    0  0.00000000000E+00  0.00000000000E+00  0.10669604192E+04  0.33603303320E+04  0.31864424370E+04 0.  0.
        5    1    3    3  502    0  0.10164712922E+04  0.39610100432E+03 -0.69101355583E+03  0.12913681574E+04  0.46999998093E+01 0. -1.
       -5    1    3    3    0  502 -0.10164712922E+04 -0.39610100432E+03  0.17579739750E+04  0.20689621747E+04  0.46999998093E+01 0.  1.
</event>
<event>
 5   0  0.3649705E-06  0.2315531E+04  0.7818609E-02  0.8471822E-01
       -1   -1    0    0    0  501  0.00000000000E+00  0.00000000000E+00  0.67071374820E+03  0.67071374822E+03  0.50400001928E-02 0. -1.
        1   -1    0    0  501    0  0.00000000000E+00  0.00000000000E+00 -0.19984997309E+04  0.19984997310E+04  0.50400001928E-02 0.  1.
    10030    2    1    2    0    0  0.00000000000E+00  0.00000000000E+00 -0.13277859828E+04  0.26692134792E+04  0.23155312525E+04 0.  0.
        2    1    3    3  502    0  0.87389602954E+03  0.16111229323E+03  0.19160249644E+03  0.90904508036E+03  0.25500000920E-02 0. -1.
       -2    1    3    3    0  502 -0.87389602954E+03 -0.16111229323E+03 -0.15193884792E+04  0.17601683988E+04  0.25500000920E-02 0.  1.
</event>
<event>
 5   0  0.1001573E-05  0.2940609E+04  0.7818609E-02  0.8260897E-01
        2   -1    0    0  501    0  0.00000000000E+00  0.00000000000E+00  0.16344772934E+04  0.16344772934E+04  0.25500000920E-02 0.  1.
       -2   -1    0    0    0  501  0.00000000000E+00  0.00000000000E+00 -0.13226220343E+04  0.13226220343E+04  0.25500000920E-02 0. -1.
    10030    2    1    2    0    0  0.00000000000E+00  0.00000000000E+00  0.31185525905E+03  0.29570993277E+04  0.29406092449E+04 0.  0.
        1    1    3    3  502    0 -0.11377525978E+04 -0.15704521302E+03  0.10790358022E+04  0.15759005156E+04  0.50400001928E-02 0.  1.
       -1    1    3    3    0  502  0.11377525978E+04  0.15704521302E+03 -0.76718054312E+03  0.13811988121E+04  0.50400001928E-02 0. -1.
</event>
<event>
 5   0  0.3746518E-06  0.2900879E+04  0.7818609E-02  0.8272616E-01
        1   -1    0    0  501    0  0.00000000000E+00  0.00000000000E+00  0.14348830237E+04  0.14348830237E+04  0.50400001928E-02 0.  1.
       -1   -1    0    0    0  501  0.00000000000E+00  0.00000000000E+00 -0.14661650120E+04  0.14661650120E+04  0.50400001928E-02 0. -1.
    10030    2    1    2    0    0  0.00000000000E+00  0.00000000000E+00 -0.31281988366E+02  0.29010480357E+04  0.29008793741E+04 0.  0.
        4    1    3    3  502    0  0.14419615497E+04  0.29529027046E+02 -0.16943094359E+03  0.14521823342E+04  0.12699999809E+01 0. -1.
       -4    1    3    3    0  502 -0.14419615497E+04 -0.29529027046E+02  0.13814895522E+03  0.14488657015E+04  0.12699999809E+01 0.  1.
</event>
<event>
 5   0  0.9646321E-06  0.2877834E+04  0.7818609E-02  0.8279503E-01
       -2   -1    0    0    0  501  0.00000000000E+00  0.00000000000E+00  0.12600228744E+04  0.12600228744E+04  0.25500000920E-02 0.  1.
        2   -1    0    0  501    0  0.00000000000E+00  0.00000000000E+00 -0.16432095350E+04  0.16432095350E+04  0.25500000920E-02 0. -1.
    10030    2    1    2    0    0  0.00000000000E+00  0.00000000000E+00 -0.38318666054E+03  0.29032324094E+04  0.28778336307E+04 0.  0.
        3    1    3    3  502    0 -0.19852794620E+03 -0.44970062407E+03  0.11726872279E+04  0.12715499759E+04  0.10100000352E+00 0.  1.
       -3    1    3    3    0  502  0.19852794620E+03  0.44970062407E+03 -0.15558738884E+04  0.16316824334E+04  0.10100000352E+00 0. -1.
</event>
<event>
 5   0  0.3486236E-06  0.2878772E+04  0.7818609E-02  0.8279221E-01
        1   -1    0    0  501    0  0.00000000000E+00  0.00000000000E+00  0.11637901414E+04  0.11637901414E+04  0.50400001928E-02 0. -1.
       -1   -1    0    0    0  501  0.00000000000E+00  0.00000000000E+00 -0.17802456772E+04  0.17802456772E+04  0.50400001928E-02 0.  1.
    10030    2    1    2    0    0  0.00000000000E+00  0.00000000000E+00 -0.61645553580E+03  0.29440358186E+04  0.28787722163E+04 0.  0.
        5    1    3    3  502    0 -0.51513051733E+03 -0.62775998006E+03  0.90714571837E+03  0.12175292550E+04  0.46999998093E+01 0. -1.
       -5    1    3    3    0  502  0.51513051733E+03  0.62775998006E+03 -0.15236012542E+04  0.17265065636E+04  0.46999998093E+01 0.  1.
</event>
<event>
 5   0  0.3474078E-06  0.2769677E+04  0.7818609E-02  0.8312745E-01
        1   -1    0    0  501    0  0.00000000000E+00  0.00000000000E+00  0.12414121704E+04  0.12414121704E+04  0.50400001928E-02 0.  1.
       -1   -1    0    0    0  501  0.00000000000E+00  0.00000000000E+00 -0.15448351829E+04  0.15448351829E+04  0.50400001928E-02 0. -1.
    10030    2    1    2    0    0  0.00000000000E+00  0.00000000000E+00 -0.30342301244E+03  0.27862473533E+04  0.27696766579E+04 0.  0.
        3    1    3    3  502    0 -0.11944371022E+04  0.29899452774E+03  0.48587809678E+03  0.13236900143E+04  0.10100000352E+00 0.  1.
       -3    1    3    3    0  502  0.11944371022E+04 -0.29899452774E+03 -0.78930110921E+03  0.14625573390E+04  0.10100000352E+00 0. -1.
</event>
<event>
 5   0  0.3188375E-06  0.2928663E+04  0.7818609E-02  0.8264400E-01
        3   -1    0    0  501    0  0.00000000000E+00  0.00000000000E+00  0.87560557148E+03  0.87560557730E+03  0.10100000352E+00 0.  1.
       -3   -1    0    0    0  501  0.00000000000E+00  0.00000000000E+00 -0.24488964330E+04  0.24488964351E+04  0.10100000352E+00 0. -1.
    10030    2    1    2    0    0  0.00000000000E+00  0.00000000000E+00 -0.15732908615E+04  0.33245020124E+04  0.29286634316E+04 0.  0.
        4    1    3    3  502    0  0.13292526062E+04 -0.50824962828E+03 -0.11782930958E+04  0.18475947630E+04  0.12699999809E+01 0. -1.
       -4    1    3    3    0  502 -0.13292526062E+04  0.50824962828E+03 -0.39499776576E+03  0.14769072494E+04  0.12699999809E+01 0.  1.
</event>
<event>
 5   0  0.9251510E-06  0.2079244E+04  0.7818609E-02  0.8570442E-01
        2   -1    0    0  501    0  0.00000000000E+00  0.00000000000E+00  0.97821008292E+03  0.97821008292E+03  0.25500000920E-02 0. -1.
       -2   -1    0    0    0  501  0.00000000000E+00  0.00000000000E+00 -0.11048894041E+04  0.11048894041E+04  0.25500000920E-02 0.  1.
    10030    2    1    2    0    0  0.00000000000E+00  0.00000000000E+00 -0.12667932118E+03  0.20830994870E+04  0.20792440507E+04 0.  0.
        2    1    3    3  502    0  0.26311614899E+03 -0.95114797070E+03  0.26422437393E+03  0.10216296246E+04  0.25500000920E-02 0. -1.
       -2    1    3    3    0  502 -0.26311614899E+03  0.95114797070E+03 -0.39090369510E+03  0.10614698624E+04  0.25500000920E-02 0.  1.
</event>
<event>
 5   0  0.9360689E-06  0.2899200E+04  0.7818609E-02  0.8273116E-01
        2   -1    0    0  501    0  0.00000000000E+00  0.00000000000E+00  0.27687801467E+04  0.27687801467E+04  0.25500000920E-02 0.  1.
       -2   -1    0    0    0  501  0.00000000000E+00  0.00000000000E+00 -0.75894080516E+03  0.75894080516E+03  0.25500000920E-02 0. -1.
    10030    2    1    2    0    0  0.00000000000E+00  0.00000000000E+00  0.20098393416E+04  0.35277209519E+04  0.28992000510E+04 0.  0.
        5    1    3    3  502    0 -0.53054887163E+03  0.99311434220E+03 -0.10600460934E+03  0.11309364567E+04  0.46999998093E+01 0. -1.
       -5    1    3    3    0  502  0.53054887163E+03 -0.99311434220E+03  0.21158439509E+04  0.23967844952E+04  0.46999998093E+01 0.  1.
</event>
<event>
 5   0  0.3746518E-06  0.2796008E+04  0.7818609E-02  0.8304509E-01
        1   -1    0    0  501    0  0.00000000000E+00  0.00000000000E+00  0.17289848368E+04  0.17289848368E+04  0.50400001928E-02 0.  1.
       -1   -1    0    0    0  501  0.00000000000E+00  0.00000000000E+00 -0.11303831027E+04  0.11303831027E+04  0.50400001928E-02 0. -1.
    10030    2    1    2    0    0  0.00000000000E+00  0.00000000000E+00  0.59860173412E+03  0.28593679395E+04  0.27960080431E+04 0.  0.
        4    1    3    3  502    0 -0.13152961569E+04 -0.81794245347E+02  0.77647857194E+03  0.15295799634E+04  0.12699999809E+01 0.  1.
       -4    1    3    3    0  502  0.13152961569E+04  0.81794245347E+02 -0.17787683782E+03  0.13297879761E+04  0.12699999809E+01 0. -1.
</event>
<event>
 5   0  0.9505359E-06  0.2906933E+04  0.7818609E-02  0.8270818E-01
       -2   -1    0    0    0  501  0.00000000000E+00  0.00000000000E+00  0.91798067076E+03  0.91798067077E+03  0.25500000920E-02 0.  1.
        2   -1    0    0  501    0  0.00000000000E+00  0.00000000000E+00 -0.23013177401E+04  0.23013177401E+04  0.25500000920E-02 0. -1.
    10030    2    1    2    0    0  0.00000000000E+00  0.00000000000E+00 -0.13833370693E+04  0.32192984109E+04  0.29069332312E+04 0.  0.
        4    1    3    3  502    0  0.18351770954E+03  0.14156306025E+04 -0.38863260475E+03  0.14794342388E+04  0.12699999809E+01 0. -1.
       -4    1    3    3    0  502 -0.18351770954E+03 -0.14156306025E+04 -0.99470446459E+03  0.17398641721E+04  0.12699999809E+01 0.  1.
</event>
<event>
 5   0  0.3486236E-06  0.2840269E+04  0.7818609E-02  0.8290874E-01
       -1   -1    0    0    0  501  0.00000000000E+00  0.00000000000E+00  0.87513397360E+03  0.87513397362E+03  0.50400001928E-02 0.  1.
        1   -1    0    0  501    0  0.00000000000E+00  0.00000000000E+00 -0.23045409246E+04  0.23045409246E+04  0.50400001928E-02 0. -1.
    10030    2    1    2    0    0  0.00000000000E+00  0.00000000000E+00 -0.14294069510E+04  0.31796748982E+04  0.28402690413E+04 0.  0.
        5    1    3    3  502    0  0.82597575325E+03  0.82648019585E+03 -0.16182807196E+04  0.19960360810E+04  0.46999998093E+01 0. -1.
       -5    1    3    3    0  502 -0.82597575325E+03 -0.82648019585E+03  0.18887376866E+03  0.11836388172E+04  0.46999998093E+01 0.  1.
</event>
<event>
 5   0  0.9251510E-06  0.2727738E+04  0.7818609E-02  0.8326061E-01
       -2   -1    0    0    0  501  0.00000000000E+00  0.00000000000E+00  0.61876333448E+03  0.61876333449E+03  0.25500000920E-02 0. -1.
        2   -1    0    0  501    0  0.00000000000E+00  0.00000000000E+00 -0.30062198921E+04  0.30062198921E+04  0.25500000920E-02 0.  1.
    10030    2    1    2    0    0  0.00000000000E+00  0.00000000000E+00 -0.23874565577E+04  0.36249832266E+04  0.27277379967E+04 0.  0.
        2    1    3    3  502    0 -0.30887798060E+03 -0.10683505056E+04 -0.22429635835E+04  0.25035303167E+04  0.25500000920E-02 0. -1.
       -2    1    3    3    0  502  0.30887798060E+03  0.10683505056E+04 -0.14449297416E+03  0.11214529099E+04  0.25500000920E-02 0.  1.
</event>
<event>
 5   0  0.9646321E-06  0.2868212E+04  0.7818609E-02  0.8282399E-01
       -2   -1    0    0    0  501  0.00000000000E+00  0.00000000000E+00  0.91210636155E+03  0.91210636156E+03  0.25500000920E-02 0.  1.
        2   -1    0    0  501    0  0.00000000000E+00  0.00000000000E+00 -0.22548461026E+04  0.22548461026E+04  0.25500000920E-02 0. -1.
    10030    2    1    2    0    0  0.00000000000E+00  0.00000000000E+00 -0.13427397411E+04  0.31669524642E+04  0.28682116202E+04 0.  0.
        3    1    3    3  502    0 -0.11873963169E+04  0.59710540682E+03 -0.12661959074E+04  0.18356734367E+04  0.10100000352E+00 0.  1.
       -3    1    3    3    0  502  0.11873963169E+04 -0.59710540682E+03 -0.76543833710E+02  0.13312790275E+04  0.10100000352E+00 0. -1.
</event>
<event>
 5   0  0.3649705E-06  0.2905475E+04  0.7818609E-02  0.8271251E-01
        1   -1    0    0  501    0  0.00000000000E+00  0.00000000000E+00  0.14614213209E+04  0.14614213209E+04  0.50400001928E-02 0. -1.
       -1   -1    0    0    0  501  0.00000000000E+00  0.00000000000E+00 -0.14441048005E+04  0.14441048005E+04  0.50400001928E-02 0.  1.
    10030    2    1    2    0    0  0.00000000000E+00  0.00000000000E+00  0.17316520418E+02  0.29055261214E+04  0.29054745190E+04 0.  0.
        2    1    3    3  502    0  0.53503316706E+03  0.68996999761E+02 -0.13402261297E+04  0.14447239025E+04  0.25500000920E-02 0.  1.
       -2    1    3    3    0  502 -0.53503316706E+03 -0.68996999761E+02  0.13575426501E+04  0.14608022189E+04  0.25500000920E-02 0. -1.
</event>
<event>
 5   0  0.3486236E-06  0.2943637E+04  0.7818609E-02  0.8260011E-01
       -1   -1    0    0    0  501  0.00000000000E+00  0.00000000000E+00  0.17195197130E+04  0.17195197130E+04  0.50400001928E-02 0.  1.
        1   -1    0    0  501    0  0.00000000000E+00  0.00000000000E+00 -0.12597989217E+04  0.12597989217E+04  0.50400001928E-02 0. -1.
    10030    2    1    2    0    0  0.00000000000E+00  0.00000000000E+00  0.45972079137E+03  0.29793186347E+04  0.29436365810E+04 0.  0.
        5    1    3    3  502    0 -0.16457566390E+03 -0.19392873714E+03 -0.12373787957E+04  0.12632584369E+04  0.46999998093E+01 0. -1.
       -5    1    3    3    0  502  0.16457566390E+03  0.19392873714E+03  0.16970995871E+04  0.17160601979E+04  0.46999998093E+01 0.  1.
</event>
<event>
 5   0  0.9646321E-06  0.2816351E+04  0.7818609E-02  0.8298210E-01
       -2   -1    0    0    0  501  0.00000000000E+00  0.00000000000E+00  0.12896248941E+04  0.12896248941E+04  0.25500000920E-02 0.  1.
        2   -1    0    0  501    0  0.00000000000E+00  0.00000000000E+00 -0.15376239477E+04  0.15376239477E+04  0.25500000920E-02 0. -1.
    10030    2    1    2    0    0  0.00000000000E+00  0.00000000000E+00 -0.24799905358E+03  0.28272488418E+04  0.28163509162E+04 0.  0.
        3    1    3    3  502    0 -0.10931619885E+03  0.12953784601E+04  0.41939229441E+03  0.13659594770E+04  0.10100000352E+00 0.  1.
       -3    1    3    3    0  502  0.10931619885E+03 -0.12953784601E+04 -0.66739134800E+03  0.14612893648E+04  0.10100000352E+00 0. -1.
</event>
<event>
 5   0  0.9646321E-06  0.2820049E+04  0.7818609E-02  0.8297071E-01
       -2   -1    0    0    0  501  0.00000000000E+00  0.00000000000E+00  0.12186106000E+04  0.12186106000E+04  0.25500000920E-02 0. -1.
        2   -1    0    0  501    0  0.00000000000E+00  0.00000000000E+00 -0.16315053502E+04  0.16315053503E+04  0.25500000920E-02 0.  1.
    10030    2    1    2    0    0  0.00000000000E+00  0.00000000000E+00 -0.41289475021E+03  0.28501159503E+04  0.28200494420E+04 0.  0.
        3    1    3    3  502    0  0.61304945686E+03  0.66545675221E+02  0.10751066210E+04  0.12393999436E+04  0.10100000352E+00 0. -1.
       -3    1    3    3    0  502 -0.61304945686E+03 -0.66545675221E+02 -0.14880013712E+04  0.16107160067E+04  0.10100000352E+00 0.  1.
</event>
<event>
 5   0  0.9251510E-06  0.2886938E+04  0.7818609E-02  0.8276774E-01
        2   -1    0    0  501    0  0.00000000000E+00  0.00000000000E+00  0.13205250065E+04  0.13205250065E+04  0.25500000920E-02 0.  1.
       -2   -1    0    0    0  501  0.00000000000E+00  0.00000000000E+00 -0.15778593765E+04  0.15778593765E+04  0.25500000920E-02 0. -1.
    10030    2    1    2    0    0  0.00000000000E+00  0.00000000000E+00 -0.25733436999E+03  0.28983843831E+04  0.28869380066E+04 0.  0.
        2    1    3    3  502    0 -0.27838950455E+03  0.12644921142E+04  0.51195504371E+03  0.13923142568E+04  0.25500000920E-02 0.  1.
       -2    1    3    3    0  502  0.27838950455E+03 -0.12644921142E+04 -0.76928941370E+03  0.15060701262E+04  0.25500000920E-02 0. -1.
</event>
<event>
 5   0  0.3564340E-06  0.2895435E+04  0.7818609E-02  0.8274237E-01
       -1   -1    0    0    0  501  0.00000000000E+00  0.00000000000E+00  0.85050205362E+03  0.85050205363E+03  0.50400001928E-02 0. -1.
        1   -1    0    0  501    0  0.00000000000E+00  0.00000000000E+00 -0.24642924498E+04  0.24642924498E+04  0.50400001928E-02 0.  1.
    10030    2    1    2    0    0  0.00000000000E+00  0.00000000000E+00 -0.16137903962E+04  0.33147945034E+04  0.28954348822E+04 0.  0.
        1    1    3    3  502    0 -0.44688534313E+03 -0.99802211142E+03  0.27926954657E+03  0.11286036171E+04  0.50400001928E-02 0.  1.
       -1    1    3    3    0  502  0.44688534313E+03  0.99802211142E+03 -0.18930599427E+04  0.21861908864E+04  0.50400001928E-02 0. -1.
</event>
<event>
 5   0  0.9505359E-06  0.2796202E+04  0.7818609E-02  0.8304448E-01
       -2   -1    0    0    0  501  0.00000000000E+00  0.00000000000E+00  0.10296070379E+04  0.10296070379E+04  0.25500000920E-02 0.  1.
        2   -1    0    0  501    0  0.00000000000E+00  0.00000000000E+00 -0.18984786748E+04  0.18984786748E+04  0.25500000920E-02 0. -1.
    10030    2    1    2    0    0  0.00000000000E+00  0.00000000000E+00 -0.86887163696E+03  0.29280857127E+04  0.27962024282E+04 0.  0.
        4    1    3    3  502    0 -0.95150262085E+03 -0.69332885659E+03  0.35520117093E+03  0.12297282731E+04  0.12699999809E+01 0. -1.
       -4    1    3    3    0  502  0.95150262085E+03  0.69332885659E+03 -0.12240728079E+04  0.16983574396E+04  0.12699999809E+01 0.  1.
</event>
<event>
 5   0  0.9646321E-06  0.2452372E+04  0.7818609E-02  0.8420152E-01
        2   -1    0    0  501    0  0.00000000000E+00  0.00000000000E+00  0.17927222856E+04  0.17927222856E+04  0.25500000920E-02 0.  1.
       -2   -1    0    0    0  501  0.00000000000E+00  0.00000000000E+00 -0.83868662496E+03  0.83868662497E+03  0.25500000920E-02 0. -1.
    10030    2    1    2    0    0  0.00000000000E+00  0.00000000000E+00  0.95403566060E+03  0.26314089105E+04  0.24523720788E+04 0.  0.
        3    1    3    3  502    0  0.10821666313E+04 -0.10411238691E+03  0.10855247558E+04  0.15363228868E+04  0.10100000352E+00 0.  1.
       -3    1    3    3    0  502 -0.10821666313E+04  0.10411238691E+03 -0.13148909516E+03  0.10950860237E+04  0.10100000352E+00 0. -1.
</event>
<event>
 5   0  0.3649705E-06  0.2878312E+04  0.7818609E-02  0.8279360E-01
        1   -1    0    0  501    0  0.00000000000E+00  0.00000000000E+00  0.17428770900E+04  0.17428770900E+04  0.50400001928E-02 0. -1.
       -1   -1    0    0    0  501  0.00000000000E+00  0.00000000000E+00 -0.11883627022E+04  0.11883627022E+04  0.50400001928E-02 0.  1.
    10030    2    1    2    0    0  0.00000000000E+00  0.00000000000E+00  0.55451438781E+03  0.29312397923E+04  0.28783120945E+04 0.  0.
        2    1    3    3  502    0  0.39715930601E+03 -0.13077066635E+04 -0.18196474529E+03  0.13787470401E+04  0.25500000920E-02 0.  1.
       -2    1    3    3    0  502 -0.39715930601E+03  0.13077066635E+04  0.73647913310E+03  0.15524927522E+04  0.25500000920E-02 0. -1.
</event>
<event>
 5   0  0.3564340E-06  0.2874609E+04  0.7818609E-02  0.8280472E-01
        1   -1    0    0  501    0  0.00000000000E+00  0.00000000000E+00  0.15626588478E+04  0.15626588478E+04  0.50400001928E-02 0. -1.
       -1   -1    0    0    0  501  0.00000000000E+00  0.00000000000E+00 -0.13220055094E+04  0.13220055094E+04  0.50400001928E-02 0.  1.
    10030    2    1    2    0    0  0.00000000000E+00  0.00000000000E+00  0.24065333838E+03  0.28846643572E+04  0.28746085689E+04 0.  0.
        1    1    3    3  502    0  0.21956172017E+03  0.59093397185E+03  0.14165236246E+04  0.15504675059E+04  0.50400001928E-02 0. -1.
       -1    1    3    3    0  502 -0.21956172017E+03 -0.59093397185E+03 -0.11758702862E+04  0.13341968513E+04  0.50400001928E-02 0.  1.
</event>
<event>
 5   0  0.1001573E-05  0.2889916E+04  0.7818609E-02  0.8275884E-01
        2   -1    0    0  501    0  0.00000000000E+00  0.00000000000E+00  0.12026480647E+04  0.12026480647E+04  0.25500000920E-02 0. -1.
       -2   -1    0    0    0  501  0.00000000000E+00  0.00000000000E+00 -0.17360889377E+04  0.17360889377E+04  0.25500000920E-02 0.  1.
    10030    2    1    2    0    0  0.00000000000E+00  0.00000000000E+00 -0.53344087302E+03  0.29387370023E+04  0.28899162624E+04 0.  0.
        1    1    3    3  502    0  0.51212625838E+02  0.15046887548E+03  0.11937313381E+04  0.12042666329E+04  0.50400001928E-02 0. -1.
       -1    1    3    3    0  502 -0.51212625838E+02 -0.15046887548E+03 -0.17271722111E+04  0.17344703694E+04  0.50400001928E-02 0.  1.
</event>
<event>
 5   0  0.3486236E-06  0.2861601E+04  0.7818609E-02  0.8284395E-01
        1   -1    0    0  501    0  0.00000000000E+00  0.00000000000E+00  0.11123887588E+04  0.11123887588E+04  0.50400001928E-02 0. -1.
       -1   -1    0    0    0  501  0.00000000000E+00  0.00000000000E+00 -0.18403545734E+04  0.18403545734E+04  0.50400001928E-02 0.  1.
    10030    2    1    2    0    0  0.00000000000E+00  0.00000000000E+00 -0.72796581458E+03  0.29527433323E+04  0.28616007686E+04 0.  0.
        5    1    3    3  502    0 -0.78653604506E+03  0.36306326843E+03 -0.15389851995E+04  0.17660553279E+04  0.46999998093E+01 0.  1.
       -5    1    3    3    0  502  0.78653604506E+03 -0.36306326843E+03  0.81101938488E+03  0.11866880044E+04  0.46999998093E+01 0. -1.
</event>
<event>
 5   0  0.3564340E-06  0.2894913E+04  0.7818609E-02  0.8274392E-01
        1   -1    0    0  501    0  0.00000000000E+00  0.00000000000E+00  0.25037279609E+04  0.25037279609E+04  0.50400001928E-02 0. -1.
       -1   -1    0    0    0  501  0.00000000000E+00  0.00000000000E+00 -0.83680453443E+03  0.83680453445E+03  0.50400001928E-02 0.  1.
    10030    2    1    2    0    0  0.00000000000E+00  0.00000000000E+00  0.16669234265E+04  0.33405324953E+04  0.28949134085E+04 0.  0.
        1    1    3    3  502    0 -0.50414265831E+03  0.79123222652E+03  0.21053660207E+04  0.23049456257E+04  0.50400001928E-02 0. -1.
       -1    1    3    3    0  502  0.50414265831E+03 -0.79123222652E+03 -0.43844259422E+03  0.10355868697E+04  0.50400001928E-02 0.  1.
</event>
<event>
 5   0  0.9646321E-06  0.3286425E+04  0.7818609E-02  0.8166358E-01
        2   -1    0    0  501    0  0.00000000000E+00  0.00000000000E+00  0.17541103418E+04  0.17541103418E+04  0.25500000920E-02 0.  1.
       -2   -1    0    0    0  501  0.00000000000E+00  0.00000000000E+00 -0.15393262172E+04  0.15393262172E+04  0.25500000920E-02 0. -1.
    10030    2    1    2    0    0  0.00000000000E+00  0.00000000000E+00  0.21478412458E+03  0.32934365591E+04  0.32864254363E+04 0.  0.
        3    1    3    3  502    0 -0.70127237189E+03  0.67077088149E+03  0.14362796586E+04  0.17333827572E+04  0.10100000352E+00 0.  1.
       -3    1    3    3    0  502  0.70127237189E+03 -0.67077088149E+03 -0.12214955340E+04  0.15600538019E+04  0.10100000352E+00 0. -1.
</event>
<event>
 5   0  0.3564340E-06  0.2948655E+04  0.7818609E-02  0.8258546E-01
       -1   -1    0    0    0  501  0.00000000000E+00  0.00000000000E+00  0.98014164980E+03  0.98014164982E+03  0.50400001928E-02 0. -1.
        1   -1    0    0  501    0  0.00000000000E+00  0.00000000000E+00 -0.22176817213E+04  0.22176817213E+04  0.50400001928E-02 0.  1.
    10030    2    1    2    0    0  0.00000000000E+00  0.00000000000E+00 -0.12375400715E+04  0.31978233712E+04  0.29486554367E+04 0.  0.
        1    1    3    3  502    0 -0.72461942069E+03 -0.12486809704E+04 -0.29456961877E+03  0.14734479058E+04  0.50400001928E-02 0. -1.
       -1    1    3    3    0  502  0.72461942069E+03  0.12486809704E+04 -0.94297045276E+03  0.17243754654E+04  0.50400001928E-02 0.  1.
</event>
<event>
 5   0  0.3564340E-06  0.2835237E+04  0.7818609E-02  0.8292411E-01
       -1   -1    0    0    0  501  0.00000000000E+00  0.00000000000E+00  0.17062939018E+04  0.17062939018E+04  0.50400001928E-02 0.  1.
        1   -1    0    0  501    0  0.00000000000E+00  0.00000000000E+00 -0.11777818144E+04  0.11777818144E+04  0.50400001928E-02 0. -1.
    10030    2    1    2    0    0  0.00000000000E+00  0.00000000000E+00  0.52851208735E+03  0.28840757162E+04  0.28352367997E+04 0.  0.
        1    1    3    3  502    0  0.72745538790E+03  0.11264873943E+04  0.73204355246E+03  0.15277607645E+04  0.50400001928E-02 0.  1.
       -1    1    3    3    0  502 -0.72745538790E+03 -0.11264873943E+04 -0.20353146512E+03  0.13563149517E+04  0.50400001928E-02 0. -1.
</event>
<event>
 5   0  0.3649705E-06  0.2903861E+04  0.7818609E-02  0.8271730E-01
       -1   -1    0    0    0  501  0.00000000000E+00  0.00000000000E+00  0.12794180157E+04  0.12794180157E+04  0.50400001928E-02 0.  1.
        1   -1    0    0  501    0  0.00000000000E+00  0.00000000000E+00 -0.16477034972E+04  0.16477034972E+04  0.50400001928E-02 0. -1.
    10030    2    1    2    0    0  0.00000000000E+00  0.00000000000E+00 -0.36828548147E+03  0.29271215129E+04  0.29038605606E+04 0.  0.
        2    1    3    3  502    0  0.76413511851E+03  0.62574462529E+03 -0.12569247035E+04  0.15985363698E+04  0.25500000920E-02 0. -1.
       -2    1    3    3    0  502 -0.76413511851E+03 -0.62574462529E+03  0.88863922201E+03  0.13285851430E+04  0.25500000920E-02 0.  1.
</event>
<event>
 5   0  0.1001573E-05  0.2869519E+04  0.7818609E-02  0.8282005E-01
       -2   -1    0    0    0  501  0.00000000000E+00  0.00000000000E+00  0.11400309450E+04  0.11400309450E+04  0.25500000920E-02 0.  1.
        2   -1    0    0  501    0  0.00000000000E+00  0.00000000000E+00 -0.18056827714E+04  0.18056827714E+04  0.25500000920E-02 0. -1.
    10030    2    1    2    0    0  0.00000000000E+00  0.00000000000E+00 -0.66565182643E+03  0.29457137164E+04  0.28695185912E+04 0.  0.
        1    1    3    3  502    0  0.19924257778E+02  0.12749668227E+03  0.11340615579E+04  0.11413798654E+04  0.50400001928E-02 0.  1.
       -1    1    3    3    0  502 -0.19924257778E+02 -0.12749668227E+03 -0.17997133843E+04  0.18043338510E+04  0.50400001928E-02 0. -1.
</event>
<event>
 5   0  0.3188375E-06  0.2843019E+04  0.7818609E-02  0.8290036E-01
        3   -1    0    0  501    0  0.00000000000E+00  0.00000000000E+00  0.11862894297E+04  0.11862894340E+04  0.10100000352E+00 0. -1.
       -3   -1    0    0    0  501  0.00000000000E+00  0.00000000000E+00 -0.17033698585E+04  0.17033698615E+04  0.10100000352E+00 0.  1.
    10030    2    1    2    0    0  0.00000000000E+00  0.00000000000E+00 -0.51708042878E+03  0.28896592955E+04  0.28430192884E+04 0.  0.
        4    1    3    3  502    0  0.13475227658E+04  0.19138082025E+03 -0.67544454976E+03  0.15194312013E+04  0.12699999809E+01 0.  1.
       -4    1    3    3    0  502 -0.13475227658E+04 -0.19138082025E+03  0.15836412099E+03  0.13702280943E+04  0.12699999809E+01 0. -1.
</event>
<event>
 5   0  0.9646321E-06  0.2956663E+04  0.7818609E-02  0.8256215E-01
        2   -1    0    0  501    0  0.00000000000E+00  0.00000000000E+00  0.12541840030E+04  0.12541840030E+04  0.25500000920E-02 0.  1.
       -2   -1    0    0    0  501  0.00000000000E+00  0.00000000000E+00 -0.17425386669E+04  0.17425386669E+04  0.25500000920E-02 0. -1.
    10030    2    1    2    0    0  0.00000000000E+00  0.00000000000E+00 -0.48835466391E+03  0.29967226699E+04  0.29566630654E+04 0.  0.
        3    1    3    3  502    0 -0.59356923273E+03 -0.15743319838E+03  0.11187933009E+04  0.12762476666E+04  0.10100000352E+00 0.  1.
       -3    1    3    3    0  502  0.59356923273E+03  0.15743319838E+03 -0.16071479648E+04  0.17204750033E+04  0.10100000352E+00 0. -1.
</event>
<event>
 5   0  0.9251510E-06  0.2877400E+04  0.7818609E-02  0.8279634E-01
       -2   -1    0    0    0  501  0.00000000000E+00  0.00000000000E+00  0.12929809887E+04  0.12929809887E+04  0.25500000920E-02 0.  1.
        2   -1    0    0  501    0  0.00000000000E+00  0.00000000000E+00 -0.16008415890E+04  0.16008415890E+04  0.25500000920E-02 0. -1.
    10030    2    1    2    0    0  0.00000000000E+00  0.00000000000E+00 -0.30786060031E+03  0.28938225776E+04  0.28774000350E+04 0.  0.
        2    1    3    3  502    0  0.62281464797E+03  0.63152501380E+02 -0.14566888599E+04  0.15855058369E+04  0.25500000920E-02 0. -1.
       -2    1    3    3    0  502 -0.62281464797E+03 -0.63152501380E+02  0.11488282596E+04  0.13083167408E+04  0.25500000920E-02 0.  1.
</event>
<event>
 5   0  0.9505359E-06  0.3209148E+04  0.7818609E-02  0.8186405E-01
       -2   -1    0    0    0  501  0.00000000000E+00  0.00000000000E+00  0.11667952690E+04  0.11667952690E+04  0.25500000920E-02 0. -1.
        2   -1    0    0  501    0  0.00000000000E+00  0.00000000000E+00 -0.22066056772E+04  0.22066056772E+04  0.25500000920E-02 0.  1.
    10030    2    1    2    0    0  0.00000000000E+00  0.00000000000E+00 -0.10398104082E+04  0.33734009463E+04  0.32091475907E+04 0.  0.
        4    1    3    3  502    0 -0.13999034076E+04  0.74049491889E+03 -0.79116981314E+03  0.17703145375E+04  0.12699999809E+01 0.  1.
       -4    1    3    3    0  502  0.13999034076E+04 -0.74049491889E+03 -0.24864059507E+03  0.16030864088E+04  0.12699999809E+01 0. -1.
</event>
<event>
 5   0  0.9646321E-06  0.2812419E+04  0.7818609E-02  0.8299423E-01
       -2   -1    0    0    0  501  0.00000000000E+00  0.00000000000E+00  0.11632752861E+04  0.11632752861E+04  0.25500000920E-02 0.  1.
        2   -1    0    0  501    0  0.00000000000E+00  0.00000000000E+00 -0.16998774224E+04  0.16998774224E+04  0.25500000920E-02 0. -1.
    10030    2    1    2    0    0  0.00000000000E+00  0.00000000000E+00 -0.53660213628E+03  0.28631527085E+04  0.28124191685E+04 0.  0.
        3    1    3    3  502    0  0.55453506070E+03 -0.83368248749E+03 -0.12734773152E+04  0.16199629953E+04  0.10100000352E+00 0. -1.
       -3    1    3    3    0  502 -0.55453506070E+03  0.83368248749E+03  0.73687517894E+03  0.12431897132E+04  0.10100000352E+00 0.  1.
</event>
<event>
 5   0  0.3564340E-06  0.2910045E+04  0.7818609E-02  0.8269895E-01
        1   -1    0    0  501    0  0.00000000000E+00  0.00000000000E+00  0.22605025072E+04  0.22605025072E+04  0.50400001928E-02 0.  1.
       -1   -1    0    0    0  501  0.00000000000E+00  0.00000000000E+00 -0.93655768233E+03  0.93655768234E+03  0.50400001928E-02 0. -1.
    10030    2    1    2    0    0  0.00000000000E+00  0.00000000000E+00  0.13239448249E+04  0.31970601896E+04  0.29100453530E+04 0.  0.
        1    1    3    3  502    0  0.11910629006E+04 -0.77317895742E+03  0.31342043004E+03  0.14541901181E+04  0.50400001928E-02 0. -1.
       -1    1    3    3    0  502 -0.11910629006E+04  0.77317895742E+03  0.10105243948E+04  0.17428700715E+04  0.50400001928E-02 0.  1.
</event>
<event>
 5   0  0.3188375E-06  0.2880138E+04  0.7818609E-02  0.8278812E-01
        3   -1    0    0  501    0  0.00000000000E+00  0.00000000000E+00  0.26092183830E+04  0.26092183850E+04  0.10100000352E+00 0. -1.
       -3   -1    0    0    0  501  0.00000000000E+00  0.00000000000E+00 -0.79479704723E+03  0.79479705364E+03  0.10100000352E+00 0.  1.
    10030    2    1    2    0    0  0.00000000000E+00  0.00000000000E+00  0.18144213358E+04  0.34040154386E+04  0.28801382471E+04 0.  0.
        2    1    3    3  502    0  0.50876522282E+03 -0.85905157672E+03 -0.31933437420E+03  0.10482299871E+04  0.25500000920E-02 0.  1.
       -2    1    3    3    0  502 -0.50876522282E+03  0.85905157672E+03  0.21337557100E+04  0.23557854515E+04  0.25500000920E-02 0. -1.
</event>
<event>
 5   0  0.3188375E-06  0.2922439E+04  0.7818609E-02  0.8266232E-01
        3   -1    0    0  501    0  0.00000000000E+00  0.00000000000E+00  0.10756712767E+04  0.10756712814E+04  0.10100000352E+00 0. -1.
       -3   -1    0    0    0  501  0.00000000000E+00  0.00000000000E+00 -0.19849581628E+04  0.19849581654E+04  0.10100000352E+00 0.  1.
    10030    2    1    2    0    0  0.00000000000E+00  0.00000000000E+00 -0.90928688611E+03  0.30606294468E+04  0.29224390446E+04 0.  0.
        5    1    3    3  502    0 -0.44315123256E+03  0.10688591154E+04 -0.13891944041E+04  0.18079618375E+04  0.46999998093E+01 0.  1.
       -5    1    3    3    0  502  0.44315123256E+03 -0.10688591154E+04  0.47990751800E+03  0.12526676093E+04  0.46999998093E+01 0. -1.
</event>
<event>
 5   0  0.9505359E-06  0.2908049E+04  0.7818609E-02  0.8270487E-01
        2   -1    0    0  501    0  0.00000000000E+00  0.00000000000E+00  0.13680524703E+04  0.13680524703E+04  0.25500000920E-02 0. -1.
       -2   -1    0    0    0  501  0.00000000000E+00  0.00000000000E+00 -0.15453989628E+04  0.15453989628E+04  0.25500000920E-02 0.  1.
    10030    2    1    2    0    0  0.00000000000E+00  0.00000000000E+00 -0.17734649245E+03  0.29134514331E+04  0.29080487401E+04 0.  0.
        4    1    3    3  502    0 -0.49811998078E+03 -0.53100152429E+03  0.11722750473E+04  0.13799697582E+04  0.12699999809E+01 0. -1.
       -4    1    3    3    0  502  0.49811998078E+03  0.53100152429E+03 -0.13496215397E+04  0.15334816750E+04  0.12699999809E+01 0.  1.
</event>
<event>
 5   0  0.9251510E-06  0.2899853E+04  0.7818609E-02  0.8272921E-01
       -2   -1    0    0    0  501  0.00000000000E+00  0.00000000000E+00  0.97910583406E+03  0.97910583406E+03  0.25500000920E-02 0.  1.
        2   -1    0    0  501    0  0.00000000000E+00  0.00000000000E+00 -0.21471495184E+04  0.21471495184E+04  0.25500000920E-02 0. -1.
    10030    2    1    2    0    0  0.00000000000E+00  0.00000000000E+00 -0.11680436843E+04  0.31262553525E+04  0.28998528377E+04 0.  0.
        2    1    3    3  502    0 -0.61389577191E+02  0.70716321572E+03  0.77897987956E+03  0.10538776716E+04  0.25500000920E-02 0.  1.
       -2    1    3    3    0  502  0.61389577191E+02 -0.70716321572E+03 -0.19470235639E+04  0.20723776809E+04  0.25500000920E-02 0. -1.
</event>
<event>
 5   0  0.3649705E-06  0.2893517E+04  0.7818609E-02  0.8274809E-01
       -1   -1    0    0    0  501  0.00000000000E+00  0.00000000000E+00  0.72124902705E+03  0.72124902706E+03  0.50400001928E-02 0. -1.
        1   -1    0    0  501    0  0.00000000000E+00  0.00000000000E+00 -0.29020635250E+04  0.29020635250E+04  0.50400001928E-02 0.  1.
    10030    2    1    2    0    0  0.00000000000E+00  0.00000000000E+00 -0.21808144979E+04  0.36233125521E+04  0.28935172326E+04 0.  0.
        2    1    3    3  502    0  0.99751033960E+03 -0.37403996290E+02  0.22094869577E+03  0.10223718808E+04  0.25500000920E-02 0. -1.
       -2    1    3    3    0  502 -0.99751033960E+03  0.37403996290E+02 -0.24017631937E+04  0.26009406712E+04  0.25500000920E-02 0.  1.
</event>
<event>
 5   0  0.3188375E-06  0.2887944E+04  0.7818609E-02  0.8276473E-01
        4   -1    0    0  501    0  0.00000000000E+00  0.00000000000E+00  0.10471990373E+04  0.10471998074E+04  0.12699999809E+01 0.  1.
       -4   -1    0    0    0  501  0.00000000000E+00  0.00000000000E+00 -0.19910768127E+04  0.19910772177E+04  0.12699999809E+01 0. -1.
    10030    2    1    2    0    0  0.00000000000E+00  0.00000000000E+00 -0.94387777534E+03  0.30382770251E+04  0.28879442562E+04 0.  0.
        5    1    3    3  502    0 -0.42000935714E+03  0.94058668822E+03 -0.15365035631E+04  0.18498584993E+04  0.46999998093E+01 0.  1.
       -5    1    3    3    0  502  0.42000935714E+03 -0.94058668822E+03  0.59262578776E+03  0.11884185258E+04  0.46999998093E+01 0. -1.
</event>
<event>
 5   0  0.1001573E-05  0.2968407E+04  0.7818609E-02  0.8252811E-01
        2   -1    0    0  501    0  0.00000000000E+00  0.00000000000E+00  0.98073661601E+03  0.98073661601E+03  0.25500000920E-02 0.  1.
       -2   -1    0    0    0  501  0.00000000000E+00  0.00000000000E+00 -0.22461273647E+04  0.22461273647E+04  0.25500000920E-02 0. -1.
    10030    2    1    2    0    0  0.00000000000E+00  0.00000000000E+00 -0.12653907487E+04  0.32268639807E+04  0.29684065428E+04 0.  0.
        1    1    3    3  502    0  0.10878968808E+04 -0.97895357888E+03 -0.90115886687E+03  0.17187079555E+04  0.50400001928E-02 0. -1.
       -1    1    3    3    0  502 -0.10878968808E+04  0.97895357888E+03 -0.36423188183E+03  0.15081560253E+04  0.50400001928E-02 0.  1.
</event>
<event>
 5   0  0.3564340E-06  0.3121902E+04  0.7818609E-02  0.8209753E-01
       -1   -1    0    0    0  501  0.00000000000E+00  0.00000000000E+00  0.15713955451E+04  0.15713955451E+04  0.50400001928E-02 0. -1.
        1   -1    0    0  501    0  0.00000000000E+00  0.00000000000E+00 -0.15505757241E+04  0.15505757241E+04  0.50400001928E-02 0.  1.
    10030    2    1    2    0    0  0.00000000000E+00  0.00000000000E+00  0.20819821002E+02  0.31219712692E+04  0.31219018467E+04 0.  0.
        1    1    3    3  502    0 -0.47212853226E+03 -0.26862874004E+03 -0.14530094680E+04  0.15512263745E+04  0.50400001928E-02 0.  1.
       -1    1    3    3    0  502  0.47212853226E+03  0.26862874004E+03  0.14738292890E+04  0.15707448947E+04  0.50400001928E-02 0. -1.
</event>
<event>
 5   0  0.3486236E-06  0.2588853E+04  0.7818609E-02  0.8371998E-01
       -1   -1    0    0    0  501  0.00000000000E+00  0.00000000000E+00  0.19478988240E+04  0.19478988241E+04  0.50400001928E-02 0.  1.
        1   -1    0    0  501    0  0.00000000000E+00  0.00000000000E+00 -0.86017802061E+03  0.86017802062E+03  0.50400001928E-02 0. -1.
    10030    2    1    2    0    0  0.00000000000E+00  0.00000000000E+00  0.10877208034E+04  0.28080768447E+04  0.25888528385E+04 0.  0.
        5    1    3    3  502    0  0.10729228372E+04 -0.35019380808E+03  0.12313443555E+04  0.16703383279E+04  0.46999998093E+01 0.  1.
       -5    1    3    3    0  502 -0.10729228372E+04  0.35019380808E+03 -0.14362355204E+03  0.11377385168E+04  0.46999998093E+01 0. -1.
</event>
<event>
 5   0  0.3564340E-06  0.2883990E+04  0.7818609E-02  0.8277657E-01
       -1   -1    0    0    0  501  0.00000000000E+00  0.00000000000E+00  0.10355476681E+04  0.10355476681E+04  0.50400001928E-02 0.  1.
        1   -1    0    0  501    0  0.00000000000E+00  0.00000000000E+00 -0.20079703538E+04  0.20079703538E+04  0.50400001928E-02 0. -1.
    10030    2    1    2    0    0  0.00000000000E+00  0.00000000000E+00 -0.97242268574E+03  0.30435180219E+04  0.28839896099E+04 0.  0.
        1    1    3    3  502    0 -0.47507587264E+02  0.91793638363E+03  0.68632163761E+03  0.11471275280E+04  0.50400001928E-02 0.  1.
       -1    1    3    3    0  502  0.47507587264E+02 -0.91793638363E+03 -0.16587443233E+04  0.18963904939E+04  0.50400001928E-02 0. -1.
</event>
<event>
 5   0  0.3474078E-06  0.2894401E+04  0.7818609E-02  0.8274545E-01
        1   -1    0    0  501    0  0.00000000000E+00  0.00000000000E+00  0.90821918802E+03  0.90821918803E+03  0.50400001928E-02 0.  1.
       -1   -1    0    0    0  501  0.00000000000E+00  0.00000000000E+00 -0.23060392896E+04  0.23060392896E+04  0.50400001928E-02 0. -1.
    10030    2    1    2    0    0  0.00000000000E+00  0.00000000000E+00 -0.13978201015E+04  0.32142584776E+04  0.28944008922E+04 0.  0.
        3    1    3    3  502    0  0.15264187864E+02 -0.13928119256E+04 -0.26278800162E+03  0.14174680242E+04  0.10100000352E+00 0.  1.
       -3    1    3    3    0  502 -0.15264187864E+02  0.13928119256E+04 -0.11350320999E+04  0.17967904534E+04  0.10100000352E+00 0. -1.
</event>
<event>
 5   0  0.9646321E-06  0.2910475E+04  0.7818609E-02  0.8269768E-01
       -2   -1    0    0    0  501  0.00000000000E+00  0.00000000000E+00  0.10962619492E+04  0.10962619492E+04  0.25500000920E-02 0.  1.
        2   -1    0    0  501    0  0.00000000000E+00  0.00000000000E+00 -0.19317610375E+04  0.19317610375E+04  0.25500000920E-02 0. -1.
    10030    2    1    2    0    0  0.00000000000E+00  0.00000000000E+00 -0.83549908839E+03  0.30280229867E+04  0.29104749580E+04 0.  0.
        3    1    3    3  502    0 -0.21081691839E+03  0.30094827526E+03 -0.18827038375E+04  0.19182250617E+04  0.10100000352E+00 0. -1.
       -3    1    3    3    0  502  0.21081691839E+03 -0.30094827526E+03  0.10472047491E+04  0.11097979250E+04  0.10100000352E+00 0.  1.
</event>
<event>
 5   0  0.1001573E-05  0.2820759E+04  0.7818609E-02  0.8296852E-01
        2   -1    0    0  501    0  0.00000000000E+00  0.00000000000E+00  0.23166669973E+04  0.23166669973E+04  0.25500000920E-02 0. -1.
       -2   -1    0    0    0  501  0.00000000000E+00  0.00000000000E+00 -0.85863448784E+03  0.85863448784E+03  0.25500000920E-02 0.  1.
    10030    2    1    2    0    0  0.00000000000E+00  0.00000000000E+00  0.14580325095E+04  0.31753014852E+04  0.28207588913E+04 0.  0.
        1    1    3    3  502    0 -0.11466847466E+04  0.66818669443E+03  0.19172945760E+03  0.13409398017E+04  0.50400001928E-02 0.  1.
       -1    1    3    3    0  502  0.11466847466E+04 -0.66818669443E+03  0.12663030519E+04  0.18343616835E+04  0.50400001928E-02 0. -1.
</event>
<event>
 5   0  0.3188375E-06  0.2930424E+04  0.7818609E-02  0.8263883E-01
       -3   -1    0    0    0  501  0.00000000000E+00  0.00000000000E+00  0.12609063661E+04  0.12609063701E+04  0.10100000352E+00 0.  1.
        3   -1    0    0  501    0  0.00000000000E+00  0.00000000000E+00 -0.17026213439E+04  0.17026213469E+04  0.10100000352E+00 0. -1.
    10030    2    1    2    0    0  0.00000000000E+00  0.00000000000E+00 -0.44171497781E+03  0.29635277170E+04  0.29304239297E+04 0.  0.
        1    1    3    3  502    0  0.61148667341E+03 -0.14282975795E+03  0.11179287766E+04  0.12822172363E+04  0.50400001928E-02 0.  1.
       -1    1    3    3    0  502 -0.61148667341E+03  0.14282975795E+03 -0.15596437545E+04  0.16813104807E+04  0.50400001928E-02 0. -1.
</event>
<event>
 5   0  0.9505359E-06  0.2864880E+04  0.7818609E-02  0.8283404E-01
       -2   -1    0    0    0  501  0.00000000000E+00  0.00000000000E+00  0.12416387795E+04  0.12416387795E+04  0.25500000920E-02 0. -1.
        2   -1    0    0  501    0  0.00000000000E+00  0.00000000000E+00 -0.16525616031E+04  0.16525616031E+04  0.25500000920E-02 0.  1.
    10030    2    1    2    0    0  0.00000000000E+00  0.00000000000E+00 -0.41092282366E+03  0.28942003826E+04  0.28648801524E+04 0.  0.
        4    1    3    3  502    0  0.11891349987E+04 -0.77227305650E+03 -0.41110116198E+03  0.14762972252E+04  0.12699999809E+01 0. -1.
       -4    1    3    3    0  502 -0.11891349987E+04  0.77227305650E+03  0.17833831619E+00  0.14179031574E+04  0.12699999809E+01 0.  1.
</event>
<event>
 5   0  0.3649705E-06  0.2845108E+04  0.7818609E-02  0.8289399E-01
       -1   -1    0    0    0  501  0.00000000000E+00  0.00000000000E+00  0.12147240376E+04  0.12147240376E+04  0.50400001928E-02 0. -1.
        1   -1    0    0  501    0  0.00000000000E+00  0.00000000000E+00 -0.16659422570E+04  0.16659422571E+04  0.50400001928E-02 0.  1.
    10030    2    1    2    0    0  0.00000000000E+00  0.00000000000E+00 -0.45121821945E+03  0.28806662947E+04  0.28451081561E+04 0.  0.
        2    1    3    3  502    0  0.29170342450E+03  0.11688296812E+04 -0.99164022133E+03  0.15603217746E+04  0.25500000920E-02 0.  1.
       -2    1    3    3    0  502 -0.29170342450E+03 -0.11688296812E+04  0.54042200188E+03  0.13203445201E+04  0.25500000920E-02 0. -1.
</event>
<event>
 5   0  0.9360689E-06  0.2846919E+04  0.7818609E-02  0.8288848E-01
        2   -1    0    0  501    0  0.00000000000E+00  0.00000000000E+00  0.20572552123E+04  0.20572552123E+04  0.25500000920E-02 0.  1.
       -2   -1    0    0    0  501  0.00000000000E+00  0.00000000000E+00 -0.98492263054E+03  0.98492263055E+03  0.25500000920E-02 0. -1.
    10030    2    1    2    0    0  0.00000000000E+00  0.00000000000E+00  0.10723325818E+04  0.30421778428E+04  0.28469191878E+04 0.  0.
        5    1    3    3  502    0 -0.71198412398E+03  0.92509725538E+03 -0.33424849073E+03  0.12142777558E+04  0.46999998093E+01 0. -1.
       -5    1    3    3    0  502  0.71198412398E+03 -0.92509725538E+03  0.14065810725E+04  0.18279000870E+04  0.46999998093E+01 0.  1.
</event>
<event>
 5   0  0.9360689E-06  0.2856633E+04  0.7818609E-02  0.8285899E-01
       -2   -1    0    0    0  501  0.00000000000E+00  0.00000000000E+00  0.12100751434E+04  0.12100751434E+04  0.25500000920E-02 0.  1.
        2   -1    0    0  501    0  0.00000000000E+00  0.00000000000E+00 -0.16859184864E+04  0.16859184864E+04  0.25500000920E-02 0. -1.
    10030    2    1    2    0    0  0.00000000000E+00  0.00000000000E+00 -0.47584334293E+03  0.28959936298E+04  0.28566330210E+04 0.  0.
        5    1    3    3  502    0  0.42645986586E+03  0.13626140921E+04 -0.27693283065E+03  0.14544067739E+04  0.46999998093E+01 0. -1.
       -5    1    3    3    0  502 -0.42645986586E+03 -0.13626140921E+04 -0.19891051228E+03  0.14415868559E+04  0.46999998093E+01 0.  1.
</event>
<event>
 5   0  0.9646321E-06  0.2888389E+04  0.7818609E-02  0.8276340E-01
        2   -1    0    0  501    0  0.00000000000E+00  0.00000000000E+00  0.18975621323E+04  0.18975621323E+04  0.25500000920E-02 0.  1.
       -2   -1    0    0    0  501  0.00000000000E+00  0.00000000000E+00 -0.10991463002E+04  0.10991463002E+04  0.25500000920E-02 0. -1.
    10030    2    1    2    0    0  0.00000000000E+00  0.00000000000E+00  0.79841583210E+03  0.29967084326E+04  0.28883894455E+04 0.  0.
        3    1    3    3  502    0  0.76223424757E+03  0.10562088291E+04  0.10463962134E+04  0.16707852000E+04  0.10100000352E+00 0.  1.
       -3    1    3    3    0  502 -0.76223424757E+03 -0.10562088291E+04 -0.24798038131E+03  0.13259232326E+04  0.10100000352E+00 0. -1.
</event>
<event>
 5   0  0.9360689E-06  0.2961236E+04  0.7818609E-02  0.8254888E-01
        2   -1    0    0  501    0  0.00000000000E+00  0.00000000000E+00  0.24071555767E+04  0.24071555767E+04  0.25500000920E-02 0. -1.
       -2   -1    0    0    0  501  0.00000000000E+00  0.00000000000E+00 -0.91071362519E+03  0.91071362519E+03  0.25500000920E-02 0.  1.
    10030    2    1    2    0    0  0.00000000000E+00  0.00000000000E+00  0.14964419515E+04  0.33178692019E+04  0.29612358107E+04 0.  0.
        5    1    3    3  502    0  0.14409663787E+04  0.13362900450E+03  0.10989122918E+04  0.18171051512E+04  0.46999998093E+01 0. -1.
       -5    1    3    3    0  502 -0.14409663787E+04 -0.13362900450E+03  0.39752965974E+03  0.15007640507E+04  0.46999998093E+01 0.  1.
</event>
<event>
 5   0  0.9251510E-06  0.2911352E+04  0.7818609E-02  0.8269508E-01
       -2   -1    0    0    0  501  0.00000000000E+00  0.00000000000E+00  0.14593669685E+04  0.14593669685E+04  0.25500000920E-02 0.  1.
        2   -1    0    0  501    0  0.00000000000E+00  0.00000000000E+00 -0.14519943117E+04  0.14519943117E+04  0.25500000920E-02 0. -1.
    10030    2    1    2    0    0  0.00000000000E+00  0.00000000000E+00  0.73726568530E+01  0.29113612802E+04  0.29113519450E+04 0.  0.
        2    1    3    3  502    0  0.54258233215E+03  0.11885723605E+04  0.64547705370E+03  0.14573058945E+04  0.25500000920E-02 0.  1.
       -2    1    3    3    0  502 -0.54258233215E+03 -0.11885723605E+04 -0.63810439684E+03  0.14540553857E+04  0.25500000920E-02 0. -1.
</event>
<event>
 5   0  0.9360689E-06  0.2892209E+04  0.7818609E-02  0.8275199E-01
       -2   -1    0    0    0  501  0.00000000000E+00  0.00000000000E+00  0.85792883476E+03  0.85792883476E+03  0.25500000920E-02 0. -1.
        2   -1    0    0  501    0  0.00000000000E+00  0.00000000000E+00 -0.24375196354E+04  0.24375196354E+04  0.25500000920E-02 0.  1.
    10030    2    1    2    0    0  0.00000000000E+00  0.00000000000E+00 -0.15795908007E+04  0.32954484702E+04  0.28922091076E+04 0.  0.
        5    1    3    3  502    0 -0.12736168827E+04  0.53673891240E+03 -0.12745627048E+04  0.18800853178E+04  0.46999998093E+01 0. -1.
       -5    1    3    3    0  502  0.12736168827E+04 -0.53673891240E+03 -0.30502809590E+03  0.14153631524E+04  0.46999998093E+01 0.  1.
</event>
<event>
 5   0  0.9251510E-06  0.2888333E+04  0.7818609E-02  0.8276357E-01
       -2   -1    0    0    0  501  0.00000000000E+00  0.00000000000E+00  0.13479584783E+04  0.13479584783E+04  0.25500000920E-02 0.  1.
        2   -1    0    0  501    0  0.00000000000E+00  0.00000000000E+00 -0.15472414616E+04  0.15472414616E+04  0.25500000920E-02 0. -1.
    10030    2    1    2    0    0  0.00000000000E+00  0.00000000000E+00 -0.19928298323E+03  0.28951999399E+04  0.28883332537E+04 0.  0.
        2    1    3    3  502    0  0.58674838785E+03  0.24337256441E+03 -0.13996880088E+04  0.15370850327E+04  0.25500000920E-02 0. -1.
       -2    1    3    3    0  502 -0.58674838785E+03 -0.24337256441E+03  0.12004050256E+04  0.13581149072E+04  0.25500000920E-02 0.  1.
</event>
<event>
 5   0  0.9505359E-06  0.2881116E+04  0.7818609E-02  0.8278518E-01
       -2   -1    0    0    0  501  0.00000000000E+00  0.00000000000E+00  0.88184467526E+03  0.88184467527E+03  0.25500000920E-02 0. -1.
        2   -1    0    0  501    0  0.00000000000E+00  0.00000000000E+00 -0.23532566297E+04  0.23532566297E+04  0.25500000920E-02 0.  1.
    10030    2    1    2    0    0  0.00000000000E+00  0.00000000000E+00 -0.14714119545E+04  0.32351013050E+04  0.28811156370E+04 0.  0.
        4    1    3    3  502    0  0.12113675681E+04 -0.40061367676E+03 -0.14866851006E+04  0.19591163580E+04  0.12699999809E+01 0.  1.
       -4    1    3    3    0  502 -0.12113675681E+04  0.40061367676E+03  0.15273146174E+02  0.12759849470E+04  0.12699999809E+01 0. -1.
</event>
<event>
 5   0  0.1001573E-05  0.2684167E+04  0.7818609E-02  0.8340161E-01
        2   -1    0    0  501    0  0.00000000000E+00  0.00000000000E+00  0.17844149725E+04  0.17844149725E+04  0.25500000920E-02 0.  1.
       -2   -1    0    0    0  501  0.00000000000E+00  0.00000000000E+00 -0.10093998758E+04  0.10093998758E+04  0.25500000920E-02 0. -1.
    10030    2    1    2    0    0  0.00000000000E+00  0.00000000000E+00  0.77501509671E+03  0.27938148484E+04  0.26841670974E+04 0.  0.
        1    1    3    3  502    0  0.59105244355E+03 -0.80017724906E+03  0.13251749671E+04  0.16570200103E+04  0.50400001928E-02 0.  1.
       -1    1    3    3    0  502 -0.59105244355E+03  0.80017724906E+03 -0.55015987039E+03  0.11367948381E+04  0.50400001928E-02 0. -1.
</event>
<event>
 5   0  0.3564340E-06  0.2885913E+04  0.7818609E-02  0.8277081E-01
        1   -1    0    0  501    0  0.00000000000E+00  0.00000000000E+00  0.13790023748E+04  0.13790023748E+04  0.50400001928E-02 0.  1.
       -1   -1    0    0    0  501  0.00000000000E+00  0.00000000000E+00 -0.15098769670E+04  0.15098769670E+04  0.50400001928E-02 0. -1.
    10030    2    1    2    0    0  0.00000000000E+00  0.00000000000E+00 -0.13087459216E+03  0.28888793418E+04  0.28859133203E+04 0.  0.
        1    1    3    3  502    0  0.13255115596E+04 -0.49307232587E+03 -0.35212771391E+03  0.14574275763E+04  0.50400001928E-02 0.  1.
       -1    1    3    3    0  502 -0.13255115596E+04  0.49307232587E+03  0.22125312175E+03  0.14314517655E+04  0.50400001928E-02 0. -1.
</event>
<event>
 5   0  0.3486236E-06  0.2841635E+04  0.7818609E-02  0.8290458E-01
       -1   -1    0    0    0  501  0.00000000000E+00  0.00000000000E+00  0.12376618521E+04  0.12376618521E+04  0.50400001928E-02 0.  1.
        1   -1    0    0  501    0  0.00000000000E+00  0.00000000000E+00 -0.16310776319E+04  0.16310776319E+04  0.50400001928E-02 0. -1.
    10030    2    1    2    0    0  0.00000000000E+00  0.00000000000E+00 -0.39341577980E+03  0.28687394840E+04  0.28416351369E+04 0.  0.
        5    1    3    3  502    0 -0.43046173597E+03 -0.12017708098E+04  0.43306123175E+03  0.13480038969E+04  0.46999998093E+01 0.  1.
       -5    1    3    3    0  502  0.43046173597E+03  0.12017708098E+04 -0.82647701155E+03  0.15207355872E+04  0.46999998093E+01 0. -1.
</event>
<event>
 5   0  0.3649705E-06  0.2843486E+04  0.7818609E-02  0.8289893E-01
        1   -1    0    0  501    0  0.00000000000E+00  0.00000000000E+00  0.21961521815E+04  0.21961521815E+04  0.50400001928E-02 0.  1.
       -1   -1    0    0    0  501  0.00000000000E+00  0.00000000000E+00 -0.92040698106E+03  0.92040698107E+03  0.50400001928E-02 0. -1.
    10030    2    1    2    0    0  0.00000000000E+00  0.00000000000E+00  0.12757452004E+04  0.31165591625E+04  0.28434864510E+04 0.  0.
        2    1    3    3  502    0  0.57564184579E+03  0.10457034065E+04  0.14843736264E+04  0.19047898077E+04  0.25500000920E-02 0.  1.
       -2    1    3    3    0  502 -0.57564184579E+03 -0.10457034065E+04 -0.20862842596E+03  0.12117693548E+04  0.25500000920E-02 0. -1.
</event>
<event>
 5   0  0.3486236E-06  0.2937137E+04  0.7818609E-02  0.8261913E-01
        1   -1    0    0  501    0  0.00000000000E+00  0.00000000000E+00  0.84030823261E+03  0.84030823263E+03  0.50400001928E-02 0. -1.
       -1   -1    0    0    0  501  0.00000000000E+00  0.00000000000E+00 -0.25665508217E+04  0.25665508217E+04  0.50400001928E-02 0.  1.
    10030    2    1    2    0    0  0.00000000000E+00  0.00000000000E+00 -0.17262425891E+04  0.34068590544E+04  0.29371372354E+04 0.  0.
        5    1    3    3  502    0  0.92623402841E+03  0.11387549580E+04 -0.81125610363E+03  0.16771496312E+04  0.46999998093E+01 0. -1.
       -5    1    3    3    0  502 -0.92623402841E+03 -0.11387549580E+04 -0.91498648548E+03  0.17297094231E+04  0.46999998093E+01 0.  1.
</event>
<event>
 5   0  0.1001573E-05  0.2973653E+04  0.7818609E-02  0.8251295E-01
       -2   -1    0    0    0  501  0.00000000000E+00  0.00000000000E+00  0.73883561285E+03  0.73883561286E+03  0.25500000920E-02 0.  1.
        2   -1    0    0  501    0  0.00000000000E+00  0.00000000000E+00 -0.29920761958E+04  0.29920761958E+04  0.25500000920E-02 0. -1.
    10030    2    1    2    0    0  0.00000000000E+00  0.00000000000E+00 -0.22532405829E+04  0.37309118087E+04  0.29736526023E+04 0.  0.
        1    1    3    3  502    0 -0.51609385773E+03 -0.12205603721E+04 -0.19724968009E+04  0.23763131363E+04  0.50400001928E-02 0. -1.
       -1    1    3    3    0  502  0.51609385773E+03  0.12205603721E+04 -0.28074378200E+03  0.13545986724E+04  0.50400001928E-02 0.  1.
</event>
<event>
 5   0  0.9505359E-06  0.2886420E+04  0.7818609E-02  0.8276929E-01
        2   -1    0    0  501    0  0.00000000000E+00  0.00000000000E+00  0.19635544278E+04  0.19635544278E+04  0.25500000920E-02 0. -1.
       -2   -1    0    0    0  501  0.00000000000E+00  0.00000000000E+00 -0.10607577102E+04  0.10607577102E+04  0.25500000920E-02 0.  1.
    10030    2    1    2    0    0  0.00000000000E+00  0.00000000000E+00  0.90279671768E+03  0.30243121380E+04  0.28864202734E+04 0.  0.
        4    1    3    3  502    0 -0.87742246725E+03 -0.10403584264E+04  0.95458895906E+03  0.16623650426E+04  0.12699999809E+01 0. -1.
       -4    1    3    3    0  502  0.87742246725E+03  0.10403584264E+04 -0.51792241378E+02  0.13619470953E+04  0.12699999809E+01 0.  1.
</event>
<event>
 5   0  0.3746518E-06  0.2888771E+04  0.7818609E-02  0.8276226E-01
        1   -1    0    0  501    0  0.00000000000E+00  0.00000000000E+00  0.12233931142E+04  0.12233931142E+04  0.50400001928E-02 0. -1.
       -1   -1    0    0    0  501  0.00000000000E+00  0.00000000000E+00 -0.17052974433E+04  0.17052974433E+04  0.50400001928E-02 0.  1.
    10030    2    1    2    0    0  0.00000000000E+00  0.00000000000E+00 -0.48190432913E+03  0.29286905575E+04  0.28887707765E+04 0.  0.
        4    1    3    3  502    0 -0.72555795708E+03  0.12153499824E+04  0.50664196349E+02  0.14163609718E+04  0.12699999809E+01 0. -1.
       -4    1    3    3    0  502  0.72555795708E+03 -0.12153499824E+04 -0.53256852548E+03  0.15123295858E+04  0.12699999809E+01 0.  1.
</event>
<event>
 5   0  0.3649705E-06  0.2913680E+04  0.7818609E-02  0.8268819E-01
        1   -1    0    0  501    0  0.00000000000E+00  0.00000000000E+00  0.21575331314E+04  0.21575331315E+04  0.50400001928E-02 0.  1.
       -1   -1    0    0    0  501  0.00000000000E+00  0.00000000000E+00 -0.98370834639E+03  0.98370834640E+03  0.50400001928E-02 0. -1.
    10030    2    1    2    0    0  0.00000000000E+00  0.00000000000E+00  0.11738247851E+04  0.31412414779E+04  0.29136803868E+04 0.  0.
        2    1    3    3  502    0 -0.14093168233E+03 -0.14422259101E+04  0.42517557277E+03  0.15101826322E+04  0.25500000920E-02 0. -1.
       -2    1    3    3    0  502  0.14093168233E+03  0.14422259101E+04  0.74864921229E+03  0.16310588457E+04  0.25500000920E-02 0.  1.
</event>
<event>
 5   0  0.3649705E-06  0.2879582E+04  0.7818609E-02  0.8278978E-01
       -1   -1    0    0    0  501  0.00000000000E+00  0.00000000000E+00  0.10468416497E+04  0.10468416497E+04  0.50400001928E-02 0. -1.
        1   -1    0    0  501    0  0.00000000000E+00  0.00000000000E+00 -0.19802410618E+04  0.19802410618E+04  0.50400001928E-02 0.  1.
    10030    2    1    2    0    0  0.00000000000E+00  0.00000000000E+00 -0.93339941206E+03  0.30270827115E+04  0.28795824836E+04 0.  0.
        2    1    3    3  502    0 -0.48438874384E+02 -0.11724841351E+04  0.41025794161E+03  0.12431319118E+04  0.25500000920E-02 0. -1.
       -2    1    3    3    0  502  0.48438874384E+02  0.11724841351E+04 -0.13436573537E+04  0.17839507997E+04  0.25500000920E-02 0.  1.
</event>
<event>
 5   0  0.9251510E-06  0.2932405E+04  0.7818609E-02  0.8263301E-01
       -2   -1    0    0    0  501  0.00000000000E+00  0.00000000000E+00  0.13284384835E+04  0.13284384835E+04  0.25500000920E-02 0. -1.
        2   -1    0    0  501    0  0.00000000000E+00  0.00000000000E+00 -0.16182528777E+04  0.16182528777E+04  0.25500000920E-02 0.  1.
    10030    2    1    2    0    0  0.00000000000E+00  0.00000000000E+00 -0.28981439421E+03  0.29466913612E+04  0.29324047462E+04 0.  0.
        2    1    3    3  502    0  0.72819023973E+03 -0.82643015779E+03  0.82753767498E+03  0.13777033187E+04  0.25500000920E-02 0. -1.
       -2    1    3    3    0  502 -0.72819023973E+03  0.82643015779E+03 -0.11173520692E+04  0.15689880425E+04  0.25500000920E-02 0.  1.
</event>
<event>
 5   0  0.3564340E-06  0.2888243E+04  0.7818609E-02  0.8276384E-01
        1   -1    0    0  501    0  0.00000000000E+00  0.00000000000E+00  0.17654024887E+04  0.17654024887E+04  0.50400001928E-02 0. -1.
       -1   -1    0    0    0  501  0.00000000000E+00  0.00000000000E+00 -0.11813093860E+04  0.11813093860E+04  0.50400001928E-02 0.  1.
    10030    2    1    2    0    0  0.00000000000E+00  0.00000000000E+00  0.58409310268E+03  0.29467118747E+04  0.28882427390E+04 0.  0.
        1    1    3    3  502    0  0.79738460349E+03 -0.42531853837E+03  0.14412453700E+04  0.17011485184E+04  0.50400001928E-02 0. -1.
       -1    1    3    3    0  502 -0.79738460349E+03  0.42531853837E+03 -0.85715226736E+03  0.12455633563E+04  0.50400001928E-02 0.  1.
</event>
<event>
 5   0  0.3746518E-06  0.2718264E+04  0.7818609E-02  0.8329103E-01
        1   -1    0    0  501    0  0.00000000000E+00  0.00000000000E+00  0.21652722012E+04  0.21652722012E+04  0.50400001928E-02 0. -1.
       -1   -1    0    0    0  501  0.00000000000E+00  0.00000000000E+00 -0.85312115457E+03  0.85312115459E+03  0.50400001928E-02 0.  1.
    10030    2    1    2    0    0  0.00000000000E+00  0.00000000000E+00  0.13121510467E+04  0.30183933558E+04  0.27182637990E+04 0.  0.
        4    1    3    3  502    0  0.33239221056E+03 -0.58228357394E+03 -0.65670186515E+03  0.93850822837E+03  0.12699999809E+01 0.  1.
       -4    1    3    3    0  502 -0.33239221056E+03  0.58228357394E+03  0.19688529118E+04  0.20798851274E+04  0.12699999809E+01 0. -1.
</event>
<event>
 5   0  0.3474078E-06  0.2898917E+04  0.7818609E-02  0.8273200E-01
       -1   -1    0    0    0  501  0.00000000000E+00  0.00000000000E+00  0.12935572217E+04  0.12935572217E+04  0.50400001928E-02 0. -1.
        1   -1    0    0  501    0  0.00000000000E+00  0.00000000000E+00 -0.16241488555E+04  0.16241488555E+04  0.50400001928E-02 0.  1.
    10030    2    1    2    0    0  0.00000000000E+00  0.00000000000E+00 -0.33059163382E+03  0.29177060772E+04  0.28989166812E+04 0.  0.
        3    1    3    3  502    0 -0.10723319791E+04  0.69504495742E+03 -0.85379546850E+03  0.15368637150E+04  0.10100000352E+00 0.  1.
       -3    1    3    3    0  502  0.10723319791E+04 -0.69504495742E+03  0.52320383468E+03  0.13808423621E+04  0.10100000352E+00 0. -1.
</event>
<event>
 5   0  0.3746518E-06  0.2929031E+04  0.7818609E-02  0.8264292E-01
       -1   -1    0    0    0  501  0.00000000000E+00  0.00000000000E+00  0.91653397546E+03  0.91653397548E+03  0.50400001928E-02 0. -1.
        1   -1    0    0  501    0  0.00000000000E+00  0.00000000000E+00 -0.23401267326E+04  0.23401267326E+04  0.50400001928E-02 0.  1.
    10030    2    1    2    0    0  0.00000000000E+00  0.00000000000E+00 -0.14235927571E+04  0.32566607080E+04  0.29290310052E+04 0.  0.
        4    1    3    3  502    0  0.49889145544E+03 -0.87966406077E+03 -0.18895781013E+04  0.21431772111E+04  0.12699999809E+01 0.  1.
       -4    1    3    3    0  502 -0.49889145544E+03  0.87966406077E+03  0.46598534422E+03  0.11134834970E+04  0.12699999809E+01 0. -1.
</event>
<event>
 5   0  0.9505359E-06  0.2952906E+04  0.7818609E-02  0.8257308E-01
        2   -1    0    0  501    0  0.00000000000E+00  0.00000000000E+00  0.19624693443E+04  0.19624693443E+04  0.25500000920E-02 0. -1.
       -2   -1    0    0    0  501  0.00000000000E+00  0.00000000000E+00 -0.11108013756E+04  0.11108013757E+04  0.25500000920E-02 0.  1.
    10030    2    1    2    0    0  0.00000000000E+00  0.00000000000E+00  0.85166796870E+03  0.30732707200E+04  0.29529061261E+04 0.  0.
        4    1    3    3  502    0  0.14616716857E+04  0.25300052499E+02  0.21055021754E+03  0.14769756993E+04  0.12699999809E+01 0.  1.
       -4    1    3    3    0  502 -0.14616716857E+04 -0.25300052499E+02  0.64111775116E+03  0.15962950207E+04  0.12699999809E+01 0. -1.
</event>
<event>
 5   0  0.9251510E-06  0.2930111E+04  0.7818609E-02  0.8263975E-01
       -2   -1    0    0    0  501  0.00000000000E+00  0.00000000000E+00  0.11228196695E+04  0.11228196695E+04  0.25500000920E-02 0. -1.
        2   -1    0    0  501    0  0.00000000000E+00  0.00000000000E+00 -0.19116047221E+04  0.19116047221E+04  0.25500000920E-02 0.  1.
    10030    2    1    2    0    0  0.00000000000E+00  0.00000000000E+00 -0.78878505263E+03  0.30344243917E+04  0.29301108391E+04 0.  0.
        2    1    3    3  502    0 -0.32538892581E+03  0.14277600478E+04 -0.44082942662E+03  0.15292832604E+04  0.25500000920E-02 0.  1.
       -2    1    3    3    0  502  0.32538892581E+03 -0.14277600478E+04 -0.34795562600E+03  0.15051411312E+04  0.25500000920E-02 0. -1.
</event>
<event>
 5   0  0.9360689E-06  0.2897648E+04  0.7818609E-02  0.8273578E-01
       -2   -1    0    0    0  501  0.00000000000E+00  0.00000000000E+00  0.17765132305E+04  0.17765132305E+04  0.25500000920E-02 0. -1.
        2   -1    0    0  501    0  0.00000000000E+00  0.00000000000E+00 -0.11815788539E+04  0.11815788539E+04  0.25500000920E-02 0.  1.
    10030    2    1    2    0    0  0.00000000000E+00  0.00000000000E+00  0.59493437654E+03  0.29580920844E+04  0.28976476438E+04 0.  0.
        5    1    3    3  502    0 -0.12079880472E+04 -0.74323863916E+03  0.59932005947E+03  0.15397549872E+04  0.46999998093E+01 0. -1.
       -5    1    3    3    0  502  0.12079880472E+04  0.74323863916E+03 -0.43856829284E+01  0.14183370972E+04  0.46999998093E+01 0.  1.
</event>
<event>
 5   0  0.9646321E-06  0.2907496E+04  0.7818609E-02  0.8270651E-01
       -2   -1    0    0    0  501  0.00000000000E+00  0.00000000000E+00  0.13464974747E+04  0.13464974747E+04  0.25500000920E-02 0.  1.
        2   -1    0    0  501    0  0.00000000000E+00  0.00000000000E+00 -0.15695407074E+04  0.15695407074E+04  0.25500000920E-02 0. -1.
    10030    2    1    2    0    0  0.00000000000E+00  0.00000000000E+00 -0.22304323264E+03  0.29160381821E+04  0.29074955539E+04 0.  0.
        3    1    3    3  502    0 -0.45317392513E+03  0.12968296058E+04 -0.58857550345E+03  0.14945082021E+04  0.10100000352E+00 0. -1.
       -3    1    3    3    0  502  0.45317392513E+03 -0.12968296058E+04  0.36553227081E+03  0.14215299800E+04  0.10100000352E+00 0.  1.
</event>
<event>
 5   0  0.1001573E-05  0.2886823E+04  0.7818609E-02  0.8276809E-01
       -2   -1    0    0    0  501  0.00000000000E+00  0.00000000000E+00  0.91002620973E+03  0.91002620974E+03  0.25500000920E-02 0. -1.
        2   -1    0    0  501    0  0.00000000000E+00  0.00000000000E+00 -0.22894248568E+04  0.22894248568E+04  0.25500000920E-02 0.  1.
    10030    2    1    2    0    0  0.00000000000E+00  0.00000000000E+00 -0.13793986470E+04  0.31994510665E+04  0.28868229076E+04 0.  0.
        1    1    3    3  502    0  0.57354460750E+03  0.61787918271E+03 -0.19882069199E+04  0.21595589498E+04  0.50400001928E-02 0.  1.
       -1    1    3    3    0  502 -0.57354460750E+03 -0.61787918271E+03  0.60880827289E+03  0.10398921167E+04  0.50400001928E-02 0. -1.
</event>
<event>
 5   0  0.3474078E-06  0.2946711E+04  0.7818609E-02  0.8259114E-01
        1   -1    0    0  501    0  0.00000000000E+00  0.00000000000E+00  0.15627231921E+04  0.15627231921E+04  0.50400001928E-02 0. -1.
       -1   -1    0    0    0  501  0.00000000000E+00  0.00000000000E+00 -0.13890987086E+04  0.13890987086E+04  0.50400001928E-02 0.  1.
    10030    2    1    2    0    0  0.00000000000E+00  0.00000000000E+00  0.17362448348E+03  0.29518219007E+04  0.29467112299E+04 0.  0.
        3    1    3    3  502    0 -0.35124389599E+02 -0.12720564554E+04 -0.65704915568E+03  0.14321574465E+04  0.10100000352E+00 0.  1.
       -3    1    3    3    0  502  0.35124389599E+02  0.12720564554E+04  0.83067363915E+03  0.15196644542E+04  0.10100000352E+00 0. -1.
</event>
<event>
 5   0  0.3474078E-06  0.2896952E+04  0.7818609E-02  0.8273785E-01
       -1   -1    0    0    0  501  0.00000000000E+00  0.00000000000E+00  0.10319681280E+04  0.10319681281E+04  0.50400001928E-02 0.  1.
        1   -1    0    0  501    0  0.00000000000E+00  0.00000000000E+00 -0.20330882196E+04  0.20330882196E+04  0.50400001928E-02 0. -1.
    10030    2    1    2    0    0  0.00000000000E+00  0.00000000000E+00 -0.10011200915E+04  0.30650563476E+04  0.28969516697E+04 0.  0.
        3    1    3    3  502    0 -0.88157279721E+02 -0.51379777573E+03 -0.19303950760E+04  0.19995462035E+04  0.10100000352E+00 0. -1.
       -3    1    3    3    0  502  0.88157279721E+02  0.51379777573E+03  0.92927498446E+03  0.10655101441E+04  0.10100000352E+00 0.  1.
</event>
<event>
 5   0  0.9360689E-06  0.2942964E+04  0.7818609E-02  0.8260208E-01
        2   -1    0    0  501    0  0.00000000000E+00  0.00000000000E+00  0.27852297329E+04  0.27852297329E+04  0.25500000920E-02 0.  1.
       -2   -1    0    0    0  501  0.00000000000E+00  0.00000000000E+00 -0.77740795640E+03  0.77740795640E+03  0.25500000920E-02 0. -1.
    10030    2    1    2    0    0  0.00000000000E+00  0.00000000000E+00  0.20078217765E+04  0.35626376893E+04  0.29429643251E+04 0.  0.
        5    1    3    3  502    0 -0.34204823751E+03  0.11202830503E+04 -0.74240652222E+02  0.11736970964E+04  0.46999998093E+01 0. -1.
       -5    1    3    3    0  502  0.34204823751E+03 -0.11202830503E+04  0.20820624287E+04  0.23889405929E+04  0.46999998093E+01 0.  1.
</event>
<event>
 5   0  0.3746518E-06  0.2898286E+04  0.7818609E-02  0.8273388E-01
       -1   -1    0    0    0  501  0.00000000000E+00  0.00000000000E+00  0.99973442950E+03  0.99973442951E+03  0.50400001928E-02 0.  1.
        1   -1    0    0  501    0  0.00000000000E+00  0.00000000000E+00 -0.21005728686E+04  0.21005728686E+04  0.50400001928E-02 0. -1.
    10030    2    1    2    0    0  0.00000000000E+00  0.00000000000E+00 -0.11008384391E+04  0.31003072981E+04  0.28982857129E+04 0.  0.
        4    1    3    3  502    0 -0.79658565778E+03  0.10110484772E+04 -0.12625927015E+04  0.18030279189E+04  0.12699999809E+01 0. -1.
       -4    1    3    3    0  502  0.79658565778E+03 -0.10110484772E+04  0.16175426243E+03  0.12972793792E+04  0.12699999809E+01 0.  1.
</event>
<event>
 5   0  0.1001573E-05  0.2896522E+04  0.7818609E-02  0.8273913E-01
       -2   -1    0    0    0  501  0.00000000000E+00  0.00000000000E+00  0.18588571869E+04  0.18588571869E+04  0.25500000920E-02 0.  1.
        2   -1    0    0  501    0  0.00000000000E+00  0.00000000000E+00 -0.11283599674E+04  0.11283599674E+04  0.25500000920E-02 0. -1.
    10030    2    1    2    0    0  0.00000000000E+00  0.00000000000E+00  0.73049721944E+03  0.29872171543E+04  0.28965220765E+04 0.  0.
        1    1    3    3  502    0 -0.43589482548E+03  0.13635066074E+04  0.59191550534E+03  0.15490379378E+04  0.50400001928E-02 0. -1.
       -1    1    3    3    0  502  0.43589482548E+03 -0.13635066074E+04  0.13858171410E+03  0.14381792165E+04  0.50400001928E-02 0.  1.
</event>
<event>
 5   0  0.9646321E-06  0.2859635E+04  0.7818609E-02  0.8284989E-01
       -2   -1    0    0    0  501  0.00000000000E+00  0.00000000000E+00  0.11194132451E+04  0.11194132451E+04  0.25500000920E-02 0. -1.
        2   -1    0    0  501    0  0.00000000000E+00  0.00000000000E+00 -0.18262947488E+04  0.18262947488E+04  0.25500000920E-02 0.  1.
    10030    2    1    2    0    0  0.00000000000E+00  0.00000000000E+00 -0.70688150368E+03  0.29457079939E+04  0.28596353133E+04 0.  0.
        3    1    3    3  502    0  0.27823917866E+03 -0.13570825499E+04  0.11174248117E+02  0.13853573408E+04  0.10100000352E+00 0.  1.
       -3    1    3    3    0  502 -0.27823917866E+03  0.13570825499E+04 -0.71805575179E+03  0.15603506531E+04  0.10100000352E+00 0. -1.
</event>
<event>
 5   0  0.3474078E-06  0.2851419E+04  0.7818609E-02  0.8287480E-01
       -1   -1    0    0    0  501  0.00000000000E+00  0.00000000000E+00  0.14778641463E+04  0.14778641463E+04  0.50400001928E-02 0. -1.
        1   -1    0    0  501    0  0.00000000000E+00  0.00000000000E+00 -0.13753952027E+04  0.13753952028E+04  0.50400001928E-02 0.  1.
    10030    2    1    2    0    0  0.00000000000E+00  0.00000000000E+00  0.10246894357E+03  0.28532593491E+04  0.28514187747E+04 0.  0.
        3    1    3    3  502    0  0.83408907101E+03  0.10056223995E+04  0.62227459768E+03  0.14471374067E+04  0.10100000352E+00 0. -1.
       -3    1    3    3    0  502 -0.83408907101E+03 -0.10056223995E+04 -0.51980565411E+03  0.14061219424E+04  0.10100000352E+00 0.  1.
</event>
<event>
 5   0  0.9646321E-06  0.2478199E+04  0.7818609E-02  0.8410794E-01
        2   -1    0    0  501    0  0.00000000000E+00  0.00000000000E+00  0.11271184671E+04  0.11271184671E+04  0.25500000920E-02 0. -1.
       -2   -1    0    0    0  501  0.00000000000E+00  0.00000000000E+00 -0.13622056990E+04  0.13622056990E+04  0.25500000920E-02 0.  1.
    10030    2    1    2    0    0  0.00000000000E+00  0.00000000000E+00 -0.23508723194E+03  0.24893241661E+04  0.24781987002E+04 0.  0.
        3    1    3    3  502    0 -0.37528791020E+03 -0.70408929836E+03 -0.10698421185E+04  0.13345954160E+04  0.10100000352E+00 0.  1.
       -3    1    3    3    0  502  0.37528791020E+03  0.70408929836E+03  0.83475488657E+03  0.11547287502E+04  0.10100000352E+00 0. -1.
</event>
<event>
 5   0  0.1001573E-05  0.2888277E+04  0.7818609E-02  0.8276374E-01
        2   -1    0    0  501    0  0.00000000000E+00  0.00000000000E+00  0.11747032084E+04  0.11747032084E+04  0.25500000920E-02 0.  1.
       -2   -1    0    0    0  501  0.00000000000E+00  0.00000000000E+00 -0.17753728902E+04  0.17753728902E+04  0.25500000920E-02 0. -1.
    10030    2    1    2    0    0  0.00000000000E+00  0.00000000000E+00 -0.60066968181E+03  0.29500760986E+04  0.28882771544E+04 0.  0.
        1    1    3    3  502    0 -0.13536094603E+04  0.44510512506E+02 -0.81235557848E+03  0.15792914052E+04  0.50400001928E-02 0. -1.
       -1    1    3    3    0  502  0.13536094603E+04 -0.44510512506E+02  0.21168589667E+03  0.13707846934E+04  0.50400001928E-02 0.  1.
</event>
<event>
 5   0  0.3649705E-06  0.2597910E+04  0.7818609E-02  0.8368912E-01
       -1   -1    0    0    0  501  0.00000000000E+00  0.00000000000E+00  0.97063973250E+03  0.97063973251E+03  0.50400001928E-02 0. -1.
        1   -1    0    0  501    0  0.00000000000E+00  0.00000000000E+00 -0.17383212155E+04  0.17383212155E+04  0.50400001928E-02 0.  1.
    10030    2    1    2    0    0  0.00000000000E+00  0.00000000000E+00 -0.76768148301E+03  0.27089609480E+04  0.25979096517E+04 0.  0.
        2    1    3    3  502    0  0.16328487511E+02 -0.60606617622E+03  0.81404788810E+03  0.10150156617E+04  0.25500000920E-02 0. -1.
       -2    1    3    3    0  502 -0.16328487511E+02  0.60606617622E+03 -0.15817293711E+04  0.16939452863E+04  0.25500000920E-02 0.  1.
</event>
<event>
 5   0  0.9505359E-06  0.2996048E+04  0.7818609E-02  0.8244860E-01
       -2   -1    0    0    0  501  0.00000000000E+00  0.00000000000E+00  0.13482335325E+04  0.13482335325E+04  0.25500000920E-02 0.  1.
        2   -1    0    0  501    0  0.00000000000E+00  0.00000000000E+00 -0.16644559770E+04  0.16644559770E+04  0.25500000920E-02 0. -1.
    10030    2    1    2    0    0  0.00000000000E+00  0.00000000000E+00 -0.31622244451E+03  0.30126895096E+04  0.29960476376E+04 0.  0.
        4    1    3    3  502    0 -0.29367664168E+03 -0.11442312670E+04 -0.10844025555E+04  0.16035715380E+04  0.12699999809E+01 0. -1.
       -4    1    3    3    0  502  0.29367664168E+03  0.11442312670E+04  0.76818011095E+03  0.14091179716E+04  0.12699999809E+01 0.  1.
</event>
<event>
 5   0  0.9251510E-06  0.2879123E+04  0.7818609E-02  0.8279116E-01
        2   -1    0    0  501    0  0.00000000000E+00  0.00000000000E+00  0.20964230800E+04  0.20964230800E+04  0.25500000920E-02 0. -1.
       -2   -1    0    0    0  501  0.00000000000E+00  0.00000000000E+00 -0.98851086507E+03  0.98851086508E+03  0.25500000920E-02 0.  1.
    10030    2    1    2    0    0  0.00000000000E+00  0.00000000000E+00  0.11079122149E+04  0.30849339450E+04  0.28791227777E+04 0.  0.
        2    1    3    3  502    0  0.11313891806E+04 -0.61042843988E+03 -0.14017420350E+03  0.12931794792E+04  0.25500000920E-02 0.  1.
       -2    1    3    3    0  502 -0.11313891806E+04  0.61042843988E+03  0.12480864184E+04  0.17917544658E+04  0.25500000920E-02 0. -1.
</event>
<event>
 5   0  0.3474078E-06  0.2905331E+04  0.7818609E-02  0.8271293E-01
       -1   -1    0    0    0  501  0.00000000000E+00  0.00000000000E+00  0.10239161594E+04  0.10239161594E+04  0.50400001928E-02 0. -1.
        1   -1    0    0  501    0  0.00000000000E+00  0.00000000000E+00 -0.20609467567E+04  0.20609467567E+04  0.50400001928E-02 0.  1.
    10030    2    1    2    0    0  0.00000000000E+00  0.00000000000E+00 -0.10370305973E+04  0.30848629160E+04  0.29053307473E+04 0.  0.
        3    1    3    3  502    0  0.10693348918E+04  0.34760372277E+03  0.45806467888E+03  0.12141370265E+04  0.10100000352E+00 0. -1.
       -3    1    3    3    0  502 -0.10693348918E+04 -0.34760372277E+03 -0.14950952762E+04  0.18707258896E+04  0.10100000352E+00 0.  1.
</event>
<event>
 5   0  0.3746518E-06  0.2843783E+04  0.7818609E-02  0.8289803E-01
        1   -1    0    0  501    0  0.00000000000E+00  0.00000000000E+00  0.14279058977E+04  0.14279058977E+04  0.50400001928E-02 0. -1.
       -1   -1    0    0    0  501  0.00000000000E+00  0.00000000000E+00 -0.14159022780E+04  0.14159022780E+04  0.50400001928E-02 0.  1.
    10030    2    1    2    0    0  0.00000000000E+00  0.00000000000E+00  0.12003619681E+02  0.28438081758E+04  0.28437828422E+04 0.  0.
        4    1    3    3  502    0 -0.75306803608E+03 -0.12532880021E+03  0.12055769276E+04  0.14269674545E+04  0.12699999809E+01 0. -1.
       -4    1    3    3    0  502  0.75306803608E+03  0.12532880021E+03 -0.11935733079E+04  0.14168407212E+04  0.12699999809E+01 0.  1.
</event>
<event>
 5   0  0.3486236E-06  0.2928585E+04  0.7818609E-02  0.8264423E-01
        1   -1    0    0  501    0  0.00000000000E+00  0.00000000000E+00  0.24719761200E+04  0.24719761200E+04  0.50400001928E-02 0. -1.
       -1   -1    0    0    0  501  0.00000000000E+00  0.00000000000E+00 -0.86738422594E+03  0.86738422596E+03  0.50400001928E-02 0.  1.
    10030    2    1    2    0    0  0.00000000000E+00  0.00000000000E+00  0.16045918941E+04  0.33393603460E+04  0.29285853878E+04 0.  0.
        5    1    3    3  502    0 -0.13767924619E+04 -0.49754014470E+03  0.76574831524E+03  0.16521187158E+04  0.46999998093E+01 0.  1.
       -5    1    3    3    0  502  0.13767924619E+04  0.49754014470E+03  0.83884357883E+03  0.16872416302E+04  0.46999998093E+01 0. -1.
</event>
<event>
 5   0  0.3746518E-06  0.2992404E+04  0.7818609E-02  0.8245903E-01
        1   -1    0    0  501    0  0.00000000000E+00  0.00000000000E+00  0.13766586453E+04  0.13766586453E+04  0.50400001928E-02 0.  1.
       -1   -1    0    0    0  501  0.00000000000E+00  0.00000000000E+00 -0.16261260290E+04  0.16261260290E+04  0.50400001928E-02 0. -1.
    10030    2    1    2    0    0  0.00000000000E+00  0.00000000000E+00 -0.24946738364E+03  0.30027846743E+04  0.29924040210E+04 0.  0.
        4    1    3    3  502    0 -0.27746451646E+03 -0.79656794964E+03  0.11153168191E+04  0.13983705790E+04  0.12699999809E+01 0.  1.
       -4    1    3    3    0  502  0.27746451646E+03  0.79656794964E+03 -0.13647842028E+04  0.16044140953E+04  0.12699999809E+01 0. -1.
</event>
<event>
 5   0  0.3564340E-06  0.3026357E+04  0.7818609E-02  0.8236244E-01
       -1   -1    0    0    0  501  0.00000000000E+00  0.00000000000E+00  0.11190738033E+04  0.11190738033E+04  0.50400001928E-02 0.  1.
        1   -1    0    0  501    0  0.00000000000E+00  0.00000000000E+00 -0.20460745840E+04  0.20460745840E+04  0.50400001928E-02 0. -1.
    10030    2    1    2    0    0  0.00000000000E+00  0.00000000000E+00 -0.92700078064E+03  0.31651483873E+04  0.30263565333E+04 0.  0.
        1    1    3    3  502    0 -0.24635770018E+03  0.60544649448E+03 -0.18908041173E+04  0.20005993562E+04  0.50400001928E-02 0. -1.
       -1    1    3    3    0  502  0.24635770018E+03 -0.60544649448E+03  0.96380333664E+03  0.11645490311E+04  0.50400001928E-02 0.  1.
</event>
<event>
 5   0  0.9360689E-06  0.2691762E+04  0.7818609E-02  0.8337683E-01
       -2   -1    0    0    0  501  0.00000000000E+00  0.00000000000E+00  0.16950989891E+04  0.16950989891E+04  0.25500000920E-02 0.  1.
        2   -1    0    0  501    0  0.00000000000E+00  0.00000000000E+00 -0.10686076115E+04  0.10686076115E+04  0.25500000920E-02 0. -1.
    10030    2    1    2    0    0  0.00000000000E+00  0.00000000000E+00  0.62649137759E+03  0.27637066006E+04  0.26917620118E+04 0.  0.
        5    1    3    3  502    0 -0.33602936201E+03  0.92057687377E+03  0.12603963257E+04  0.15965583298E+04  0.46999998093E+01 0.  1.
       -5    1    3    3    0  502  0.33602936201E+03 -0.92057687377E+03 -0.63390494815E+03  0.11671482708E+04  0.46999998093E+01 0. -1.
</event>
<event>
 5   0  0.3746518E-06  0.2951118E+04  0.7818609E-02  0.8257829E-01
        1   -1    0    0  501    0  0.00000000000E+00  0.00000000000E+00  0.13244882744E+04  0.13244882744E+04  0.50400001928E-02 0. -1.
       -1   -1    0    0    0  501  0.00000000000E+00  0.00000000000E+00 -0.16438604569E+04  0.16438604569E+04  0.50400001928E-02 0.  1.
    10030    2    1    2    0    0  0.00000000000E+00  0.00000000000E+00 -0.31937218253E+03  0.29683487314E+04  0.29511176866E+04 0.  0.
        4    1    3    3  502    0  0.72906280588E+03  0.77714148925E+03  0.86695503026E+03  0.13737154387E+04  0.12699999809E+01 0. -1.
       -4    1    3    3    0  502 -0.72906280588E+03 -0.77714148925E+03 -0.11863272128E+04  0.15946332926E+04  0.12699999809E+01 0.  1.
</event>
<event>
 5   0  0.9360689E-06  0.2884761E+04  0.7818609E-02  0.8277426E-01
       -2   -1    0    0    0  501  0.00000000000E+00  0.00000000000E+00  0.10787938871E+04  0.10787938871E+04  0.25500000920E-02 0. -1.
        2   -1    0    0  501    0  0.00000000000E+00  0.00000000000E+00 -0.19285063785E+04  0.19285063785E+04  0.25500000920E-02 0.  1.
    10030    2    1    2    0    0  0.00000000000E+00  0.00000000000E+00 -0.84971249138E+03  0.30073002655E+04  0.28847605740E+04 0.  0.
        5    1    3    3  502    0  0.10518375502E+04  0.72919095803E+03  0.26849536406E+03  0.13077436812E+04  0.46999998093E+01 0.  1.
       -5    1    3    3    0  502 -0.10518375502E+04 -0.72919095803E+03 -0.11182078554E+04  0.16995565843E+04  0.46999998093E+01 0. -1.
</event>
<event>
 5   0  0.9646321E-06  0.2921748E+04  0.7818609E-02  0.8266436E-01
        2   -1    0    0  501    0  0.00000000000E+00  0.00000000000E+00  0.16127308233E+04  0.16127308233E+04  0.25500000920E-02 0. -1.
       -2   -1    0    0    0  501  0.00000000000E+00  0.00000000000E+00 -0.13233162709E+04  0.13233162709E+04  0.25500000920E-02 0.  1.
    10030    2    1    2    0    0  0.00000000000E+00  0.00000000000E+00  0.28941455235E+03  0.29360470942E+04  0.29217480652E+04 0.  0.
        3    1    3    3  502    0 -0.14589725182E+04  0.73107195843E+02  0.15918117152E+03  0.14694502803E+04  0.10100000352E+00 0.  1.
       -3    1    3    3    0  502  0.14589725182E+04 -0.73107195843E+02  0.13023338084E+03  0.14665968139E+04  0.10100000352E+00 0. -1.
</event>
<event>
 5   0  0.9646321E-06  0.2941402E+04  0.7818609E-02  0.8260665E-01
        2   -1    0    0  501    0  0.00000000000E+00  0.00000000000E+00  0.28158102106E+04  0.28158102106E+04  0.25500000920E-02 0. -1.
       -2   -1    0    0    0  501  0.00000000000E+00  0.00000000000E+00 -0.76814864870E+03  0.76814864871E+03  0.25500000920E-02 0.  1.
    10030    2    1    2    0    0  0.00000000000E+00  0.00000000000E+00  0.20476615619E+04  0.35839588593E+04  0.29414015763E+04 0.  0.
        3    1    3    3  502    0  0.11175529336E+04  0.73633375938E+03  0.28082548975E+03  0.13674702668E+04  0.10100000352E+00 0.  1.
       -3    1    3    3    0  502 -0.11175529336E+04 -0.73633375938E+03  0.17668360721E+04  0.22164885925E+04  0.10100000352E+00 0. -1.
</event>
<event>
 5   0  0.3486236E-06  0.2782415E+04  0.7818609E-02  0.8308749E-01
        1   -1    0    0  501    0  0.00000000000E+00  0.00000000000E+00  0.24478942522E+04  0.24478942522E+04  0.50400001928E-02 0.  1.
       -1   -1    0    0    0  501  0.00000000000E+00  0.00000000000E+00 -0.79066243961E+03  0.79066243963E+03  0.50400001928E-02 0. -1.
    10030    2    1    2    0    0  0.00000000000E+00  0.00000000000E+00  0.16572318126E+04  0.32385566918E+04  0.27824148083E+04 0.  0.
        5    1    3    3  502    0 -0.49692202239E+03 -0.10583589831E+04  0.17061202926E+04  0.20683142354E+04  0.46999998093E+01 0.  1.
       -5    1    3    3    0  502  0.49692202239E+03  0.10583589831E+04 -0.48888480022E+02  0.11702424565E+04  0.46999998093E+01 0. -1.
</event>
<event>
 5   0  0.9360689E-06  0.2907856E+04  0.7818609E-02  0.8270544E-01
       -2   -1    0    0    0  501  0.00000000000E+00  0.00000000000E+00  0.19531301574E+04  0.19531301574E+04  0.25500000920E-02 0.  1.
        2   -1    0    0  501    0  0.00000000000E+00  0.00000000000E+00 -0.10823173097E+04  0.10823173097E+04  0.25500000920E-02 0. -1.
    10030    2    1    2    0    0  0.00000000000E+00  0.00000000000E+00  0.87081284770E+03  0.30354474671E+04  0.29078559644E+04 0.  0.
        5    1    3    3  502    0 -0.16053663651E+03 -0.14204192364E+04  0.15819500207E+03  0.14381969849E+04  0.46999998093E+01 0.  1.
       -5    1    3    3    0  502  0.16053663651E+03  0.14204192364E+04  0.71261784563E+03  0.15972504821E+04  0.46999998093E+01 0. -1.
</event>
<event>
 5   0  0.9646321E-06  0.2898152E+04  0.7818609E-02  0.8273427E-01
        2   -1    0    0  501    0  0.00000000000E+00  0.00000000000E+00  0.10954922764E+04  0.10954922764E+04  0.25500000920E-02 0. -1.
       -2   -1    0    0    0  501  0.00000000000E+00  0.00000000000E+00 -0.19167838300E+04  0.19167838300E+04  0.25500000920E-02 0.  1.
    10030    2    1    2    0    0  0.00000000000E+00  0.00000000000E+00 -0.82129155361E+03  0.30122761063E+04  0.28981524330E+04 0.  0.
        3    1    3    3  502    0  0.19339097509E+02 -0.66613832089E+03 -0.17480582675E+04  0.18707811149E+04  0.10100000352E+00 0.  1.
       -3    1    3    3    0  502 -0.19339097509E+02  0.66613832089E+03  0.92676671387E+03  0.11414949914E+04  0.10100000352E+00 0. -1.
</event>
<event>
 5   0  0.3474078E-06  0.2900526E+04  0.7818609E-02  0.8272721E-01
        1   -1    0    0  501    0  0.00000000000E+00  0.00000000000E+00  0.18820530114E+04  0.18820530114E+04  0.50400001928E-02 0. -1.
       -1   -1    0    0    0  501  0.00000000000E+00  0.00000000000E+00 -0.11175363690E+04  0.11175363690E+04  0.50400001928E-02 0.  1.
    10030    2    1    2    0    0  0.00000000000E+00  0.00000000000E+00  0.76451664234E+03  0.29995893804E+04  0.29005259445E+04 0.  0.
        3    1    3    3  502    0  0.59131138831E+03 -0.20886706204E+03 -0.97006828709E+03  0.11551221145E+04  0.10100000352E+00 0.  1.
       -3    1    3    3    0  502 -0.59131138831E+03  0.20886706204E+03  0.17345849294E+04  0.18444672660E+04  0.10100000352E+00 0. -1.
</event>
<event>
 5   0  0.3474078E-06  0.2884763E+04  0.7818609E-02  0.8277425E-01
        1   -1    0    0  501    0  0.00000000000E+00  0.00000000000E+00  0.18323980622E+04  0.18323980623E+04  0.50400001928E-02 0.  1.
       -1   -1    0    0    0  501  0.00000000000E+00  0.00000000000E+00 -0.11353780440E+04  0.11353780440E+04  0.50400001928E-02 0. -1.
    10030    2    1    2    0    0  0.00000000000E+00  0.00000000000E+00  0.69702001825E+03  0.29677761063E+04  0.28847630944E+04 0.  0.
        3    1    3    3  502    0  0.13413282994E+04 -0.39966222044E+03 -0.10196769555E+02  0.13996411974E+04  0.10100000352E+00 0. -1.
       -3    1    3    3    0  502 -0.13413282994E+04  0.39966222044E+03  0.70721678781E+03  0.15681349088E+04  0.10100000352E+00 0.  1.
</event>
<event>
 5   0  0.3746518E-06  0.2893683E+04  0.7818609E-02  0.8274760E-01
       -1   -1    0    0    0  501  0.00000000000E+00  0.00000000000E+00  0.10871795982E+04  0.10871795982E+04  0.50400001928E-02 0.  1.
        1   -1    0    0  501    0  0.00000000000E+00  0.00000000000E+00 -0.19254868350E+04  0.19254868350E+04  0.50400001928E-02 0. -1.
    10030    2    1    2    0    0  0.00000000000E+00  0.00000000000E+00 -0.83830723674E+03  0.30126664332E+04  0.28936827771E+04 0.  0.
        4    1    3    3  502    0  0.10314110124E+03  0.12402594117E+04 -0.11873740771E+04  0.17200989236E+04  0.12699999809E+01 0. -1.
       -4    1    3    3    0  502 -0.10314110124E+03 -0.12402594117E+04  0.34906684031E+03  0.12925675096E+04  0.12699999809E+01 0.  1.
</event>
<event>
 5   0  0.1001573E-05  0.2895168E+04  0.7818609E-02  0.8274316E-01
       -2   -1    0    0    0  501  0.00000000000E+00  0.00000000000E+00  0.14243615096E+04  0.14243615096E+04  0.25500000920E-02 0.  1.
        2   -1    0    0  501    0  0.00000000000E+00  0.00000000000E+00 -0.14711853992E+04  0.14711853992E+04  0.25500000920E-02 0. -1.
    10030    2    1    2    0    0  0.00000000000E+00  0.00000000000E+00 -0.46823889598E+02  0.28955469088E+04  0.28951682895E+04 0.  0.
        1    1    3    3  502    0  0.10096372380E+04 -0.26913200300E+03  0.97856759902E+03  0.14315704430E+04  0.50400001928E-02 0.  1.
       -1    1    3    3    0  502 -0.10096372380E+04  0.26913200300E+03 -0.10253914886E+04  0.14639764658E+04  0.50400001928E-02 0. -1.
</event>
<event>
 5   0  0.9360689E-06  0.2936540E+04  0.7818609E-02  0.8262088E-01
       -2   -1    0    0    0  501  0.00000000000E+00  0.00000000000E+00  0.17972169549E+04  0.17972169549E+04  0.25500000920E-02 0.  1.
        2   -1    0    0  501    0  0.00000000000E+00  0.00000000000E+00 -0.11995310035E+04  0.11995310035E+04  0.25500000920E-02 0. -1.
    10030    2    1    2    0    0  0.00000000000E+00  0.00000000000E+00  0.59768595144E+03  0.29967479584E+04  0.29365404526E+04 0.  0.
        5    1    3    3  502    0  0.92761562783E+03  0.33153013521E+03  0.14099322628E+04  0.17199750170E+04  0.46999998093E+01 0.  1.
       -5    1    3    3    0  502 -0.92761562783E+03 -0.33153013521E+03 -0.81224631137E+03  0.12767729414E+04  0.46999998093E+01 0. -1.
</event>
<event>
 5   0  0.9251510E-06  0.2854902E+04  0.7818609E-02  0.8286423E-01
       -2   -1    0    0    0  501  0.00000000000E+00  0.00000000000E+00  0.14829682398E+04  0.14829682399E+04  0.25500000920E-02 0.  1.
        2   -1    0    0  501    0  0.00000000000E+00  0.00000000000E+00 -0.13740124231E+04  0.13740124231E+04  0.25500000920E-02 0. -1.
    10030    2    1    2    0    0  0.00000000000E+00  0.00000000000E+00  0.10895581675E+03  0.28569806630E+04  0.28549022993E+04 0.  0.
        2    1    3    3  502    0  0.94835155922E+02  0.13167843678E+04 -0.48878192603E+03  0.14077721937E+04  0.25500000920E-02 0. -1.
       -2    1    3    3    0  502 -0.94835155922E+02 -0.13167843678E+04  0.59773774278E+03  0.14492084692E+04  0.25500000920E-02 0.  1.
</event>
<event>
 5   0  0.9646321E-06  0.2070965E+04  0.7818609E-02  0.8574142E-01
        2   -1    0    0  501    0  0.00000000000E+00  0.00000000000E+00  0.22702267117E+04  0.22702267117E+04  0.25500000920E-02 0.  1.
       -2   -1    0    0    0  501  0.00000000000E+00  0.00000000000E+00 -0.47229824112E+03  0.47229824113E+03  0.25500000920E-02 0. -1.
    10030    2    1    2    0    0  0.00000000000E+00  0.00000000000E+00  0.17979284706E+04  0.27425249528E+04  0.20709650725E+04 0.  0.
        3    1    3    3  502    0 -0.75223758297E+03 -0.69666466615E+03  0.10909658383E+04  0.14971337645E+04  0.10100000352E+00 0.  1.
       -3    1    3    3    0  502  0.75223758297E+03  0.69666466615E+03  0.70696263229E+03  0.12453911883E+04  0.10100000352E+00 0. -1.
</event>
<event>
 5   0  0.3649705E-06  0.2902100E+04  0.7818609E-02  0.8272253E-01
       -1   -1    0    0    0  501  0.00000000000E+00  0.00000000000E+00  0.17190155587E+04  0.17190155587E+04  0.50400001928E-02 0. -1.
        1   -1    0    0  501    0  0.00000000000E+00  0.00000000000E+00 -0.12248561666E+04  0.12248561666E+04  0.50400001928E-02 0.  1.
    10030    2    1    2    0    0  0.00000000000E+00  0.00000000000E+00  0.49415939215E+03  0.29438717253E+04  0.29021004859E+04 0.  0.
        2    1    3    3  502    0  0.88526766686E+02 -0.11231387583E+04  0.11747197107E+04  0.16276498572E+04  0.25500000920E-02 0. -1.
       -2    1    3    3    0  502 -0.88526766686E+02  0.11231387583E+04 -0.68056031857E+03  0.13162218681E+04  0.25500000920E-02 0.  1.
</event>
<event>
 5   0  0.3564340E-06  0.2894240E+04  0.7818609E-02  0.8274593E-01
        1   -1    0    0  501    0  0.00000000000E+00  0.00000000000E+00  0.17103706789E+04  0.17103706789E+04  0.50400001928E-02 0. -1.
       -1   -1    0    0    0  501  0.00000000000E+00  0.00000000000E+00 -0.12243871141E+04  0.12243871142E+04  0.50400001928E-02 0.  1.
    10030    2    1    2    0    0  0.00000000000E+00  0.00000000000E+00  0.48598356478E+03  0.29347577931E+04  0.28942396720E+04 0.  0.
        1    1    3    3  502    0  0.10500012231E+04 -0.78774424084E+03 -0.37472645649E+03  0.13650873505E+04  0.50400001928E-02 0.  1.
       -1    1    3    3    0  502 -0.10500012231E+04  0.78774424084E+03  0.86071002127E+03  0.15696704425E+04  0.50400001928E-02 0. -1.
</event>
<event>
 5   0  0.9646321E-06  0.2894029E+04  0.7818609E-02  0.8274656E-01
       -2   -1    0    0    0  501  0.00000000000E+00  0.00000000000E+00  0.13439689589E+04  0.13439689589E+04  0.25500000920E-02 0. -1.
        2   -1    0    0  501    0  0.00000000000E+00  0.00000000000E+00 -0.15579607199E+04  0.15579607199E+04  0.25500000920E-02 0.  1.
    10030    2    1    2    0    0  0.00000000000E+00  0.00000000000E+00 -0.21399176101E+03  0.29019296789E+04  0.28940289196E+04 0.  0.
        3    1    3    3  502    0  0.73804321213E+03  0.10765695865E+04 -0.73331374932E+03  0.14971502672E+04  0.10100000352E+00 0.  1.
       -3    1    3    3    0  502 -0.73804321213E+03 -0.10765695865E+04  0.51932198830E+03  0.14047794116E+04  0.10100000352E+00 0. -1.
</event>
<event>
 5   0  0.9360689E-06  0.2912258E+04  0.7818609E-02  0.8269240E-01
        2   -1    0    0  501    0  0.00000000000E+00  0.00000000000E+00  0.20147893329E+04  0.20147893329E+04  0.25500000920E-02 0.  1.
       -2   -1    0    0    0  501  0.00000000000E+00  0.00000000000E+00 -0.10523738032E+04  0.10523738032E+04  0.25500000920E-02 0. -1.
    10030    2    1    2    0    0  0.00000000000E+00  0.00000000000E+00  0.96241552970E+03  0.30671631361E+04  0.29122578958E+04 0.  0.
        5    1    3    3  502    0  0.10842658637E+04 -0.84661275602E+03 -0.21577832697E+02  0.13758173261E+04  0.46999998093E+01 0.  1.
       -5    1    3    3    0  502 -0.10842658637E+04  0.84661275602E+03  0.98399336240E+03  0.16913458100E+04  0.46999998093E+01 0. -1.
</event>
<event>
 5   0  0.3474078E-06  0.3075522E+04  0.7818609E-02  0.8222488E-01
       -1   -1    0    0    0  501  0.00000000000E+00  0.00000000000E+00  0.16071051022E+04  0.16071051022E+04  0.50400001928E-02 0.  1.
        1   -1    0    0  501    0  0.00000000000E+00  0.00000000000E+00 -0.14714091295E+04  0.14714091295E+04  0.50400001928E-02 0. -1.
    10030    2    1    2    0    0  0.00000000000E+00  0.00000000000E+00  0.13569597262E+03  0.30785142317E+04  0.30755221472E+04 0.  0.
        3    1    3    3  502    0 -0.12214679801E+03  0.13265508163E+04 -0.70104787655E+03  0.15053654187E+04  0.10100000352E+00 0. -1.
       -3    1    3    3    0  502  0.12214679801E+03 -0.13265508163E+04  0.83674384917E+03  0.15731488130E+04  0.10100000352E+00 0.  1.
</event>
<event>
 5   0  0.3746518E-06  0.2907297E+04  0.7818609E-02  0.8270710E-01
        1   -1    0    0  501    0  0.00000000000E+00  0.00000000000E+00  0.14295211156E+04  0.14295211156E+04  0.50400001928E-02 0. -1.
       -1   -1    0    0    0  501  0.00000000000E+00  0.00000000000E+00 -0.14781826730E+04  0.14781826730E+04  0.50400001928E-02 0.  1.
    10030    2    1    2    0    0  0.00000000000E+00  0.00000000000E+00 -0.48661557407E+02  0.29077037886E+04  0.29072965750E+04 0.  0.
        4    1    3    3  502    0  0.33557551328E+03  0.13012238541E+04 -0.57875243872E+03  0.14631303571E+04  0.12699999809E+01 0.  1.
       -4    1    3    3    0  502 -0.33557551328E+03 -0.13012238541E+04  0.53009088131E+03  0.14445734315E+04  0.12699999809E+01 0. -1.
</event>
<event>
 5   0  0.3649705E-06  0.2750309E+04  0.7818609E-02  0.8318864E-01
       -1   -1    0    0    0  501  0.00000000000E+00  0.00000000000E+00  0.12134986784E+04  0.12134986784E+04  0.50400001928E-02 0.  1.
        1   -1    0    0  501    0  0.00000000000E+00  0.00000000000E+00 -0.15583447710E+04  0.15583447710E+04  0.50400001928E-02 0. -1.
    10030    2    1    2    0    0  0.00000000000E+00  0.00000000000E+00 -0.34484609262E+03  0.27718434494E+04  0.27503085792E+04 0.  0.
        2    1    3    3  502    0  0.13496935312E+04  0.88015029881E+02  0.77774774170E+02  0.13547945192E+04  0.25500000920E-02 0.  1.
       -2    1    3    3    0  502 -0.13496935312E+04 -0.88015029881E+02 -0.42262086679E+03  0.14170489303E+04  0.25500000920E-02 0. -1.
</event>
<event>
 5   0  0.9505359E-06  0.2899850E+04  0.7818609E-02  0.8272922E-01
        2   -1    0    0  501    0  0.00000000000E+00  0.00000000000E+00  0.13908272644E+04  0.13908272644E+04  0.25500000920E-02 0. -1.
       -2   -1    0    0    0  501  0.00000000000E+00  0.00000000000E+00 -0.15115339714E+04  0.15115339714E+04  0.25500000920E-02 0.  1.
    10030    2    1    2    0    0  0.00000000000E+00  0.00000000000E+00 -0.12070670701E+03  0.29023612358E+04  0.28998501055E+04 0.  0.
        4    1    3    3  502    0  0.10669990787E+04  0.14352527539E+03  0.91166965869E+03  0.14107550170E+04  0.12699999809E+01 0. -1.
       -4    1    3    3    0  502 -0.10669990787E+04 -0.14352527539E+03 -0.10323763657E+04  0.14916062188E+04  0.12699999809E+01 0.  1.
</event>
<event>
 5   0  0.3486236E-06  0.2903735E+04  0.7818609E-02  0.8271767E-01
        1   -1    0    0  501    0  0.00000000000E+00  0.00000000000E+00  0.17820751569E+04  0.17820751569E+04  0.50400001928E-02 0. -1.
       -1   -1    0    0    0  501  0.00000000000E+00  0.00000000000E+00 -0.11828451528E+04  0.11828451528E+04  0.50400001928E-02 0.  1.
    10030    2    1    2    0    0  0.00000000000E+00  0.00000000000E+00  0.59923000416E+03  0.29649203097E+04  0.29037348097E+04 0.  0.
        5    1    3    3  502    0  0.43413379650E+03  0.11913221883E+04 -0.42251862485E+03  0.13365121728E+04  0.46999998093E+01 0.  1.
       -5    1    3    3    0  502 -0.43413379650E+03 -0.11913221883E+04  0.10217486290E+04  0.16284081369E+04  0.46999998093E+01 0. -1.
</event>
<event>
 5   0  0.9360689E-06  0.2911915E+04  0.7818609E-02  0.8269341E-01
        2   -1    0    0  501    0  0.00000000000E+00  0.00000000000E+00  0.25666202213E+04  0.25666202214E+04  0.25500000920E-02 0.  1.
       -2   -1    0    0    0  501  0.00000000000E+00  0.00000000000E+00 -0.82591604585E+03  0.82591604585E+03  0.25500000920E-02 0. -1.
    10030    2    1    2    0    0  0.00000000000E+00  0.00000000000E+00  0.17407041755E+04  0.33925362672E+04  0.29119154002E+04 0.  0.
        5    1    3    3  502    0 -0.61193370834E+03  0.12026970253E+04  0.15072513284E+04  0.20230599732E+04  0.46999998093E+01 0.  1.
       -5    1    3    3    0  502  0.61193370834E+03 -0.12026970253E+04  0.23345284714E+03  0.13694762941E+04  0.46999998093E+01 0. -1.
</event>
<event>
 5   0  0.3649705E-06  0.2500772E+04  0.7818609E-02  0.8402710E-01
        1   -1    0    0  501    0  0.00000000000E+00  0.00000000000E+00  0.14936070863E+04  0.14936070863E+04  0.50400001928E-02 0. -1.
       -1   -1    0    0    0  501  0.00000000000E+00  0.00000000000E+00 -0.10467715289E+04  0.10467715289E+04  0.50400001928E-02 0.  1.
    10030    2    1    2    0    0  0.00000000000E+00  0.00000000000E+00  0.44683555743E+03  0.25403786152E+04  0.25007721794E+04 0.  0.
        2    1    3    3  502    0 -0.67702098596E+03 -0.10924606328E+03 -0.83869055874E+03  0.10833715757E+04  0.25500000920E-02 0.  1.
       -2    1    3    3    0  502  0.67702098596E+03  0.10924606328E+03  0.12855261162E+04  0.14570070395E+04  0.25500000920E-02 0. -1.
</event>
<event>
 5   0  0.1001573E-05  0.2823537E+04  0.7818609E-02  0.8295998E-01
        2   -1    0    0  501    0  0.00000000000E+00  0.00000000000E+00  0.16304589581E+04  0.16304589581E+04  0.25500000920E-02 0.  1.
       -2   -1    0    0    0  501  0.00000000000E+00  0.00000000000E+00 -0.12224108690E+04  0.12224108690E+04  0.25500000920E-02 0. -1.
    10030    2    1    2    0    0  0.00000000000E+00  0.00000000000E+00  0.40804808910E+03  0.28528698270E+04  0.28235373217E+04 0.  0.
        1    1    3    3  502    0 -0.26751937469E+03  0.10695220554E+04 -0.68697982941E+03  0.12989939680E+04  0.50400001928E-02 0. -1.
       -1    1    3    3    0  502  0.26751937469E+03 -0.10695220554E+04  0.10950279185E+04  0.15538758590E+04  0.50400001928E-02 0.  1.
</event>
<event>
 5   0  0.3486236E-06  0.2905039E+04  0.7818609E-02  0.8271380E-01
       -1   -1    0    0    0  501  0.00000000000E+00  0.00000000000E+00  0.14291474113E+04  0.14291474113E+04  0.50400001928E-02 0. -1.
        1   -1    0    0  501    0  0.00000000000E+00  0.00000000000E+00 -0.14762740916E+04  0.14762740916E+04  0.50400001928E-02 0.  1.
    10030    2    1    2    0    0  0.00000000000E+00  0.00000000000E+00 -0.47126680313E+02  0.29054215029E+04  0.29050392743E+04 0.  0.
        5    1    3    3  502    0 -0.93275496030E+03  0.88903339136E+03  0.64688224352E+03  0.14418359525E+04  0.46999998093E+01 0. -1.
       -5    1    3    3    0  502  0.93275496030E+03 -0.88903339136E+03 -0.69400892383E+03  0.14635855504E+04  0.46999998093E+01 0.  1.
</event>
<event>
 5   0  0.3649705E-06  0.2918452E+04  0.7818609E-02  0.8267409E-01
       -1   -1    0    0    0  501  0.00000000000E+00  0.00000000000E+00  0.89313145169E+03  0.89313145170E+03  0.50400001928E-02 0.  1.
        1   -1    0    0  501    0  0.00000000000E+00  0.00000000000E+00 -0.23841286604E+04  0.23841286604E+04  0.50400001928E-02 0. -1.
    10030    2    1    2    0    0  0.00000000000E+00  0.00000000000E+00 -0.14909972087E+04  0.32772601121E+04  0.29184518440E+04 0.  0.
        2    1    3    3  502    0  0.71636718290E+03  0.24323327524E+03  0.65570781553E+03  0.10011478943E+04  0.25500000920E-02 0.  1.
       -2    1    3    3    0  502 -0.71636718290E+03 -0.24323327524E+03 -0.21467050242E+04  0.22761122178E+04  0.25500000920E-02 0. -1.
</event>
<event>
 5   0  0.9251510E-06  0.2893056E+04  0.7818609E-02  0.8274946E-01
       -2   -1    0    0    0  501  0.00000000000E+00  0.00000000000E+00  0.84829894016E+03  0.84829894017E+03  0.25500000920E-02 0.  1.
        2   -1    0    0  501    0  0.00000000000E+00  0.00000000000E+00 -0.24666345215E+04  0.24666345215E+04  0.25500000920E-02 0. -1.
    10030    2    1    2    0    0  0.00000000000E+00  0.00000000000E+00 -0.16183355813E+04  0.33149334617E+04  0.28930561352E+04 0.  0.
        2    1    3    3  502    0 -0.43000798523E+03  0.13346111491E+04 -0.40187661564E+03  0.14586290141E+04  0.25500000920E-02 0. -1.
       -2    1    3    3    0  502  0.43000798523E+03 -0.13346111491E+04 -0.12164589657E+04  0.18563044475E+04  0.25500000920E-02 0.  1.
</event>
<event>
 5   0  0.9251510E-06  0.2921827E+04  0.7818609E-02  0.8266413E-01
        2   -1    0    0  501    0  0.00000000000E+00  0.00000000000E+00  0.11065141285E+04  0.11065141285E+04  0.25500000920E-02 0. -1.
       -2   -1    0    0    0  501  0.00000000000E+00  0.00000000000E+00 -0.19288209780E+04  0.19288209780E+04  0.25500000920E-02 0.  1.
    10030    2    1    2    0    0  0.00000000000E+00  0.00000000000E+00 -0.82230684951E+03  0.30353351064E+04  0.29218265954E+04 0.  0.
        2    1    3    3  502    0 -0.25049951295E+03  0.30023372691E+03  0.10511443057E+04  0.11215144440E+04  0.25500000920E-02 0. -1.
       -2    1    3    3    0  502  0.25049951295E+03 -0.30023372691E+03 -0.18734511552E+04  0.19138206624E+04  0.25500000920E-02 0.  1.
</event>
<event>
 5   0  0.9505359E-06  0.2594302E+04  0.7818609E-02  0.8370139E-01
        2   -1    0    0  501    0  0.00000000000E+00  0.00000000000E+00  0.14882007480E+04  0.14882007480E+04  0.25500000920E-02 0. -1.
       -2   -1    0    0    0  501  0.00000000000E+00  0.00000000000E+00 -0.11306272567E+04  0.11306272567E+04  0.25500000920E-02 0.  1.
    10030    2    1    2    0    0  0.00000000000E+00  0.00000000000E+00  0.35757349136E+03  0.26188280047E+04  0.25943017011E+04 0.  0.
        4    1    3    3  502    0 -0.97866325787E+03  0.74575934905E+03  0.59335158296E+03  0.13660184819E+04  0.12699999809E+01 0.  1.
       -4    1    3    3    0  502  0.97866325787E+03 -0.74575934905E+03 -0.23577809160E+03  0.12528095228E+04  0.12699999809E+01 0. -1.
</event>
<event>
 5   0  0.9251510E-06  0.2437083E+04  0.7818609E-02  0.8425749E-01
       -2   -1    0    0    0  501  0.00000000000E+00  0.00000000000E+00  0.14324330429E+04  0.14324330429E+04  0.25500000920E-02 0.  1.
        2   -1    0    0  501    0  0.00000000000E+00  0.00000000000E+00 -0.10365883318E+04  0.10365883318E+04  0.25500000920E-02 0. -1.
    10030    2    1    2    0    0  0.00000000000E+00  0.00000000000E+00  0.39584471109E+03  0.24690213747E+04  0.24370829927E+04 0.  0.
        2    1    3    3  502    0  0.26423478356E+03  0.80020093384E+03  0.10896286242E+04  0.13774730828E+04  0.25500000920E-02 0. -1.
       -2    1    3    3    0  502 -0.26423478356E+03 -0.80020093384E+03 -0.69378391306E+03  0.10915482918E+04  0.25500000920E-02 0.  1.
</event>
<event>
 5   0  0.9251510E-06  0.2891215E+04  0.7818609E-02  0.8275496E-01
       -2   -1    0    0    0  501  0.00000000000E+00  0.00000000000E+00  0.27337158110E+04  0.27337158110E+04  0.25500000920E-02 0. -1.
        2   -1    0    0  501    0  0.00000000000E+00  0.00000000000E+00 -0.76444695963E+03  0.76444695963E+03  0.25500000920E-02 0.  1.
    10030    2    1    2    0    0  0.00000000000E+00  0.00000000000E+00  0.19692688514E+04  0.34981627706E+04  0.28912147898E+04 0.  0.
        2    1    3    3  502    0  0.10704021704E+04 -0.43985733077E+03 -0.63575236177E+02  0.11589983125E+04  0.25500000920E-02 0.  1.
       -2    1    3    3    0  502 -0.10704021704E+04  0.43985733077E+03  0.20328440875E+04  0.23391644581E+04  0.25500000920E-02 0. -1.
</event>
<event>
 5   0  0.9646321E-06  0.2889142E+04  0.7818609E-02  0.8276116E-01
       -2   -1    0    0    0  501  0.00000000000E+00  0.00000000000E+00  0.10168264891E+04  0.10168264891E+04  0.25500000920E-02 0. -1.
        2   -1    0    0  501    0  0.00000000000E+00  0.00000000000E+00 -0.20522525073E+04  0.20522525073E+04  0.25500000920E-02 0.  1.
    10030    2    1    2    0    0  0.00000000000E+00  0.00000000000E+00 -0.10354260182E+04  0.30690789964E+04  0.28891415415E+04 0.  0.
        3    1    3    3  502    0  0.41728664731E+03 -0.13139360795E+04 -0.59294271350E+02  0.13798811499E+04  0.10100000352E+00 0. -1.
       -3    1    3    3    0  502 -0.41728664731E+03  0.13139360795E+04 -0.97613174685E+03  0.16891978465E+04  0.10100000352E+00 0.  1.
</event>
<event>
 5   0  0.3746518E-06  0.2889346E+04  0.7818609E-02  0.8276054E-01
       -1   -1    0    0    0  501  0.00000000000E+00  0.00000000000E+00  0.11906944640E+04  0.11906944640E+04  0.50400001928E-02 0. -1.
        1   -1    0    0  501    0  0.00000000000E+00  0.00000000000E+00 -0.17528260518E+04  0.17528260518E+04  0.50400001928E-02 0.  1.
    10030    2    1    2    0    0  0.00000000000E+00  0.00000000000E+00 -0.56213158778E+03  0.29435205158E+04  0.28893461380E+04 0.  0.
        4    1    3    3  502    0  0.72209788233E+03 -0.11771078204E+04  0.15123772311E+03  0.13892021575E+04  0.12699999809E+01 0.  1.
       -4    1    3    3    0  502 -0.72209788233E+03  0.11771078204E+04 -0.71336931088E+03  0.15543183584E+04  0.12699999809E+01 0. -1.
</event>
<event>
 5   0  0.3564340E-06  0.2883593E+04  0.7818609E-02  0.8277776E-01
        1   -1    0    0  501    0  0.00000000000E+00  0.00000000000E+00  0.20587192790E+04  0.20587192790E+04  0.50400001928E-02 0.  1.
       -1   -1    0    0    0  501  0.00000000000E+00  0.00000000000E+00 -0.10097425960E+04  0.10097425961E+04  0.50400001928E-02 0. -1.
    10030    2    1    2    0    0  0.00000000000E+00  0.00000000000E+00  0.10489766830E+04  0.30684618751E+04  0.28835925852E+04 0.  0.
        1    1    3    3  502    0  0.22998977982E+02  0.35776117166E+03  0.20105351193E+04  0.20422471630E+04  0.50400001928E-02 0.  1.
       -1    1    3    3    0  502 -0.22998977982E+02 -0.35776117166E+03 -0.96155843627E+03  0.10262147121E+04  0.50400001928E-02 0. -1.
</event>
<event>
 5   0  0.3474078E-06  0.2925049E+04  0.7818609E-02  0.8265464E-01
        1   -1    0    0  501    0  0.00000000000E+00  0.00000000000E+00  0.10926013429E+04  0.10926013430E+04  0.50400001928E-02 0. -1.
       -1   -1    0    0    0  501  0.00000000000E+00  0.00000000000E+00 -0.19576924409E+04  0.19576924409E+04  0.50400001928E-02 0.  1.
    10030    2    1    2    0    0  0.00000000000E+00  0.00000000000E+00 -0.86509109797E+03  0.30502937839E+04  0.29250486424E+04 0.  0.
        3    1    3    3  502    0  0.70645744965E+03  0.81763517967E+03 -0.14603262661E+04  0.18166348639E+04  0.10100000352E+00 0.  1.
       -3    1    3    3    0  502 -0.70645744965E+03 -0.81763517967E+03  0.59523516812E+03  0.12336589200E+04  0.10100000352E+00 0. -1.
</event>
<event>
 5   0  0.3649705E-06  0.2894180E+04  0.7818609E-02  0.8274611E-01
        1   -1    0    0  501    0  0.00000000000E+00  0.00000000000E+00  0.13503662028E+04  0.13503662028E+04  0.50400001928E-02 0.  1.
       -1   -1    0    0    0  501  0.00000000000E+00  0.00000000000E+00 -0.15507417989E+04  0.15507417989E+04  0.50400001928E-02 0. -1.
    10030    2    1    2    0    0  0.00000000000E+00  0.00000000000E+00 -0.20037559604E+03  0.29011080017E+04  0.28941798939E+04 0.  0.
        2    1    3    3  502    0 -0.12644289063E+03  0.10893775582E+04 -0.10465548176E+04  0.15159182877E+04  0.25500000920E-02 0. -1.
       -2    1    3    3    0  502  0.12644289063E+03 -0.10893775582E+04  0.84617922155E+03  0.13851897140E+04  0.25500000920E-02 0.  1.
</event>
<event>
 5   0  0.3474078E-06  0.2352300E+04  0.7818609E-02  0.8457581E-01
       -1   -1    0    0    0  501  0.00000000000E+00  0.00000000000E+00  0.17114365593E+04  0.17114365593E+04  0.50400001928E-02 0. -1.
        1   -1    0    0  501    0  0.00000000000E+00  0.00000000000E+00 -0.80828515119E+03  0.80828515120E+03  0.50400001928E-02 0.  1.
    10030    2    1    2    0    0  0.00000000000E+00  0.00000000000E+00  0.90315140815E+03  0.25197217105E+04  0.23522999453E+04 0.  0.
        3    1    3    3  502    0  0.18480064110E+02 -0.23003859404E+03  0.16869456843E+04  0.17026582216E+04  0.10100000352E+00 0. -1.
       -3    1    3    3    0  502 -0.18480064110E+02  0.23003859404E+03 -0.78379427614E+03  0.81706348898E+03  0.10100000352E+00 0.  1.
</event>
<event>
 5   0  0.9505359E-06  0.3628365E+04  0.7818609E-02  0.8084025E-01
        2   -1    0    0  501    0  0.00000000000E+00  0.00000000000E+00  0.17964167615E+04  0.17964167615E+04  0.25500000920E-02 0. -1.
       -2   -1    0    0    0  501  0.00000000000E+00  0.00000000000E+00 -0.18321236490E+04  0.18321236490E+04  0.25500000920E-02 0.  1.
    10030    2    1    2    0    0  0.00000000000E+00  0.00000000000E+00 -0.35706887539E+02  0.36285404105E+04  0.36283647183E+04 0.  0.
        4    1    3    3  502    0 -0.93049395214E+03  0.42863653465E+03 -0.15151593063E+04  0.18290045408E+04  0.12699999809E+01 0.  1.
       -4    1    3    3    0  502  0.93049395214E+03 -0.42863653465E+03  0.14794524188E+04  0.17995358697E+04  0.12699999809E+01 0. -1.
</event>
<event>
 5   0  0.9505359E-06  0.2920233E+04  0.7818609E-02  0.8266883E-01
        2   -1    0    0  501    0  0.00000000000E+00  0.00000000000E+00  0.18939371343E+04  0.18939371343E+04  0.25500000920E-02 0. -1.
       -2   -1    0    0    0  501  0.00000000000E+00  0.00000000000E+00 -0.11256655336E+04  0.11256655336E+04  0.25500000920E-02 0.  1.
    10030    2    1    2    0    0  0.00000000000E+00  0.00000000000E+00  0.76827160061E+03  0.30196026679E+04  0.29202326996E+04 0.  0.
        4    1    3    3  502    0  0.10810109946E+04 -0.95180616232E+03  0.13636057033E+03  0.14467603668E+04  0.12699999809E+01 0.  1.
       -4    1    3    3    0  502 -0.10810109946E+04  0.95180616232E+03  0.63191103028E+03  0.15728423011E+04  0.12699999809E+01 0. -1.
</event>
<event>
 5   0  0.9251510E-06  0.2975930E+04  0.7818609E-02  0.8250638E-01
       -2   -1    0    0    0  501  0.00000000000E+00  0.00000000000E+00  0.10804674315E+04  0.10804674315E+04  0.25500000920E-02 0.  1.
        2   -1    0    0  501    0  0.00000000000E+00  0.00000000000E+00 -0.20491496602E+04  0.20491496602E+04  0.25500000920E-02 0. -1.
    10030    2    1    2    0    0  0.00000000000E+00  0.00000000000E+00 -0.96868222869E+03  0.31296170918E+04  0.29759297507E+04 0.  0.
        2    1    3    3  502    0  0.76748020457E+03  0.87096400495E+03 -0.14632372199E+04  0.18677974527E+04  0.25500000920E-02 0. -1.
       -2    1    3    3    0  502 -0.76748020457E+03 -0.87096400495E+03  0.49455499125E+03  0.12618196391E+04  0.25500000920E-02 0.  1.
</event>
<event>
 5   0  0.3188375E-06  0.2882317E+04  0.7818609E-02  0.8278158E-01
        3   -1    0    0  501    0  0.00000000000E+00  0.00000000000E+00  0.13898476935E+04  0.13898476972E+04  0.10100000352E+00 0. -1.
       -3   -1    0    0    0  501  0.00000000000E+00  0.00000000000E+00 -0.14943634293E+04  0.14943634327E+04  0.10100000352E+00 0.  1.
    10030    2    1    2    0    0  0.00000000000E+00  0.00000000000E+00 -0.10451573581E+03  0.28842111299E+04  0.28823168290E+04 0.  0.
        2    1    3    3  502    0 -0.11052538754E+03 -0.11521107345E+04  0.80700466437E+03  0.14109682966E+04  0.25500000920E-02 0. -1.
       -2    1    3    3    0  502  0.11052538754E+03  0.11521107345E+04 -0.91152040018E+03  0.14732428333E+04  0.25500000920E-02 0.  1.
</event>
<event>
 5   0  0.3746518E-06  0.2914634E+04  0.7818609E-02  0.8268537E-01
       -1   -1    0    0    0  501  0.00000000000E+00  0.00000000000E+00  0.98541153921E+03  0.98541153922E+03  0.50400001928E-02 0. -1.
        1   -1    0    0  501    0  0.00000000000E+00  0.00000000000E+00 -0.21552138983E+04  0.21552138983E+04  0.50400001928E-02 0.  1.
    10030    2    1    2    0    0  0.00000000000E+00  0.00000000000E+00 -0.11698023591E+04  0.31406254375E+04  0.29146338671E+04 0.  0.
        4    1    3    3  502    0  0.15725140635E+03  0.11339321506E+04 -0.15566225287E+04  0.19322539783E+04  0.12699999809E+01 0.  1.
       -4    1    3    3    0  502 -0.15725140635E+03 -0.11339321506E+04  0.38682016964E+03  0.12083714592E+04  0.12699999809E+01 0. -1.
</event>
<event>
 5   0  0.3474078E-06  0.2932855E+04  0.7818609E-02  0.8263169E-01
       -1   -1    0    0    0  501  0.00000000000E+00  0.00000000000E+00  0.13366957930E+04  0.13366957930E+04  0.50400001928E-02 0.  1.
        1   -1    0    0  501    0  0.00000000000E+00  0.00000000000E+00 -0.16087505385E+04  0.16087505385E+04  0.50400001928E-02 0. -1.
    10030    2    1    2    0    0  0.00000000000E+00  0.00000000000E+00 -0.27205474550E+03  0.29454463315E+04  0.29328553164E+04 0.  0.
        3    1    3    3  502    0  0.82150817157E+03  0.74626962553E+03 -0.10985866551E+04  0.15616294947E+04  0.10100000352E+00 0. -1.
       -3    1    3    3    0  502 -0.82150817157E+03 -0.74626962553E+03  0.82653190957E+03  0.13838168368E+04  0.10100000352E+00 0.  1.
</event>
<event>
 5   0  0.3746518E-06  0.2684327E+04  0.7818609E-02  0.8340108E-01
        1   -1    0    0  501    0  0.00000000000E+00  0.00000000000E+00  0.11821133191E+04  0.11821133191E+04  0.50400001928E-02 0.  1.
       -1   -1    0    0    0  501  0.00000000000E+00  0.00000000000E+00 -0.15238833728E+04  0.15238833728E+04  0.50400001928E-02 0. -1.
    10030    2    1    2    0    0  0.00000000000E+00  0.00000000000E+00 -0.34177005363E+03  0.27059966919E+04  0.26843269784E+04 0.  0.
        4    1    3    3  502    0  0.44325738215E+03  0.72706336084E+03 -0.12167102616E+04  0.14850871056E+04  0.12699999809E+01 0. -1.
       -4    1    3    3    0  502 -0.44325738215E+03 -0.72706336084E+03  0.87494020801E+03  0.12209095863E+04  0.12699999809E+01 0.  1.
</event>
<event>
 5   0  0.3746518E-06  0.2870377E+04  0.7818609E-02  0.8281746E-01
       -1   -1    0    0    0  501  0.00000000000E+00  0.00000000000E+00  0.11494193643E+04  0.11494193643E+04  0.50400001928E-02 0.  1.
        1   -1    0    0  501    0  0.00000000000E+00  0.00000000000E+00 -0.17920055327E+04  0.17920055327E+04  0.50400001928E-02 0. -1.
    10030    2    1    2    0    0  0.00000000000E+00  0.00000000000E+00 -0.64258616845E+03  0.29414248970E+04  0.28703768813E+04 0.  0.
        4    1    3    3  502    0  0.38621165829E+03 -0.10483936082E+03 -0.17336727798E+04  0.17792621102E+04  0.12699999809E+01 0. -1.
       -4    1    3    3    0  502 -0.38621165829E+03  0.10483936082E+03  0.10910866114E+04  0.11621627868E+04  0.12699999809E+01 0.  1.
</event>
<event>
 5   0  0.1001573E-05  0.2878712E+04  0.7818609E-02  0.8279240E-01
        2   -1    0    0  501    0  0.00000000000E+00  0.00000000000E+00  0.15726467906E+04  0.15726467906E+04  0.25500000920E-02 0. -1.
       -2   -1    0    0    0  501  0.00000000000E+00  0.00000000000E+00 -0.13173624283E+04  0.13173624283E+04  0.25500000920E-02 0.  1.
    10030    2    1    2    0    0  0.00000000000E+00  0.00000000000E+00  0.25528436230E+03  0.28900092188E+04  0.28787120695E+04 0.  0.
        1    1    3    3  502    0  0.49686409359E+03  0.11604096542E+04 -0.56667971383E+03  0.13836727905E+04  0.50400001928E-02 0.  1.
       -1    1    3    3    0  502 -0.49686409359E+03 -0.11604096542E+04  0.82196407613E+03  0.15063364284E+04  0.50400001928E-02 0. -1.
</event>
<event>
 5   0  0.9251510E-06  0.2892918E+04  0.7818609E-02  0.8274988E-01
        2   -1    0    0  501    0  0.00000000000E+00  0.00000000000E+00  0.20873970469E+04  0.20873970469E+04  0.25500000920E-02 0. -1.
       -2   -1    0    0    0  501  0.00000000000E+00  0.00000000000E+00 -0.10023220475E+04  0.10023220475E+04  0.25500000920E-02 0.  1.
    10030    2    1    2    0    0  0.00000000000E+00  0.00000000000E+00  0.10850749994E+04  0.30897190945E+04  0.28929183066E+04 0.  0.
        2    1    3    3  502    0  0.50142436957E+03 -0.82527353245E+03 -0.60763607394E+03  0.11409313740E+04  0.25500000920E-02 0.  1.
       -2    1    3    3    0  502 -0.50142436957E+03  0.82527353245E+03  0.16927110733E+04  0.19487877205E+04  0.25500000920E-02 0. -1.
</event>
<event>
 5   0  0.9646321E-06  0.2882523E+04  0.7818609E-02  0.8278096E-01
       -2   -1    0    0    0  501  0.00000000000E+00  0.00000000000E+00  0.13777391928E+04  0.13777391928E+04  0.25500000920E-02 0.  1.
        2   -1    0    0  501    0  0.00000000000E+00  0.00000000000E+00 -0.15077126080E+04  0.15077126080E+04  0.25500000920E-02 0. -1.
    10030    2    1    2    0    0  0.00000000000E+00  0.00000000000E+00 -0.12997341517E+03  0.28854518009E+04  0.28825230279E+04 0.  0.
        3    1    3    3  502    0 -0.12024117977E+04 -0.74375583667E+03 -0.34503490659E+03  0.14553405006E+04  0.10100000352E+00 0. -1.
       -3    1    3    3    0  502  0.12024117977E+04  0.74375583667E+03  0.21506149143E+03  0.14301113002E+04  0.10100000352E+00 0.  1.
</event>
<event>
 5   0  0.9360689E-06  0.2693133E+04  0.7818609E-02  0.8337237E-01
        2   -1    0    0  501    0  0.00000000000E+00  0.00000000000E+00  0.16812457136E+04  0.16812457136E+04  0.25500000920E-02 0.  1.
       -2   -1    0    0    0  501  0.00000000000E+00  0.00000000000E+00 -0.10785102642E+04  0.10785102642E+04  0.25500000920E-02 0. -1.
    10030    2    1    2    0    0  0.00000000000E+00  0.00000000000E+00  0.60273544936E+03  0.27597559778E+04  0.26931325691E+04 0.  0.
        5    1    3    3  502    0 -0.11087108672E+04  0.65715877070E+03 -0.98308088458E+02  0.12925881043E+04  0.46999998093E+01 0. -1.
       -5    1    3    3    0  502  0.11087108672E+04 -0.65715877070E+03  0.70104353782E+03  0.14671678735E+04  0.46999998093E+01 0.  1.
</event>
<event>
 5   0  0.3486236E-06  0.2916603E+04  0.7818609E-02  0.8267955E-01
       -1   -1    0    0    0  501  0.00000000000E+00  0.00000000000E+00  0.11271392140E+04  0.11271392140E+04  0.50400001928E-02 0. -1.
        1   -1    0    0  501    0  0.00000000000E+00  0.00000000000E+00 -0.18867621593E+04  0.18867621593E+04  0.50400001928E-02 0.  1.
    10030    2    1    2    0    0  0.00000000000E+00  0.00000000000E+00 -0.75962294533E+03  0.30139013732E+04  0.29166032415E+04 0.  0.
        5    1    3    3  502    0  0.97851405431E+03  0.95979464079E+03  0.13472093840E+03  0.13772680669E+04  0.46999998093E+01 0.  1.
       -5    1    3    3    0  502 -0.97851405431E+03 -0.95979464079E+03 -0.89434388372E+03  0.16366333063E+04  0.46999998093E+01 0. -1.
</event>
<event>
 5   0  0.3649705E-06  0.2922012E+04  0.7818609E-02  0.8266358E-01
       -1   -1    0    0    0  501  0.00000000000E+00  0.00000000000E+00  0.96973983237E+03  0.96973983238E+03  0.50400001928E-02 0.  1.
        1   -1    0    0  501    0  0.00000000000E+00  0.00000000000E+00 -0.22011454169E+04  0.22011454169E+04  0.50400001928E-02 0. -1.
    10030    2    1    2    0    0  0.00000000000E+00  0.00000000000E+00 -0.12314055845E+04  0.31708852492E+04  0.29220119011E+04 0.  0.
        2    1    3    3  502    0 -0.14041219569E+04  0.34211869384E+02 -0.10522191341E+04  0.17549626857E+04  0.25500000920E-02 0. -1.
       -2    1    3    3    0  502  0.14041219569E+04 -0.34211869384E+02 -0.17918645036E+03  0.14159225635E+04  0.25500000920E-02 0.  1.
</event>
<event>
 5   0  0.3486236E-06  0.2918612E+04  0.7818609E-02  0.8267361E-01
        1   -1    0    0  501    0  0.00000000000E+00  0.00000000000E+00  0.16853811601E+04  0.16853811601E+04  0.50400001928E-02 0. -1.
       -1   -1    0    0    0  501  0.00000000000E+00  0.00000000000E+00 -0.12635560409E+04  0.12635560409E+04  0.50400001928E-02 0.  1.
    10030    2    1    2    0    0  0.00000000000E+00  0.00000000000E+00  0.42182511918E+03  0.29489372009E+04  0.29186116878E+04 0.  0.
        5    1    3    3  502    0 -0.11945556717E+04 -0.35598752527E+03  0.97765247471E+03  0.15841454549E+04  0.46999998093E+01 0. -1.
       -5    1    3    3    0  502  0.11945556717E+04  0.35598752527E+03 -0.55582735553E+03  0.13647917460E+04  0.46999998093E+01 0.  1.
</event>
<event>
 5   0  0.9251510E-06  0.2964538E+04  0.7818609E-02  0.8253930E-01
        2   -1    0    0  501    0  0.00000000000E+00  0.00000000000E+00  0.12022421840E+04  0.12022421840E+04  0.25500000920E-02 0.  1.
       -2   -1    0    0    0  501  0.00000000000E+00  0.00000000000E+00 -0.18275199020E+04  0.18275199020E+04  0.25500000920E-02 0. -1.
    10030    2    1    2    0    0  0.00000000000E+00  0.00000000000E+00 -0.62527771798E+03  0.30297620860E+04  0.29645380877E+04 0.  0.
        2    1    3    3  502    0 -0.78494149091E+03  0.12525802626E+04 -0.42473829785E+03  0.15380159557E+04  0.25500000920E-02 0.  1.
       -2    1    3    3    0  502  0.78494149091E+03 -0.12525802626E+04 -0.20053942013E+03  0.14917461303E+04  0.25500000920E-02 0. -1.
</event>
<event>
 5   0  0.1001573E-05  0.2910661E+04  0.7818609E-02  0.8269713E-01
        2   -1    0    0  501    0  0.00000000000E+00  0.00000000000E+00  0.16621001877E+04  0.16621001877E+04  0.25500000920E-02 0. -1.
       -2   -1    0    0    0  501  0.00000000000E+00  0.00000000000E+00 -0.12742835668E+04  0.12742835668E+04  0.25500000920E-02 0.  1.
    10030    2    1    2    0    0  0.00000000000E+00  0.00000000000E+00  0.38781662091E+03  0.29363837545E+04  0.29106610628E+04 0.  0.
        1    1    3    3  502    0 -0.12297128649E+04 -0.75385709732E+03  0.38924982382E+03  0.14939911910E+04  0.50400001928E-02 0. -1.
       -1    1    3    3    0  502  0.12297128649E+04  0.75385709732E+03 -0.14332029089E+01  0.14423925636E+04  0.50400001928E-02 0.  1.
</event>
<event>
 5   0  0.1001573E-05  0.2739215E+04  0.7818609E-02  0.8322392E-01
        2   -1    0    0  501    0  0.00000000000E+00  0.00000000000E+00  0.13429367884E+04  0.13429367884E+04  0.25500000920E-02 0.  1.
       -2   -1    0    0    0  501  0.00000000000E+00  0.00000000000E+00 -0.13968076722E+04  0.13968076722E+04  0.25500000920E-02 0. -1.
    10030    2    1    2    0    0  0.00000000000E+00  0.00000000000E+00 -0.53870883805E+02  0.27397444605E+04  0.27392147847E+04 0.  0.
        1    1    3    3  502    0 -0.10873816586E+04 -0.75541860776E+03  0.32351533656E+03  0.13629814076E+04  0.50400001928E-02 0.  1.
       -1    1    3    3    0  502  0.10873816586E+04  0.75541860776E+03 -0.37738622036E+03  0.13767630529E+04  0.50400001928E-02 0. -1.
</event>
<event>
 5   0  0.9646321E-06  0.2914030E+04  0.7818609E-02  0.8268715E-01
       -2   -1    0    0    0  501  0.00000000000E+00  0.00000000000E+00  0.16317571159E+04  0.16317571159E+04  0.25500000920E-02 0.  1.
        2   -1    0    0  501    0  0.00000000000E+00  0.00000000000E+00 -0.13009856591E+04  0.13009856591E+04  0.25500000920E-02 0. -1.
    10030    2    1    2    0    0  0.00000000000E+00  0.00000000000E+00  0.33077145682E+03  0.29327427750E+04  0.29140299291E+04 0.  0.
        3    1    3    3  502    0  0.14323960010E+04  0.16543855155E+03  0.37592850673E+03  0.14901176028E+04  0.10100000352E+00 0.  1.
       -3    1    3    3    0  502 -0.14323960010E+04 -0.16543855155E+03 -0.45157049907E+02  0.14426251721E+04  0.10100000352E+00 0. -1.
</event>
<event>
 5   0  0.3746518E-06  0.2881770E+04  0.7818609E-02  0.8278322E-01
        1   -1    0    0  501    0  0.00000000000E+00  0.00000000000E+00  0.24406492194E+04  0.24406492194E+04  0.50400001928E-02 0.  1.
       -1   -1    0    0    0  501  0.00000000000E+00  0.00000000000E+00 -0.85065438283E+03  0.85065438284E+03  0.50400001928E-02 0. -1.
    10030    2    1    2    0    0  0.00000000000E+00  0.00000000000E+00  0.15899948366E+04  0.32913036023E+04  0.28817695643E+04 0.  0.
        4    1    3    3  502    0 -0.14077759277E+04  0.92692611021E+01  0.44440742753E+03  0.14762853912E+04  0.12699999809E+01 0. -1.
       -4    1    3    3    0  502  0.14077759277E+04 -0.92692611021E+01  0.11455874091E+04  0.18150182111E+04  0.12699999809E+01 0.  1.
</event>
<event>
 5   0  0.9646321E-06  0.2890885E+04  0.7818609E-02  0.8275595E-01
       -2   -1    0    0    0  501  0.00000000000E+00  0.00000000000E+00  0.11713322487E+04  0.11713322487E+04  0.25500000920E-02 0.  1.
        2   -1    0    0  501    0  0.00000000000E+00  0.00000000000E+00 -0.17836987464E+04  0.17836987464E+04  0.25500000920E-02 0. -1.
    10030    2    1    2    0    0  0.00000000000E+00  0.00000000000E+00 -0.61236649771E+03  0.29550309951E+04  0.28908848912E+04 0.  0.
        3    1    3    3  502    0 -0.11405012254E+04  0.78115271812E+03  0.12551618760E+03  0.13880550917E+04  0.10100000352E+00 0. -1.
       -3    1    3    3    0  502  0.11405012254E+04 -0.78115271812E+03 -0.73788268531E+03  0.15669759033E+04  0.10100000352E+00 0.  1.
</event>
<event>
 5   0  0.3649705E-06  0.2738747E+04  0.7818609E-02  0.8322541E-01
        1   -1    0    0  501    0  0.00000000000E+00  0.00000000000E+00  0.13270866381E+04  0.13270866381E+04  0.50400001928E-02 0.  1.
       -1   -1    0    0    0  501  0.00000000000E+00  0.00000000000E+00 -0.14130074160E+04  0.14130074160E+04  0.50400001928E-02 0. -1.
    10030    2    1    2    0    0  0.00000000000E+00  0.00000000000E+00 -0.85920777900E+02  0.27400940541E+04  0.27387466194E+04 0.  0.
        2    1    3    3  502    0  0.29221323330E+03 -0.53379772350E+02 -0.13803847931E+04  0.14119844726E+04  0.25500000920E-02 0. -1.
       -2    1    3    3    0  502 -0.29221323330E+03  0.53379772350E+02  0.12944640152E+04  0.13281095815E+04  0.25500000920E-02 0.  1.
</event>
<event>
 5   0  0.9360689E-06  0.3047814E+04  0.7818609E-02  0.8230208E-01
        2   -1    0    0  501    0  0.00000000000E+00  0.00000000000E+00  0.20182864868E+04  0.20182864868E+04  0.25500000920E-02 0. -1.
       -2   -1    0    0    0  501  0.00000000000E+00  0.00000000000E+00 -0.11506254691E+04  0.11506254691E+04  0.25500000920E-02 0.  1.
    10030    2    1    2    0    0  0.00000000000E+00  0.00000000000E+00  0.86766101773E+03  0.31689119559E+04  0.30478135347E+04 0.  0.
        5    1    3    3  502    0 -0.13410343914E+04  0.27989170682E+03  0.11278529014E+04  0.17744821395E+04  0.46999998093E+01 0. -1.
       -5    1    3    3    0  502  0.13410343914E+04 -0.27989170682E+03 -0.26019188365E+03  0.13944298163E+04  0.46999998093E+01 0.  1.
</event>
<event>
 5   0  0.9646321E-06  0.2830849E+04  0.7818609E-02  0.8293755E-01
        2   -1    0    0  501    0  0.00000000000E+00  0.00000000000E+00  0.28925534961E+04  0.28925534961E+04  0.25500000920E-02 0.  1.
       -2   -1    0    0    0  501  0.00000000000E+00  0.00000000000E+00 -0.69261515314E+03  0.69261515315E+03  0.25500000920E-02 0. -1.
    10030    2    1    2    0    0  0.00000000000E+00  0.00000000000E+00  0.21999383430E+04  0.35851686493E+04  0.28308489064E+04 0.  0.
        3    1    3    3  502    0  0.12572350152E+04  0.63517471393E+03  0.92384606902E+03  0.16845113149E+04  0.10100000352E+00 0.  1.
       -3    1    3    3    0  502 -0.12572350152E+04 -0.63517471393E+03  0.12760922739E+04  0.19006573343E+04  0.10100000352E+00 0. -1.
</event>
<event>
 5   0  0.3649705E-06  0.2842612E+04  0.7818609E-02  0.8290160E-01
       -1   -1    0    0    0  501  0.00000000000E+00  0.00000000000E+00  0.13418249428E+04  0.13418249428E+04  0.50400001928E-02 0.  1.
        1   -1    0    0  501    0  0.00000000000E+00  0.00000000000E+00 -0.15054947962E+04  0.15054947962E+04  0.50400001928E-02 0. -1.
    10030    2    1    2    0    0  0.00000000000E+00  0.00000000000E+00 -0.16366985340E+03  0.28473197390E+04  0.28426118052E+04 0.  0.
        2    1    3    3  502    0 -0.82995743452E+03 -0.93022172483E+03 -0.76558445765E+03  0.14629632129E+04  0.25500000920E-02 0. -1.
       -2    1    3    3    0  502  0.82995743452E+03  0.93022172483E+03  0.60191460425E+03  0.13843565261E+04  0.25500000920E-02 0.  1.
</event>
<event>
 5   0  0.3649705E-06  0.2904508E+04  0.7818609E-02  0.8271537E-01
       -1   -1    0    0    0  501  0.00000000000E+00  0.00000000000E+00  0.15783953863E+04  0.15783953863E+04  0.50400001928E-02 0. -1.
        1   -1    0    0  501    0  0.00000000000E+00  0.00000000000E+00 -0.13361939421E+04  0.13361939422E+04  0.50400001928E-02 0.  1.
    10030    2    1    2    0    0  0.00000000000E+00  0.00000000000E+00  0.24220144415E+03  0.29145893284E+04  0.29045084634E+04 0.  0.
        2    1    3    3  502    0  0.75250787315E+03 -0.55655520463E+03  0.12353692983E+04  0.15498900277E+04  0.25500000920E-02 0. -1.
       -2    1    3    3    0  502 -0.75250787315E+03  0.55655520463E+03 -0.99316785411E+03  0.13646993007E+04  0.25500000920E-02 0.  1.
</event>
<event>
 5   0  0.3486236E-06  0.2717695E+04  0.7818609E-02  0.8329286E-01
       -1   -1    0    0    0  501  0.00000000000E+00  0.00000000000E+00  0.12438105255E+04  0.12438105255E+04  0.50400001928E-02 0. -1.
        1   -1    0    0  501    0  0.00000000000E+00  0.00000000000E+00 -0.14845234691E+04  0.14845234691E+04  0.50400001928E-02 0.  1.
    10030    2    1    2    0    0  0.00000000000E+00  0.00000000000E+00 -0.24071294359E+03  0.27283339945E+04  0.27176945495E+04 0.  0.
        5    1    3    3  502    0 -0.74948056931E+03 -0.82654383200E+03 -0.89898808605E+03  0.14328633916E+04  0.46999998093E+01 0.  1.
       -5    1    3    3    0  502  0.74948056931E+03  0.82654383200E+03  0.65827514246E+03  0.12954706030E+04  0.46999998093E+01 0. -1.
</event>
<event>
 5   0  0.9251510E-06  0.2898315E+04  0.7818609E-02  0.8273379E-01
        2   -1    0    0  501    0  0.00000000000E+00  0.00000000000E+00  0.13412785427E+04  0.13412785427E+04  0.25500000920E-02 0.  1.
       -2   -1    0    0    0  501  0.00000000000E+00  0.00000000000E+00 -0.15657132118E+04  0.15657132118E+04  0.25500000920E-02 0. -1.
    10030    2    1    2    0    0  0.00000000000E+00  0.00000000000E+00 -0.22443466913E+03  0.29069917545E+04  0.28983150519E+04 0.  0.
        2    1    3    3  502    0 -0.75333173210E+02 -0.13004027452E+04  0.52477065326E+03  0.14043171384E+04  0.25500000920E-02 0.  1.
       -2    1    3    3    0  502  0.75333173210E+02  0.13004027452E+04 -0.74920532239E+03  0.15026746161E+04  0.25500000920E-02 0. -1.
</event>
<event>
 5   0  0.9251510E-06  0.2761657E+04  0.7818609E-02  0.8315272E-01
        2   -1    0    0  501    0  0.00000000000E+00  0.00000000000E+00  0.20249962111E+04  0.20249962111E+04  0.25500000920E-02 0. -1.
       -2   -1    0    0    0  501  0.00000000000E+00  0.00000000000E+00 -0.94157591380E+03  0.94157591380E+03  0.25500000920E-02 0.  1.
    10030    2    1    2    0    0  0.00000000000E+00  0.00000000000E+00  0.10834202973E+04  0.29665721249E+04  0.27616572256E+04 0.  0.
        2    1    3    3  502    0 -0.11595901329E+04 -0.72709796064E+03  0.34549013132E+03  0.14116246497E+04  0.25500000920E-02 0.  1.
       -2    1    3    3    0  502  0.11595901329E+04  0.72709796064E+03  0.73793016598E+03  0.15549474752E+04  0.25500000920E-02 0. -1.
</event>
<event>
 5   0  0.3474078E-06  0.2852027E+04  0.7818609E-02  0.8287296E-01
        1   -1    0    0  501    0  0.00000000000E+00  0.00000000000E+00  0.12597110531E+04  0.12597110531E+04  0.50400001928E-02 0.  1.
       -1   -1    0    0    0  501  0.00000000000E+00  0.00000000000E+00 -0.16142703426E+04  0.16142703426E+04  0.50400001928E-02 0. -1.
    10030    2    1    2    0    0  0.00000000000E+00  0.00000000000E+00 -0.35455928955E+03  0.28739813957E+04  0.28520267834E+04 0.  0.
        3    1    3    3  502    0 -0.57748925625E+03  0.13037984361E+04 -0.16579100566E+03  0.14355733596E+04  0.10100000352E+00 0.  1.
       -3    1    3    3    0  502  0.57748925625E+03 -0.13037984361E+04 -0.18876828389E+03  0.14384080361E+04  0.10100000352E+00 0. -1.
</event>
<event>
 5   0  0.9505359E-06  0.2893498E+04  0.7818609E-02  0.8274815E-01
        2   -1    0    0  501    0  0.00000000000E+00  0.00000000000E+00  0.14722086624E+04  0.14722086624E+04  0.25500000920E-02 0. -1.
       -2   -1    0    0    0  501  0.00000000000E+00  0.00000000000E+00 -0.14217293582E+04  0.14217293582E+04  0.25500000920E-02 0.  1.
    10030    2    1    2    0    0  0.00000000000E+00  0.00000000000E+00  0.50479304128E+02  0.28939380206E+04  0.28934977289E+04 0.  0.
        4    1    3    3  502    0  0.82412084156E+03  0.11876463788E+04  0.83571603301E+02  0.14479865014E+04  0.12699999809E+01 0.  1.
       -4    1    3    3    0  502 -0.82412084156E+03 -0.11876463788E+04 -0.33092299173E+02  0.14459515192E+04  0.12699999809E+01 0. -1.
</event>
<event>
 5   0  0.3564340E-06  0.2897439E+04  0.7818609E-02  0.8273640E-01
        1   -1    0    0  501    0  0.00000000000E+00  0.00000000000E+00  0.12396377213E+04  0.12396377213E+04  0.50400001928E-02 0. -1.
       -1   -1    0    0    0  501  0.00000000000E+00  0.00000000000E+00 -0.16930662368E+04  0.16930662368E+04  0.50400001928E-02 0.  1.
    10030    2    1    2    0    0  0.00000000000E+00  0.00000000000E+00 -0.45342851548E+03  0.29327039581E+04  0.28974394018E+04 0.  0.
        1    1    3    3  502    0  0.34344047590E+03 -0.46144000248E+03  0.11190965311E+04  0.12582747245E+04  0.50400001928E-02 0. -1.
       -1    1    3    3    0  502 -0.34344047590E+03  0.46144000248E+03 -0.15725250465E+04  0.16744292336E+04  0.50400001928E-02 0.  1.
</event>
<event>
 5   0  0.9251510E-06  0.2924937E+04  0.7818609E-02  0.8265496E-01
        2   -1    0    0  501    0  0.00000000000E+00  0.00000000000E+00  0.15559804566E+04  0.15559804566E+04  0.25500000920E-02 0. -1.
       -2   -1    0    0    0  501  0.00000000000E+00  0.00000000000E+00 -0.13745763299E+04  0.13745763299E+04  0.25500000920E-02 0.  1.
    10030    2    1    2    0    0  0.00000000000E+00  0.00000000000E+00  0.18140412677E+03  0.29305567865E+04  0.29249368577E+04 0.  0.
        2    1    3    3  502    0  0.13749017730E+04  0.16550303839E+03  0.56178389580E+03  0.14944387865E+04  0.25500000920E-02 0. -1.
       -2    1    3    3    0  502 -0.13749017730E+04 -0.16550303839E+03 -0.38037976903E+03  0.14361180000E+04  0.25500000920E-02 0.  1.
</event>
<event>
 5   0  0.3474078E-06  0.2913995E+04  0.7818609E-02  0.8268726E-01
        1   -1    0    0  501    0  0.00000000000E+00  0.00000000000E+00  0.15458429156E+04  0.15458429156E+04  0.50400001928E-02 0.  1.
       -1   -1    0    0    0  501  0.00000000000E+00  0.00000000000E+00 -0.13732579182E+04  0.13732579182E+04  0.50400001928E-02 0. -1.
    10030    2    1    2    0    0  0.00000000000E+00  0.00000000000E+00  0.17258499743E+03  0.29191008338E+04  0.29139945259E+04 0.  0.
        3    1    3    3  502    0  0.11333155405E+04 -0.66592966708E+01 -0.83094979466E+03  0.14053206154E+04  0.10100000352E+00 0. -1.
       -3    1    3    3    0  502 -0.11333155405E+04  0.66592966708E+01  0.10035347921E+04  0.15137802184E+04  0.10100000352E+00 0.  1.
</event>
<event>
 5   0  0.1001573E-05  0.2359401E+04  0.7818609E-02  0.8454861E-01
        2   -1    0    0  501    0  0.00000000000E+00  0.00000000000E+00  0.28820199342E+04  0.28820199342E+04  0.25500000920E-02 0. -1.
       -2   -1    0    0    0  501  0.00000000000E+00  0.00000000000E+00 -0.48288826763E+03  0.48288826764E+03  0.25500000920E-02 0.  1.
    10030    2    1    2    0    0  0.00000000000E+00  0.00000000000E+00  0.23991316665E+04  0.33649082018E+04  0.23594012913E+04 0.  0.
        1    1    3    3  502    0 -0.11070257896E+04  0.12163165337E+03  0.17544785425E+04  0.20780989664E+04  0.50400001928E-02 0. -1.
       -1    1    3    3    0  502  0.11070257896E+04 -0.12163165337E+03  0.64465312407E+03  0.12868092354E+04  0.50400001928E-02 0.  1.
</event>
<event>
 5   0  0.9360689E-06  0.2917219E+04  0.7818609E-02  0.8267773E-01
       -2   -1    0    0    0  501  0.00000000000E+00  0.00000000000E+00  0.12692431274E+04  0.12692431274E+04  0.25500000920E-02 0. -1.
        2   -1    0    0  501    0  0.00000000000E+00  0.00000000000E+00 -0.16762288734E+04  0.16762288734E+04  0.25500000920E-02 0.  1.
    10030    2    1    2    0    0  0.00000000000E+00  0.00000000000E+00 -0.40698574597E+03  0.29454720007E+04  0.29172192084E+04 0.  0.
        5    1    3    3  502    0 -0.11887579499E+04 -0.74773243838E+03  0.19436731577E+03  0.14177623236E+04  0.46999998093E+01 0. -1.
       -5    1    3    3    0  502  0.11887579499E+04  0.74773243838E+03 -0.60135306174E+03  0.15277096771E+04  0.46999998093E+01 0.  1.
</event>
<event>
 5   0  0.3564340E-06  0.2810486E+04  0.7818609E-02  0.8300020E-01
       -1   -1    0    0    0  501  0.00000000000E+00  0.00000000000E+00  0.12253828673E+04  0.12253828673E+04  0.50400001928E-02 0. -1.
        1   -1    0    0  501    0  0.00000000000E+00  0.00000000000E+00 -0.16115030422E+04  0.16115030422E+04  0.50400001928E-02 0.  1.
    10030    2    1    2    0    0  0.00000000000E+00  0.00000000000E+00 -0.38612017491E+03  0.28368859096E+04  0.28104862345E+04 0.  0.
        1    1    3    3  502    0  0.80895134602E+02 -0.13627832508E+04  0.14321486604E+03  0.13726735626E+04  0.50400001928E-02 0. -1.
       -1    1    3    3    0  502 -0.80895134602E+02  0.13627832508E+04 -0.52933504096E+03  0.14642123470E+04  0.50400001928E-02 0.  1.
</event>
<event>
 5   0  0.3746518E-06  0.2855340E+04  0.7818609E-02  0.8286291E-01
        1   -1    0    0  501    0  0.00000000000E+00  0.00000000000E+00  0.29333748982E+04  0.29333748982E+04  0.50400001928E-02 0. -1.
       -1   -1    0    0    0  501  0.00000000000E+00  0.00000000000E+00 -0.69484509937E+03  0.69484509938E+03  0.50400001928E-02 0.  1.
    10030    2    1    2    0    0  0.00000000000E+00  0.00000000000E+00  0.22385297988E+04  0.36282199976E+04  0.28553396804E+04 0.  0.
        4    1    3    3  502    0  0.85215736068E+03 -0.76696203551E+03  0.22003406104E+04  0.24811092974E+04  0.12699999809E+01 0. -1.
       -4    1    3    3    0  502 -0.85215736068E+03  0.76696203551E+03  0.38189188419E+02  0.11471107001E+04  0.12699999809E+01 0.  1.
</event>
<event>
 5   0  0.3746518E-06  0.2887524E+04  0.7818609E-02  0.8276599E-01
        1   -1    0    0  501    0  0.00000000000E+00  0.00000000000E+00  0.11823329086E+04  0.11823329086E+04  0.50400001928E-02 0. -1.
       -1   -1    0    0    0  501  0.00000000000E+00  0.00000000000E+00 -0.17629961660E+04  0.17629961660E+04  0.50400001928E-02 0.  1.
    10030    2    1    2    0    0  0.00000000000E+00  0.00000000000E+00 -0.58066325738E+03  0.29453290746E+04  0.28875237729E+04 0.  0.
        4    1    3    3  502    0  0.60096141231E+03  0.81395786129E+03  0.76022095780E+03  0.12655510802E+04  0.12699999809E+01 0. -1.
       -4    1    3    3    0  502 -0.60096141231E+03 -0.81395786129E+03 -0.13408842152E+04  0.16797779944E+04  0.12699999809E+01 0.  1.
</event>
<event>
 5   0  0.9251510E-06  0.2736569E+04  0.7818609E-02  0.8323236E-01
        2   -1    0    0  501    0  0.00000000000E+00  0.00000000000E+00  0.26958306805E+04  0.26958306805E+04  0.25500000920E-02 0. -1.
       -2   -1    0    0    0  501  0.00000000000E+00  0.00000000000E+00 -0.69448073280E+03  0.69448073280E+03  0.25500000920E-02 0.  1.
    10030    2    1    2    0    0  0.00000000000E+00  0.00000000000E+00  0.20013499477E+04  0.33903114133E+04  0.27365689953E+04 0.  0.
        2    1    3    3  502    0 -0.74939048925E+03 -0.11113370142E+04  0.13411929801E+04  0.18961684193E+04  0.25500000920E-02 0. -1.
       -2    1    3    3    0  502  0.74939048925E+03  0.11113370142E+04  0.66015696763E+03  0.14941429940E+04  0.25500000920E-02 0.  1.
</event>
<event>
 5   0  0.9251510E-06  0.3202028E+04  0.7818609E-02  0.8188282E-01
       -2   -1    0    0    0  501  0.00000000000E+00  0.00000000000E+00  0.11283260713E+04  0.11283260713E+04  0.25500000920E-02 0. -1.
        2   -1    0    0  501    0  0.00000000000E+00  0.00000000000E+00 -0.22717245865E+04  0.22717245865E+04  0.25500000920E-02 0.  1.
    10030    2    1    2    0    0  0.00000000000E+00  0.00000000000E+00 -0.11433985152E+04  0.34000506578E+04  0.32020281558E+04 0.  0.
        2    1    3    3  502    0 -0.13580335232E+04 -0.72167944610E+03 -0.10443920517E+04  0.18589865602E+04  0.25500000920E-02 0.  1.
       -2    1    3    3    0  502  0.13580335232E+04  0.72167944610E+03 -0.99006463493E+02  0.15410640976E+04  0.25500000920E-02 0. -1.
</event>
<event>
 5   0  0.9505359E-06  0.2887695E+04  0.7818609E-02  0.8276548E-01
       -2   -1    0    0    0  501  0.00000000000E+00  0.00000000000E+00  0.10924245676E+04  0.10924245676E+04  0.25500000920E-02 0. -1.
        2   -1    0    0  501    0  0.00000000000E+00  0.00000000000E+00 -0.19083204867E+04  0.19083204867E+04  0.25500000920E-02 0.  1.
    10030    2    1    2    0    0  0.00000000000E+00  0.00000000000E+00 -0.81589591916E+03  0.30007450543E+04  0.28876954012E+04 0.  0.
        4    1    3    3  502    0  0.11095136220E+04 -0.48507390325E+03  0.40920719102E+03  0.12781898557E+04  0.12699999809E+01 0. -1.
       -4    1    3    3    0  502 -0.11095136220E+04  0.48507390325E+03 -0.12251031102E+04  0.17225551987E+04  0.12699999809E+01 0.  1.
</event>
<event>
 5   0  0.9360689E-06  0.2844926E+04  0.7818609E-02  0.8289455E-01
        2   -1    0    0  501    0  0.00000000000E+00  0.00000000000E+00  0.15811858266E+04  0.15811858266E+04  0.25500000920E-02 0. -1.
       -2   -1    0    0    0  501  0.00000000000E+00  0.00000000000E+00 -0.12796733435E+04  0.12796733435E+04  0.25500000920E-02 0.  1.
    10030    2    1    2    0    0  0.00000000000E+00  0.00000000000E+00  0.30151248308E+03  0.28608591700E+04  0.28449262580E+04 0.  0.
        5    1    3    3  502    0 -0.77247606570E+03 -0.10338160589E+04 -0.45082850798E+03  0.13670271941E+04  0.46999998093E+01 0.  1.
       -5    1    3    3    0  502  0.77247606570E+03  0.10338160589E+04  0.75234099106E+03  0.14938319760E+04  0.46999998093E+01 0. -1.
</event>
<event>
 5   0  0.9251510E-06  0.2690495E+04  0.7818609E-02  0.8338096E-01
        2   -1    0    0  501    0  0.00000000000E+00  0.00000000000E+00  0.57462481282E+03  0.57462481282E+03  0.25500000920E-02 0.  1.
       -2   -1    0    0    0  501  0.00000000000E+00  0.00000000000E+00 -0.31493423330E+04  0.31493423330E+04  0.25500000920E-02 0. -1.
    10030    2    1    2    0    0  0.00000000000E+00  0.00000000000E+00 -0.25747175202E+04  0.37239671458E+04  0.26904945632E+04 0.  0.
        2    1    3    3  502    0 -0.40430483884E+03 -0.38421606463E+03  0.40704706389E+03  0.69048656704E+03  0.25500000920E-02 0.  1.
       -2    1    3    3    0  502  0.40430483884E+03  0.38421606463E+03 -0.29817645841E+04  0.30334805788E+04  0.25500000920E-02 0. -1.
</event>
<event>
 5   0  0.1001573E-05  0.2922834E+04  0.7818609E-02  0.8266116E-01
        2   -1    0    0  501    0  0.00000000000E+00  0.00000000000E+00  0.18775368991E+04  0.18775368991E+04  0.25500000920E-02 0. -1.
       -2   -1    0    0    0  501  0.00000000000E+00  0.00000000000E+00 -0.11375218200E+04  0.11375218200E+04  0.25500000920E-02 0.  1.
    10030    2    1    2    0    0  0.00000000000E+00  0.00000000000E+00  0.74001507904E+03  0.30150587191E+04  0.29228336871E+04 0.  0.
        1    1    3    3  502    0  0.28345542130E+02  0.60302646946E+03  0.17429018145E+04  0.18444921056E+04  0.50400001928E-02 0. -1.
       -1    1    3    3    0  502 -0.28345542130E+02 -0.60302646946E+03 -0.10028867354E+04  0.11705666136E+04  0.50400001928E-02 0.  1.
</event>
<event>
 5   0  0.9505359E-06  0.2829649E+04  0.7818609E-02  0.8294122E-01
       -2   -1    0    0    0  501  0.00000000000E+00  0.00000000000E+00  0.80768274988E+03  0.80768274988E+03  0.25500000920E-02 0.  1.
        2   -1    0    0  501    0  0.00000000000E+00  0.00000000000E+00 -0.24783589448E+04  0.24783589448E+04  0.25500000920E-02 0. -1.
    10030    2    1    2    0    0  0.00000000000E+00  0.00000000000E+00 -0.16706761949E+04  0.32860416947E+04  0.28296485773E+04 0.  0.
        4    1    3    3  502    0 -0.32573723211E+03  0.68642270667E+03  0.55066261049E+03  0.93835590269E+03  0.12699999809E+01 0.  1.
       -4    1    3    3    0  502  0.32573723211E+03 -0.68642270667E+03 -0.22213388054E+04  0.23476857920E+04  0.12699999809E+01 0. -1.
</event>
<event>
 5   0  0.9505359E-06  0.2861214E+04  0.7818609E-02  0.8284512E-01
       -2   -1    0    0    0  501  0.00000000000E+00  0.00000000000E+00  0.85651791775E+03  0.85651791775E+03  0.25500000920E-02 0. -1.
        2   -1    0    0  501    0  0.00000000000E+00  0.00000000000E+00 -0.23894845685E+04  0.23894845685E+04  0.25500000920E-02 0.  1.
    10030    2    1    2    0    0  0.00000000000E+00  0.00000000000E+00 -0.15329666508E+04  0.32460024863E+04  0.28612139711E+04 0.  0.
        4    1    3    3  502    0 -0.13878721497E+04  0.34205400966E+03 -0.69989880755E+03  0.15915558435E+04  0.12699999809E+01 0.  1.
       -4    1    3    3    0  502  0.13878721497E+04 -0.34205400966E+03 -0.83306784323E+03  0.16544466427E+04  0.12699999809E+01 0. -1.
</event>
<event>
 5   0  0.9360689E-06  0.2799385E+04  0.7818609E-02  0.8303459E-01
       -2   -1    0    0    0  501  0.00000000000E+00  0.00000000000E+00  0.96328019103E+03  0.96328019103E+03  0.25500000920E-02 0.  1.
        2   -1    0    0  501    0  0.00000000000E+00  0.00000000000E+00 -0.20338212702E+04  0.20338212702E+04  0.25500000920E-02 0. -1.
    10030    2    1    2    0    0  0.00000000000E+00  0.00000000000E+00 -0.10705410791E+04  0.29971014612E+04  0.27993854623E+04 0.  0.
        5    1    3    3  502    0 -0.29747964977E+02  0.25966879551E+03  0.93691346124E+03  0.97269817962E+03  0.46999998093E+01 0.  1.
       -5    1    3    3    0  502  0.29747964977E+02 -0.25966879551E+03 -0.20074545404E+04  0.20244032816E+04  0.46999998093E+01 0. -1.
</event>
<event>
 5   0  0.3746518E-06  0.2726414E+04  0.7818609E-02  0.8326485E-01
       -1   -1    0    0    0  501  0.00000000000E+00  0.00000000000E+00  0.18511291203E+04  0.18511291203E+04  0.50400001928E-02 0.  1.
        1   -1    0    0  501    0  0.00000000000E+00  0.00000000000E+00 -0.10038916515E+04  0.10038916515E+04  0.50400001928E-02 0. -1.
    10030    2    1    2    0    0  0.00000000000E+00  0.00000000000E+00  0.84723746879E+03  0.28550207718E+04  0.27264138129E+04 0.  0.
        4    1    3    3  502    0  0.38550764040E+03 -0.11141606358E+04 -0.29303281439E+03  0.12148415149E+04  0.12699999809E+01 0. -1.
       -4    1    3    3    0  502 -0.38550764040E+03  0.11141606358E+04  0.11402702832E+04  0.16401792569E+04  0.12699999809E+01 0.  1.
</event>
<event>
 5   0  0.9360689E-06  0.2804347E+04  0.7818609E-02  0.8301920E-01
        2   -1    0    0  501    0  0.00000000000E+00  0.00000000000E+00  0.17242115867E+04  0.17242115867E+04  0.25500000920E-02 0. -1.
       -2   -1    0    0    0  501  0.00000000000E+00  0.00000000000E+00 -0.11402836937E+04  0.11402836937E+04  0.25500000920E-02 0.  1.
    10030    2    1    2    0    0  0.00000000000E+00  0.00000000000E+00  0.58392789297E+03  0.28644952804E+04  0.28043468807E+04 0.  0.
        5    1    3    3  502    0 -0.12559056976E+04  0.52795913710E+03 -0.46855688609E+02  0.13631791949E+04  0.46999998093E+01 0.  1.
       -5    1    3    3    0  502  0.12559056976E+04 -0.52795913710E+03  0.63078358157E+03  0.15013160855E+04  0.46999998093E+01 0. -1.
</event>
<event>
 5   0  0.9646321E-06  0.2843858E+04  0.7818609E-02  0.8289780E-01
        2   -1    0    0  501    0  0.00000000000E+00  0.00000000000E+00  0.95507822394E+03  0.95507822394E+03  0.25500000920E-02 0. -1.
       -2   -1    0    0    0  501  0.00000000000E+00  0.00000000000E+00 -0.21169803666E+04  0.21169803666E+04  0.25500000920E-02 0.  1.
    10030    2    1    2    0    0  0.00000000000E+00  0.00000000000E+00 -0.11619021427E+04  0.30720585906E+04  0.28438578366E+04 0.  0.
        3    1    3    3  502    0  0.90467618005E+02  0.43470690786E+03 -0.20401704989E+04  0.20879296349E+04  0.10100000352E+00 0.  1.
       -3    1    3    3    0  502 -0.90467618005E+02 -0.43470690786E+03  0.87826835620E+03  0.98412895565E+03  0.10100000352E+00 0. -1.
</event>
<event>
 5   0  0.9360689E-06  0.2846064E+04  0.7818609E-02  0.8289108E-01
       -2   -1    0    0    0  501  0.00000000000E+00  0.00000000000E+00  0.12043037481E+04  0.12043037481E+04  0.25500000920E-02 0.  1.
        2   -1    0    0  501    0  0.00000000000E+00  0.00000000000E+00 -0.16814856640E+04  0.16814856640E+04  0.25500000920E-02 0. -1.
    10030    2    1    2    0    0  0.00000000000E+00  0.00000000000E+00 -0.47718191590E+03  0.28857894121E+04  0.28460635886E+04 0.  0.
        5    1    3    3  502    0  0.59684360483E+03 -0.52224708368E+03  0.95943959302E+03  0.12447934478E+04  0.46999998093E+01 0.  1.
       -5    1    3    3    0  502 -0.59684360483E+03  0.52224708368E+03 -0.14366215089E+04  0.16409959643E+04  0.46999998093E+01 0. -1.
</event>
<event>
 5   0  0.3564340E-06  0.2827073E+04  0.7818609E-02  0.8294912E-01
       -1   -1    0    0    0  501  0.00000000000E+00  0.00000000000E+00  0.70553125685E+03  0.70553125687E+03  0.50400001928E-02 0. -1.
        1   -1    0    0  501    0  0.00000000000E+00  0.00000000000E+00 -0.28320298596E+04  0.28320298596E+04  0.50400001928E-02 0.  1.
    10030    2    1    2    0    0  0.00000000000E+00  0.00000000000E+00 -0.21264986028E+04  0.35375611165E+04  0.28270731058E+04 0.  0.
        1    1    3    3  502    0 -0.13332343720E+04  0.37669661385E+03 -0.14142235334E+04  0.19797581752E+04  0.50400001928E-02 0. -1.
       -1    1    3    3    0  502  0.13332343720E+04 -0.37669661385E+03 -0.71227506935E+03  0.15578029413E+04  0.50400001928E-02 0.  1.
</event>
<event>
 5   0  0.3486236E-06  0.2951272E+04  0.7818609E-02  0.8257784E-01
       -1   -1    0    0    0  501  0.00000000000E+00  0.00000000000E+00  0.12820830649E+04  0.12820830649E+04  0.50400001928E-02 0.  1.
        1   -1    0    0  501    0  0.00000000000E+00  0.00000000000E+00 -0.16984094390E+04  0.16984094390E+04  0.50400001928E-02 0. -1.
    10030    2    1    2    0    0  0.00000000000E+00  0.00000000000E+00 -0.41632637414E+03  0.29804925039E+04  0.29512722538E+04 0.  0.
        5    1    3    3  502    0  0.56366008027E+03 -0.20383318774E+03  0.11536009197E+04  0.13000299329E+04  0.46999998093E+01 0.  1.
       -5    1    3    3    0  502 -0.56366008027E+03  0.20383318774E+03 -0.15699272939E+04  0.16804625710E+04  0.46999998093E+01 0. -1.
</event>
<event>
 5   0  0.3486236E-06  0.2891608E+04  0.7818609E-02  0.8275379E-01
        1   -1    0    0  501    0  0.00000000000E+00  0.00000000000E+00  0.27637728232E+04  0.27637728232E+04  0.50400001928E-02 0.  1.
       -1   -1    0    0    0  501  0.00000000000E+00  0.00000000000E+00 -0.75633884629E+03  0.75633884631E+03  0.50400001928E-02 0. -1.
    10030    2    1    2    0    0  0.00000000000E+00  0.00000000000E+00  0.20074339769E+04  0.35201116695E+04  0.28916076833E+04 0.  0.
        5    1    3    3  502    0  0.33975277498E+03  0.12417682935E+04  0.18046828048E+04  0.22168271378E+04  0.46999998093E+01 0. -1.
       -5    1    3    3    0  502 -0.33975277498E+03 -0.12417682935E+04  0.20275117209E+03  0.13032845317E+04  0.46999998093E+01 0.  1.
</event>
<event>
 5   0  0.1001573E-05  0.2947198E+04  0.7818609E-02  0.8258972E-01
       -2   -1    0    0    0  501  0.00000000000E+00  0.00000000000E+00  0.83061591973E+03  0.83061591974E+03  0.25500000920E-02 0.  1.
        2   -1    0    0  501    0  0.00000000000E+00  0.00000000000E+00 -0.26143178483E+04  0.26143178483E+04  0.25500000920E-02 0. -1.
    10030    2    1    2    0    0  0.00000000000E+00  0.00000000000E+00 -0.17837019286E+04  0.34449337680E+04  0.29471980076E+04 0.  0.
        1    1    3    3  502    0  0.98350513190E+03 -0.51177613194E+03  0.24280822847E+03  0.11349682769E+04  0.50400001928E-02 0. -1.
       -1    1    3    3    0  502 -0.98350513190E+03  0.51177613194E+03 -0.20265101570E+04  0.23099654912E+04  0.50400001928E-02 0.  1.
</event>
<event>
 5   0  0.1001573E-05  0.2689571E+04  0.7818609E-02  0.8338397E-01
        2   -1    0    0  501    0  0.00000000000E+00  0.00000000000E+00  0.21832487213E+04  0.21832487213E+04  0.25500000920E-02 0.  1.
       -2   -1    0    0    0  501  0.00000000000E+00  0.00000000000E+00 -0.82832918398E+03  0.82832918398E+03  0.25500000920E-02 0. -1.
    10030    2    1    2    0    0  0.00000000000E+00  0.00000000000E+00  0.13549195373E+04  0.30115779053E+04  0.26895714393E+04 0.  0.
        1    1    3    3  502    0 -0.42046157401E+03  0.11673654103E+04  0.12581192417E+04  0.17670297006E+04  0.50400001928E-02 0.  1.
       -1    1    3    3    0  502  0.42046157401E+03 -0.11673654103E+04  0.96800295615E+02  0.12445482047E+04  0.50400001928E-02 0. -1.
</event>
<event>
 5   0  0.3746518E-06  0.2916362E+04  0.7818609E-02  0.8268026E-01
        1   -1    0    0  501    0  0.00000000000E+00  0.00000000000E+00  0.26457418175E+04  0.26457418176E+04  0.50400001928E-02 0.  1.
       -1   -1    0    0    0  501  0.00000000000E+00  0.00000000000E+00 -0.80366540346E+03  0.80366540347E+03  0.50400001928E-02 0. -1.
    10030    2    1    2    0    0  0.00000000000E+00  0.00000000000E+00  0.18420764141E+04  0.34494072210E+04  0.29163615450E+04 0.  0.
        4    1    3    3  502    0 -0.40250373678E+03 -0.88410263764E+03  0.22073015857E+04  0.24116029182E+04  0.12699999809E+01 0.  1.
       -4    1    3    3    0  502  0.40250373678E+03  0.88410263764E+03 -0.36522517163E+03  0.10378043028E+04  0.12699999809E+01 0. -1.
</event>
<event>
 5   0  0.9251510E-06  0.2884144E+04  0.7818609E-02  0.8277611E-01
        2   -1    0    0  501    0  0.00000000000E+00  0.00000000000E+00  0.19721388298E+04  0.19721388298E+04  0.25500000920E-02 0.  1.
       -2   -1    0    0    0  501  0.00000000000E+00  0.00000000000E+00 -0.10544750999E+04  0.10544750999E+04  0.25500000920E-02 0. -1.
    10030    2    1    2    0    0  0.00000000000E+00  0.00000000000E+00  0.91766372997E+03  0.30266139297E+04  0.28841437478E+04 0.  0.
        2    1    3    3  502    0 -0.42997416547E+03  0.13756661288E+04  0.40920734808E+03  0.14982609033E+04  0.25500000920E-02 0. -1.
       -2    1    3    3    0  502  0.42997416547E+03 -0.13756661288E+04  0.50845638189E+03  0.15283530263E+04  0.25500000920E-02 0.  1.
</event>
<event>
 5   0  0.3188375E-06  0.2912086E+04  0.7818609E-02  0.8269291E-01
        3   -1    0    0  501    0  0.00000000000E+00  0.00000000000E+00  0.21016133186E+04  0.21016133210E+04  0.10100000352E+00 0. -1.
       -3   -1    0    0    0  501  0.00000000000E+00  0.00000000000E+00 -0.10087780304E+04  0.10087780355E+04  0.10100000352E+00 0.  1.
    10030    2    1    2    0    0  0.00000000000E+00  0.00000000000E+00  0.10928352882E+04  0.31103913565E+04  0.29120860948E+04 0.  0.
        3    1    3    3  502    0 -0.15590736852E+03 -0.34246514596E+03  0.20487837073E+04  0.20830516492E+04  0.10100000352E+00 0. -1.
       -3    1    3    3    0  502  0.15590736852E+03  0.34246514596E+03 -0.95594841916E+03  0.10273397072E+04  0.10100000352E+00 0.  1.
</event>
<event>
 5   0  0.9360689E-06  0.2935586E+04  0.7818609E-02  0.8262368E-01
       -2   -1    0    0    0  501  0.00000000000E+00  0.00000000000E+00  0.10836192577E+04  0.10836192577E+04  0.25500000920E-02 0. -1.
        2   -1    0    0  501    0  0.00000000000E+00  0.00000000000E+00 -0.19881677123E+04  0.19881677123E+04  0.25500000920E-02 0.  1.
    10030    2    1    2    0    0  0.00000000000E+00  0.00000000000E+00 -0.90454845454E+03  0.30717869700E+04  0.29355863609E+04 0.  0.
        5    1    3    3  502    0  0.81863877496E+03 -0.34994331585E+03 -0.16733632034E+04  0.18954672956E+04  0.46999998093E+01 0.  1.
       -5    1    3    3    0  502 -0.81863877496E+03  0.34994331585E+03  0.76881474889E+03  0.11763196744E+04  0.46999998093E+01 0. -1.
</event>
<event>
 5   0  0.9360689E-06  0.2899740E+04  0.7818609E-02  0.8272955E-01
       -2   -1    0    0    0  501  0.00000000000E+00  0.00000000000E+00  0.16628684782E+04  0.16628684782E+04  0.25500000920E-02 0.  1.
        2   -1    0    0  501    0  0.00000000000E+00  0.00000000000E+00 -0.12641546059E+04  0.12641546059E+04  0.25500000920E-02 0. -1.
    10030    2    1    2    0    0  0.00000000000E+00  0.00000000000E+00  0.39871387228E+03  0.29270230841E+04  0.28997398819E+04 0.  0.
        5    1    3    3  502    0  0.11748338149E+04  0.45844206578E+03  0.92141745421E+03  0.15618693400E+04  0.46999998093E+01 0.  1.
       -5    1    3    3    0  502 -0.11748338149E+04 -0.45844206578E+03 -0.52270358193E+03  0.13651537440E+04  0.46999998093E+01 0. -1.
</event>
<event>
 5   0  0.3564340E-06  0.2265923E+04  0.7818609E-02  0.8491480E-01
       -1   -1    0    0    0  501  0.00000000000E+00  0.00000000000E+00  0.11100724066E+04  0.11100724066E+04  0.50400001928E-02 0.  1.
        1   -1    0    0  501    0  0.00000000000E+00  0.00000000000E+00 -0.11563229511E+04  0.11563229511E+04  0.50400001928E-02 0. -1.
    10030    2    1    2    0    0  0.00000000000E+00  0.00000000000E+00 -0.46250544525E+02  0.22663953577E+04  0.22659233889E+04 0.  0.
        1    1    3    3  502    0  0.27323538463E+03  0.10453447441E+04  0.31782546150E+03  0.11262398650E+04  0.50400001928E-02 0. -1.
       -1    1    3    3    0  502 -0.27323538463E+03 -0.10453447441E+04 -0.36407600602E+03  0.11401554927E+04  0.50400001928E-02 0.  1.
</event>
<event>
 5   0  0.3746518E-06  0.2943637E+04  0.7818609E-02  0.8260011E-01
        1   -1    0    0  501    0  0.00000000000E+00  0.00000000000E+00  0.16015297785E+04  0.16015297785E+04  0.50400001928E-02 0. -1.
       -1   -1    0    0    0  501  0.00000000000E+00  0.00000000000E+00 -0.13526132699E+04  0.13526132699E+04  0.50400001928E-02 0.  1.
    10030    2    1    2    0    0  0.00000000000E+00  0.00000000000E+00  0.24891650861E+03  0.29541430483E+04  0.29436374984E+04 0.  0.
        4    1    3    3  502    0 -0.13741184774E+03 -0.14620921977E+04  0.25856871354E+02  0.14687633578E+04  0.12699999809E+01 0.  1.
       -4    1    3    3    0  502  0.13741184774E+03  0.14620921977E+04  0.22305963726E+03  0.14853796906E+04  0.12699999809E+01 0. -1.
</event>
<event>
 5   0  0.9646321E-06  0.2755895E+04  0.7818609E-02  0.8317093E-01
       -2   -1    0    0    0  501  0.00000000000E+00  0.00000000000E+00  0.14442094968E+04  0.14442094968E+04  0.25500000920E-02 0. -1.
        2   -1    0    0  501    0  0.00000000000E+00  0.00000000000E+00 -0.13147257004E+04  0.13147257004E+04  0.25500000920E-02 0.  1.
    10030    2    1    2    0    0  0.00000000000E+00  0.00000000000E+00  0.12948379639E+03  0.27589351973E+04  0.27558950214E+04 0.  0.
        3    1    3    3  502    0 -0.30149018523E+03  0.96484746729E+03 -0.87272712562E+03  0.13354698098E+04  0.10100000352E+00 0.  1.
       -3    1    3    3    0  502  0.30149018523E+03 -0.96484746729E+03  0.10022109220E+04  0.14234653875E+04  0.10100000352E+00 0. -1.
</event>
<event>
 5   0  0.1001573E-05  0.2885082E+04  0.7818609E-02  0.8277330E-01
        2   -1    0    0  501    0  0.00000000000E+00  0.00000000000E+00  0.11609703015E+04  0.11609703015E+04  0.25500000920E-02 0.  1.
       -2   -1    0    0    0  501  0.00000000000E+00  0.00000000000E+00 -0.17924006457E+04  0.17924006457E+04  0.25500000920E-02 0. -1.
    10030    2    1    2    0    0  0.00000000000E+00  0.00000000000E+00 -0.63143034417E+03  0.29533709473E+04  0.28850815712E+04 0.  0.
        1    1    3    3  502    0 -0.16396219114E+03 -0.11024703582E+04  0.62171123301E+03  0.12762638239E+04  0.50400001928E-02 0.  1.
       -1    1    3    3    0  502  0.16396219114E+03  0.11024703582E+04 -0.12531415772E+04  0.16771071234E+04  0.50400001928E-02 0. -1.
</event>
<event>
 5   0  0.9360689E-06  0.2812245E+04  0.7818609E-02  0.8299477E-01
        2   -1    0    0  501    0  0.00000000000E+00  0.00000000000E+00  0.92417663980E+03  0.92417663981E+03  0.25500000920E-02 0. -1.
       -2   -1    0    0    0  501  0.00000000000E+00  0.00000000000E+00 -0.21393965183E+04  0.21393965183E+04  0.25500000920E-02 0.  1.
    10030    2    1    2    0    0  0.00000000000E+00  0.00000000000E+00 -0.12152198785E+04  0.30635731581E+04  0.28122448581E+04 0.  0.
        5    1    3    3  502    0 -0.10145887948E+03  0.12065833280E+04 -0.13863535254E+04  0.18406888436E+04  0.46999998093E+01 0.  1.
       -5    1    3    3    0  502  0.10145887948E+03 -0.12065833280E+04  0.17113364684E+03  0.12228843145E+04  0.46999998093E+01 0. -1.
</event>
<event>
 5   0  0.3188375E-06  0.2891900E+04  0.7818609E-02  0.8275292E-01
       -4   -1    0    0    0  501  0.00000000000E+00  0.00000000000E+00  0.17062317032E+04  0.17062321758E+04  0.12699999809E+01 0. -1.
        4   -1    0    0  501    0  0.00000000000E+00  0.00000000000E+00 -0.12253724413E+04  0.12253730994E+04  0.12699999809E+01 0.  1.
    10030    2    1    2    0    0  0.00000000000E+00  0.00000000000E+00  0.48085926189E+03  0.29316052753E+04  0.28918996975E+04 0.  0.
        4    1    3    3  502    0 -0.32822419326E+03  0.76583239890E+03 -0.95754824565E+03  0.12693032104E+04  0.12699999809E+01 0.  1.
       -4    1    3    3    0  502  0.32822419326E+03 -0.76583239890E+03  0.14384075075E+04  0.16623020649E+04  0.12699999809E+01 0. -1.
</event>
<event>
 5   0  0.9646321E-06  0.2794379E+04  0.7818609E-02  0.8305016E-01
        2   -1    0    0  501    0  0.00000000000E+00  0.00000000000E+00  0.24507406034E+04  0.24507406034E+04  0.25500000920E-02 0. -1.
       -2   -1    0    0    0  501  0.00000000000E+00  0.00000000000E+00 -0.79655042230E+03  0.79655042231E+03  0.25500000920E-02 0.  1.
    10030    2    1    2    0    0  0.00000000000E+00  0.00000000000E+00  0.16541901811E+04  0.32472910257E+04  0.27943789740E+04 0.  0.
        3    1    3    3  502    0  0.87342083978E+03 -0.10884198404E+04  0.90605445091E+03  0.16638679006E+04  0.10100000352E+00 0. -1.
       -3    1    3    3    0  502 -0.87342083978E+03  0.10884198404E+04  0.74813573018E+03  0.15834231251E+04  0.10100000352E+00 0.  1.
</event>
<event>
 5   0  0.9505359E-06  0.2861497E+04  0.7818609E-02  0.8284426E-01
       -2   -1    0    0    0  501  0.00000000000E+00  0.00000000000E+00  0.87023524746E+03  0.87023524747E+03  0.25500000920E-02 0. -1.
        2   -1    0    0  501    0  0.00000000000E+00  0.00000000000E+00 -0.23522841309E+04  0.23522841309E+04  0.25500000920E-02 0.  1.
    10030    2    1    2    0    0  0.00000000000E+00  0.00000000000E+00 -0.14820488835E+04  0.32225193784E+04  0.28614965055E+04 0.  0.
        4    1    3    3  502    0  0.39448403291E+03  0.40961286635E+03  0.73748949659E+03  0.93128552173E+03  0.12699999809E+01 0. -1.
       -4    1    3    3    0  502 -0.39448403291E+03 -0.40961286635E+03 -0.22195383800E+04  0.22912338567E+04  0.12699999809E+01 0.  1.
</event>
<event>
 5   0  0.3188375E-06  0.2116985E+04  0.7818609E-02  0.8553798E-01
        3   -1    0    0  501    0  0.00000000000E+00  0.00000000000E+00  0.15021682691E+04  0.15021682725E+04  0.10100000352E+00 0.  1.
       -3   -1    0    0    0  501  0.00000000000E+00  0.00000000000E+00 -0.74585944996E+03  0.74585945679E+03  0.10100000352E+00 0. -1.
    10030    2    1    2    0    0  0.00000000000E+00  0.00000000000E+00  0.75630881919E+03  0.22480277293E+04  0.21169850358E+04 0.  0.
        2    1    3    3  502    0  0.99955375956E+03 -0.27997426354E+03  0.59813220239E+03  0.11980214681E+04  0.25500000920E-02 0.  1.
       -2    1    3    3    0  502 -0.99955375956E+03  0.27997426354E+03  0.15817661680E+03  0.10500062612E+04  0.25500000920E-02 0. -1.
</event>
<event>
 5   0  0.9646321E-06  0.2886707E+04  0.7818609E-02  0.8276844E-01
       -2   -1    0    0    0  501  0.00000000000E+00  0.00000000000E+00  0.82258244089E+03  0.82258244089E+03  0.25500000920E-02 0.  1.
        2   -1    0    0  501    0  0.00000000000E+00  0.00000000000E+00 -0.25325961828E+04  0.25325961828E+04  0.25500000920E-02 0. -1.
    10030    2    1    2    0    0  0.00000000000E+00  0.00000000000E+00 -0.17100137419E+04  0.33551786237E+04  0.28867068780E+04 0.  0.
        3    1    3    3  502    0 -0.40326912808E+03  0.12089985657E+04 -0.16424206960E+04  0.20789057878E+04  0.10100000352E+00 0. -1.
       -3    1    3    3    0  502  0.40326912808E+03 -0.12089985657E+04 -0.67593045883E+02  0.12762728359E+04  0.10100000352E+00 0.  1.
</event>
<event>
 5   0  0.9505359E-06  0.2936586E+04  0.7818609E-02  0.8262075E-01
        2   -1    0    0  501    0  0.00000000000E+00  0.00000000000E+00  0.11435667524E+04  0.11435667524E+04  0.25500000920E-02 0. -1.
       -2   -1    0    0    0  501  0.00000000000E+00  0.00000000000E+00 -0.18852279534E+04  0.18852279534E+04  0.25500000920E-02 0.  1.
    10030    2    1    2    0    0  0.00000000000E+00  0.00000000000E+00 -0.74166120093E+03  0.30287947058E+04  0.29365857782E+04 0.  0.
        4    1    3    3  502    0 -0.80814998854E+03 -0.58773802540E+03 -0.14804080683E+04  0.17860996759E+04  0.12699999809E+01 0.  1.
       -4    1    3    3    0  502  0.80814998854E+03  0.58773802540E+03  0.73874686738E+03  0.12426950299E+04  0.12699999809E+01 0. -1.
</event>
<event>
 5   0  0.1001573E-05  0.2908189E+04  0.7818609E-02  0.8270445E-01
       -2   -1    0    0    0  501  0.00000000000E+00  0.00000000000E+00  0.20310286582E+04  0.20310286582E+04  0.25500000920E-02 0. -1.
        2   -1    0    0  501    0  0.00000000000E+00  0.00000000000E+00 -0.10410443388E+04  0.10410443388E+04  0.25500000920E-02 0.  1.
    10030    2    1    2    0    0  0.00000000000E+00  0.00000000000E+00  0.98998431945E+03  0.30720729970E+04  0.29081890492E+04 0.  0.
        1    1    3    3  502    0  0.84122243178E+03 -0.29495729531E+03 -0.71854313412E+03  0.11449712754E+04  0.50400001928E-02 0.  1.
       -1    1    3    3    0  502 -0.84122243178E+03  0.29495729531E+03  0.17085274536E+04  0.19271017216E+04  0.50400001928E-02 0. -1.
</event>
<event>
 5   0  0.3746518E-06  0.2898288E+04  0.7818609E-02  0.8273387E-01
       -1   -1    0    0    0  501  0.00000000000E+00  0.00000000000E+00  0.14141656772E+04  0.14141656772E+04  0.50400001928E-02 0. -1.
        1   -1    0    0  501    0  0.00000000000E+00  0.00000000000E+00 -0.14849874340E+04  0.14849874340E+04  0.50400001928E-02 0.  1.
    10030    2    1    2    0    0  0.00000000000E+00  0.00000000000E+00 -0.70821756801E+02  0.28991531112E+04  0.28982879499E+04 0.  0.
        4    1    3    3  502    0 -0.10885360248E+03 -0.32138349125E+03 -0.14446891947E+04  0.14840030113E+04  0.12699999809E+01 0.  1.
       -4    1    3    3    0  502  0.10885360248E+03  0.32138349125E+03  0.13738674379E+04  0.14151500999E+04  0.12699999809E+01 0. -1.
</event>
<event>
 5   0  0.9646321E-06  0.2895758E+04  0.7818609E-02  0.8274141E-01
        2   -1    0    0  501    0  0.00000000000E+00  0.00000000000E+00  0.21260236993E+04  0.21260236993E+04  0.25500000920E-02 0.  1.
       -2   -1    0    0    0  501  0.00000000000E+00  0.00000000000E+00 -0.98604414263E+03  0.98604414263E+03  0.25500000920E-02 0. -1.
    10030    2    1    2    0    0  0.00000000000E+00  0.00000000000E+00  0.11399795567E+04  0.31120678419E+04  0.28957577356E+04 0.  0.
        3    1    3    3  502    0 -0.59513647991E+03  0.16944951108E+03 -0.83677952481E+03  0.10407211682E+04  0.10100000352E+00 0. -1.
       -3    1    3    3    0  502  0.59513647991E+03 -0.16944951108E+03  0.19767590815E+04  0.20713466738E+04  0.10100000352E+00 0.  1.
</event>
<event>
 5   0  0.9360689E-06  0.2212775E+04  0.7818609E-02  0.8513129E-01
        2   -1    0    0  501    0  0.00000000000E+00  0.00000000000E+00  0.11350654206E+04  0.11350654206E+04  0.25500000920E-02 0.  1.
       -2   -1    0    0    0  501  0.00000000000E+00  0.00000000000E+00 -0.10784344839E+04  0.10784344839E+04  0.25500000920E-02 0. -1.
    10030    2    1    2    0    0  0.00000000000E+00  0.00000000000E+00  0.56630936653E+02  0.22134999045E+04  0.22127753533E+04 0.  0.
        5    1    3    3  502    0 -0.34451741907E+03  0.49112856124E+03 -0.90159748837E+03  0.10829587419E+04  0.46999998093E+01 0. -1.
       -5    1    3    3    0  502  0.34451741907E+03 -0.49112856124E+03  0.95822842502E+03  0.11305411626E+04  0.46999998093E+01 0.  1.
</event>
<event>
 5   0  0.3474078E-06  0.2849758E+04  0.7818609E-02  0.8287985E-01
        1   -1    0    0  501    0  0.00000000000E+00  0.00000000000E+00  0.14909069191E+04  0.14909069191E+04  0.50400001928E-02 0. -1.
       -1   -1    0    0    0  501  0.00000000000E+00  0.00000000000E+00 -0.13617748444E+04  0.13617748444E+04  0.50400001928E-02 0.  1.
    10030    2    1    2    0    0  0.00000000000E+00  0.00000000000E+00  0.12913207465E+03  0.28526817635E+04  0.28497575601E+04 0.  0.
        3    1    3    3  502    0 -0.10412758754E+04  0.41686400332E+03  0.94424446697E+03  0.14661612018E+04  0.10100000352E+00 0. -1.
       -3    1    3    3    0  502  0.10412758754E+04 -0.41686400332E+03 -0.81511239233E+03  0.13865205618E+04  0.10100000352E+00 0.  1.
</event>
<event>
 5   0  0.3746518E-06  0.2880484E+04  0.7818609E-02  0.8278708E-01
       -1   -1    0    0    0  501  0.00000000000E+00  0.00000000000E+00  0.15587439561E+04  0.15587439561E+04  0.50400001928E-02 0.  1.
        1   -1    0    0  501    0  0.00000000000E+00  0.00000000000E+00 -0.13307489947E+04  0.13307489947E+04  0.50400001928E-02 0. -1.
    10030    2    1    2    0    0  0.00000000000E+00  0.00000000000E+00  0.22799496146E+03  0.28894929508E+04  0.28804839542E+04 0.  0.
        4    1    3    3  502    0  0.57368392175E+03 -0.89610555474E+03 -0.85969633689E+03  0.13679173264E+04  0.12699999809E+01 0. -1.
       -4    1    3    3    0  502 -0.57368392175E+03  0.89610555474E+03  0.10876912983E+04  0.15215756244E+04  0.12699999809E+01 0.  1.
</event>
<event>
 5   0  0.9505359E-06  0.2779399E+04  0.7818609E-02  0.8309693E-01
        2   -1    0    0  501    0  0.00000000000E+00  0.00000000000E+00  0.16077245483E+04  0.16077245483E+04  0.25500000920E-02 0. -1.
       -2   -1    0    0    0  501  0.00000000000E+00  0.00000000000E+00 -0.12012406223E+04  0.12012406223E+04  0.25500000920E-02 0.  1.
    10030    2    1    2    0    0  0.00000000000E+00  0.00000000000E+00  0.40648392601E+03  0.28089651705E+04  0.27793985225E+04 0.  0.
        4    1    3    3  502    0 -0.57057489481E+03  0.24120231277E+03 -0.10539882577E+04  0.12225494373E+04  0.12699999809E+01 0.  1.
       -4    1    3    3    0  502  0.57057489481E+03 -0.24120231277E+03  0.14604721837E+04  0.15864157332E+04  0.12699999809E+01 0. -1.
</event>
<event>
 5   0  0.3474078E-06  0.2950644E+04  0.7818609E-02  0.8257967E-01
        1   -1    0    0  501    0  0.00000000000E+00  0.00000000000E+00  0.86174658029E+03  0.86174658030E+03  0.50400001928E-02 0.  1.
       -1   -1    0    0    0  501  0.00000000000E+00  0.00000000000E+00 -0.25257715634E+04  0.25257715635E+04  0.50400001928E-02 0. -1.
    10030    2    1    2    0    0  0.00000000000E+00  0.00000000000E+00 -0.16640249832E+04  0.33875181438E+04  0.29506440025E+04 0.  0.
        3    1    3    3  502    0 -0.10133564969E+04 -0.38221998609E+03 -0.19821328744E+04  0.22587240313E+04  0.10100000352E+00 0. -1.
       -3    1    3    3    0  502  0.10133564969E+04  0.38221998609E+03  0.31810789124E+03  0.11287941124E+04  0.10100000352E+00 0.  1.
</event>
<event>
 5   0  0.9360689E-06  0.2880257E+04  0.7818609E-02  0.8278776E-01
        2   -1    0    0  501    0  0.00000000000E+00  0.00000000000E+00  0.16135838257E+04  0.16135838257E+04  0.25500000920E-02 0. -1.
       -2   -1    0    0    0  501  0.00000000000E+00  0.00000000000E+00 -0.12853189470E+04  0.12853189470E+04  0.25500000920E-02 0.  1.
    10030    2    1    2    0    0  0.00000000000E+00  0.00000000000E+00  0.32826487869E+03  0.28989027728E+04  0.28802568385E+04 0.  0.
        5    1    3    3  502    0  0.64452075484E+03  0.62514109913E+03 -0.96909589101E+03  0.13211272964E+04  0.46999998093E+01 0.  1.
       -5    1    3    3    0  502 -0.64452075484E+03 -0.62514109913E+03  0.12973607697E+04  0.15777754764E+04  0.46999998093E+01 0. -1.
</event>
<event>
 5   0  0.9251510E-06  0.2915798E+04  0.7818609E-02  0.8268192E-01
        2   -1    0    0  501    0  0.00000000000E+00  0.00000000000E+00  0.10461267486E+04  0.10461267486E+04  0.25500000920E-02 0. -1.
       -2   -1    0    0    0  501  0.00000000000E+00  0.00000000000E+00 -0.20317520773E+04  0.20317520773E+04  0.25500000920E-02 0.  1.
    10030    2    1    2    0    0  0.00000000000E+00  0.00000000000E+00 -0.98562532868E+03  0.30778788259E+04  0.29157984804E+04 0.  0.
        2    1    3    3  502    0 -0.56565309240E+03 -0.89246773662E+03 -0.15531433787E+04  0.18784878058E+04  0.25500000920E-02 0.  1.
       -2    1    3    3    0  502  0.56565309240E+03  0.89246773662E+03  0.56751805002E+03  0.11993910200E+04  0.25500000920E-02 0. -1.
</event>
<event>
 5   0  0.9360689E-06  0.2876776E+04  0.7818609E-02  0.8279821E-01
       -2   -1    0    0    0  501  0.00000000000E+00  0.00000000000E+00  0.15520578816E+04  0.15520578816E+04  0.25500000920E-02 0.  1.
        2   -1    0    0  501    0  0.00000000000E+00  0.00000000000E+00 -0.13330433749E+04  0.13330433749E+04  0.25500000920E-02 0. -1.
    10030    2    1    2    0    0  0.00000000000E+00  0.00000000000E+00  0.21901450676E+03  0.28851012565E+04  0.28767763045E+04 0.  0.
        5    1    3    3  502    0 -0.13832839676E+04 -0.26165879704E+03  0.40531593284E+03  0.14650061285E+04  0.46999998093E+01 0. -1.
       -5    1    3    3    0  502  0.13832839676E+04  0.26165879704E+03 -0.18630142608E+03  0.14200951280E+04  0.46999998093E+01 0.  1.
</event>
<event>
 5   0  0.3486236E-06  0.2897755E+04  0.7818609E-02  0.8273546E-01
        1   -1    0    0  501    0  0.00000000000E+00  0.00000000000E+00  0.12949140853E+04  0.12949140853E+04  0.50400001928E-02 0. -1.
       -1   -1    0    0    0  501  0.00000000000E+00  0.00000000000E+00 -0.16211474697E+04  0.16211474697E+04  0.50400001928E-02 0.  1.
    10030    2    1    2    0    0  0.00000000000E+00  0.00000000000E+00 -0.32623338443E+03  0.29160615550E+04  0.28977554713E+04 0.  0.
        5    1    3    3  502    0  0.30123763177E+03 -0.12038659540E+04  0.58939557777E+03  0.13738437259E+04  0.46999998093E+01 0. -1.
       -5    1    3    3    0  502 -0.30123763177E+03  0.12038659540E+04 -0.91562896220E+03  0.15422178291E+04  0.46999998093E+01 0.  1.
</event>
<event>
 5   0  0.3746518E-06  0.2904123E+04  0.7818609E-02  0.8271652E-01
       -1   -1    0    0    0  501  0.00000000000E+00  0.00000000000E+00  0.98064494417E+03  0.98064494419E+03  0.50400001928E-02 0.  1.
        1   -1    0    0  501    0  0.00000000000E+00  0.00000000000E+00 -0.21500974938E+04  0.21500974938E+04  0.50400001928E-02 0. -1.
    10030    2    1    2    0    0  0.00000000000E+00  0.00000000000E+00 -0.11694525496E+04  0.31307424380E+04  0.29041227500E+04 0.  0.
        4    1    3    3  502    0 -0.14909145123E+03  0.51832780261E+03  0.86865704838E+03  0.10224767246E+04  0.12699999809E+01 0.  1.
       -4    1    3    3    0  502  0.14909145123E+03 -0.51832780261E+03 -0.20381095980E+04  0.21082657133E+04  0.12699999809E+01 0. -1.
</event>
<event>
 5   0  0.9646321E-06  0.2943966E+04  0.7818609E-02  0.8259915E-01
        2   -1    0    0  501    0  0.00000000000E+00  0.00000000000E+00  0.19134853008E+04  0.19134853008E+04  0.25500000920E-02 0.  1.
       -2   -1    0    0    0  501  0.00000000000E+00  0.00000000000E+00 -0.11323496375E+04  0.11323496375E+04  0.25500000920E-02 0. -1.
    10030    2    1    2    0    0  0.00000000000E+00  0.00000000000E+00  0.78113566330E+03  0.30458349384E+04  0.29439662952E+04 0.  0.
        3    1    3    3  502    0  0.51956435721E+03 -0.90793472257E+03  0.14619894277E+04  0.17976945454E+04  0.10100000352E+00 0. -1.
       -3    1    3    3    0  502 -0.51956435721E+03  0.90793472257E+03 -0.68085376442E+03  0.12481403929E+04  0.10100000352E+00 0.  1.
</event>
<event>
 5   0  0.3649705E-06  0.2887856E+04  0.7818609E-02  0.8276500E-01
        1   -1    0    0  501    0  0.00000000000E+00  0.00000000000E+00  0.18257219830E+04  0.18257219830E+04  0.50400001928E-02 0.  1.
       -1   -1    0    0    0  501  0.00000000000E+00  0.00000000000E+00 -0.11419744134E+04  0.11419744134E+04  0.50400001928E-02 0. -1.
    10030    2    1    2    0    0  0.00000000000E+00  0.00000000000E+00  0.68374756960E+03  0.29676963965E+04  0.28878558071E+04 0.  0.
        2    1    3    3  502    0 -0.10152461446E+04  0.57164359850E+02 -0.71161993977E+03  0.12411266804E+04  0.25500000920E-02 0. -1.
       -2    1    3    3    0  502  0.10152461446E+04 -0.57164359850E+02  0.13953675094E+04  0.17265697160E+04  0.25500000920E-02 0.  1.
</event>
<event>
 5   0  0.9505359E-06  0.2808954E+04  0.7818609E-02  0.8300494E-01
       -2   -1    0    0    0  501  0.00000000000E+00  0.00000000000E+00  0.12471787694E+04  0.12471787694E+04  0.25500000920E-02 0.  1.
        2   -1    0    0  501    0  0.00000000000E+00  0.00000000000E+00 -0.15816140678E+04  0.15816140678E+04  0.25500000920E-02 0. -1.
    10030    2    1    2    0    0  0.00000000000E+00  0.00000000000E+00 -0.33443529846E+03  0.28287928372E+04  0.28089538884E+04 0.  0.
        4    1    3    3  502    0  0.11030109594E+03 -0.41166700884E+02 -0.15766352874E+04  0.15810254493E+04  0.12699999809E+01 0. -1.
       -4    1    3    3    0  502 -0.11030109594E+03  0.41166700884E+02  0.12421999889E+04  0.12477673879E+04  0.12699999809E+01 0.  1.
</event>
<event>
 5   0  0.3746518E-06  0.2888321E+04  0.7818609E-02  0.8276361E-01
       -1   -1    0    0    0  501  0.00000000000E+00  0.00000000000E+00  0.15245287982E+04  0.15245287982E+04  0.50400001928E-02 0.  1.
        1   -1    0    0  501    0  0.00000000000E+00  0.00000000000E+00 -0.13680288397E+04  0.13680288397E+04  0.50400001928E-02 0. -1.
    10030    2    1    2    0    0  0.00000000000E+00  0.00000000000E+00  0.15649995848E+03  0.28925576380E+04  0.28883208707E+04 0.  0.
        4    1    3    3  502    0  0.92573651122E+03  0.11055673770E+04  0.15793073024E+03  0.14505898944E+04  0.12699999809E+01 0.  1.
       -4    1    3    3    0  502 -0.92573651122E+03 -0.11055673770E+04 -0.14307717575E+01  0.14419677435E+04  0.12699999809E+01 0. -1.
</event>
<event>
 5   0  0.3564340E-06  0.2826526E+04  0.7818609E-02  0.8295080E-01
        1   -1    0    0  501    0  0.00000000000E+00  0.00000000000E+00  0.12930733709E+04  0.12930733709E+04  0.50400001928E-02 0. -1.
       -1   -1    0    0    0  501  0.00000000000E+00  0.00000000000E+00 -0.15446241457E+04  0.15446241457E+04  0.50400001928E-02 0.  1.
    10030    2    1    2    0    0  0.00000000000E+00  0.00000000000E+00 -0.25155077476E+03  0.28376975166E+04  0.28265260309E+04 0.  0.
        1    1    3    3  502    0  0.11053839111E+04  0.59762134497E+03 -0.77508307920E+03  0.14764073430E+04  0.50400001928E-02 0.  1.
       -1    1    3    3    0  502 -0.11053839111E+04 -0.59762134497E+03  0.52353230444E+03  0.13612901736E+04  0.50400001928E-02 0. -1.
</event>
<event>
 5   0  0.3486236E-06  0.2886206E+04  0.7818609E-02  0.8276993E-01
       -1   -1    0    0    0  501  0.00000000000E+00  0.00000000000E+00  0.14587061479E+04  0.14587061479E+04  0.50400001928E-02 0.  1.
        1   -1    0    0  501    0  0.00000000000E+00  0.00000000000E+00 -0.14276668201E+04  0.14276668201E+04  0.50400001928E-02 0. -1.
    10030    2    1    2    0    0  0.00000000000E+00  0.00000000000E+00  0.31039327813E+02  0.28863729680E+04  0.28862060686E+04 0.  0.
        5    1    3    3  502    0 -0.16442689822E+03 -0.13947339584E+04 -0.31647130588E+03  0.14396163367E+04  0.46999998093E+01 0. -1.
       -5    1    3    3    0  502  0.16442689822E+03  0.13947339584E+04  0.34751063369E+03  0.14467566312E+04  0.46999998093E+01 0.  1.
</event>
<event>
 5   0  0.3474078E-06  0.2891564E+04  0.7818609E-02  0.8275392E-01
       -1   -1    0    0    0  501  0.00000000000E+00  0.00000000000E+00  0.96316180016E+03  0.96316180017E+03  0.50400001928E-02 0.  1.
        1   -1    0    0  501    0  0.00000000000E+00  0.00000000000E+00 -0.21702323490E+04  0.21702323490E+04  0.50400001928E-02 0. -1.
    10030    2    1    2    0    0  0.00000000000E+00  0.00000000000E+00 -0.12070705488E+04  0.31333941492E+04  0.28915635190E+04 0.  0.
        3    1    3    3  502    0  0.10589408036E+04 -0.29928522320E+03  0.41263165229E+03  0.11752413204E+04  0.10100000352E+00 0.  1.
       -3    1    3    3    0  502 -0.10589408036E+04  0.29928522320E+03 -0.16197022011E+04  0.19581528288E+04  0.10100000352E+00 0. -1.
</event>
<event>
 5   0  0.9251510E-06  0.2903367E+04  0.7818609E-02  0.8271877E-01
        2   -1    0    0  501    0  0.00000000000E+00  0.00000000000E+00  0.15578313854E+04  0.15578313854E+04  0.25500000920E-02 0. -1.
       -2   -1    0    0    0  501  0.00000000000E+00  0.00000000000E+00 -0.13527679082E+04  0.13527679082E+04  0.25500000920E-02 0.  1.
    10030    2    1    2    0    0  0.00000000000E+00  0.00000000000E+00  0.20506347721E+03  0.29105992937E+04  0.29033665319E+04 0.  0.
        2    1    3    3  502    0 -0.97063589104E+03  0.85335828365E+03  0.76526098183E+03  0.15019915990E+04  0.25500000920E-02 0. -1.
       -2    1    3    3    0  502  0.97063589104E+03 -0.85335828365E+03 -0.56019750462E+03  0.14086076947E+04  0.25500000920E-02 0.  1.
</event>
<event>
 5   0  0.3746518E-06  0.2630070E+04  0.7818609E-02  0.8358058E-01
       -1   -1    0    0    0  501  0.00000000000E+00  0.00000000000E+00  0.16266559714E+04  0.16266559714E+04  0.50400001928E-02 0. -1.
        1   -1    0    0  501    0  0.00000000000E+00  0.00000000000E+00 -0.10631117859E+04  0.10631117859E+04  0.50400001928E-02 0.  1.
    10030    2    1    2    0    0  0.00000000000E+00  0.00000000000E+00  0.56354418556E+03  0.26897677573E+04  0.26300700636E+04 0.  0.
        4    1    3    3  502    0  0.11616504354E+04  0.55720251704E+03  0.55120820646E+03  0.14013345350E+04  0.12699999809E+01 0.  1.
       -4    1    3    3    0  502 -0.11616504354E+04 -0.55720251704E+03  0.12335979104E+02  0.12884332223E+04  0.12699999809E+01 0. -1.
</event>
<event>
 5   0  0.9646321E-06  0.2875511E+04  0.7818609E-02  0.8280201E-01
       -2   -1    0    0    0  501  0.00000000000E+00  0.00000000000E+00  0.27923608738E+04  0.27923608738E+04  0.25500000920E-02 0.  1.
        2   -1    0    0  501    0  0.00000000000E+00  0.00000000000E+00 -0.74028433261E+03  0.74028433261E+03  0.25500000920E-02 0. -1.
    10030    2    1    2    0    0  0.00000000000E+00  0.00000000000E+00  0.20520765412E+04  0.35326452064E+04  0.28755110891E+04 0.  0.
        3    1    3    3  502    0 -0.12295211201E+04 -0.74895110224E+02  0.11509546874E+03  0.12371654859E+04  0.10100000352E+00 0. -1.
       -3    1    3    3    0  502  0.12295211201E+04  0.74895110224E+02  0.19369810724E+04  0.22954797205E+04  0.10100000352E+00 0.  1.
</event>
<event>
 5   0  0.9505359E-06  0.2899966E+04  0.7818609E-02  0.8272888E-01
        2   -1    0    0  501    0  0.00000000000E+00  0.00000000000E+00  0.15459290967E+04  0.15459290967E+04  0.25500000920E-02 0.  1.
       -2   -1    0    0    0  501  0.00000000000E+00  0.00000000000E+00 -0.13599913012E+04  0.13599913012E+04  0.25500000920E-02 0. -1.
    10030    2    1    2    0    0  0.00000000000E+00  0.00000000000E+00  0.18593779552E+03  0.29059203978E+04  0.28999656023E+04 0.  0.
        4    1    3    3  502    0  0.89112062949E+03 -0.98983461951E+03  0.66736489316E+03  0.14897134167E+04  0.12699999809E+01 0.  1.
       -4    1    3    3    0  502 -0.89112062949E+03  0.98983461951E+03 -0.48142709765E+03  0.14162069812E+04  0.12699999809E+01 0. -1.
</event>
<event>
 5   0  0.3564340E-06  0.2930518E+04  0.7818609E-02  0.8263855E-01
       -1   -1    0    0    0  501  0.00000000000E+00  0.00000000000E+00  0.10957187705E+04  0.10957187705E+04  0.50400001928E-02 0. -1.
        1   -1    0    0  501    0  0.00000000000E+00  0.00000000000E+00 -0.19594291918E+04  0.19594291918E+04  0.50400001928E-02 0.  1.
    10030    2    1    2    0    0  0.00000000000E+00  0.00000000000E+00 -0.86371042132E+03  0.30551479623E+04  0.29305175959E+04 0.  0.
        1    1    3    3  502    0  0.41441808021E+03 -0.17641125239E+03 -0.18854704140E+04  0.19385205589E+04  0.50400001928E-02 0.  1.
       -1    1    3    3    0  502 -0.41441808021E+03  0.17641125239E+03  0.10217599927E+04  0.11166274034E+04  0.50400001928E-02 0. -1.
</event>
<event>
 5   0  0.9360689E-06  0.2620325E+04  0.7818609E-02  0.8361330E-01
       -2   -1    0    0    0  501  0.00000000000E+00  0.00000000000E+00  0.12165389419E+04  0.12165389419E+04  0.25500000920E-02 0. -1.
        2   -1    0    0  501    0  0.00000000000E+00  0.00000000000E+00 -0.14109910797E+04  0.14109910797E+04  0.25500000920E-02 0.  1.
    10030    2    1    2    0    0  0.00000000000E+00  0.00000000000E+00 -0.19445213775E+03  0.26275300216E+04  0.26203248616E+04 0.  0.
        5    1    3    3  502    0 -0.75804650783E+03 -0.56455719405E+03  0.81254160897E+03  0.12464370380E+04  0.46999998093E+01 0. -1.
       -5    1    3    3    0  502  0.75804650783E+03  0.56455719405E+03 -0.10069937467E+04  0.13810929836E+04  0.46999998093E+01 0.  1.
</event>
<event>
 5   0  0.1001573E-05  0.2898141E+04  0.7818609E-02  0.8273431E-01
        2   -1    0    0  501    0  0.00000000000E+00  0.00000000000E+00  0.14586601470E+04  0.14586601470E+04  0.25500000920E-02 0.  1.
       -2   -1    0    0    0  501  0.00000000000E+00  0.00000000000E+00 -0.14395442302E+04  0.14395442302E+04  0.25500000920E-02 0. -1.
    10030    2    1    2    0    0  0.00000000000E+00  0.00000000000E+00  0.19115916863E+02  0.28982043772E+04  0.28981413344E+04 0.  0.
        1    1    3    3  502    0  0.51042411038E+03 -0.40076083021E+03 -0.12861028055E+04  0.14405562960E+04  0.50400001928E-02 0. -1.
       -1    1    3    3    0  502 -0.51042411038E+03  0.40076083021E+03  0.13052187224E+04  0.14576480813E+04  0.50400001928E-02 0.  1.
</event>
<event>
 5   0  0.9646321E-06  0.2963424E+04  0.7818609E-02  0.8254253E-01
        2   -1    0    0  501    0  0.00000000000E+00  0.00000000000E+00  0.28134735621E+04  0.28134735621E+04  0.25500000920E-02 0.  1.
       -2   -1    0    0    0  501  0.00000000000E+00  0.00000000000E+00 -0.78034155681E+03  0.78034155681E+03  0.25500000920E-02 0. -1.
    10030    2    1    2    0    0  0.00000000000E+00  0.00000000000E+00  0.20331320053E+04  0.35938151189E+04  0.29634239248E+04 0.  0.
        3    1    3    3  502    0 -0.10991905212E+04  0.10946805283E+02 -0.18832920461E+03  0.11152611954E+04  0.10100000352E+00 0. -1.
       -3    1    3    3    0  502  0.10991905212E+04 -0.10946805283E+02  0.22214612099E+04  0.24785539235E+04  0.10100000352E+00 0.  1.
</event>
<event>
 5   0  0.3564340E-06  0.2945251E+04  0.7818609E-02  0.8259540E-01
        1   -1    0    0  501    0  0.00000000000E+00  0.00000000000E+00  0.18267964152E+04  0.18267964152E+04  0.50400001928E-02 0. -1.
       -1   -1    0    0    0  501  0.00000000000E+00  0.00000000000E+00 -0.11871192689E+04  0.11871192689E+04  0.50400001928E-02 0.  1.
    10030    2    1    2    0    0  0.00000000000E+00  0.00000000000E+00  0.63967714626E+03  0.30139156841E+04  0.29452505665E+04 0.  0.
        1    1    3    3  502    0 -0.95327504491E+03  0.19827849540E+03  0.14503931683E+04  0.17469081303E+04  0.50400001928E-02 0. -1.
       -1    1    3    3    0  502  0.95327504491E+03 -0.19827849540E+03 -0.81071602205E+03  0.12670075538E+04  0.50400001928E-02 0.  1.
</event>
<event>
 5   0  0.3649705E-06  0.2939856E+04  0.7818609E-02  0.8261117E-01
        1   -1    0    0  501    0  0.00000000000E+00  0.00000000000E+00  0.11412160135E+04  0.11412160135E+04  0.50400001928E-02 0.  1.
       -1   -1    0    0    0  501  0.00000000000E+00  0.00000000000E+00 -0.18933205957E+04  0.18933205958E+04  0.50400001928E-02 0. -1.
    10030    2    1    2    0    0  0.00000000000E+00  0.00000000000E+00 -0.75210458225E+03  0.30345366093E+04  0.29398556309E+04 0.  0.
        2    1    3    3  502    0 -0.42458491282E+03 -0.13286934587E+04  0.10254983729E+03  0.13986476056E+04  0.25500000920E-02 0.  1.
       -2    1    3    3    0  502  0.42458491282E+03  0.13286934587E+04 -0.85465441954E+03  0.16358890037E+04  0.25500000920E-02 0. -1.
</event>
<event>
 5   0  0.1001573E-05  0.2937972E+04  0.7818609E-02  0.8261669E-01
       -2   -1    0    0    0  501  0.00000000000E+00  0.00000000000E+00  0.13327467941E+04  0.13327467941E+04  0.25500000920E-02 0.  1.
        2   -1    0    0  501    0  0.00000000000E+00  0.00000000000E+00 -0.16191522134E+04  0.16191522134E+04  0.25500000920E-02 0. -1.
    10030    2    1    2    0    0  0.00000000000E+00  0.00000000000E+00 -0.28640541926E+03  0.29518990075E+04  0.29379720363E+04 0.  0.
        1    1    3    3  502    0 -0.13180848738E+03  0.12992516774E+04 -0.81906631523E+03  0.15415245789E+04  0.50400001928E-02 0.  1.
       -1    1    3    3    0  502  0.13180848738E+03 -0.12992516774E+04  0.53266089598E+03  0.14103744286E+04  0.50400001928E-02 0. -1.
</event>
<event>
 5   0  0.9646321E-06  0.2856723E+04  0.7818609E-02  0.8285871E-01
        2   -1    0    0  501    0  0.00000000000E+00  0.00000000000E+00  0.17789653730E+04  0.17789653730E+04  0.25500000920E-02 0. -1.
       -2   -1    0    0    0  501  0.00000000000E+00  0.00000000000E+00 -0.11468553155E+04  0.11468553155E+04  0.25500000920E-02 0.  1.
    10030    2    1    2    0    0  0.00000000000E+00  0.00000000000E+00  0.63211005752E+03  0.29258206886E+04  0.28567225236E+04 0.  0.
        3    1    3    3  502    0 -0.10711727245E+03  0.45249636186E+03  0.16992733514E+04  0.17617482795E+04  0.10100000352E+00 0. -1.
       -3    1    3    3    0  502  0.10711727245E+03 -0.45249636186E+03 -0.10671632938E+04  0.11640724090E+04  0.10100000352E+00 0.  1.
</event>
<event>
 5   0  0.3486236E-06  0.2923974E+04  0.7818609E-02  0.8265780E-01
        1   -1    0    0  501    0  0.00000000000E+00  0.00000000000E+00  0.86992900799E+03  0.86992900801E+03  0.50400001928E-02 0. -1.
       -1   -1    0    0    0  501  0.00000000000E+00  0.00000000000E+00 -0.24569883904E+04  0.24569883904E+04  0.50400001928E-02 0.  1.
    10030    2    1    2    0    0  0.00000000000E+00  0.00000000000E+00 -0.15870593824E+04  0.33269173984E+04  0.29239736477E+04 0.  0.
        5    1    3    3  502    0  0.32686466928E+03  0.13175302151E+04 -0.14111576506E+04  0.19580894731E+04  0.46999998093E+01 0.  1.
       -5    1    3    3    0  502 -0.32686466928E+03 -0.13175302151E+04 -0.17590173177E+03  0.13688279253E+04  0.46999998093E+01 0. -1.
</event>
<event>
 5   0  0.9646321E-06  0.2938738E+04  0.7818609E-02  0.8261444E-01
        2   -1    0    0  501    0  0.00000000000E+00  0.00000000000E+00  0.17994879452E+04  0.17994879452E+04  0.25500000920E-02 0.  1.
       -2   -1    0    0    0  501  0.00000000000E+00  0.00000000000E+00 -0.11998111854E+04  0.11998111854E+04  0.25500000920E-02 0. -1.
    10030    2    1    2    0    0  0.00000000000E+00  0.00000000000E+00  0.59967675976E+03  0.29992991306E+04  0.29387383447E+04 0.  0.
        3    1    3    3  502    0  0.52337892131E+03  0.91005972590E+02 -0.10983712078E+04  0.12200929894E+04  0.10100000352E+00 0. -1.
       -3    1    3    3    0  502 -0.52337892131E+03 -0.91005972590E+02  0.16980479676E+04  0.17792061412E+04  0.10100000352E+00 0.  1.
</event>
<event>
 5   0  0.3746518E-06  0.2950358E+04  0.7818609E-02  0.8258050E-01
        1   -1    0    0  501    0  0.00000000000E+00  0.00000000000E+00  0.19383768514E+04  0.19383768514E+04  0.50400001928E-02 0.  1.
       -1   -1    0    0    0  501  0.00000000000E+00  0.00000000000E+00 -0.11226680247E+04  0.11226680247E+04  0.50400001928E-02 0. -1.
    10030    2    1    2    0    0  0.00000000000E+00  0.00000000000E+00  0.81570882665E+03  0.30610448761E+04  0.29503584263E+04 0.  0.
        4    1    3    3  502    0  0.10323361650E+04  0.22824446834E+03 -0.65949652334E+03  0.12460942067E+04  0.12699999809E+01 0. -1.
       -4    1    3    3    0  502 -0.10323361650E+04 -0.22824446834E+03  0.14752053500E+04  0.18149506694E+04  0.12699999809E+01 0.  1.
</event>
<event>
 5   0  0.3746518E-06  0.2947525E+04  0.7818609E-02  0.8258876E-01
       -1   -1    0    0    0  501  0.00000000000E+00  0.00000000000E+00  0.13875561823E+04  0.13875561823E+04  0.50400001928E-02 0.  1.
        1   -1    0    0  501    0  0.00000000000E+00  0.00000000000E+00 -0.15653243047E+04  0.15653243047E+04  0.50400001928E-02 0. -1.
    10030    2    1    2    0    0  0.00000000000E+00  0.00000000000E+00 -0.17776812239E+03  0.29528804870E+04  0.29475246674E+04 0.  0.
        4    1    3    3  502    0 -0.40596010272E+03  0.83882910463E+03 -0.12326836210E+04  0.15452988041E+04  0.12699999809E+01 0. -1.
       -4    1    3    3    0  502  0.40596010272E+03 -0.83882910463E+03  0.10549154986E+04  0.14075816828E+04  0.12699999809E+01 0.  1.
</event>
<event>
 5   0  0.9646321E-06  0.2887117E+04  0.7818609E-02  0.8276721E-01
       -2   -1    0    0    0  501  0.00000000000E+00  0.00000000000E+00  0.16656086580E+04  0.16656086580E+04  0.25500000920E-02 0. -1.
        2   -1    0    0  501    0  0.00000000000E+00  0.00000000000E+00 -0.12511106963E+04  0.12511106963E+04  0.25500000920E-02 0.  1.
    10030    2    1    2    0    0  0.00000000000E+00  0.00000000000E+00  0.41449796169E+03  0.29167193543E+04  0.28871167679E+04 0.  0.
        3    1    3    3  502    0  0.33533142993E+03  0.13775914784E+04  0.48142687630E+03  0.14973233775E+04  0.10100000352E+00 0. -1.
       -3    1    3    3    0  502 -0.33533142993E+03 -0.13775914784E+04 -0.66928914605E+02  0.14193959768E+04  0.10100000352E+00 0.  1.
</event>
<event>
 5   0  0.3474078E-06  0.2880173E+04  0.7818609E-02  0.8278801E-01
        1   -1    0    0  501    0  0.00000000000E+00  0.00000000000E+00  0.17471145105E+04  0.17471145105E+04  0.50400001928E-02 0. -1.
       -1   -1    0    0    0  501  0.00000000000E+00  0.00000000000E+00 -0.11870136993E+04  0.11870136994E+04  0.50400001928E-02 0.  1.
    10030    2    1    2    0    0  0.00000000000E+00  0.00000000000E+00  0.56010081115E+03  0.29341282098E+04  0.28801728131E+04 0.  0.
        3    1    3    3  502    0  0.13763124772E+04 -0.41968425344E+03  0.21997155372E+03  0.14555955489E+04  0.10100000352E+00 0. -1.
       -3    1    3    3    0  502 -0.13763124772E+04  0.41968425344E+03  0.34012925742E+03  0.14785326609E+04  0.10100000352E+00 0.  1.
</event>
<event>
 5   0  0.3564340E-06  0.2879461E+04  0.7818609E-02  0.8279015E-01
        1   -1    0    0  501    0  0.00000000000E+00  0.00000000000E+00  0.13810572020E+04  0.13810572020E+04  0.50400001928E-02 0.  1.
       -1   -1    0    0    0  501  0.00000000000E+00  0.00000000000E+00 -0.15008967842E+04  0.15008967842E+04  0.50400001928E-02 0. -1.
    10030    2    1    2    0    0  0.00000000000E+00  0.00000000000E+00 -0.11983958225E+03  0.28819539862E+04  0.28794612782E+04 0.  0.
        1    1    3    3  502    0 -0.65120578817E+03  0.29264402141E+03  0.11914084290E+04  0.13889433201E+04  0.50400001928E-02 0.  1.
       -1    1    3    3    0  502  0.65120578817E+03 -0.29264402141E+03 -0.13112480113E+04  0.14930106660E+04  0.50400001928E-02 0. -1.
</event>
<event>
 5   0  0.3746518E-06  0.2937332E+04  0.7818609E-02  0.8261856E-01
        1   -1    0    0  501    0  0.00000000000E+00  0.00000000000E+00  0.23185063234E+04  0.23185063234E+04  0.50400001928E-02 0.  1.
       -1   -1    0    0    0  501  0.00000000000E+00  0.00000000000E+00 -0.93033163902E+03  0.93033163904E+03  0.50400001928E-02 0. -1.
    10030    2    1    2    0    0  0.00000000000E+00  0.00000000000E+00  0.13881746843E+04  0.32488379624E+04  0.29373319785E+04 0.  0.
        4    1    3    3  502    0 -0.68487586766E+03  0.86578308765E+03  0.17654975901E+04  0.20822148454E+04  0.12699999809E+01 0.  1.
       -4    1    3    3    0  502  0.68487586766E+03 -0.86578308765E+03 -0.37732290576E+03  0.11666231170E+04  0.12699999809E+01 0. -1.
</event>
<event>
 5   0  0.9251510E-06  0.2854846E+04  0.7818609E-02  0.8286440E-01
        2   -1    0    0  501    0  0.00000000000E+00  0.00000000000E+00  0.24028913918E+04  0.24028913918E+04  0.25500000920E-02 0. -1.
       -2   -1    0    0    0  501  0.00000000000E+00  0.00000000000E+00 -0.84795221626E+03  0.84795221626E+03  0.25500000920E-02 0.  1.
    10030    2    1    2    0    0  0.00000000000E+00  0.00000000000E+00  0.15549391756E+04  0.32508436081E+04  0.28548464625E+04 0.  0.
        2    1    3    3  502    0 -0.37132617443E+03 -0.11036282352E+04 -0.16267965941E+03  0.11757308710E+04  0.25500000920E-02 0.  1.
       -2    1    3    3    0  502  0.37132617443E+03  0.11036282352E+04  0.17176188350E+04  0.20751127371E+04  0.25500000920E-02 0. -1.
</event>
<event>
 5   0  0.9251510E-06  0.2793457E+04  0.7818609E-02  0.8305303E-01
        2   -1    0    0  501    0  0.00000000000E+00  0.00000000000E+00  0.17267849399E+04  0.17267849399E+04  0.25500000920E-02 0. -1.
       -2   -1    0    0    0  501  0.00000000000E+00  0.00000000000E+00 -0.11297587281E+04  0.11297587281E+04  0.25500000920E-02 0.  1.
    10030    2    1    2    0    0  0.00000000000E+00  0.00000000000E+00  0.59702621174E+03  0.28565436680E+04  0.27934568960E+04 0.  0.
        2    1    3    3  502    0  0.10794930378E+04  0.81361173083E+03 -0.60967035774E+02  0.13531394040E+04  0.25500000920E-02 0.  1.
       -2    1    3    3    0  502 -0.10794930378E+04 -0.81361173083E+03  0.65799324752E+03  0.15034042640E+04  0.25500000920E-02 0. -1.
</event>
<event>
 5   0  0.9251510E-06  0.2848575E+04  0.7818609E-02  0.8288344E-01
       -2   -1    0    0    0  501  0.00000000000E+00  0.00000000000E+00  0.17702963881E+04  0.17702963881E+04  0.25500000920E-02 0.  1.
        2   -1    0    0  501    0  0.00000000000E+00  0.00000000000E+00 -0.11459072175E+04  0.11459072175E+04  0.25500000920E-02 0. -1.
    10030    2    1    2    0    0  0.00000000000E+00  0.00000000000E+00  0.62438917062E+03  0.29162036056E+04  0.28485753690E+04 0.  0.
        2    1    3    3  502    0 -0.14299779402E+03 -0.13251677484E+04  0.82618752112E+03  0.15681529742E+04  0.25500000920E-02 0.  1.
       -2    1    3    3    0  502  0.14299779402E+03  0.13251677484E+04 -0.20179835050E+03  0.13480506314E+04  0.25500000920E-02 0. -1.
</event>
<event>
 5   0  0.3649705E-06  0.2863483E+04  0.7818609E-02  0.8283826E-01
       -1   -1    0    0    0  501  0.00000000000E+00  0.00000000000E+00  0.13917474855E+04  0.13917474855E+04  0.50400001928E-02 0.  1.
        1   -1    0    0  501    0  0.00000000000E+00  0.00000000000E+00 -0.14728845023E+04  0.14728845023E+04  0.50400001928E-02 0. -1.
    10030    2    1    2    0    0  0.00000000000E+00  0.00000000000E+00 -0.81137016806E+02  0.28646319878E+04  0.28634827064E+04 0.  0.
        2    1    3    3  502    0 -0.30055521105E+03 -0.11609792750E+04 -0.82298022341E+03  0.14544767994E+04  0.25500000920E-02 0. -1.
       -2    1    3    3    0  502  0.30055521105E+03  0.11609792750E+04  0.74184320661E+03  0.14101551883E+04  0.25500000920E-02 0.  1.
</event>
<event>
 5   0  0.3746518E-06  0.3226881E+04  0.7818609E-02  0.8181754E-01
       -1   -1    0    0    0  501  0.00000000000E+00  0.00000000000E+00  0.12485808591E+04  0.12485808591E+04  0.50400001928E-02 0.  1.
        1   -1    0    0  501    0  0.00000000000E+00  0.00000000000E+00 -0.20849189326E+04  0.20849189327E+04  0.50400001928E-02 0. -1.
    10030    2    1    2    0    0  0.00000000000E+00  0.00000000000E+00 -0.83633807359E+03  0.33334997917E+04  0.32268807676E+04 0.  0.
        4    1    3    3  502    0 -0.47283393913E+03  0.14526283697E+04 -0.95444278789E+03  0.18012950238E+04  0.12699999809E+01 0. -1.
       -4    1    3    3    0  502  0.47283393913E+03 -0.14526283697E+04  0.11810471430E+03  0.15322047679E+04  0.12699999809E+01 0.  1.
</event>
<event>
 5   0  0.3474078E-06  0.2880123E+04  0.7818609E-02  0.8278816E-01
       -1   -1    0    0    0  501  0.00000000000E+00  0.00000000000E+00  0.96140301026E+03  0.96140301027E+03  0.50400001928E-02 0.  1.
        1   -1    0    0  501    0  0.00000000000E+00  0.00000000000E+00 -0.21570315282E+04  0.21570315282E+04  0.50400001928E-02 0. -1.
    10030    2    1    2    0    0  0.00000000000E+00  0.00000000000E+00 -0.11956285179E+04  0.31184345385E+04  0.28801226394E+04 0.  0.
        3    1    3    3  502    0 -0.17255250977E+03 -0.10858917345E+04  0.40910321602E+03  0.11731584203E+04  0.10100000352E+00 0.  1.
       -3    1    3    3    0  502  0.17255250977E+03  0.10858917345E+04 -0.16047317339E+04  0.19452761181E+04  0.10100000352E+00 0. -1.
</event>
<event>
 5   0  0.9360689E-06  0.3040325E+04  0.7818609E-02  0.8232309E-01
        2   -1    0    0  501    0  0.00000000000E+00  0.00000000000E+00  0.13518406028E+04  0.13518406028E+04  0.25500000920E-02 0.  1.
       -2   -1    0    0    0  501  0.00000000000E+00  0.00000000000E+00 -0.17094431099E+04  0.17094431099E+04  0.25500000920E-02 0. -1.
    10030    2    1    2    0    0  0.00000000000E+00  0.00000000000E+00 -0.35760250704E+03  0.30612837127E+04  0.30403253801E+04 0.  0.
        5    1    3    3  502    0  0.50803504843E+02  0.14586541434E+04  0.24912207582E+03  0.14806541813E+04  0.46999998093E+01 0.  1.
       -5    1    3    3    0  502 -0.50803504843E+02 -0.14586541434E+04 -0.60672458286E+03  0.15806295314E+04  0.46999998093E+01 0. -1.
</event>
<event>
 5   0  0.3746518E-06  0.2919305E+04  0.7818609E-02  0.8267157E-01
        1   -1    0    0  501    0  0.00000000000E+00  0.00000000000E+00  0.22392080114E+04  0.22392080114E+04  0.50400001928E-02 0. -1.
       -1   -1    0    0    0  501  0.00000000000E+00  0.00000000000E+00 -0.95149087747E+03  0.95149087748E+03  0.50400001928E-02 0.  1.
    10030    2    1    2    0    0  0.00000000000E+00  0.00000000000E+00  0.12877171339E+04  0.31906988889E+04  0.29193053938E+04 0.  0.
        4    1    3    3  502    0 -0.34251567750E+03  0.13473359712E+04  0.11301398191E+04  0.17916050994E+04  0.12699999809E+01 0.  1.
       -4    1    3    3    0  502  0.34251567750E+03 -0.13473359712E+04  0.15757731478E+03  0.13990937894E+04  0.12699999809E+01 0. -1.
</event>
<event>
 5   0  0.9360689E-06  0.2892206E+04  0.7818609E-02  0.8275200E-01
        2   -1    0    0  501    0  0.00000000000E+00  0.00000000000E+00  0.22226484851E+04  0.22226484851E+04  0.25500000920E-02 0. -1.
       -2   -1    0    0    0  501  0.00000000000E+00  0.00000000000E+00 -0.94086552088E+03  0.94086552089E+03  0.25500000920E-02 0.  1.
    10030    2    1    2    0    0  0.00000000000E+00  0.00000000000E+00  0.12817829642E+04  0.31635140060E+04  0.28922056114E+04 0.  0.
        5    1    3    3  502    0  0.50130773152E+03  0.83966100610E+03  0.18061171839E+04  0.20538796018E+04  0.46999998093E+01 0. -1.
       -5    1    3    3    0  502 -0.50130773152E+03 -0.83966100610E+03 -0.52433421972E+03  0.11096344041E+04  0.46999998093E+01 0.  1.
</event>
<event>
 5   0  0.3746518E-06  0.2862272E+04  0.7818609E-02  0.8284192E-01
       -1   -1    0    0    0  501  0.00000000000E+00  0.00000000000E+00  0.14100036841E+04  0.14100036841E+04  0.50400001928E-02 0. -1.
        1   -1    0    0  501    0  0.00000000000E+00  0.00000000000E+00 -0.14525852203E+04  0.14525852203E+04  0.50400001928E-02 0.  1.
    10030    2    1    2    0    0  0.00000000000E+00  0.00000000000E+00 -0.42581536200E+02  0.28625889044E+04  0.28622721828E+04 0.  0.
        4    1    3    3  502    0  0.32756683481E+03  0.12222092026E+04  0.64740383709E+03  0.14213474970E+04  0.12699999809E+01 0. -1.
       -4    1    3    3    0  502 -0.32756683481E+03 -0.12222092026E+04 -0.68998537329E+03  0.14412414074E+04  0.12699999809E+01 0.  1.
</event>
<event>
 5   0  0.3486236E-06  0.2867098E+04  0.7818609E-02  0.8282734E-01
       -1   -1    0    0    0  501  0.00000000000E+00  0.00000000000E+00  0.12559848321E+04  0.12559848321E+04  0.50400001928E-02 0.  1.
        1   -1    0    0  501    0  0.00000000000E+00  0.00000000000E+00 -0.16362166696E+04  0.16362166696E+04  0.50400001928E-02 0. -1.
    10030    2    1    2    0    0  0.00000000000E+00  0.00000000000E+00 -0.38023183755E+03  0.28922015017E+04  0.28670984071E+04 0.  0.
        5    1    3    3  502    0 -0.25307145077E+03 -0.30117783857E+03  0.12004630552E+04  0.12632841669E+04  0.46999998093E+01 0.  1.
       -5    1    3    3    0  502  0.25307145077E+03  0.30117783857E+03 -0.15806948927E+04  0.16289173347E+04  0.46999998093E+01 0. -1.
</event>
<event>
 5   0  0.3474078E-06  0.2897644E+04  0.7818609E-02  0.8273579E-01
        1   -1    0    0  501    0  0.00000000000E+00  0.00000000000E+00  0.15214138620E+04  0.15214138620E+04  0.50400001928E-02 0.  1.
       -1   -1    0    0    0  501  0.00000000000E+00  0.00000000000E+00 -0.13796940807E+04  0.13796940807E+04  0.50400001928E-02 0. -1.
    10030    2    1    2    0    0  0.00000000000E+00  0.00000000000E+00  0.14171978131E+03  0.29011079426E+04  0.28976443533E+04 0.  0.
        3    1    3    3  502    0 -0.69093210828E+03  0.11827023379E+04  0.54356160675E+03  0.14736455574E+04  0.10100000352E+00 0.  1.
       -3    1    3    3    0  502  0.69093210828E+03 -0.11827023379E+04 -0.40184182544E+03  0.14274623852E+04  0.10100000352E+00 0. -1.
</event>
<event>
 5   0  0.3474078E-06  0.2884555E+04  0.7818609E-02  0.8277488E-01
        1   -1    0    0  501    0  0.00000000000E+00  0.00000000000E+00  0.15959285556E+04  0.15959285556E+04  0.50400001928E-02 0.  1.
       -1   -1    0    0    0  501  0.00000000000E+00  0.00000000000E+00 -0.13034198984E+04  0.13034198984E+04  0.50400001928E-02 0. -1.
    10030    2    1    2    0    0  0.00000000000E+00  0.00000000000E+00  0.29250865713E+03  0.28993484540E+04  0.28845554498E+04 0.  0.
        3    1    3    3  502    0 -0.59302972429E+03 -0.43780615010E+03 -0.10997831998E+04  0.13239643408E+04  0.10100000352E+00 0. -1.
       -3    1    3    3    0  502  0.59302972429E+03  0.43780615010E+03  0.13922918570E+04  0.15753841132E+04  0.10100000352E+00 0.  1.
</event>
<event>
 5   0  0.9505359E-06  0.2882043E+04  0.7818609E-02  0.8278240E-01
       -2   -1    0    0    0  501  0.00000000000E+00  0.00000000000E+00  0.16335162622E+04  0.16335162622E+04  0.25500000920E-02 0. -1.
        2   -1    0    0  501    0  0.00000000000E+00  0.00000000000E+00 -0.12712103803E+04  0.12712103803E+04  0.25500000920E-02 0.  1.
    10030    2    1    2    0    0  0.00000000000E+00  0.00000000000E+00  0.36230588191E+03  0.29047266425E+04  0.28820429067E+04 0.  0.
        4    1    3    3  502    0  0.94899112592E+03  0.60170035671E+03  0.10904253561E+04  0.15657766592E+04  0.12699999809E+01 0. -1.
       -4    1    3    3    0  502 -0.94899112592E+03 -0.60170035671E+03 -0.72811947419E+03  0.13389499834E+04  0.12699999809E+01 0.  1.
</event>
<event>
 5   0  0.9251510E-06  0.2878586E+04  0.7818609E-02  0.8279277E-01
       -2   -1    0    0    0  501  0.00000000000E+00  0.00000000000E+00  0.13923051845E+04  0.13923051845E+04  0.25500000920E-02 0. -1.
        2   -1    0    0  501    0  0.00000000000E+00  0.00000000000E+00 -0.14878662440E+04  0.14878662440E+04  0.25500000920E-02 0.  1.
    10030    2    1    2    0    0  0.00000000000E+00  0.00000000000E+00 -0.95561059489E+02  0.28801714286E+04  0.28785856843E+04 0.  0.
        2    1    3    3  502    0  0.25044882250E+03 -0.35218667691E+03 -0.14214183919E+04  0.14856615742E+04  0.25500000920E-02 0.  1.
       -2    1    3    3    0  502 -0.25044882250E+03  0.35218667691E+03  0.13258573324E+04  0.13945098544E+04  0.25500000920E-02 0. -1.
</event>
<event>
 5   0  0.3474078E-06  0.2890505E+04  0.7818609E-02  0.8275708E-01
       -1   -1    0    0    0  501  0.00000000000E+00  0.00000000000E+00  0.11452806045E+04  0.11452806045E+04  0.50400001928E-02 0.  1.
        1   -1    0    0  501    0  0.00000000000E+00  0.00000000000E+00 -0.18237926083E+04  0.18237926083E+04  0.50400001928E-02 0. -1.
    10030    2    1    2    0    0  0.00000000000E+00  0.00000000000E+00 -0.67851200378E+03  0.29690732128E+04  0.28905046624E+04 0.  0.
        3    1    3    3  502    0 -0.12965481706E+04 -0.56266629523E+03 -0.29183625880E+02  0.14136768417E+04  0.10100000352E+00 0.  1.
       -3    1    3    3    0  502  0.12965481706E+04  0.56266629523E+03 -0.64932837791E+03  0.15553963711E+04  0.10100000352E+00 0. -1.
</event>
<event>
 5   0  0.9646321E-06  0.3024953E+04  0.7818609E-02  0.8236641E-01
       -2   -1    0    0    0  501  0.00000000000E+00  0.00000000000E+00  0.16419701441E+04  0.16419701441E+04  0.25500000920E-02 0. -1.
        2   -1    0    0  501    0  0.00000000000E+00  0.00000000000E+00 -0.13931952282E+04  0.13931952282E+04  0.25500000920E-02 0.  1.
    10030    2    1    2    0    0  0.00000000000E+00  0.00000000000E+00  0.24877491591E+03  0.30351653723E+04  0.30249528721E+04 0.  0.
        3    1    3    3  502    0 -0.16322123546E+03 -0.69982079059E+03  0.14597429337E+04  0.16270340357E+04  0.10100000352E+00 0. -1.
       -3    1    3    3    0  502  0.16322123546E+03  0.69982079059E+03 -0.12109680178E+04  0.14081313366E+04  0.10100000352E+00 0.  1.
</event>
<event>
 5   0  0.3564340E-06  0.2752941E+04  0.7818609E-02  0.8318029E-01
       -1   -1    0    0    0  501  0.00000000000E+00  0.00000000000E+00  0.92154216263E+03  0.92154216265E+03  0.50400001928E-02 0. -1.
        1   -1    0    0  501    0  0.00000000000E+00  0.00000000000E+00 -0.20559793495E+04  0.20559793495E+04  0.50400001928E-02 0.  1.
    10030    2    1    2    0    0  0.00000000000E+00  0.00000000000E+00 -0.11344371869E+04  0.29775215122E+04  0.27529414495E+04 0.  0.
        1    1    3    3  502    0 -0.11626774814E+04  0.60549936979E+03 -0.11318338861E+03  0.13157731157E+04  0.50400001928E-02 0. -1.
       -1    1    3    3    0  502  0.11626774814E+04 -0.60549936979E+03 -0.10212537983E+04  0.16617483965E+04  0.50400001928E-02 0.  1.
</event>
<event>
 5   0  0.3746518E-06  0.2874879E+04  0.7818609E-02  0.8280391E-01
        1   -1    0    0  501    0  0.00000000000E+00  0.00000000000E+00  0.12763772433E+04  0.12763772433E+04  0.50400001928E-02 0. -1.
       -1   -1    0    0    0  501  0.00000000000E+00  0.00000000000E+00 -0.16188252781E+04  0.16188252781E+04  0.50400001928E-02 0.  1.
    10030    2    1    2    0    0  0.00000000000E+00  0.00000000000E+00 -0.34244803485E+03  0.28952025214E+04  0.28748786033E+04 0.  0.
        4    1    3    3  502    0  0.75383668527E+03 -0.35644107826E+03 -0.13503601086E+04  0.15870708951E+04  0.12699999809E+01 0.  1.
       -4    1    3    3    0  502 -0.75383668527E+03  0.35644107826E+03  0.10079120738E+04  0.13081316263E+04  0.12699999809E+01 0. -1.
</event>
<event>
 5   0  0.3486236E-06  0.2881089E+04  0.7818609E-02  0.8278526E-01
       -1   -1    0    0    0  501  0.00000000000E+00  0.00000000000E+00  0.15465251387E+04  0.15465251387E+04  0.50400001928E-02 0. -1.
        1   -1    0    0  501    0  0.00000000000E+00  0.00000000000E+00 -0.13418264394E+04  0.13418264394E+04  0.50400001928E-02 0.  1.
    10030    2    1    2    0    0  0.00000000000E+00  0.00000000000E+00  0.20469869926E+03  0.28883515781E+04  0.28810889054E+04 0.  0.
        5    1    3    3  502    0  0.12085286409E+04  0.78371265657E+03  0.82318334833E+02  0.14427561825E+04  0.46999998093E+01 0. -1.
       -5    1    3    3    0  502 -0.12085286409E+04 -0.78371265657E+03  0.12238036443E+03  0.14455953955E+04  0.46999998093E+01 0.  1.
</event>
<event>
 5   0  0.9646321E-06  0.2858926E+04  0.7818609E-02  0.8285204E-01
        2   -1    0    0  501    0  0.00000000000E+00  0.00000000000E+00  0.19076127637E+04  0.19076127637E+04  0.25500000920E-02 0. -1.
       -2   -1    0    0    0  501  0.00000000000E+00  0.00000000000E+00 -0.10711627617E+04  0.10711627617E+04  0.25500000920E-02 0.  1.
    10030    2    1    2    0    0  0.00000000000E+00  0.00000000000E+00  0.83645000199E+03  0.29787755254E+04  0.28589255018E+04 0.  0.
        3    1    3    3  502    0  0.78636099432E+03  0.55735247359E+03  0.15181102425E+04  0.17982391698E+04  0.10100000352E+00 0. -1.
       -3    1    3    3    0  502 -0.78636099432E+03 -0.55735247359E+03 -0.68166024049E+03  0.11805363556E+04  0.10100000352E+00 0.  1.
</event>
<event>
 5   0  0.3564340E-06  0.2870547E+04  0.7818609E-02  0.8281695E-01
       -1   -1    0    0    0  501  0.00000000000E+00  0.00000000000E+00  0.13685199456E+04  0.13685199456E+04  0.50400001928E-02 0.  1.
        1   -1    0    0  501    0  0.00000000000E+00  0.00000000000E+00 -0.15052829201E+04  0.15052829201E+04  0.50400001928E-02 0. -1.
    10030    2    1    2    0    0  0.00000000000E+00  0.00000000000E+00 -0.13676297456E+03  0.28738028657E+04  0.28705467771E+04 0.  0.
        1    1    3    3  502    0  0.11260593136E+04 -0.79465312916E+03 -0.46949357457E+03  0.14559901751E+04  0.50400001928E-02 0.  1.
       -1    1    3    3    0  502 -0.11260593136E+04  0.79465312916E+03  0.33273060001E+03  0.14178126906E+04  0.50400001928E-02 0. -1.
</event>
<event>
 5   0  0.1001573E-05  0.2931990E+04  0.7818609E-02  0.8263423E-01
        2   -1    0    0  501    0  0.00000000000E+00  0.00000000000E+00  0.16482874398E+04  0.16482874398E+04  0.25500000920E-02 0.  1.
       -2   -1    0    0    0  501  0.00000000000E+00  0.00000000000E+00 -0.13038634227E+04  0.13038634227E+04  0.25500000920E-02 0. -1.
    10030    2    1    2    0    0  0.00000000000E+00  0.00000000000E+00  0.34442401716E+03  0.29521508625E+04  0.29319902475E+04 0.  0.
        1    1    3    3  502    0  0.34258909630E+03  0.13079923788E+04 -0.39819049287E+03  0.14095272330E+04  0.50400001928E-02 0. -1.
       -1    1    3    3    0  502 -0.34258909630E+03 -0.13079923788E+04  0.74261451003E+03  0.15426236295E+04  0.50400001928E-02 0.  1.
</event>
<event>
 5   0  0.3746518E-06  0.2916306E+04  0.7818609E-02  0.8268042E-01
        1   -1    0    0  501    0  0.00000000000E+00  0.00000000000E+00  0.17975131580E+04  0.17975131580E+04  0.50400001928E-02 0. -1.
       -1   -1    0    0    0  501  0.00000000000E+00  0.00000000000E+00 -0.11828622098E+04  0.11828622098E+04  0.50400001928E-02 0.  1.
    10030    2    1    2    0    0  0.00000000000E+00  0.00000000000E+00  0.61465094824E+03  0.29803753678E+04  0.29163061473E+04 0.  0.
        4    1    3    3  502    0 -0.29741100089E+03  0.14274565572E+04  0.31867104028E+03  0.14925275110E+04  0.12699999809E+01 0.  1.
       -4    1    3    3    0  502  0.29741100089E+03 -0.14274565572E+04  0.29597990797E+03  0.14878478568E+04  0.12699999809E+01 0. -1.
</event>
<event>
 5   0  0.3486236E-06  0.2877823E+04  0.7818609E-02  0.8279506E-01
       -1   -1    0    0    0  501  0.00000000000E+00  0.00000000000E+00  0.98426205800E+03  0.98426205801E+03  0.50400001928E-02 0.  1.
        1   -1    0    0  501    0  0.00000000000E+00  0.00000000000E+00 -0.21035728700E+04  0.21035728700E+04  0.50400001928E-02 0. -1.
    10030    2    1    2    0    0  0.00000000000E+00  0.00000000000E+00 -0.11193108120E+04  0.30878349280E+04  0.28778234569E+04 0.  0.
        5    1    3    3  502    0 -0.87323509006E+03 -0.19787100330E+03  0.64893284583E+03  0.11058157102E+04  0.46999998093E+01 0.  1.
       -5    1    3    3    0  502  0.87323509006E+03  0.19787100330E+03 -0.17682436578E+04  0.19820192178E+04  0.46999998093E+01 0. -1.
</event>
<event>
 5   0  0.3649705E-06  0.2879535E+04  0.7818609E-02  0.8278993E-01
       -1   -1    0    0    0  501  0.00000000000E+00  0.00000000000E+00  0.11914056607E+04  0.11914056608E+04  0.50400001928E-02 0. -1.
        1   -1    0    0  501    0  0.00000000000E+00  0.00000000000E+00 -0.17399031843E+04  0.17399031843E+04  0.50400001928E-02 0.  1.
    10030    2    1    2    0    0  0.00000000000E+00  0.00000000000E+00 -0.54849752354E+03  0.29313088451E+04  0.28795350340E+04 0.  0.
        2    1    3    3  502    0  0.11003803117E+04 -0.78526967910E+03 -0.77858071705E+03  0.15600234717E+04  0.25500000920E-02 0.  1.
       -2    1    3    3    0  502 -0.11003803117E+04  0.78526967910E+03  0.23008319351E+03  0.13712853734E+04  0.25500000920E-02 0. -1.
</event>
<event>
 5   0  0.3746518E-06  0.2918472E+04  0.7818609E-02  0.8267403E-01
        1   -1    0    0  501    0  0.00000000000E+00  0.00000000000E+00  0.15441416024E+04  0.15441416024E+04  0.50400001928E-02 0. -1.
       -1   -1    0    0    0  501  0.00000000000E+00  0.00000000000E+00 -0.13789985380E+04  0.13789985381E+04  0.50400001928E-02 0.  1.
    10030    2    1    2    0    0  0.00000000000E+00  0.00000000000E+00  0.16514306430E+03  0.29231401404E+04  0.29184715261E+04 0.  0.
        4    1    3    3  502    0 -0.63678959187E+03  0.47995951483E+03  0.13066170197E+04  0.15307226298E+04  0.12699999809E+01 0. -1.
       -4    1    3    3    0  502  0.63678959187E+03 -0.47995951483E+03 -0.11414739554E+04  0.13924175107E+04  0.12699999809E+01 0.  1.
</event>
<event>
 5   0  0.3486236E-06  0.3010595E+04  0.7818609E-02  0.8240712E-01
       -1   -1    0    0    0  501  0.00000000000E+00  0.00000000000E+00  0.13420101244E+04  0.13420101244E+04  0.50400001928E-02 0. -1.
        1   -1    0    0  501    0  0.00000000000E+00  0.00000000000E+00 -0.16884524454E+04  0.16884524454E+04  0.50400001928E-02 0.  1.
    10030    2    1    2    0    0  0.00000000000E+00  0.00000000000E+00 -0.34644232106E+03  0.30304625698E+04  0.30105948092E+04 0.  0.
        5    1    3    3  502    0 -0.75034506245E+03 -0.24533838612E+02  0.11401029914E+04  0.13650921372E+04  0.46999998093E+01 0. -1.
       -5    1    3    3    0  502  0.75034506245E+03  0.24533838612E+02 -0.14865453124E+04  0.16653704326E+04  0.46999998093E+01 0.  1.
</event>
<event>
 5   0  0.9251510E-06  0.2620679E+04  0.7818609E-02  0.8361211E-01
       -2   -1    0    0    0  501  0.00000000000E+00  0.00000000000E+00  0.15654173748E+04  0.15654173748E+04  0.25500000920E-02 0.  1.
        2   -1    0    0  501    0  0.00000000000E+00  0.00000000000E+00 -0.10968255789E+04  0.10968255789E+04  0.25500000920E-02 0. -1.
    10030    2    1    2    0    0  0.00000000000E+00  0.00000000000E+00  0.46859179588E+03  0.26622429536E+04  0.26206791626E+04 0.  0.
        2    1    3    3  502    0  0.79579384943E+03 -0.73684909727E+03 -0.51272758334E+03  0.11996349518E+04  0.25500000920E-02 0. -1.
       -2    1    3    3    0  502 -0.79579384943E+03  0.73684909727E+03  0.98131937921E+03  0.14626080018E+04  0.25500000920E-02 0.  1.
</event>
<event>
 5   0  0.3564340E-06  0.2905536E+04  0.7818609E-02  0.8271232E-01
        1   -1    0    0  501    0  0.00000000000E+00  0.00000000000E+00  0.13069848819E+04  0.13069848819E+04  0.50400001928E-02 0. -1.
       -1   -1    0    0    0  501  0.00000000000E+00  0.00000000000E+00 -0.16148119401E+04  0.16148119401E+04  0.50400001928E-02 0.  1.
    10030    2    1    2    0    0  0.00000000000E+00  0.00000000000E+00 -0.30782705820E+03  0.29217968220E+04  0.29055359525E+04 0.  0.
        1    1    3    3  502    0  0.41530707834E+03 -0.13826765240E+04  0.90441647713E+01  0.14437299388E+04  0.50400001928E-02 0.  1.
       -1    1    3    3    0  502 -0.41530707834E+03  0.13826765240E+04 -0.31687122297E+03  0.14780668832E+04  0.50400001928E-02 0. -1.
</event>
<event>
 5   0  0.3564340E-06  0.2888815E+04  0.7818609E-02  0.8276213E-01
       -1   -1    0    0    0  501  0.00000000000E+00  0.00000000000E+00  0.85669860196E+03  0.85669860197E+03  0.50400001928E-02 0. -1.
        1   -1    0    0  501    0  0.00000000000E+00  0.00000000000E+00 -0.24352945987E+04  0.24352945987E+04  0.50400001928E-02 0.  1.
    10030    2    1    2    0    0  0.00000000000E+00  0.00000000000E+00 -0.15785959967E+04  0.32919932007E+04  0.28888153130E+04 0.  0.
        1    1    3    3  502    0  0.66051010810E+03 -0.17771305466E+03 -0.22390371297E+04  0.23411840596E+04  0.50400001928E-02 0.  1.
       -1    1    3    3    0  502 -0.66051010810E+03  0.17771305466E+03  0.66044113294E+03  0.95080914110E+03  0.50400001928E-02 0. -1.
</event>
<event>
 5   0  0.3564340E-06  0.2917740E+04  0.7818609E-02  0.8267619E-01
        1   -1    0    0  501    0  0.00000000000E+00  0.00000000000E+00  0.20550653386E+04  0.20550653386E+04  0.50400001928E-02 0. -1.
       -1   -1    0    0    0  501  0.00000000000E+00  0.00000000000E+00 -0.10356370299E+04  0.10356370299E+04  0.50400001928E-02 0.  1.
    10030    2    1    2    0    0  0.00000000000E+00  0.00000000000E+00  0.10194283087E+04  0.30907023685E+04  0.29177400594E+04 0.  0.
        1    1    3    3  502    0  0.13463278932E+02 -0.11142156785E+04 -0.48772223468E+03  0.12163596575E+04  0.50400001928E-02 0.  1.
       -1    1    3    3    0  502 -0.13463278932E+02  0.11142156785E+04  0.15071505434E+04  0.18743427111E+04  0.50400001928E-02 0. -1.
</event>
<event>
 5   0  0.9505359E-06  0.2618374E+04  0.7818609E-02  0.8361987E-01
       -2   -1    0    0    0  501  0.00000000000E+00  0.00000000000E+00  0.83300137780E+03  0.83300137781E+03  0.25500000920E-02 0.  1.
        2   -1    0    0  501    0  0.00000000000E+00  0.00000000000E+00 -0.20575845448E+04  0.20575845448E+04  0.25500000920E-02 0. -1.
    10030    2    1    2    0    0  0.00000000000E+00  0.00000000000E+00 -0.12245831670E+04  0.28905859226E+04  0.26183741220E+04 0.  0.
        4    1    3    3  502    0  0.12438758461E+04 -0.33684577180E+03 -0.35747723793E+03  0.13373420591E+04  0.12699999809E+01 0.  1.
       -4    1    3    3    0  502 -0.12438758461E+04  0.33684577180E+03 -0.86710592903E+03  0.15532438635E+04  0.12699999809E+01 0. -1.
</event>
<event>
 5   0  0.3474078E-06  0.2920370E+04  0.7818609E-02  0.8266842E-01
       -1   -1    0    0    0  501  0.00000000000E+00  0.00000000000E+00  0.13281805453E+04  0.13281805453E+04  0.50400001928E-02 0. -1.
        1   -1    0    0  501    0  0.00000000000E+00  0.00000000000E+00 -0.16053095821E+04  0.16053095822E+04  0.50400001928E-02 0.  1.
    10030    2    1    2    0    0  0.00000000000E+00  0.00000000000E+00 -0.27712903685E+03  0.29334901275E+04  0.29203704945E+04 0.  0.
        3    1    3    3  502    0  0.94172194747E+03 -0.97633915273E+03 -0.68142051124E+03  0.15180290810E+04  0.10100000352E+00 0. -1.
       -3    1    3    3    0  502 -0.94172194747E+03  0.97633915273E+03  0.40429147439E+03  0.14154610464E+04  0.10100000352E+00 0.  1.
</event>
<event>
 5   0  0.9505359E-06  0.2832391E+04  0.7818609E-02  0.8293282E-01
       -2   -1    0    0    0  501  0.00000000000E+00  0.00000000000E+00  0.16309645833E+04  0.16309645833E+04  0.25500000920E-02 0.  1.
        2   -1    0    0  501    0  0.00000000000E+00  0.00000000000E+00 -0.12297073810E+04  0.12297073810E+04  0.25500000920E-02 0. -1.
    10030    2    1    2    0    0  0.00000000000E+00  0.00000000000E+00  0.40125720233E+03  0.28606719643E+04  0.28323906413E+04 0.  0.
        4    1    3    3  502    0 -0.13461436936E+03  0.81190988146E+03  0.13646505755E+04  0.15936095790E+04  0.12699999809E+01 0.  1.
       -4    1    3    3    0  502  0.13461436936E+03 -0.81190988146E+03 -0.96339337318E+03  0.12670623854E+04  0.12699999809E+01 0. -1.
</event>
<event>
 5   0  0.9646321E-06  0.2753674E+04  0.7818609E-02  0.8317797E-01
        2   -1    0    0  501    0  0.00000000000E+00  0.00000000000E+00  0.23958048329E+04  0.23958048329E+04  0.25500000920E-02 0.  1.
       -2   -1    0    0    0  501  0.00000000000E+00  0.00000000000E+00 -0.79124975097E+03  0.79124975097E+03  0.25500000920E-02 0. -1.
    10030    2    1    2    0    0  0.00000000000E+00  0.00000000000E+00  0.16045550819E+04  0.31870545839E+04  0.27536738931E+04 0.  0.
        3    1    3    3  502    0  0.12868602010E+04 -0.46525846019E+03  0.97858517123E+03  0.16822911636E+04  0.10100000352E+00 0. -1.
       -3    1    3    3    0  502 -0.12868602010E+04  0.46525846019E+03  0.62596991070E+03  0.15047634203E+04  0.10100000352E+00 0.  1.
</event>
<event>
 5   0  0.1001573E-05  0.2888465E+04  0.7818609E-02  0.8276318E-01
       -2   -1    0    0    0  501  0.00000000000E+00  0.00000000000E+00  0.10449804597E+04  0.10449804597E+04  0.25500000920E-02 0. -1.
        2   -1    0    0  501    0  0.00000000000E+00  0.00000000000E+00 -0.19960254205E+04  0.19960254205E+04  0.25500000920E-02 0.  1.
    10030    2    1    2    0    0  0.00000000000E+00  0.00000000000E+00 -0.95104496071E+03  0.30410058802E+04  0.28884650329E+04 0.  0.
        1    1    3    3  502    0  0.99178770857E+03 -0.58084099182E+02  0.62806732617E+03  0.11753659803E+04  0.50400001928E-02 0. -1.
       -1    1    3    3    0  502 -0.99178770857E+03  0.58084099182E+02 -0.15791122869E+04  0.18656398999E+04  0.50400001928E-02 0.  1.
</event>
<event>
 5   0  0.9505359E-06  0.2625249E+04  0.7818609E-02  0.8359675E-01
       -2   -1    0    0    0  501  0.00000000000E+00  0.00000000000E+00  0.76278111447E+03  0.76278111448E+03  0.25500000920E-02 0. -1.
        2   -1    0    0  501    0  0.00000000000E+00  0.00000000000E+00 -0.22588166991E+04  0.22588166991E+04  0.25500000920E-02 0.  1.
    10030    2    1    2    0    0  0.00000000000E+00  0.00000000000E+00 -0.14960355846E+04  0.30215978136E+04  0.26252487266E+04 0.  0.
        4    1    3    3  502    0 -0.12530589279E+04 -0.33433542445E+03 -0.51483721059E+03  0.13953479204E+04  0.12699999809E+01 0.  1.
       -4    1    3    3    0  502  0.12530589279E+04  0.33433542445E+03 -0.98119837403E+03  0.16262498931E+04  0.12699999809E+01 0. -1.
</event>
<event>
 5   0  0.3474078E-06  0.2653409E+04  0.7818609E-02  0.8350282E-01
        1   -1    0    0  501    0  0.00000000000E+00  0.00000000000E+00  0.22743246493E+04  0.22743246493E+04  0.50400001928E-02 0.  1.
       -1   -1    0    0    0  501  0.00000000000E+00  0.00000000000E+00 -0.77391976244E+03  0.77391976245E+03  0.50400001928E-02 0. -1.
    10030    2    1    2    0    0  0.00000000000E+00  0.00000000000E+00  0.15004048869E+04  0.30482444118E+04  0.26534089714E+04 0.  0.
        3    1    3    3  502    0  0.82459146395E+03 -0.95170548128E+03  0.12300259816E+04  0.17603006365E+04  0.10100000352E+00 0.  1.
       -3    1    3    3    0  502 -0.82459146395E+03  0.95170548128E+03  0.27037890532E+03  0.12879437752E+04  0.10100000352E+00 0. -1.
</event>
<event>
 5   0  0.9646321E-06  0.2879623E+04  0.7818609E-02  0.8278966E-01
        2   -1    0    0  501    0  0.00000000000E+00  0.00000000000E+00  0.29867538852E+04  0.29867538852E+04  0.25500000920E-02 0.  1.
       -2   -1    0    0    0  501  0.00000000000E+00  0.00000000000E+00 -0.69408350743E+03  0.69408350744E+03  0.25500000920E-02 0. -1.
    10030    2    1    2    0    0  0.00000000000E+00  0.00000000000E+00  0.22926703777E+04  0.36808373926E+04  0.28796226228E+04 0.  0.
        3    1    3    3  502    0 -0.81452559640E+03  0.10674688757E+04  0.48200300971E+03  0.14266284237E+04  0.10100000352E+00 0. -1.
       -3    1    3    3    0  502  0.81452559640E+03 -0.10674688757E+04  0.18106673680E+04  0.22542089689E+04  0.10100000352E+00 0.  1.
</event>
<event>
 5   0  0.3474078E-06  0.2868061E+04  0.7818609E-02  0.8282444E-01
       -1   -1    0    0    0  501  0.00000000000E+00  0.00000000000E+00  0.78517621176E+03  0.78517621177E+03  0.50400001928E-02 0.  1.
        1   -1    0    0  501    0  0.00000000000E+00  0.00000000000E+00 -0.26190859350E+04  0.26190859350E+04  0.50400001928E-02 0. -1.
    10030    2    1    2    0    0  0.00000000000E+00  0.00000000000E+00 -0.18339097233E+04  0.34042621468E+04  0.28680613472E+04 0.  0.
        3    1    3    3  502    0 -0.44298963781E+03 -0.44957681772E+03  0.61144831598E+03  0.87876514926E+03  0.10100000352E+00 0.  1.
       -3    1    3    3    0  502  0.44298963781E+03  0.44957681772E+03 -0.24453580393E+04  0.25254969976E+04  0.10100000352E+00 0. -1.
</event>
<event>
 5   0  0.9505359E-06  0.2917944E+04  0.7818609E-02  0.8267559E-01
        2   -1    0    0  501    0  0.00000000000E+00  0.00000000000E+00  0.12957025224E+04  0.12957025224E+04  0.25500000920E-02 0.  1.
       -2   -1    0    0    0  501  0.00000000000E+00  0.00000000000E+00 -0.16428146552E+04  0.16428146552E+04  0.25500000920E-02 0. -1.
    10030    2    1    2    0    0  0.00000000000E+00  0.00000000000E+00 -0.34711213285E+03  0.29385171776E+04  0.29179438600E+04 0.  0.
        4    1    3    3  502    0 -0.65476112369E+03 -0.82428320642E+03 -0.11908479527E+04  0.15894261206E+04  0.12699999809E+01 0. -1.
       -4    1    3    3    0  502  0.65476112369E+03  0.82428320642E+03  0.84373581982E+03  0.13490910570E+04  0.12699999809E+01 0.  1.
</event>
<event>
 5   0  0.9251510E-06  0.2685181E+04  0.7818609E-02  0.8339829E-01
       -2   -1    0    0    0  501  0.00000000000E+00  0.00000000000E+00  0.67521040903E+03  0.67521040903E+03  0.25500000920E-02 0. -1.
        2   -1    0    0  501    0  0.00000000000E+00  0.00000000000E+00 -0.26696114309E+04  0.26696114309E+04  0.25500000920E-02 0.  1.
    10030    2    1    2    0    0  0.00000000000E+00  0.00000000000E+00 -0.19944010218E+04  0.33448218399E+04  0.26851811307E+04 0.  0.
        2    1    3    3  502    0 -0.11063632483E+04 -0.21978360204E+03 -0.90171254438E+02  0.11315808959E+04  0.25500000920E-02 0. -1.
       -2    1    3    3    0  502  0.11063632483E+04  0.21978360204E+03 -0.19042297674E+04  0.22132409440E+04  0.25500000920E-02 0.  1.
</event>
<event>
 5   0  0.1001573E-05  0.2885122E+04  0.7818609E-02  0.8277318E-01
        2   -1    0    0  501    0  0.00000000000E+00  0.00000000000E+00  0.23418890323E+04  0.23418890323E+04  0.25500000920E-02 0. -1.
       -2   -1    0    0    0  501  0.00000000000E+00  0.00000000000E+00 -0.88859123310E+03  0.88859123310E+03  0.25500000920E-02 0.  1.
    10030    2    1    2    0    0  0.00000000000E+00  0.00000000000E+00  0.14532977992E+04  0.32304802654E+04  0.28851218782E+04 0.  0.
        1    1    3    3  502    0  0.37279841458E+03  0.50276684355E+03  0.21819309760E+04  0.22699286202E+04  0.50400001928E-02 0. -1.
       -1    1    3    3    0  502 -0.37279841458E+03 -0.50276684355E+03 -0.72863317674E+03  0.96055164523E+03  0.50400001928E-02 0.  1.
</event>
<event>
 5   0  0.9646321E-06  0.2993596E+04  0.7818609E-02  0.8245562E-01
       -2   -1    0    0    0  501  0.00000000000E+00  0.00000000000E+00  0.98889370171E+03  0.98889370171E+03  0.25500000920E-02 0. -1.
        2   -1    0    0  501    0  0.00000000000E+00  0.00000000000E+00 -0.22655660892E+04  0.22655660892E+04  0.25500000920E-02 0.  1.
    10030    2    1    2    0    0  0.00000000000E+00  0.00000000000E+00 -0.12766723875E+04  0.32544597909E+04  0.29935958554E+04 0.  0.
        3    1    3    3  502    0  0.68691395490E+03  0.73916799870E+03 -0.18401965859E+04  0.20987004543E+04  0.10100000352E+00 0.  1.
       -3    1    3    3    0  502 -0.68691395490E+03 -0.73916799870E+03  0.56352419845E+03  0.11557593366E+04  0.10100000352E+00 0. -1.
</event>
<event>
 5   0  0.9251510E-06  0.2801076E+04  0.7818609E-02  0.8302934E-01
        2   -1    0    0  501    0  0.00000000000E+00  0.00000000000E+00  0.22921735997E+04  0.22921735997E+04  0.25500000920E-02 0.  1.
       -2   -1    0    0    0  501  0.00000000000E+00  0.00000000000E+00 -0.85574093247E+03  0.85574093247E+03  0.25500000920E-02 0. -1.
    10030    2    1    2    0    0  0.00000000000E+00  0.00000000000E+00  0.14364326672E+04  0.31479145321E+04  0.28010760601E+04 0.  0.
        2    1    3    3  502    0  0.36687584861E+03 -0.60316362731E+03  0.20775792260E+04  0.21942515102E+04  0.25500000920E-02 0.  1.
       -2    1    3    3    0  502 -0.36687584861E+03  0.60316362731E+03 -0.64114655880E+03  0.95366302197E+03  0.25500000920E-02 0. -1.
</event>
<event>
 5   0  0.3649705E-06  0.2168059E+04  0.7818609E-02  0.8531842E-01
       -1   -1    0    0    0  501  0.00000000000E+00  0.00000000000E+00  0.16317001994E+04  0.16317001994E+04  0.50400001928E-02 0. -1.
        1   -1    0    0  501    0  0.00000000000E+00  0.00000000000E+00 -0.72018102004E+03  0.72018102006E+03  0.50400001928E-02 0.  1.
    10030    2    1    2    0    0  0.00000000000E+00  0.00000000000E+00  0.91151917931E+03  0.23518812194E+04  0.21680585915E+04 0.  0.
        2    1    3    3  502    0 -0.56741264627E+03  0.11074048710E+03 -0.53899573796E+03  0.79040304414E+03  0.25500000920E-02 0.  1.
       -2    1    3    3    0  502  0.56741264627E+03 -0.11074048710E+03  0.14505149173E+04  0.15614781753E+04  0.25500000920E-02 0. -1.
</event>
<event>
 5   0  0.3649705E-06  0.2623104E+04  0.7818609E-02  0.8360395E-01
        1   -1    0    0  501    0  0.00000000000E+00  0.00000000000E+00  0.12200791319E+04  0.12200791319E+04  0.50400001928E-02 0. -1.
       -1   -1    0    0    0  501  0.00000000000E+00  0.00000000000E+00 -0.14098831819E+04  0.14098831819E+04  0.50400001928E-02 0.  1.
    10030    2    1    2    0    0  0.00000000000E+00  0.00000000000E+00 -0.18980404995E+03  0.26299623138E+04  0.26231043050E+04 0.  0.
        2    1    3    3  502    0  0.95984681759E+03  0.77180194635E+03 -0.54684086890E+03  0.13475975265E+04  0.25500000920E-02 0.  1.
       -2    1    3    3    0  502 -0.95984681759E+03 -0.77180194635E+03  0.35703681895E+03  0.12823647873E+04  0.25500000920E-02 0. -1.
</event>
<event>
 5   0  0.3746518E-06  0.2836410E+04  0.7818609E-02  0.8292053E-01
       -1   -1    0    0    0  501  0.00000000000E+00  0.00000000000E+00  0.92992744278E+03  0.92992744279E+03  0.50400001928E-02 0.  1.
        1   -1    0    0  501    0  0.00000000000E+00  0.00000000000E+00 -0.21628624554E+04  0.21628624554E+04  0.50400001928E-02 0. -1.
    10030    2    1    2    0    0  0.00000000000E+00  0.00000000000E+00 -0.12329350127E+04  0.30927898982E+04  0.28364098098E+04 0.  0.
        4    1    3    3  502    0 -0.21025407436E+03 -0.41499184997E+03  0.84436011041E+03  0.96403870269E+03  0.12699999809E+01 0.  1.
       -4    1    3    3    0  502  0.21025407436E+03  0.41499184997E+03 -0.20772951231E+04  0.21287511956E+04  0.12699999809E+01 0. -1.
</event>
<event>
 5   0  0.3486236E-06  0.2892936E+04  0.7818609E-02  0.8274982E-01
        1   -1    0    0  501    0  0.00000000000E+00  0.00000000000E+00  0.12105768655E+04  0.12105768655E+04  0.50400001928E-02 0. -1.
       -1   -1    0    0    0  501  0.00000000000E+00  0.00000000000E+00 -0.17283245997E+04  0.17283245997E+04  0.50400001928E-02 0.  1.
    10030    2    1    2    0    0  0.00000000000E+00  0.00000000000E+00 -0.51774773428E+03  0.29389014652E+04  0.28929360701E+04 0.  0.
        5    1    3    3  502    0  0.43925171914E+03 -0.37997152961E+02  0.11406441202E+04  0.12228969520E+04  0.46999998093E+01 0. -1.
       -5    1    3    3    0  502 -0.43925171914E+03  0.37997152961E+02 -0.16583918545E+04  0.17160045132E+04  0.46999998093E+01 0.  1.
</event>
<event>
 5   0  0.3486236E-06  0.2895338E+04  0.7818609E-02  0.8274266E-01
       -1   -1    0    0    0  501  0.00000000000E+00  0.00000000000E+00  0.95600007727E+03  0.95600007728E+03  0.50400001928E-02 0. -1.
        1   -1    0    0  501    0  0.00000000000E+00  0.00000000000E+00 -0.21922024848E+04  0.21922024848E+04  0.50400001928E-02 0.  1.
    10030    2    1    2    0    0  0.00000000000E+00  0.00000000000E+00 -0.12362024075E+04  0.31482025621E+04  0.28953381460E+04 0.  0.
        5    1    3    3  502    0 -0.72657979362E+03  0.92753890747E+03 -0.15326766737E+04  0.19332269648E+04  0.46999998093E+01 0.  1.
       -5    1    3    3    0  502  0.72657979362E+03 -0.92753890747E+03  0.29647426621E+03  0.12149755972E+04  0.46999998093E+01 0. -1.
</event>
<event>
 5   0  0.9646321E-06  0.2898327E+04  0.7818609E-02  0.8273375E-01
       -2   -1    0    0    0  501  0.00000000000E+00  0.00000000000E+00  0.17523092992E+04  0.17523092992E+04  0.25500000920E-02 0. -1.
        2   -1    0    0  501    0  0.00000000000E+00  0.00000000000E+00 -0.11984615493E+04  0.11984615493E+04  0.25500000920E-02 0.  1.
    10030    2    1    2    0    0  0.00000000000E+00  0.00000000000E+00  0.55384774989E+03  0.29507708485E+04  0.28983273228E+04 0.  0.
        3    1    3    3  502    0 -0.12777856218E+04  0.69905100320E+02  0.96926736649E+03  0.16053354965E+04  0.10100000352E+00 0. -1.
       -3    1    3    3    0  502  0.12777856218E+04 -0.69905100320E+02 -0.41541961660E+03  0.13454353520E+04  0.10100000352E+00 0.  1.
</event>
<event>
 5   0  0.9646321E-06  0.2877109E+04  0.7818609E-02  0.8279721E-01
        2   -1    0    0  501    0  0.00000000000E+00  0.00000000000E+00  0.11110719844E+04  0.11110719844E+04  0.25500000920E-02 0. -1.
       -2   -1    0    0    0  501  0.00000000000E+00  0.00000000000E+00 -0.18625600898E+04  0.18625600898E+04  0.25500000920E-02 0.  1.
    10030    2    1    2    0    0  0.00000000000E+00  0.00000000000E+00 -0.75148810537E+03  0.29736320742E+04  0.28771085033E+04 0.  0.
        3    1    3    3  502    0  0.44284175575E+03 -0.62347836873E+03 -0.16350647420E+04  0.18050680922E+04  0.10100000352E+00 0.  1.
       -3    1    3    3    0  502 -0.44284175575E+03  0.62347836873E+03  0.88357663661E+03  0.11685639819E+04  0.10100000352E+00 0. -1.
</event>
<event>
 5   0  0.3486236E-06  0.2875919E+04  0.7818609E-02  0.8280078E-01
        1   -1    0    0  501    0  0.00000000000E+00  0.00000000000E+00  0.15475236286E+04  0.15475236286E+04  0.50400001928E-02 0.  1.
       -1   -1    0    0    0  501  0.00000000000E+00  0.00000000000E+00 -0.13361525699E+04  0.13361525699E+04  0.50400001928E-02 0. -1.
    10030    2    1    2    0    0  0.00000000000E+00  0.00000000000E+00  0.21137105874E+03  0.28836761985E+04  0.28759191041E+04 0.  0.
        5    1    3    3  502    0 -0.11803044007E+04 -0.37848959587E+03 -0.62520630857E+03  0.13882643375E+04  0.46999998093E+01 0. -1.
       -5    1    3    3    0  502  0.11803044007E+04  0.37848959587E+03  0.83657736731E+03  0.14954118610E+04  0.46999998093E+01 0.  1.
</event>
<event>
 5   0  0.1001573E-05  0.2511888E+04  0.7818609E-02  0.8398763E-01
        2   -1    0    0  501    0  0.00000000000E+00  0.00000000000E+00  0.11480972468E+04  0.11480972468E+04  0.25500000920E-02 0. -1.
       -2   -1    0    0    0  501  0.00000000000E+00  0.00000000000E+00 -0.13739215134E+04  0.13739215134E+04  0.25500000920E-02 0.  1.
    10030    2    1    2    0    0  0.00000000000E+00  0.00000000000E+00 -0.22582426663E+03  0.25220187602E+04  0.25118881399E+04 0.  0.
        1    1    3    3  502    0 -0.97735670520E+03  0.77266638285E+03  0.46334090268E+02  0.12467503023E+04  0.50400001928E-02 0. -1.
       -1    1    3    3    0  502  0.97735670520E+03 -0.77266638285E+03 -0.27215835690E+03  0.12752684579E+04  0.50400001928E-02 0.  1.
</event>
<event>
 5   0  0.3649705E-06  0.2847360E+04  0.7818609E-02  0.8288714E-01
        1   -1    0    0  501    0  0.00000000000E+00  0.00000000000E+00  0.18720932404E+04  0.18720932404E+04  0.50400001928E-02 0.  1.
       -1   -1    0    0    0  501  0.00000000000E+00  0.00000000000E+00 -0.10826729683E+04  0.10826729683E+04  0.50400001928E-02 0. -1.
    10030    2    1    2    0    0  0.00000000000E+00  0.00000000000E+00  0.78942027208E+03  0.29547662087E+04  0.28473600022E+04 0.  0.
        2    1    3    3  502    0  0.11464764818E+04  0.33092968858E+03 -0.41107360326E+03  0.12621031215E+04  0.25500000920E-02 0. -1.
       -2    1    3    3    0  502 -0.11464764818E+04 -0.33092968858E+03  0.12004938753E+04  0.16926630872E+04  0.25500000920E-02 0.  1.
</event>
<event>
 5   0  0.9646321E-06  0.2809937E+04  0.7818609E-02  0.8300190E-01
       -2   -1    0    0    0  501  0.00000000000E+00  0.00000000000E+00  0.10472212838E+04  0.10472212838E+04  0.25500000920E-02 0.  1.
        2   -1    0    0  501    0  0.00000000000E+00  0.00000000000E+00 -0.18849276781E+04  0.18849276781E+04  0.25500000920E-02 0. -1.
    10030    2    1    2    0    0  0.00000000000E+00  0.00000000000E+00 -0.83770639434E+03  0.29321489619E+04  0.28099369266E+04 0.  0.
        3    1    3    3  502    0 -0.30954241381E+03 -0.73657993619E+03  0.78707864844E+03  0.11215432749E+04  0.10100000352E+00 0.  1.
       -3    1    3    3    0  502  0.30954241381E+03  0.73657993619E+03 -0.16247850428E+04  0.18106056870E+04  0.10100000352E+00 0. -1.
</event>
<event>
 5   0  0.9505359E-06  0.2934463E+04  0.7818609E-02  0.8262697E-01
        2   -1    0    0  501    0  0.00000000000E+00  0.00000000000E+00  0.22567460718E+04  0.22567460718E+04  0.25500000920E-02 0.  1.
       -2   -1    0    0    0  501  0.00000000000E+00  0.00000000000E+00 -0.95392600270E+03  0.95392600271E+03  0.25500000920E-02 0. -1.
    10030    2    1    2    0    0  0.00000000000E+00  0.00000000000E+00  0.13028200691E+04  0.32106720745E+04  0.29344633304E+04 0.  0.
        4    1    3    3  502    0 -0.21382782820E+02 -0.61994148317E+03  0.21062199165E+04  0.21956658707E+04  0.12699999809E+01 0.  1.
       -4    1    3    3    0  502  0.21382782820E+02  0.61994148317E+03 -0.80339984746E+03  0.10150062038E+04  0.12699999809E+01 0. -1.
</event>
<event>
 5   0  0.9360689E-06  0.2840613E+04  0.7818609E-02  0.8290770E-01
       -2   -1    0    0    0  501  0.00000000000E+00  0.00000000000E+00  0.82756656210E+03  0.82756656210E+03  0.25500000920E-02 0.  1.
        2   -1    0    0  501    0  0.00000000000E+00  0.00000000000E+00 -0.24375923627E+04  0.24375923627E+04  0.25500000920E-02 0. -1.
    10030    2    1    2    0    0  0.00000000000E+00  0.00000000000E+00 -0.16100258006E+04  0.32651589248E+04  0.28406125617E+04 0.  0.
        5    1    3    3  502    0 -0.17893560514E+03  0.80288061952E+03 -0.21359084411E+04  0.22888342445E+04  0.46999998093E+01 0. -1.
       -5    1    3    3    0  502  0.17893560514E+03 -0.80288061952E+03  0.52588264044E+03  0.97632468037E+03  0.46999998093E+01 0.  1.
</event>
<event>
 5   0  0.3564340E-06  0.2838945E+04  0.7818609E-02  0.8291278E-01
       -1   -1    0    0    0  501  0.00000000000E+00  0.00000000000E+00  0.11118067271E+04  0.11118067271E+04  0.50400001928E-02 0. -1.
        1   -1    0    0  501    0  0.00000000000E+00  0.00000000000E+00 -0.18122778712E+04  0.18122778712E+04  0.50400001928E-02 0.  1.
    10030    2    1    2    0    0  0.00000000000E+00  0.00000000000E+00 -0.70047114409E+03  0.29240845983E+04  0.28389453876E+04 0.  0.
        1    1    3    3  502    0 -0.80893471924E+03 -0.34618000953E+03 -0.14975011598E+04  0.17368723910E+04  0.50400001928E-02 0.  1.
       -1    1    3    3    0  502  0.80893471924E+03  0.34618000953E+03  0.79703001574E+03  0.11872122072E+04  0.50400001928E-02 0. -1.
</event>
<event>
 5   0  0.3474078E-06  0.2821749E+04  0.7818609E-02  0.8296548E-01
        1   -1    0    0  501    0  0.00000000000E+00  0.00000000000E+00  0.12202457181E+04  0.12202457181E+04  0.50400001928E-02 0. -1.
       -1   -1    0    0    0  501  0.00000000000E+00  0.00000000000E+00 -0.16312835713E+04  0.16312835713E+04  0.50400001928E-02 0.  1.
    10030    2    1    2    0    0  0.00000000000E+00  0.00000000000E+00 -0.41103785319E+03  0.28515292894E+04  0.28217489561E+04 0.  0.
        3    1    3    3  502    0  0.50361262483E+03  0.10164596819E+04 -0.10532711183E+04  0.15479651223E+04  0.10100000352E+00 0.  1.
       -3    1    3    3    0  502 -0.50361262483E+03 -0.10164596819E+04  0.64223326514E+03  0.13035641671E+04  0.10100000352E+00 0. -1.
</event>
<event>
 5   0  0.3746518E-06  0.2675639E+04  0.7818609E-02  0.8342953E-01
        1   -1    0    0  501    0  0.00000000000E+00  0.00000000000E+00  0.12544434038E+04  0.12544434038E+04  0.50400001928E-02 0. -1.
       -1   -1    0    0    0  501  0.00000000000E+00  0.00000000000E+00 -0.14267376526E+04  0.14267376526E+04  0.50400001928E-02 0.  1.
    10030    2    1    2    0    0  0.00000000000E+00  0.00000000000E+00 -0.17229424882E+03  0.26811810564E+04  0.26756394655E+04 0.  0.
        4    1    3    3  502    0 -0.78999190266E+03  0.74361439066E+03 -0.87052655273E+03  0.13909952049E+04  0.12699999809E+01 0.  1.
       -4    1    3    3    0  502  0.78999190266E+03 -0.74361439066E+03  0.69823230391E+03  0.12901858515E+04  0.12699999809E+01 0. -1.
</event>
<event>
 5   0  0.3486236E-06  0.2904064E+04  0.7818609E-02  0.8271669E-01
        1   -1    0    0  501    0  0.00000000000E+00  0.00000000000E+00  0.15484338853E+04  0.15484338853E+04  0.50400001928E-02 0.  1.
       -1   -1    0    0    0  501  0.00000000000E+00  0.00000000000E+00 -0.13616316752E+04  0.13616316752E+04  0.50400001928E-02 0. -1.
    10030    2    1    2    0    0  0.00000000000E+00  0.00000000000E+00  0.18680221010E+03  0.29100655606E+04  0.29040637908E+04 0.  0.
        5    1    3    3  502    0  0.11501137340E+04 -0.48593665181E+03 -0.64939903198E+03  0.14073511373E+04  0.46999998093E+01 0. -1.
       -5    1    3    3    0  502 -0.11501137340E+04  0.48593665181E+03  0.83620124208E+03  0.15027144233E+04  0.46999998093E+01 0.  1.
</event>
<event>
 5   0  0.9646321E-06  0.2949488E+04  0.7818609E-02  0.8258304E-01
        2   -1    0    0  501    0  0.00000000000E+00  0.00000000000E+00  0.17831892266E+04  0.17831892266E+04  0.25500000920E-02 0.  1.
       -2   -1    0    0    0  501  0.00000000000E+00  0.00000000000E+00 -0.12196516651E+04  0.12196516651E+04  0.25500000920E-02 0. -1.
    10030    2    1    2    0    0  0.00000000000E+00  0.00000000000E+00  0.56353756152E+03  0.30028408917E+04  0.29494878942E+04 0.  0.
        3    1    3    3  502    0  0.38113033693E+03  0.64345563025E+03 -0.10122755671E+04  0.12585695515E+04  0.10100000352E+00 0. -1.
       -3    1    3    3    0  502 -0.38113033693E+03 -0.64345563025E+03  0.15758131287E+04  0.17442713403E+04  0.10100000352E+00 0.  1.
</event>
<event>
 5   0  0.3649705E-06  0.2966016E+04  0.7818609E-02  0.8253502E-01
        1   -1    0    0  501    0  0.00000000000E+00  0.00000000000E+00  0.16535104460E+04  0.16535104460E+04  0.50400001928E-02 0.  1.
       -1   -1    0    0    0  501  0.00000000000E+00  0.00000000000E+00 -0.13300871639E+04  0.13300871639E+04  0.50400001928E-02 0. -1.
    10030    2    1    2    0    0  0.00000000000E+00  0.00000000000E+00  0.32342328207E+03  0.29835976099E+04  0.29660161965E+04 0.  0.
        2    1    3    3  502    0 -0.15689129799E+03  0.11483709952E+04 -0.76894386483E+03  0.13909153422E+04  0.25500000920E-02 0. -1.
       -2    1    3    3    0  502  0.15689129799E+03 -0.11483709952E+04  0.10923671469E+04  0.15926822676E+04  0.25500000920E-02 0.  1.
</event>
<event>
 5   0  0.3746518E-06  0.2788063E+04  0.7818609E-02  0.8306984E-01
        1   -1    0    0  501    0  0.00000000000E+00  0.00000000000E+00  0.19116407920E+04  0.19116407920E+04  0.50400001928E-02 0. -1.
       -1   -1    0    0    0  501  0.00000000000E+00  0.00000000000E+00 -0.10165735116E+04  0.10165735116E+04  0.50400001928E-02 0.  1.
    10030    2    1    2    0    0  0.00000000000E+00  0.00000000000E+00  0.89506728033E+03  0.29282143036E+04  0.27880626915E+04 0.  0.
        4    1    3    3  502    0 -0.11900114776E+04  0.86621024641E+02  0.12046681296E+04  0.16955404548E+04  0.12699999809E+01 0. -1.
       -4    1    3    3    0  502  0.11900114776E+04 -0.86621024641E+02 -0.30960084923E+03  0.12326738488E+04  0.12699999809E+01 0.  1.
</event>
<event>
 5   0  0.3474078E-06  0.2842412E+04  0.7818609E-02  0.8290221E-01
        1   -1    0    0  501    0  0.00000000000E+00  0.00000000000E+00  0.22166744489E+04  0.22166744489E+04  0.50400001928E-02 0. -1.
       -1   -1    0    0    0  501  0.00000000000E+00  0.00000000000E+00 -0.91119676902E+03  0.91119676904E+03  0.50400001928E-02 0.  1.
    10030    2    1    2    0    0  0.00000000000E+00  0.00000000000E+00  0.13054776799E+04  0.31278712180E+04  0.28424120714E+04 0.  0.
        3    1    3    3  502    0 -0.87450830194E+03  0.82736626109E+03 -0.17845034239E+03  0.12170226929E+04  0.10100000352E+00 0.  1.
       -3    1    3    3    0  502  0.87450830194E+03 -0.82736626109E+03  0.14839280223E+04  0.19108485251E+04  0.10100000352E+00 0. -1.
</event>
<event>
 5   0  0.3746518E-06  0.2881012E+04  0.7818609E-02  0.8278549E-01
        1   -1    0    0  501    0  0.00000000000E+00  0.00000000000E+00  0.11829202095E+04  0.11829202095E+04  0.50400001928E-02 0.  1.
       -1   -1    0    0    0  501  0.00000000000E+00  0.00000000000E+00 -0.17541827302E+04  0.17541827302E+04  0.50400001928E-02 0. -1.
    10030    2    1    2    0    0  0.00000000000E+00  0.00000000000E+00 -0.57126252067E+03  0.29371029397E+04  0.28810124628E+04 0.  0.
        4    1    3    3  502    0 -0.11064358418E+04 -0.75613546709E+03 -0.82423081187E+03  0.15733083489E+04  0.12699999809E+01 0. -1.
       -4    1    3    3    0  502  0.11064358418E+04  0.75613546709E+03  0.25296829120E+03  0.13637945908E+04  0.12699999809E+01 0.  1.
</event>
<event>
 5   0  0.9251510E-06  0.2917717E+04  0.7818609E-02  0.8267625E-01
       -2   -1    0    0    0  501  0.00000000000E+00  0.00000000000E+00  0.14211650608E+04  0.14211650608E+04  0.25500000920E-02 0. -1.
        2   -1    0    0  501    0  0.00000000000E+00  0.00000000000E+00 -0.14975521233E+04  0.14975521233E+04  0.25500000920E-02 0.  1.
    10030    2    1    2    0    0  0.00000000000E+00  0.00000000000E+00 -0.76387062489E+02  0.29187171841E+04  0.29177174327E+04 0.  0.
        2    1    3    3  502    0 -0.63134936716E+03 -0.12299827975E+04  0.42759360119E+03  0.14471682671E+04  0.25500000920E-02 0. -1.
       -2    1    3    3    0  502  0.63134936716E+03  0.12299827975E+04 -0.50398066368E+03  0.14715489170E+04  0.25500000920E-02 0.  1.
</event>
<event>
 5   0  0.9360689E-06  0.2772869E+04  0.7818609E-02  0.8311741E-01
       -2   -1    0    0    0  501  0.00000000000E+00  0.00000000000E+00  0.13542605245E+04  0.13542605245E+04  0.25500000920E-02 0.  1.
        2   -1    0    0  501    0  0.00000000000E+00  0.00000000000E+00 -0.14193729554E+04  0.14193729554E+04  0.25500000920E-02 0. -1.
    10030    2    1    2    0    0  0.00000000000E+00  0.00000000000E+00 -0.65112430943E+02  0.27736334799E+04  0.27728691012E+04 0.  0.
        5    1    3    3  502    0  0.27209403977E+03 -0.23971571208E+03  0.13059755436E+04  0.13553940385E+04  0.46999998093E+01 0.  1.
       -5    1    3    3    0  502 -0.27209403977E+03  0.23971571208E+03 -0.13710879746E+04  0.14182394414E+04  0.46999998093E+01 0. -1.
</event>
<event>
 5   0  0.9646321E-06  0.2906977E+04  0.7818609E-02  0.8270805E-01
        2   -1    0    0  501    0  0.00000000000E+00  0.00000000000E+00  0.18137112936E+04  0.18137112936E+04  0.25500000920E-02 0. -1.
       -2   -1    0    0    0  501  0.00000000000E+00  0.00000000000E+00 -0.11648097614E+04  0.11648097614E+04  0.25500000920E-02 0.  1.
    10030    2    1    2    0    0  0.00000000000E+00  0.00000000000E+00  0.64890153216E+03  0.29785210550E+04  0.29069768621E+04 0.  0.
        3    1    3    3  502    0  0.12006862503E+04  0.76374789966E+03  0.62782961832E+03  0.15553547395E+04  0.10100000352E+00 0. -1.
       -3    1    3    3    0  502 -0.12006862503E+04 -0.76374789966E+03  0.21071913834E+02  0.14231663155E+04  0.10100000352E+00 0.  1.
</event>
<event>
 5   0  0.9360689E-06  0.2864345E+04  0.7818609E-02  0.8283566E-01
       -2   -1    0    0    0  501  0.00000000000E+00  0.00000000000E+00  0.11053315902E+04  0.11053315902E+04  0.25500000920E-02 0. -1.
        2   -1    0    0  501    0  0.00000000000E+00  0.00000000000E+00 -0.18556580411E+04  0.18556580411E+04  0.25500000920E-02 0.  1.
    10030    2    1    2    0    0  0.00000000000E+00  0.00000000000E+00 -0.75032645092E+03  0.29609896312E+04  0.28643445696E+04 0.  0.
        5    1    3    3  502    0 -0.20321763061E+03  0.69400557736E+03  0.90273191288E+03  0.11566711474E+04  0.46999998093E+01 0. -1.
       -5    1    3    3    0  502  0.20321763061E+03 -0.69400557736E+03 -0.16530583638E+04  0.18043184838E+04  0.46999998093E+01 0.  1.
</event>
<event>
 5   0  0.3746518E-06  0.2679548E+04  0.7818609E-02  0.8341672E-01
       -1   -1    0    0    0  501  0.00000000000E+00  0.00000000000E+00  0.14319058610E+04  0.14319058610E+04  0.50400001928E-02 0.  1.
        1   -1    0    0  501    0  0.00000000000E+00  0.00000000000E+00 -0.12535697464E+04  0.12535697464E+04  0.50400001928E-02 0. -1.
    10030    2    1    2    0    0  0.00000000000E+00  0.00000000000E+00  0.17833611459E+03  0.26854756073E+04  0.26795476237E+04 0.  0.
        4    1    3    3  502    0  0.24293598619E+03  0.81107947302E+03  0.11297928752E+04  0.14118432486E+04  0.12699999809E+01 0. -1.
       -4    1    3    3    0  502 -0.24293598619E+03 -0.81107947302E+03 -0.95145676062E+03  0.12736323587E+04  0.12699999809E+01 0.  1.
</event>
<event>
 5   0  0.3474078E-06  0.2910413E+04  0.7818609E-02  0.8269786E-01
        1   -1    0    0  501    0  0.00000000000E+00  0.00000000000E+00  0.20301575677E+04  0.20301575677E+04  0.50400001928E-02 0.  1.
       -1   -1    0    0    0  501  0.00000000000E+00  0.00000000000E+00 -0.10430845774E+04  0.10430845774E+04  0.50400001928E-02 0. -1.
    10030    2    1    2    0    0  0.00000000000E+00  0.00000000000E+00  0.98707299025E+03  0.30732421451E+04  0.29104130625E+04 0.  0.
        3    1    3    3  502    0 -0.12335971591E+04 -0.76148261212E+03  0.62713912712E+03  0.15795319605E+04  0.10100000352E+00 0. -1.
       -3    1    3    3    0  502  0.12335971591E+04  0.76148261212E+03  0.35993386313E+03  0.14937101845E+04  0.10100000352E+00 0.  1.
</event>
<event>
 5   0  0.3474078E-06  0.2865339E+04  0.7818609E-02  0.8283266E-01
        1   -1    0    0  501    0  0.00000000000E+00  0.00000000000E+00  0.20393354320E+04  0.20393354320E+04  0.50400001928E-02 0.  1.
       -1   -1    0    0    0  501  0.00000000000E+00  0.00000000000E+00 -0.10064755790E+04  0.10064755790E+04  0.50400001928E-02 0. -1.
    10030    2    1    2    0    0  0.00000000000E+00  0.00000000000E+00  0.10328598530E+04  0.30458110110E+04  0.28653385906E+04 0.  0.
        3    1    3    3  502    0 -0.13061879174E+04  0.37757795671E+03  0.36495805713E+02  0.13601558524E+04  0.10100000352E+00 0. -1.
       -3    1    3    3    0  502  0.13061879174E+04 -0.37757795671E+03  0.99636404725E+03  0.16856551586E+04  0.10100000352E+00 0.  1.
</event>
<event>
 5   0  0.3486236E-06  0.2942049E+04  0.7818609E-02  0.8260475E-01
       -1   -1    0    0    0  501  0.00000000000E+00  0.00000000000E+00  0.86278807673E+03  0.86278807675E+03  0.50400001928E-02 0. -1.
        1   -1    0    0  501    0  0.00000000000E+00  0.00000000000E+00 -0.25080471896E+04  0.25080471896E+04  0.50400001928E-02 0.  1.
    10030    2    1    2    0    0  0.00000000000E+00  0.00000000000E+00 -0.16452591129E+04  0.33708352664E+04  0.29420490894E+04 0.  0.
        5    1    3    3  502    0 -0.93773625184E+03  0.49934890373E+03  0.34310098740E+03  0.11164403178E+04  0.46999998093E+01 0. -1.
       -5    1    3    3    0  502  0.93773625184E+03 -0.49934890373E+03 -0.19883601003E+04  0.22543949486E+04  0.46999998093E+01 0.  1.
</event>
<event>
 5   0  0.9251510E-06  0.2915333E+04  0.7818609E-02  0.8268330E-01
        2   -1    0    0  501    0  0.00000000000E+00  0.00000000000E+00  0.70336114088E+03  0.70336114088E+03  0.25500000920E-02 0. -1.
       -2   -1    0    0    0  501  0.00000000000E+00  0.00000000000E+00 -0.30209103196E+04  0.30209103196E+04  0.25500000920E-02 0.  1.
    10030    2    1    2    0    0  0.00000000000E+00  0.00000000000E+00 -0.23175491787E+04  0.37242714605E+04  0.29153325223E+04 0.  0.
        2    1    3    3  502    0  0.12407833931E+04  0.64504286546E+03 -0.63334888566E+03  0.15351724782E+04  0.25500000920E-02 0. -1.
       -2    1    3    3    0  502 -0.12407833931E+04 -0.64504286546E+03 -0.16842002931E+04  0.21890989823E+04  0.25500000920E-02 0.  1.
</event>
<event>
 5   0  0.9646321E-06  0.2185325E+04  0.7818609E-02  0.8524561E-01
       -2   -1    0    0    0  501  0.00000000000E+00  0.00000000000E+00  0.76021897474E+03  0.76021897474E+03  0.25500000920E-02 0.  1.
        2   -1    0    0  501    0  0.00000000000E+00  0.00000000000E+00 -0.15704836310E+04  0.15704836310E+04  0.25500000920E-02 0. -1.
    10030    2    1    2    0    0  0.00000000000E+00  0.00000000000E+00 -0.81026465621E+03  0.23307026057E+04  0.21853251070E+04 0.  0.
        3    1    3    3  502    0  0.69004579785E+03 -0.82176135930E+03 -0.18537520740E+03  0.10889531269E+04  0.10100000352E+00 0. -1.
       -3    1    3    3    0  502 -0.69004579785E+03  0.82176135930E+03 -0.62488944881E+03  0.12417494788E+04  0.10100000352E+00 0.  1.
</event>
<event>
 5   0  0.9646321E-06  0.2883229E+04  0.7818609E-02  0.8277885E-01
       -2   -1    0    0    0  501  0.00000000000E+00  0.00000000000E+00  0.16752087246E+04  0.16752087246E+04  0.25500000920E-02 0. -1.
        2   -1    0    0  501    0  0.00000000000E+00  0.00000000000E+00 -0.12405934795E+04  0.12405934795E+04  0.25500000920E-02 0.  1.
    10030    2    1    2    0    0  0.00000000000E+00  0.00000000000E+00  0.43461524505E+03  0.29158022041E+04  0.28832294536E+04 0.  0.
        3    1    3    3  502    0 -0.72037073795E+03 -0.37527169589E+03 -0.98715137011E+03  0.12783703233E+04  0.10100000352E+00 0.  1.
       -3    1    3    3    0  502  0.72037073795E+03  0.37527169589E+03  0.14217666152E+04  0.16374318807E+04  0.10100000352E+00 0. -1.
</event>
<event>
 5   0  0.3649705E-06  0.2890084E+04  0.7818609E-02  0.8275834E-01
       -1   -1    0    0    0  501  0.00000000000E+00  0.00000000000E+00  0.10954528224E+04  0.10954528224E+04  0.50400001928E-02 0. -1.
        1   -1    0    0  501    0  0.00000000000E+00  0.00000000000E+00 -0.19061951052E+04  0.19061951052E+04  0.50400001928E-02 0.  1.
    10030    2    1    2    0    0  0.00000000000E+00  0.00000000000E+00 -0.81074228278E+03  0.30016479276E+04  0.28900842950E+04 0.  0.
        2    1    3    3  502    0  0.10373619684E+04  0.37687246009E+03 -0.13741115056E+04  0.17624798253E+04  0.25500000920E-02 0.  1.
       -2    1    3    3    0  502 -0.10373619684E+04 -0.37687246009E+03  0.56336922279E+03  0.12391681024E+04  0.25500000920E-02 0. -1.
</event>
<event>
 5   0  0.9505359E-06  0.2988775E+04  0.7818609E-02  0.8246943E-01
       -2   -1    0    0    0  501  0.00000000000E+00  0.00000000000E+00  0.12320678656E+04  0.12320678656E+04  0.25500000920E-02 0. -1.
        2   -1    0    0  501    0  0.00000000000E+00  0.00000000000E+00 -0.18125578703E+04  0.18125578703E+04  0.25500000920E-02 0.  1.
    10030    2    1    2    0    0  0.00000000000E+00  0.00000000000E+00 -0.58049000474E+03  0.30446257359E+04  0.29887752050E+04 0.  0.
        4    1    3    3  502    0  0.28643212066E+03 -0.12950953676E+04  0.41100621061E+03  0.13886119289E+04  0.12699999809E+01 0. -1.
       -4    1    3    3    0  502 -0.28643212066E+03  0.12950953676E+04 -0.99149621536E+03  0.16560138070E+04  0.12699999809E+01 0.  1.
</event>
<event>
 5   0  0.9646321E-06  0.2926147E+04  0.7818609E-02  0.8265140E-01
        2   -1    0    0  501    0  0.00000000000E+00  0.00000000000E+00  0.27514587987E+04  0.27514587987E+04  0.25500000920E-02 0.  1.
       -2   -1    0    0    0  501  0.00000000000E+00  0.00000000000E+00 -0.77798159555E+03  0.77798159555E+03  0.25500000920E-02 0. -1.
    10030    2    1    2    0    0  0.00000000000E+00  0.00000000000E+00  0.19734772032E+04  0.35294403943E+04  0.29261471640E+04 0.  0.
        3    1    3    3  502    0 -0.58451715041E+03 -0.11787660979E+04  0.17585334869E+04  0.21962672532E+04  0.10100000352E+00 0.  1.
       -3    1    3    3    0  502  0.58451715041E+03  0.11787660979E+04  0.21494371628E+03  0.13331731411E+04  0.10100000352E+00 0. -1.
</event>
<event>
 5   0  0.9646321E-06  0.3125652E+04  0.7818609E-02  0.8208733E-01
       -2   -1    0    0    0  501  0.00000000000E+00  0.00000000000E+00  0.15434886404E+04  0.15434886404E+04  0.25500000920E-02 0.  1.
        2   -1    0    0  501    0  0.00000000000E+00  0.00000000000E+00 -0.15824056101E+04  0.15824056101E+04  0.25500000920E-02 0. -1.
    10030    2    1    2    0    0  0.00000000000E+00  0.00000000000E+00 -0.38916969705E+02  0.31258942505E+04  0.31256519856E+04 0.  0.
        3    1    3    3  502    0 -0.11226572000E+04  0.12704698898E+02 -0.11066970503E+04  0.15764831015E+04  0.10100000352E+00 0. -1.
       -3    1    3    3    0  502  0.11226572000E+04 -0.12704698898E+02  0.10677800806E+04  0.15494111490E+04  0.10100000352E+00 0.  1.
</event>
<event>
 5   0  0.9646321E-06  0.2638021E+04  0.7818609E-02  0.8355400E-01
       -2   -1    0    0    0  501  0.00000000000E+00  0.00000000000E+00  0.12757655904E+04  0.12757655904E+04  0.25500000920E-02 0. -1.
        2   -1    0    0  501    0  0.00000000000E+00  0.00000000000E+00 -0.13637209477E+04  0.13637209477E+04  0.25500000920E-02 0.  1.
    10030    2    1    2    0    0  0.00000000000E+00  0.00000000000E+00 -0.87955357275E+02  0.26394865381E+04  0.26380206671E+04 0.  0.
        3    1    3    3  502    0 -0.71828345399E+03 -0.91061833439E+03 -0.67252367595E+03  0.13406882472E+04  0.10100000352E+00 0. -1.
       -3    1    3    3    0  502  0.71828345399E+03  0.91061833439E+03  0.58456831867E+03  0.12987982910E+04  0.10100000352E+00 0.  1.
</event>
<event>
 5   0  0.9360689E-06  0.2943753E+04  0.7818609E-02  0.8259977E-01
       -2   -1    0    0    0  501  0.00000000000E+00  0.00000000000E+00  0.99689791313E+03  0.99689791313E+03  0.25500000920E-02 0.  1.
        2   -1    0    0  501    0  0.00000000000E+00  0.00000000000E+00 -0.21731624106E+04  0.21731624106E+04  0.25500000920E-02 0. -1.
    10030    2    1    2    0    0  0.00000000000E+00  0.00000000000E+00 -0.11762644974E+04  0.31700603237E+04  0.29437534353E+04 0.  0.
        5    1    3    3  502    0 -0.42023223160E+03  0.73967974543E+03  0.70532106819E+03  0.11050887537E+04  0.46999998093E+01 0.  1.
       -5    1    3    3    0  502  0.42023223160E+03 -0.73967974543E+03 -0.18815855656E+04  0.20649715700E+04  0.46999998093E+01 0. -1.
</event>
<event>
 5   0  0.3474078E-06  0.2885001E+04  0.7818609E-02  0.8277354E-01
        1   -1    0    0  501    0  0.00000000000E+00  0.00000000000E+00  0.15502565041E+04  0.15502565041E+04  0.50400001928E-02 0. -1.
       -1   -1    0    0    0  501  0.00000000000E+00  0.00000000000E+00 -0.13422341501E+04  0.13422341501E+04  0.50400001928E-02 0.  1.
    10030    2    1    2    0    0  0.00000000000E+00  0.00000000000E+00  0.20802235398E+03  0.28924906542E+04  0.28850006733E+04 0.  0.
        3    1    3    3  502    0 -0.92583435164E+03  0.29654538017E+03 -0.96444725155E+03  0.13694038558E+04  0.10100000352E+00 0.  1.
       -3    1    3    3    0  502  0.92583435164E+03 -0.29654538017E+03  0.11724696055E+04  0.15230867983E+04  0.10100000352E+00 0. -1.
</event>
<event>
 5   0  0.3649705E-06  0.2899917E+04  0.7818609E-02  0.8272902E-01
       -1   -1    0    0    0  501  0.00000000000E+00  0.00000000000E+00  0.12220745211E+04  0.12220745211E+04  0.50400001928E-02 0.  1.
        1   -1    0    0  501    0  0.00000000000E+00  0.00000000000E+00 -0.17203366382E+04  0.17203366382E+04  0.50400001928E-02 0. -1.
    10030    2    1    2    0    0  0.00000000000E+00  0.00000000000E+00 -0.49826211713E+03  0.29424111593E+04  0.28999169459E+04 0.  0.
        2    1    3    3  502    0 -0.73899797428E+02  0.13100986178E+04  0.37680413575E+03  0.13652109453E+04  0.25500000920E-02 0.  1.
       -2    1    3    3    0  502  0.73899797428E+02 -0.13100986178E+04 -0.87506625288E+03  0.15772002141E+04  0.25500000920E-02 0. -1.
</event>
<event>
 5   0  0.3746518E-06  0.2858695E+04  0.7818609E-02  0.8285274E-01
        1   -1    0    0  501    0  0.00000000000E+00  0.00000000000E+00  0.15658122324E+04  0.15658122324E+04  0.50400001928E-02 0.  1.
       -1   -1    0    0    0  501  0.00000000000E+00  0.00000000000E+00 -0.13047760749E+04  0.13047760749E+04  0.50400001928E-02 0. -1.
    10030    2    1    2    0    0  0.00000000000E+00  0.00000000000E+00  0.26103615745E+03  0.28705883073E+04  0.28586950440E+04 0.  0.
        4    1    3    3  502    0 -0.15933717971E+03 -0.38805510957E+03 -0.12415698496E+04  0.13105237156E+04  0.12699999809E+01 0. -1.
       -4    1    3    3    0  502  0.15933717971E+03  0.38805510957E+03  0.15026060070E+04  0.15600645917E+04  0.12699999809E+01 0.  1.
</event>
<event>
 5   0  0.9646321E-06  0.2750017E+04  0.7818609E-02  0.8318956E-01
       -2   -1    0    0    0  501  0.00000000000E+00  0.00000000000E+00  0.14597794662E+04  0.14597794662E+04  0.25500000920E-02 0.  1.
        2   -1    0    0  501    0  0.00000000000E+00  0.00000000000E+00 -0.12951605534E+04  0.12951605534E+04  0.25500000920E-02 0. -1.
    10030    2    1    2    0    0  0.00000000000E+00  0.00000000000E+00  0.16461891284E+03  0.27549400197E+04  0.27500172955E+04 0.  0.
        3    1    3    3  502    0 -0.51002918132E+01  0.26603366678E+03 -0.12691231140E+04  0.12967163967E+04  0.10100000352E+00 0. -1.
       -3    1    3    3    0  502  0.51002918132E+01 -0.26603366678E+03  0.14337420268E+04  0.14582236229E+04  0.10100000352E+00 0.  1.
</event>
<event>
 5   0  0.9646321E-06  0.2928407E+04  0.7818609E-02  0.8264476E-01
        2   -1    0    0  501    0  0.00000000000E+00  0.00000000000E+00  0.13168603846E+04  0.13168603846E+04  0.25500000920E-02 0. -1.
       -2   -1    0    0    0  501  0.00000000000E+00  0.00000000000E+00 -0.16280322728E+04  0.16280322728E+04  0.25500000920E-02 0.  1.
    10030    2    1    2    0    0  0.00000000000E+00  0.00000000000E+00 -0.31117188821E+03  0.29448926575E+04  0.29284065326E+04 0.  0.
        3    1    3    3  502    0  0.68051537265E+03  0.36013534606E+02  0.11476624769E+04  0.13347386704E+04  0.10100000352E+00 0. -1.
       -3    1    3    3    0  502 -0.68051537265E+03 -0.36013534606E+02 -0.14588343651E+04  0.16101539871E+04  0.10100000352E+00 0.  1.
</event>
<event>
 5   0  0.1001573E-05  0.2935948E+04  0.7818609E-02  0.8262262E-01
        2   -1    0    0  501    0  0.00000000000E+00  0.00000000000E+00  0.14497515352E+04  0.14497515352E+04  0.25500000920E-02 0. -1.
       -2   -1    0    0    0  501  0.00000000000E+00  0.00000000000E+00 -0.14864250672E+04  0.14864250672E+04  0.25500000920E-02 0.  1.
    10030    2    1    2    0    0  0.00000000000E+00  0.00000000000E+00 -0.36673532021E+02  0.29361766023E+04  0.29359475629E+04 0.  0.
        1    1    3    3  502    0  0.28342487200E+03  0.48689228871E+03 -0.13740063342E+04  0.14850209309E+04  0.50400001928E-02 0.  1.
       -1    1    3    3    0  502 -0.28342487200E+03 -0.48689228871E+03  0.13373328022E+04  0.14511556714E+04  0.50400001928E-02 0. -1.
</event>
<event>
 5   0  0.3564340E-06  0.2891601E+04  0.7818609E-02  0.8275381E-01
        1   -1    0    0  501    0  0.00000000000E+00  0.00000000000E+00  0.20138797000E+04  0.20138797000E+04  0.50400001928E-02 0.  1.
       -1   -1    0    0    0  501  0.00000000000E+00  0.00000000000E+00 -0.10379661114E+04  0.10379661114E+04  0.50400001928E-02 0. -1.
    10030    2    1    2    0    0  0.00000000000E+00  0.00000000000E+00  0.97591358858E+03  0.30518458115E+04  0.28916008584E+04 0.  0.
        1    1    3    3  502    0  0.13549681902E+04  0.22004886127E+02 -0.43868715944E+02  0.13558567313E+04  0.50400001928E-02 0. -1.
       -1    1    3    3    0  502 -0.13549681902E+04 -0.22004886127E+02  0.10197823045E+04  0.16959890802E+04  0.50400001928E-02 0.  1.
</event>
<event>
 5   0  0.9251510E-06  0.2888510E+04  0.7818609E-02  0.8276304E-01
        2   -1    0    0  501    0  0.00000000000E+00  0.00000000000E+00  0.14797755048E+04  0.14797755048E+04  0.25500000920E-02 0.  1.
       -2   -1    0    0    0  501  0.00000000000E+00  0.00000000000E+00 -0.14095866535E+04  0.14095866535E+04  0.25500000920E-02 0. -1.
    10030    2    1    2    0    0  0.00000000000E+00  0.00000000000E+00  0.70188851319E+02  0.28893621583E+04  0.28885095131E+04 0.  0.
        2    1    3    3  502    0 -0.45798333174E+03  0.38235908250E+03  0.13507486540E+04  0.14766411638E+04  0.25500000920E-02 0.  1.
       -2    1    3    3    0  502  0.45798333174E+03 -0.38235908250E+03 -0.12805598027E+04  0.14127209946E+04  0.25500000920E-02 0. -1.
</event>
<event>
 5   0  0.9646321E-06  0.2902505E+04  0.7818609E-02  0.8272133E-01
        2   -1    0    0  501    0  0.00000000000E+00  0.00000000000E+00  0.16021655615E+04  0.16021655615E+04  0.25500000920E-02 0.  1.
       -2   -1    0    0    0  501  0.00000000000E+00  0.00000000000E+00 -0.13145541624E+04  0.13145541624E+04  0.25500000920E-02 0. -1.
    10030    2    1    2    0    0  0.00000000000E+00  0.00000000000E+00  0.28761139908E+03  0.29167197238E+04  0.29025047167E+04 0.  0.
        3    1    3    3  502    0 -0.13245923073E+04 -0.20160293910E+02  0.73931424684E+03  0.15170816668E+04  0.10100000352E+00 0. -1.
       -3    1    3    3    0  502  0.13245923073E+04  0.20160293910E+02 -0.45170284776E+03  0.13996380571E+04  0.10100000352E+00 0.  1.
</event>
<event>
 5   0  0.3564340E-06  0.2893134E+04  0.7818609E-02  0.8274923E-01
       -1   -1    0    0    0  501  0.00000000000E+00  0.00000000000E+00  0.10636319580E+04  0.10636319580E+04  0.50400001928E-02 0.  1.
        1   -1    0    0  501    0  0.00000000000E+00  0.00000000000E+00 -0.19673688575E+04  0.19673688575E+04  0.50400001928E-02 0. -1.
    10030    2    1    2    0    0  0.00000000000E+00  0.00000000000E+00 -0.90373689953E+03  0.30310008156E+04  0.28931342106E+04 0.  0.
        1    1    3    3  502    0 -0.14159922269E+04  0.27654208136E+03 -0.56198112290E+03  0.15483321000E+04  0.50400001928E-02 0. -1.
       -1    1    3    3    0  502  0.14159922269E+04 -0.27654208136E+03 -0.34175577663E+03  0.14826687156E+04  0.50400001928E-02 0.  1.
</event>
<event>
 5   0  0.9505359E-06  0.2822851E+04  0.7818609E-02  0.8296209E-01
        2   -1    0    0  501    0  0.00000000000E+00  0.00000000000E+00  0.87940759609E+03  0.87940759610E+03  0.25500000920E-02 0.  1.
       -2   -1    0    0    0  501  0.00000000000E+00  0.00000000000E+00 -0.22653006127E+04  0.22653006127E+04  0.25500000920E-02 0. -1.
    10030    2    1    2    0    0  0.00000000000E+00  0.00000000000E+00 -0.13858930166E+04  0.31447082088E+04  0.28228514423E+04 0.  0.
        4    1    3    3  502    0 -0.26255083988E+03 -0.12846274824E+04 -0.12749293819E+04  0.18288376783E+04  0.12699999809E+01 0.  1.
       -4    1    3    3    0  502  0.26255083988E+03  0.12846274824E+04 -0.11096363475E+03  0.13158705305E+04  0.12699999809E+01 0. -1.
</event>
<event>
 5   0  0.3486236E-06  0.2870456E+04  0.7818609E-02  0.8281722E-01
        1   -1    0    0  501    0  0.00000000000E+00  0.00000000000E+00  0.19286913554E+04  0.19286913554E+04  0.50400001928E-02 0. -1.
       -1   -1    0    0    0  501  0.00000000000E+00  0.00000000000E+00 -0.10680192063E+04  0.10680192063E+04  0.50400001928E-02 0.  1.
    10030    2    1    2    0    0  0.00000000000E+00  0.00000000000E+00  0.86067214912E+03  0.29967105618E+04  0.28704559991E+04 0.  0.
        5    1    3    3  502    0 -0.10005038670E+04  0.40298812165E+03 -0.55811895978E+03  0.12144654286E+04  0.46999998093E+01 0. -1.
       -5    1    3    3    0  502  0.10005038670E+04 -0.40298812165E+03  0.14187911089E+04  0.17822451332E+04  0.46999998093E+01 0.  1.
</event>
<event>
 5   0  0.9360689E-06  0.2304194E+04  0.7818609E-02  0.8476269E-01
        2   -1    0    0  501    0  0.00000000000E+00  0.00000000000E+00  0.13363056134E+04  0.13363056134E+04  0.25500000920E-02 0.  1.
       -2   -1    0    0    0  501  0.00000000000E+00  0.00000000000E+00 -0.99328162150E+03  0.99328162151E+03  0.25500000920E-02 0. -1.
    10030    2    1    2    0    0  0.00000000000E+00  0.00000000000E+00  0.34302399187E+03  0.23295872349E+04  0.23041942683E+04 0.  0.
        5    1    3    3  502    0 -0.45623659293E+03  0.55127390112E+02  0.12396179373E+04  0.13220686738E+04  0.46999998093E+01 0.  1.
       -5    1    3    3    0  502  0.45623659293E+03 -0.55127390112E+02 -0.89659394543E+03  0.10075185610E+04  0.46999998093E+01 0. -1.
</event>
<event>
 5   0  0.9505359E-06  0.3089566E+04  0.7818609E-02  0.8218607E-01
        2   -1    0    0  501    0  0.00000000000E+00  0.00000000000E+00  0.13077132409E+04  0.13077132409E+04  0.25500000920E-02 0. -1.
       -2   -1    0    0    0  501  0.00000000000E+00  0.00000000000E+00 -0.18248295728E+04  0.18248295728E+04  0.25500000920E-02 0.  1.
    10030    2    1    2    0    0  0.00000000000E+00  0.00000000000E+00 -0.51711633194E+03  0.31325428137E+04  0.30895655324E+04 0.  0.
        4    1    3    3  502    0 -0.93663407553E+03 -0.16288628012E+03  0.97597383642E+03  0.13624763756E+04  0.12699999809E+01 0. -1.
       -4    1    3    3    0  502  0.93663407553E+03  0.16288628012E+03 -0.14930901684E+04  0.17700664381E+04  0.12699999809E+01 0.  1.
</event>
<event>
 5   0  0.9646321E-06  0.2183045E+04  0.7818609E-02  0.8525519E-01
        2   -1    0    0  501    0  0.00000000000E+00  0.00000000000E+00  0.11662272541E+04  0.11662272541E+04  0.25500000920E-02 0. -1.
       -2   -1    0    0    0  501  0.00000000000E+00  0.00000000000E+00 -0.10216026798E+04  0.10216026798E+04  0.25500000920E-02 0.  1.
    10030    2    1    2    0    0  0.00000000000E+00  0.00000000000E+00  0.14462457430E+03  0.21878299338E+04  0.21830445602E+04 0.  0.
        3    1    3    3  502    0 -0.12167235143E+03 -0.51591562853E+03  0.10285777710E+04  0.11571280560E+04  0.10100000352E+00 0. -1.
       -3    1    3    3    0  502  0.12167235143E+03  0.51591562853E+03 -0.88395319666E+03  0.10307018778E+04  0.10100000352E+00 0.  1.
</event>
<event>
 5   0  0.9646321E-06  0.2902261E+04  0.7818609E-02  0.8272205E-01
       -2   -1    0    0    0  501  0.00000000000E+00  0.00000000000E+00  0.12743002160E+04  0.12743002160E+04  0.25500000920E-02 0.  1.
        2   -1    0    0  501    0  0.00000000000E+00  0.00000000000E+00 -0.16524988835E+04  0.16524988835E+04  0.25500000920E-02 0. -1.
    10030    2    1    2    0    0  0.00000000000E+00  0.00000000000E+00 -0.37819866742E+03  0.29267990995E+04  0.29022609698E+04 0.  0.
        3    1    3    3  502    0 -0.12555932709E+04  0.59080768494E+03  0.23900309515E+03  0.14080804921E+04  0.10100000352E+00 0. -1.
       -3    1    3    3    0  502  0.12555932709E+04 -0.59080768494E+03 -0.61720176257E+03  0.15187186074E+04  0.10100000352E+00 0.  1.
</event>
<event>
 5   0  0.9251510E-06  0.2836882E+04  0.7818609E-02  0.8291909E-01
       -2   -1    0    0    0  501  0.00000000000E+00  0.00000000000E+00  0.15853469543E+04  0.15853469543E+04  0.25500000920E-02 0.  1.
        2   -1    0    0  501    0  0.00000000000E+00  0.00000000000E+00 -0.12691066870E+04  0.12691066870E+04  0.25500000920E-02 0. -1.
    10030    2    1    2    0    0  0.00000000000E+00  0.00000000000E+00  0.31624026738E+03  0.28544536413E+04  0.28368816831E+04 0.  0.
        2    1    3    3  502    0  0.10147529994E+03  0.68161091700E+03 -0.10893510877E+04  0.12890215169E+04  0.25500000920E-02 0. -1.
       -2    1    3    3    0  502 -0.10147529994E+03 -0.68161091700E+03  0.14055913551E+04  0.15654321244E+04  0.25500000920E-02 0.  1.
</event>
<event>
 5   0  0.9646321E-06  0.2915755E+04  0.7818609E-02  0.8268205E-01
       -2   -1    0    0    0  501  0.00000000000E+00  0.00000000000E+00  0.97811682087E+03  0.97811682087E+03  0.25500000920E-02 0. -1.
        2   -1    0    0  501    0  0.00000000000E+00  0.00000000000E+00 -0.21729576421E+04  0.21729576421E+04  0.25500000920E-02 0.  1.
    10030    2    1    2    0    0  0.00000000000E+00  0.00000000000E+00 -0.11948408212E+04  0.31510744630E+04  0.29157547364E+04 0.  0.
        3    1    3    3  502    0 -0.12475332250E+04  0.68740144129E+03 -0.26162404423E+03  0.14482082169E+04  0.10100000352E+00 0. -1.
       -3    1    3    3    0  502  0.12475332250E+04 -0.68740144129E+03 -0.93321677700E+03  0.17028662460E+04  0.10100000352E+00 0.  1.
</event>
<event>
 5   0  0.3486236E-06  0.2896302E+04  0.7818609E-02  0.8273978E-01
        1   -1    0    0  501    0  0.00000000000E+00  0.00000000000E+00  0.16951658116E+04  0.16951658116E+04  0.50400001928E-02 0. -1.
       -1   -1    0    0    0  501  0.00000000000E+00  0.00000000000E+00 -0.12371309122E+04  0.12371309122E+04  0.50400001928E-02 0.  1.
    10030    2    1    2    0    0  0.00000000000E+00  0.00000000000E+00  0.45803489941E+03  0.29322967238E+04  0.28963024889E+04 0.  0.
        5    1    3    3  502    0  0.19068774932E+03 -0.18718977561E+03 -0.12119477841E+04  0.12410646040E+04  0.46999998093E+01 0.  1.
       -5    1    3    3    0  502 -0.19068774932E+03  0.18718977561E+03  0.16699826835E+04  0.16912321198E+04  0.46999998093E+01 0. -1.
</event>
<event>
 5   0  0.1001573E-05  0.2881251E+04  0.7818609E-02  0.8278478E-01
       -2   -1    0    0    0  501  0.00000000000E+00  0.00000000000E+00  0.76524129272E+03  0.76524129273E+03  0.25500000920E-02 0. -1.
        2   -1    0    0  501    0  0.00000000000E+00  0.00000000000E+00 -0.27120874265E+04  0.27120874265E+04  0.25500000920E-02 0.  1.
    10030    2    1    2    0    0  0.00000000000E+00  0.00000000000E+00 -0.19468461338E+04  0.34773287192E+04  0.28812506231E+04 0.  0.
        1    1    3    3  502    0 -0.10799632316E+04  0.25834026656E+03 -0.20810887073E+04  0.23588112435E+04  0.50400001928E-02 0.  1.
       -1    1    3    3    0  502  0.10799632316E+04 -0.25834026656E+03  0.13424257356E+03  0.11185174757E+04  0.50400001928E-02 0. -1.
</event>
<event>
 5   0  0.3474078E-06  0.2901883E+04  0.7818609E-02  0.8272317E-01
        1   -1    0    0  501    0  0.00000000000E+00  0.00000000000E+00  0.13088581231E+04  0.13088581231E+04  0.50400001928E-02 0. -1.
       -1   -1    0    0    0  501  0.00000000000E+00  0.00000000000E+00 -0.16084489010E+04  0.16084489010E+04  0.50400001928E-02 0.  1.
    10030    2    1    2    0    0  0.00000000000E+00  0.00000000000E+00 -0.29959077788E+03  0.29173070242E+04  0.29018831195E+04 0.  0.
        3    1    3    3  502    0  0.63233136530E+03  0.94623178985E+03 -0.10545979136E+04  0.15515715663E+04  0.10100000352E+00 0.  1.
       -3    1    3    3    0  502 -0.63233136530E+03 -0.94623178985E+03  0.75500713575E+03  0.13657354579E+04  0.10100000352E+00 0. -1.
</event>
<event>
 5   0  0.9505359E-06  0.2902013E+04  0.7818609E-02  0.8272279E-01
       -2   -1    0    0    0  501  0.00000000000E+00  0.00000000000E+00  0.10753825480E+04  0.10753825480E+04  0.25500000920E-02 0. -1.
        2   -1    0    0  501    0  0.00000000000E+00  0.00000000000E+00 -0.19578330221E+04  0.19578330221E+04  0.25500000920E-02 0.  1.
    10030    2    1    2    0    0  0.00000000000E+00  0.00000000000E+00 -0.88245047411E+03  0.30332155702E+04  0.29020127250E+04 0.  0.
        4    1    3    3  502    0 -0.12810621789E+04  0.41626870760E+03  0.12262507028E+03  0.13525673602E+04  0.12699999809E+01 0. -1.
       -4    1    3    3    0  502  0.12810621789E+04 -0.41626870760E+03 -0.10050755444E+04  0.16806482100E+04  0.12699999809E+01 0.  1.
</event>
<event>
 5   0  0.9505359E-06  0.2936327E+04  0.7818609E-02  0.8262151E-01
        2   -1    0    0  501    0  0.00000000000E+00  0.00000000000E+00  0.17686286199E+04  0.17686286199E+04  0.25500000920E-02 0.  1.
       -2   -1    0    0    0  501  0.00000000000E+00  0.00000000000E+00 -0.12187430167E+04  0.12187430167E+04  0.25500000920E-02 0. -1.
    10030    2    1    2    0    0  0.00000000000E+00  0.00000000000E+00  0.54988560320E+03  0.29873716365E+04  0.29363268071E+04 0.  0.
        4    1    3    3  502    0 -0.38215874612E+03  0.12101710828E+04  0.10259780609E+04  0.16319289051E+04  0.12699999809E+01 0.  1.
       -4    1    3    3    0  502  0.38215874612E+03 -0.12101710828E+04 -0.47609245771E+03  0.13554427314E+04  0.12699999809E+01 0. -1.
</event>
<event>
 5   0  0.3188375E-06  0.2874178E+04  0.7818609E-02  0.8280602E-01
       -3   -1    0    0    0  501  0.00000000000E+00  0.00000000000E+00  0.31980990583E+04  0.31980990599E+04  0.10100000352E+00 0.  1.
        3   -1    0    0  501    0  0.00000000000E+00  0.00000000000E+00 -0.64576616606E+03  0.64576617396E+03  0.10100000352E+00 0. -1.
    10030    2    1    2    0    0  0.00000000000E+00  0.00000000000E+00  0.25523328922E+04  0.38438652338E+04  0.28741775768E+04 0.  0.
        3    1    3    3  502    0  0.42000146240E+03  0.11209564765E+04  0.23395969538E+04  0.26280522383E+04  0.10100000352E+00 0.  1.
       -3    1    3    3    0  502 -0.42000146240E+03 -0.11209564765E+04  0.21273593840E+03  0.12158129956E+04  0.10100000352E+00 0. -1.
</event>
<event>
 5   0  0.9505359E-06  0.2904193E+04  0.7818609E-02  0.8271631E-01
        2   -1    0    0  501    0  0.00000000000E+00  0.00000000000E+00  0.16771067559E+04  0.16771067559E+04  0.25500000920E-02 0.  1.
       -2   -1    0    0    0  501  0.00000000000E+00  0.00000000000E+00 -0.12572749429E+04  0.12572749429E+04  0.25500000920E-02 0. -1.
    10030    2    1    2    0    0  0.00000000000E+00  0.00000000000E+00  0.41983181299E+03  0.29343816989E+04  0.29041930382E+04 0.  0.
        4    1    3    3  502    0  0.92684784240E+03  0.81532341739E+03  0.98257634604E+03  0.15777379651E+04  0.12699999809E+01 0. -1.
       -4    1    3    3    0  502 -0.92684784240E+03 -0.81532341739E+03 -0.56274453305E+03  0.13566437337E+04  0.12699999809E+01 0.  1.
</event>
<event>
 5   0  0.1001573E-05  0.2901130E+04  0.7818609E-02  0.8272541E-01
       -2   -1    0    0    0  501  0.00000000000E+00  0.00000000000E+00  0.11074352553E+04  0.11074352554E+04  0.25500000920E-02 0. -1.
        2   -1    0    0  501    0  0.00000000000E+00  0.00000000000E+00 -0.19000102583E+04  0.19000102583E+04  0.25500000920E-02 0.  1.
    10030    2    1    2    0    0  0.00000000000E+00  0.00000000000E+00 -0.79257500294E+03  0.30074455136E+04  0.29011296735E+04 0.  0.
        1    1    3    3  502    0 -0.11306792323E+04 -0.77681398087E+03 -0.88501196018E+03  0.16325200326E+04  0.50400001928E-02 0.  1.
       -1    1    3    3    0  502  0.11306792323E+04  0.77681398087E+03  0.92436957245E+02  0.13749254810E+04  0.50400001928E-02 0. -1.
</event>
<event>
 5   0  0.3746518E-06  0.2906270E+04  0.7818609E-02  0.8271015E-01
        1   -1    0    0  501    0  0.00000000000E+00  0.00000000000E+00  0.16028413426E+04  0.16028413426E+04  0.50400001928E-02 0.  1.
       -1   -1    0    0    0  501  0.00000000000E+00  0.00000000000E+00 -0.13174110026E+04  0.13174110026E+04  0.50400001928E-02 0. -1.
    10030    2    1    2    0    0  0.00000000000E+00  0.00000000000E+00  0.28543034005E+03  0.29202523452E+04  0.29062696504E+04 0.  0.
        4    1    3    3  502    0 -0.47980507024E+02 -0.25441442278E+03  0.15794793998E+04  0.16005579073E+04  0.12699999809E+01 0.  1.
       -4    1    3    3    0  502  0.47980507024E+02  0.25441442278E+03 -0.12940490597E+04  0.13196944379E+04  0.12699999809E+01 0. -1.
</event>
<event>
 5   0  0.3188375E-06  0.2924788E+04  0.7818609E-02  0.8265540E-01
        3   -1    0    0  501    0  0.00000000000E+00  0.00000000000E+00  0.14514083053E+04  0.14514083088E+04  0.10100000352E+00 0. -1.
       -3   -1    0    0    0  501  0.00000000000E+00  0.00000000000E+00 -0.14734624469E+04  0.14734624504E+04  0.10100000352E+00 0.  1.
    10030    2    1    2    0    0  0.00000000000E+00  0.00000000000E+00 -0.22054141652E+02  0.29248707592E+04  0.29247876116E+04 0.  0.
        5    1    3    3  502    0 -0.15315722465E+03 -0.14054811725E+04  0.36280047870E+03  0.14596166411E+04  0.46999998093E+01 0. -1.
       -5    1    3    3    0  502  0.15315722465E+03  0.14054811725E+04 -0.38485462035E+03  0.14652541181E+04  0.46999998093E+01 0.  1.
</event>
<event>
 5   0  0.3486236E-06  0.2910898E+04  0.7818609E-02  0.8269642E-01
       -1   -1    0    0    0  501  0.00000000000E+00  0.00000000000E+00  0.16343849406E+04  0.16343849406E+04  0.50400001928E-02 0. -1.
        1   -1    0    0  501    0  0.00000000000E+00  0.00000000000E+00 -0.12961032247E+04  0.12961032247E+04  0.50400001928E-02 0.  1.
    10030    2    1    2    0    0  0.00000000000E+00  0.00000000000E+00  0.33828171583E+03  0.29304881653E+04  0.29108978628E+04 0.  0.
        5    1    3    3  502    0 -0.93578906120E+03  0.91301681126E+02 -0.94931410903E+03  0.13361349227E+04  0.46999998093E+01 0.  1.
       -5    1    3    3    0  502  0.93578906120E+03 -0.91301681126E+02  0.12875958249E+04  0.15943532426E+04  0.46999998093E+01 0. -1.
</event>
<event>
 5   0  0.9505359E-06  0.2939652E+04  0.7818609E-02  0.8261177E-01
       -2   -1    0    0    0  501  0.00000000000E+00  0.00000000000E+00  0.11818561682E+04  0.11818561682E+04  0.25500000920E-02 0. -1.
        2   -1    0    0  501    0  0.00000000000E+00  0.00000000000E+00 -0.18279624405E+04  0.18279624405E+04  0.25500000920E-02 0.  1.
    10030    2    1    2    0    0  0.00000000000E+00  0.00000000000E+00 -0.64610627233E+03  0.30098186087E+04  0.29396521465E+04 0.  0.
        4    1    3    3  502    0 -0.14229532470E+04  0.10127033141E+03 -0.68553087633E+03  0.15827210173E+04  0.12699999809E+01 0. -1.
       -4    1    3    3    0  502  0.14229532470E+04 -0.10127033141E+03  0.39424604005E+02  0.14270975914E+04  0.12699999809E+01 0.  1.
</event>
<event>
 5   0  0.1001573E-05  0.2907711E+04  0.7818609E-02  0.8270587E-01
       -2   -1    0    0    0  501  0.00000000000E+00  0.00000000000E+00  0.93182172324E+03  0.93182172324E+03  0.25500000920E-02 0. -1.
        2   -1    0    0  501    0  0.00000000000E+00  0.00000000000E+00 -0.22683475273E+04  0.22683475273E+04  0.25500000920E-02 0.  1.
    10030    2    1    2    0    0  0.00000000000E+00  0.00000000000E+00 -0.13365258040E+04  0.32001692505E+04  0.29077107846E+04 0.  0.
        1    1    3    3  502    0  0.11999144038E+04 -0.68284800268E+02  0.23208855784E+03  0.12240598389E+04  0.50400001928E-02 0. -1.
       -1    1    3    3    0  502 -0.11999144038E+04  0.68284800268E+02 -0.15686143619E+04  0.19761094116E+04  0.50400001928E-02 0.  1.
</event>
<event>
 5   0  0.9251510E-06  0.2866983E+04  0.7818609E-02  0.8282769E-01
        2   -1    0    0  501    0  0.00000000000E+00  0.00000000000E+00  0.18398008570E+04  0.18398008570E+04  0.25500000920E-02 0. -1.
       -2   -1    0    0    0  501  0.00000000000E+00  0.00000000000E+00 -0.11169129474E+04  0.11169129474E+04  0.25500000920E-02 0.  1.
    10030    2    1    2    0    0  0.00000000000E+00  0.00000000000E+00  0.72288790967E+03  0.29567138044E+04  0.28669826632E+04 0.  0.
        2    1    3    3  502    0 -0.52191107842E+03  0.32995759327E+03 -0.97273625544E+03  0.11521627532E+04  0.25500000920E-02 0.  1.
       -2    1    3    3    0  502  0.52191107842E+03 -0.32995759327E+03  0.16956241651E+04  0.18045510512E+04  0.25500000920E-02 0. -1.
</event>
<event>
 5   0  0.9360689E-06  0.2877562E+04  0.7818609E-02  0.8279585E-01
       -2   -1    0    0    0  501  0.00000000000E+00  0.00000000000E+00  0.12434898737E+04  0.12434898737E+04  0.25500000920E-02 0.  1.
        2   -1    0    0  501    0  0.00000000000E+00  0.00000000000E+00 -0.16647427681E+04  0.16647427681E+04  0.25500000920E-02 0. -1.
    10030    2    1    2    0    0  0.00000000000E+00  0.00000000000E+00 -0.42125289436E+03  0.29082326418E+04  0.28775620059E+04 0.  0.
        5    1    3    3  502    0 -0.70156150644E+03  0.11344106226E+04  0.33456054285E+03  0.13751468485E+04  0.46999998093E+01 0. -1.
       -5    1    3    3    0  502  0.70156150644E+03 -0.11344106226E+04 -0.75581343721E+03  0.15330857934E+04  0.46999998093E+01 0.  1.
</event>
<event>
 5   0  0.9251510E-06  0.2880816E+04  0.7818609E-02  0.8278608E-01
       -2   -1    0    0    0  501  0.00000000000E+00  0.00000000000E+00  0.14043348479E+04  0.14043348479E+04  0.25500000920E-02 0.  1.
        2   -1    0    0  501    0  0.00000000000E+00  0.00000000000E+00 -0.14774075530E+04  0.14774075530E+04  0.25500000920E-02 0. -1.
    10030    2    1    2    0    0  0.00000000000E+00  0.00000000000E+00 -0.73072705069E+02  0.28817424009E+04  0.28808157950E+04 0.  0.
        2    1    3    3  502    0  0.73064483107E+03  0.22363360814E+03 -0.12579618747E+04  0.14718430413E+04  0.25500000920E-02 0. -1.
       -2    1    3    3    0  502 -0.73064483107E+03 -0.22363360814E+03  0.11848891697E+04  0.14098993596E+04  0.25500000920E-02 0.  1.
</event>
<event>
 5   0  0.3474078E-06  0.2958295E+04  0.7818609E-02  0.8255741E-01
       -1   -1    0    0    0  501  0.00000000000E+00  0.00000000000E+00  0.21906446622E+04  0.21906446622E+04  0.50400001928E-02 0.  1.
        1   -1    0    0  501    0  0.00000000000E+00  0.00000000000E+00 -0.99873654303E+03  0.99873654305E+03  0.50400001928E-02 0. -1.
    10030    2    1    2    0    0  0.00000000000E+00  0.00000000000E+00  0.11919081192E+04  0.31893812052E+04  0.29582946959E+04 0.  0.
        3    1    3    3  502    0 -0.84246476033E+03  0.85326902995E+03  0.15296674027E+04  0.19436299244E+04  0.10100000352E+00 0.  1.
       -3    1    3    3    0  502  0.84246476033E+03 -0.85326902995E+03 -0.33775928357E+03  0.12457512808E+04  0.10100000352E+00 0. -1.
</event>
<event>
 5   0  0.1001573E-05  0.2909447E+04  0.7818609E-02  0.8270072E-01
       -2   -1    0    0    0  501  0.00000000000E+00  0.00000000000E+00  0.14278579369E+04  0.14278579369E+04  0.25500000920E-02 0. -1.
        2   -1    0    0  501    0  0.00000000000E+00  0.00000000000E+00 -0.14820942115E+04  0.14820942115E+04  0.25500000920E-02 0.  1.
    10030    2    1    2    0    0  0.00000000000E+00  0.00000000000E+00 -0.54236274560E+02  0.29099521484E+04  0.29094466712E+04 0.  0.
        1    1    3    3  502    0  0.11839391189E+04  0.58285457094E+03  0.58518810574E+03  0.14435637870E+04  0.50400001928E-02 0. -1.
       -1    1    3    3    0  502 -0.11839391189E+04 -0.58285457094E+03 -0.63942438030E+03  0.14663883613E+04  0.50400001928E-02 0.  1.
</event>
<event>
 5   0  0.3649705E-06  0.2879733E+04  0.7818609E-02  0.8278933E-01
       -1   -1    0    0    0  501  0.00000000000E+00  0.00000000000E+00  0.15935986622E+04  0.15935986623E+04  0.50400001928E-02 0. -1.
        1   -1    0    0  501    0  0.00000000000E+00  0.00000000000E+00 -0.13009645475E+04  0.13009645476E+04  0.50400001928E-02 0.  1.
    10030    2    1    2    0    0  0.00000000000E+00  0.00000000000E+00  0.29263411470E+03  0.28945632098E+04  0.28797328783E+04 0.  0.
        2    1    3    3  502    0  0.10448003863E+04  0.97755758883E+03  0.30835730920E+03  0.14636635258E+04  0.25500000920E-02 0. -1.
       -2    1    3    3    0  502 -0.10448003863E+04 -0.97755758883E+03 -0.15723194502E+02  0.14308996840E+04  0.25500000920E-02 0.  1.
</event>
<event>
 5   0  0.3746518E-06  0.2912599E+04  0.7818609E-02  0.8269139E-01
        1   -1    0    0  501    0  0.00000000000E+00  0.00000000000E+00  0.19304973067E+04  0.19304973067E+04  0.50400001928E-02 0. -1.
       -1   -1    0    0    0  501  0.00000000000E+00  0.00000000000E+00 -0.10985816602E+04  0.10985816602E+04  0.50400001928E-02 0.  1.
    10030    2    1    2    0    0  0.00000000000E+00  0.00000000000E+00  0.83191564657E+03  0.30290789669E+04  0.29125994824E+04 0.  0.
        4    1    3    3  502    0 -0.12376543376E+04 -0.75892407405E+03  0.29713764060E+03  0.14819063398E+04  0.12699999809E+01 0.  1.
       -4    1    3    3    0  502  0.12376543376E+04  0.75892407405E+03  0.53477800597E+03  0.15471726271E+04  0.12699999809E+01 0. -1.
</event>
<event>
 5   0  0.9646321E-06  0.2920488E+04  0.7818609E-02  0.8266808E-01
       -2   -1    0    0    0  501  0.00000000000E+00  0.00000000000E+00  0.11276577906E+04  0.11276577906E+04  0.25500000920E-02 0.  1.
        2   -1    0    0  501    0  0.00000000000E+00  0.00000000000E+00 -0.18909215046E+04  0.18909215046E+04  0.25500000920E-02 0. -1.
    10030    2    1    2    0    0  0.00000000000E+00  0.00000000000E+00 -0.76326371394E+03  0.30185792952E+04  0.29204878812E+04 0.  0.
        3    1    3    3  502    0 -0.13338379561E+04 -0.22503166547E+03 -0.95015132010E+03  0.16530427958E+04  0.10100000352E+00 0. -1.
       -3    1    3    3    0  502  0.13338379561E+04  0.22503166547E+03  0.18688760615E+03  0.13655364993E+04  0.10100000352E+00 0.  1.
</event>
<event>
 5   0  0.9360689E-06  0.2739542E+04  0.7818609E-02  0.8322288E-01
       -2   -1    0    0    0  501  0.00000000000E+00  0.00000000000E+00  0.72977174682E+03  0.72977174682E+03  0.25500000920E-02 0. -1.
        2   -1    0    0  501    0  0.00000000000E+00  0.00000000000E+00 -0.25710399292E+04  0.25710399292E+04  0.25500000920E-02 0.  1.
    10030    2    1    2    0    0  0.00000000000E+00  0.00000000000E+00 -0.18412681823E+04  0.33008116760E+04  0.27395417867E+04 0.  0.
        5    1    3    3  502    0  0.13626924983E+04 -0.11615614826E+02 -0.75374904877E+03  0.15573135477E+04  0.46999998093E+01 0. -1.
       -5    1    3    3    0  502 -0.13626924983E+04  0.11615614826E+02 -0.10875191336E+04  0.17434981283E+04  0.46999998093E+01 0.  1.
</event>
<event>
 5   0  0.3188375E-06  0.2900560E+04  0.7818609E-02  0.8272711E-01
        3   -1    0    0  501    0  0.00000000000E+00  0.00000000000E+00  0.22158909984E+04  0.22158910007E+04  0.10100000352E+00 0. -1.
       -3   -1    0    0    0  501  0.00000000000E+00  0.00000000000E+00 -0.94919493494E+03  0.94919494031E+03  0.10100000352E+00 0.  1.
    10030    2    1    2    0    0  0.00000000000E+00  0.00000000000E+00  0.12666960634E+04  0.31650859410E+04  0.29005603074E+04 0.  0.
        5    1    3    3  502    0 -0.65440758444E+03 -0.64719800221E+03  0.18563547273E+04  0.20720013283E+04  0.46999998093E+01 0. -1.
       -5    1    3    3    0  502  0.65440758444E+03  0.64719800221E+03 -0.58965866390E+03  0.10930846127E+04  0.46999998093E+01 0.  1.
</event>
<event>
 5   0  0.9360689E-06  0.2869070E+04  0.7818609E-02  0.8282140E-01
       -2   -1    0    0    0  501  0.00000000000E+00  0.00000000000E+00  0.70021923237E+03  0.70021923237E+03  0.25500000920E-02 0.  1.
        2   -1    0    0  501    0  0.00000000000E+00  0.00000000000E+00 -0.29389224826E+04  0.29389224826E+04  0.25500000920E-02 0. -1.
    10030    2    1    2    0    0  0.00000000000E+00  0.00000000000E+00 -0.22387032503E+04  0.36391417150E+04  0.28690695668E+04 0.  0.
        5    1    3    3  502    0 -0.13002959933E+03 -0.14215892529E+04 -0.93977374492E+03  0.17090993190E+04  0.46999998093E+01 0.  1.
       -5    1    3    3    0  502  0.13002959933E+03  0.14215892529E+04 -0.12989295054E+04  0.19300423960E+04  0.46999998093E+01 0. -1.
</event>
<event>
 5   0  0.1001573E-05  0.2707593E+04  0.7818609E-02  0.8332546E-01
       -2   -1    0    0    0  501  0.00000000000E+00  0.00000000000E+00  0.89535259156E+03  0.89535259156E+03  0.25500000920E-02 0.  1.
        2   -1    0    0  501    0  0.00000000000E+00  0.00000000000E+00 -0.20469756453E+04  0.20469756453E+04  0.25500000920E-02 0. -1.
    10030    2    1    2    0    0  0.00000000000E+00  0.00000000000E+00 -0.11516230537E+04  0.29423282369E+04  0.27075929893E+04 0.  0.
        1    1    3    3  502    0  0.13518700917E+04  0.56657384876E+02 -0.62443606360E+03  0.14901956924E+04  0.50400001928E-02 0.  1.
       -1    1    3    3    0  502 -0.13518700917E+04 -0.56657384876E+02 -0.52718699013E+03  0.14521325445E+04  0.50400001928E-02 0. -1.
</event>
<event>
 5   0  0.3746518E-06  0.2866990E+04  0.7818609E-02  0.8282767E-01
        1   -1    0    0  501    0  0.00000000000E+00  0.00000000000E+00  0.26207376968E+04  0.26207376968E+04  0.50400001928E-02 0.  1.
       -1   -1    0    0    0  501  0.00000000000E+00  0.00000000000E+00 -0.78409502522E+03  0.78409502523E+03  0.50400001928E-02 0. -1.
    10030    2    1    2    0    0  0.00000000000E+00  0.00000000000E+00  0.18366426716E+04  0.34048327220E+04  0.28669896341E+04 0.  0.
        4    1    3    3  502    0  0.14261170232E+04  0.58206801396E+02  0.76028600436E+03  0.16171685803E+04  0.12699999809E+01 0. -1.
       -4    1    3    3    0  502 -0.14261170232E+04 -0.58206801396E+02  0.10763566672E+04  0.17876641417E+04  0.12699999809E+01 0.  1.
</event>
<event>
 5   0  0.3486236E-06  0.2886891E+04  0.7818609E-02  0.8276789E-01
        1   -1    0    0  501    0  0.00000000000E+00  0.00000000000E+00  0.26030614555E+04  0.26030614555E+04  0.50400001928E-02 0.  1.
       -1   -1    0    0    0  501  0.00000000000E+00  0.00000000000E+00 -0.80041696730E+03  0.80041696732E+03  0.50400001928E-02 0. -1.
    10030    2    1    2    0    0  0.00000000000E+00  0.00000000000E+00  0.18026444882E+04  0.34034784228E+04  0.28868907537E+04 0.  0.
        5    1    3    3  502    0 -0.87628907549E+03  0.11400210711E+04  0.75228096178E+03  0.16227998404E+04  0.46999998093E+01 0.  1.
       -5    1    3    3    0  502  0.87628907549E+03 -0.11400210711E+04  0.10503635264E+04  0.17806785825E+04  0.46999998093E+01 0. -1.
</event>
<event>
 5   0  0.9360689E-06  0.2873011E+04  0.7818609E-02  0.8280953E-01
        2   -1    0    0  501    0  0.00000000000E+00  0.00000000000E+00  0.16453789134E+04  0.16453789134E+04  0.25500000920E-02 0.  1.
       -2   -1    0    0    0  501  0.00000000000E+00  0.00000000000E+00 -0.12541476171E+04  0.12541476171E+04  0.25500000920E-02 0. -1.
    10030    2    1    2    0    0  0.00000000000E+00  0.00000000000E+00  0.39123129625E+03  0.28995265305E+04  0.28730109944E+04 0.  0.
        5    1    3    3  502    0 -0.13248406174E+04  0.88082223960E+02 -0.35768205548E+03  0.13751071531E+04  0.46999998093E+01 0. -1.
       -5    1    3    3    0  502  0.13248406174E+04 -0.88082223960E+02  0.74891335173E+03  0.15244193774E+04  0.46999998093E+01 0.  1.
</event>
<event>
 5   0  0.9251510E-06  0.2927374E+04  0.7818609E-02  0.8264779E-01
        2   -1    0    0  501    0  0.00000000000E+00  0.00000000000E+00  0.12089933403E+04  0.12089933404E+04  0.25500000920E-02 0. -1.
       -2   -1    0    0    0  501  0.00000000000E+00  0.00000000000E+00 -0.17720364821E+04  0.17720364821E+04  0.25500000920E-02 0.  1.
    10030    2    1    2    0    0  0.00000000000E+00  0.00000000000E+00 -0.56304314174E+03  0.29810298224E+04  0.29273744589E+04 0.  0.
        2    1    3    3  502    0 -0.41300895121E+03  0.35029982142E+03 -0.16662593146E+04  0.17520577793E+04  0.25500000920E-02 0.  1.
       -2    1    3    3    0  502  0.41300895121E+03 -0.35029982142E+03  0.11032161729E+04  0.12289720431E+04  0.25500000920E-02 0. -1.
</event>
<event>
 5   0  0.9646321E-06  0.2903842E+04  0.7818609E-02  0.8271735E-01
       -2   -1    0    0    0  501  0.00000000000E+00  0.00000000000E+00  0.10667592399E+04  0.10667592399E+04  0.25500000920E-02 0. -1.
        2   -1    0    0  501    0  0.00000000000E+00  0.00000000000E+00 -0.19761491033E+04  0.19761491033E+04  0.25500000920E-02 0.  1.
    10030    2    1    2    0    0  0.00000000000E+00  0.00000000000E+00 -0.90938986346E+03  0.30429083432E+04  0.29038424994E+04 0.  0.
        3    1    3    3  502    0 -0.94580234368E+03  0.30875930045E+03 -0.15627867232E+04  0.18526134867E+04  0.10100000352E+00 0.  1.
       -3    1    3    3    0  502  0.94580234368E+03 -0.30875930045E+03  0.65339685971E+03  0.11902948565E+04  0.10100000352E+00 0. -1.
</event>
<event>
 5   0  0.3564340E-06  0.2896795E+04  0.7818609E-02  0.8273832E-01
        1   -1    0    0  501    0  0.00000000000E+00  0.00000000000E+00  0.25490137519E+04  0.25490137519E+04  0.50400001928E-02 0.  1.
       -1   -1    0    0    0  501  0.00000000000E+00  0.00000000000E+00 -0.82300646599E+03  0.82300646600E+03  0.50400001928E-02 0. -1.
    10030    2    1    2    0    0  0.00000000000E+00  0.00000000000E+00  0.17260072859E+04  0.33720202179E+04  0.28967946422E+04 0.  0.
        1    1    3    3  502    0  0.12355192710E+04 -0.49893615528E+02 -0.14955341730E+02  0.12366167168E+04  0.50400001928E-02 0. -1.
       -1    1    3    3    0  502 -0.12355192710E+04  0.49893615528E+02  0.17409626276E+04  0.21354035011E+04  0.50400001928E-02 0.  1.
</event>
<event>
 5   0  0.9646321E-06  0.2970602E+04  0.7818609E-02  0.8252176E-01
        2   -1    0    0  501    0  0.00000000000E+00  0.00000000000E+00  0.17128252617E+04  0.17128252617E+04  0.25500000920E-02 0.  1.
       -2   -1    0    0    0  501  0.00000000000E+00  0.00000000000E+00 -0.12880003463E+04  0.12880003463E+04  0.25500000920E-02 0. -1.
    10030    2    1    2    0    0  0.00000000000E+00  0.00000000000E+00  0.42482491549E+03  0.30008256080E+04  0.29706023162E+04 0.  0.
        3    1    3    3  502    0  0.13549601851E+04  0.58191740552E+03  0.39191261247E+03  0.15258245233E+04  0.10100000352E+00 0. -1.
       -3    1    3    3    0  502 -0.13549601851E+04 -0.58191740552E+03  0.32912303022E+02  0.14750010847E+04  0.10100000352E+00 0.  1.
</event>
<event>
 5   0  0.9360689E-06  0.2902318E+04  0.7818609E-02  0.8272188E-01
        2   -1    0    0  501    0  0.00000000000E+00  0.00000000000E+00  0.23090250853E+04  0.23090250853E+04  0.25500000920E-02 0. -1.
       -2   -1    0    0    0  501  0.00000000000E+00  0.00000000000E+00 -0.91201376309E+03  0.91201376310E+03  0.25500000920E-02 0.  1.
    10030    2    1    2    0    0  0.00000000000E+00  0.00000000000E+00  0.13970113222E+04  0.32210388484E+04  0.29023181474E+04 0.  0.
        5    1    3    3  502    0 -0.40714559146E+03  0.12886947710E+04  0.12850712669E+04  0.18649214451E+04  0.46999998093E+01 0.  1.
       -5    1    3    3    0  502  0.40714559146E+03 -0.12886947710E+04  0.11194005536E+03  0.13561174033E+04  0.46999998093E+01 0. -1.
</event>
<event>
 5   0  0.3564340E-06  0.2898658E+04  0.7818609E-02  0.8273277E-01
        1   -1    0    0  501    0  0.00000000000E+00  0.00000000000E+00  0.14422473480E+04  0.14422473480E+04  0.50400001928E-02 0.  1.
       -1   -1    0    0    0  501  0.00000000000E+00  0.00000000000E+00 -0.14564455702E+04  0.14564455702E+04  0.50400001928E-02 0. -1.
    10030    2    1    2    0    0  0.00000000000E+00  0.00000000000E+00 -0.14198222209E+02  0.28986929181E+04  0.28986581455E+04 0.  0.
        1    1    3    3  502    0 -0.28354532338E+03  0.68659181216E+03 -0.12516012816E+04  0.14554422129E+04  0.50400001928E-02 0. -1.
       -1    1    3    3    0  502  0.28354532338E+03 -0.68659181216E+03  0.12374030594E+04  0.14432507053E+04  0.50400001928E-02 0.  1.
</event>
<event>
 5   0  0.3649705E-06  0.2959840E+04  0.7818609E-02  0.8255293E-01
       -1   -1    0    0    0  501  0.00000000000E+00  0.00000000000E+00  0.16657039697E+04  0.16657039697E+04  0.50400001928E-02 0. -1.
        1   -1    0    0  501    0  0.00000000000E+00  0.00000000000E+00 -0.13148576094E+04  0.13148576094E+04  0.50400001928E-02 0.  1.
    10030    2    1    2    0    0  0.00000000000E+00  0.00000000000E+00  0.35084636035E+03  0.29805615791E+04  0.29598402251E+04 0.  0.
        2    1    3    3  502    0  0.58635096620E+03  0.13422483940E+04 -0.37541028340E+02  0.14652124541E+04  0.25500000920E-02 0.  1.
       -2    1    3    3    0  502 -0.58635096620E+03 -0.13422483940E+04  0.38838738869E+03  0.15153491250E+04  0.25500000920E-02 0. -1.
</event>
<event>
 5   0  0.9505359E-06  0.2954513E+04  0.7818609E-02  0.8256841E-01
        2   -1    0    0  501    0  0.00000000000E+00  0.00000000000E+00  0.17352475582E+04  0.17352475582E+04  0.25500000920E-02 0. -1.
       -2   -1    0    0    0  501  0.00000000000E+00  0.00000000000E+00 -0.12576226720E+04  0.12576226720E+04  0.25500000920E-02 0.  1.
    10030    2    1    2    0    0  0.00000000000E+00  0.00000000000E+00  0.47762488618E+03  0.29928702302E+04  0.29545129350E+04 0.  0.
        4    1    3    3  502    0 -0.63710390820E+03  0.26876370244E+03  0.15611912094E+04  0.17074703285E+04  0.12699999809E+01 0. -1.
       -4    1    3    3    0  502  0.63710390820E+03 -0.26876370244E+03 -0.10835663232E+04  0.12853999017E+04  0.12699999809E+01 0.  1.
</event>
<event>
 5   0  0.9505359E-06  0.2856890E+04  0.7818609E-02  0.8285821E-01
        2   -1    0    0  501    0  0.00000000000E+00  0.00000000000E+00  0.23223510162E+04  0.23223510162E+04  0.25500000920E-02 0.  1.
       -2   -1    0    0    0  501  0.00000000000E+00  0.00000000000E+00 -0.87861590252E+03  0.87861590253E+03  0.25500000920E-02 0. -1.
    10030    2    1    2    0    0  0.00000000000E+00  0.00000000000E+00  0.14437351137E+04  0.32009669188E+04  0.28568895912E+04 0.  0.
        4    1    3    3  502    0  0.75056396319E+03 -0.27473958277E+03  0.20483564526E+04  0.21987709910E+04  0.12699999809E+01 0.  1.
       -4    1    3    3    0  502 -0.75056396319E+03  0.27473958277E+03 -0.60462133890E+03  0.10021959277E+04  0.12699999809E+01 0. -1.
</event>
<event>
 5   0  0.9251510E-06  0.2998309E+04  0.7818609E-02  0.8244214E-01
        2   -1    0    0  501    0  0.00000000000E+00  0.00000000000E+00  0.24341970948E+04  0.24341970948E+04  0.25500000920E-02 0. -1.
       -2   -1    0    0    0  501  0.00000000000E+00  0.00000000000E+00 -0.92328784356E+03  0.92328784357E+03  0.25500000920E-02 0.  1.
    10030    2    1    2    0    0  0.00000000000E+00  0.00000000000E+00  0.15109092512E+04  0.33574849383E+04  0.29983092479E+04 0.  0.
        2    1    3    3  502    0 -0.13343608196E+04  0.66195860954E+03  0.56556277296E+03  0.15932888150E+04  0.25500000920E-02 0.  1.
       -2    1    3    3    0  502  0.13343608196E+04 -0.66195860954E+03  0.94534647825E+03  0.17641961234E+04  0.25500000920E-02 0. -1.
</event>
<event>
 5   0  0.1001573E-05  0.2686934E+04  0.7818609E-02  0.8339257E-01
       -2   -1    0    0    0  501  0.00000000000E+00  0.00000000000E+00  0.87054854953E+03  0.87054854954E+03  0.25500000920E-02 0. -1.
        2   -1    0    0  501    0  0.00000000000E+00  0.00000000000E+00 -0.20732951689E+04  0.20732951689E+04  0.25500000920E-02 0.  1.
    10030    2    1    2    0    0  0.00000000000E+00  0.00000000000E+00 -0.12027466194E+04  0.29438437185E+04  0.26869343885E+04 0.  0.
        1    1    3    3  502    0 -0.50296080659E+03  0.78163941592E+03  0.46141454355E+03  0.10377057052E+04  0.50400001928E-02 0. -1.
       -1    1    3    3    0  502  0.50296080659E+03 -0.78163941592E+03 -0.16641611629E+04  0.19061380133E+04  0.50400001928E-02 0.  1.
</event>
<event>
 5   0  0.9505359E-06  0.2892333E+04  0.7818609E-02  0.8275162E-01
       -2   -1    0    0    0  501  0.00000000000E+00  0.00000000000E+00  0.91313822674E+03  0.91313822674E+03  0.25500000920E-02 0.  1.
        2   -1    0    0  501    0  0.00000000000E+00  0.00000000000E+00 -0.22903401339E+04  0.22903401339E+04  0.25500000920E-02 0. -1.
    10030    2    1    2    0    0  0.00000000000E+00  0.00000000000E+00 -0.13772019072E+04  0.32034783606E+04  0.28923327115E+04 0.  0.
        4    1    3    3  502    0  0.21661675706E+03  0.74044150928E+03  0.66618641190E+03  0.10193048594E+04  0.12699999809E+01 0.  1.
       -4    1    3    3    0  502 -0.21661675706E+03 -0.74044150928E+03 -0.20433883191E+04  0.21841735012E+04  0.12699999809E+01 0. -1.
</event>
<event>
 5   0  0.9646321E-06  0.2901447E+04  0.7818609E-02  0.8272447E-01
       -2   -1    0    0    0  501  0.00000000000E+00  0.00000000000E+00  0.97151088709E+03  0.97151088709E+03  0.25500000920E-02 0. -1.
        2   -1    0    0  501    0  0.00000000000E+00  0.00000000000E+00 -0.21663143402E+04  0.21663143402E+04  0.25500000920E-02 0.  1.
    10030    2    1    2    0    0  0.00000000000E+00  0.00000000000E+00 -0.11948034531E+04  0.31378252273E+04  0.29014465126E+04 0.  0.
        3    1    3    3  502    0 -0.11471603523E+04 -0.84408537879E+03 -0.89581857732E+03  0.16825421048E+04  0.10100000352E+00 0.  1.
       -3    1    3    3    0  502  0.11471603523E+04  0.84408537879E+03 -0.29898487583E+03  0.14552831226E+04  0.10100000352E+00 0. -1.
</event>
<event>
 5   0  0.3474078E-06  0.2907715E+04  0.7818609E-02  0.8270586E-01
        1   -1    0    0  501    0  0.00000000000E+00  0.00000000000E+00  0.16012809409E+04  0.16012809409E+04  0.50400001928E-02 0.  1.
       -1   -1    0    0    0  501  0.00000000000E+00  0.00000000000E+00 -0.13200063936E+04  0.13200063936E+04  0.50400001928E-02 0. -1.
    10030    2    1    2    0    0  0.00000000000E+00  0.00000000000E+00  0.28127454729E+03  0.29212873345E+04  0.29077146214E+04 0.  0.
        3    1    3    3  502    0 -0.27306959702E+03 -0.11720890986E+04  0.96012925284E+03  0.15395480026E+04  0.10100000352E+00 0.  1.
       -3    1    3    3    0  502  0.27306959702E+03  0.11720890986E+04 -0.67885470555E+03  0.13817393319E+04  0.10100000352E+00 0. -1.
</event>
<event>
 5   0  0.3474078E-06  0.2883149E+04  0.7818609E-02  0.8277909E-01
       -1   -1    0    0    0  501  0.00000000000E+00  0.00000000000E+00  0.12068301028E+04  0.12068301029E+04  0.50400001928E-02 0. -1.
        1   -1    0    0  501    0  0.00000000000E+00  0.00000000000E+00 -0.17219797579E+04  0.17219797579E+04  0.50400001928E-02 0.  1.
    10030    2    1    2    0    0  0.00000000000E+00  0.00000000000E+00 -0.51514965509E+03  0.29288098608E+04  0.28831489787E+04 0.  0.
        3    1    3    3  502    0  0.17408021817E+03  0.76379210547E+03 -0.14868866677E+04  0.16806291309E+04  0.10100000352E+00 0.  1.
       -3    1    3    3    0  502 -0.17408021817E+03 -0.76379210547E+03  0.97173701260E+03  0.12481807299E+04  0.10100000352E+00 0. -1.
</event>
<event>
 5   0  0.3746518E-06  0.2918023E+04  0.7818609E-02  0.8267535E-01
       -1   -1    0    0    0  501  0.00000000000E+00  0.00000000000E+00  0.94455185495E+03  0.94455185497E+03  0.50400001928E-02 0.  1.
        1   -1    0    0  501    0  0.00000000000E+00  0.00000000000E+00 -0.22536773990E+04  0.22536773990E+04  0.50400001928E-02 0. -1.
    10030    2    1    2    0    0  0.00000000000E+00  0.00000000000E+00 -0.13091255441E+04  0.31982292540E+04  0.29180234185E+04 0.  0.
        4    1    3    3  502    0 -0.37204516117E+03  0.91511228112E+03 -0.18313830237E+04  0.20808203866E+04  0.12699999809E+01 0. -1.
       -4    1    3    3    0  502  0.37204516117E+03 -0.91511228112E+03  0.52225747960E+03  0.11174088674E+04  0.12699999809E+01 0.  1.
</event>
<event>
 5   0  0.3564340E-06  0.2807787E+04  0.7818609E-02  0.8300855E-01
        1   -1    0    0  501    0  0.00000000000E+00  0.00000000000E+00  0.15663172016E+04  0.15663172016E+04  0.50400001928E-02 0. -1.
       -1   -1    0    0    0  501  0.00000000000E+00  0.00000000000E+00 -0.12583126619E+04  0.12583126619E+04  0.50400001928E-02 0.  1.
    10030    2    1    2    0    0  0.00000000000E+00  0.00000000000E+00  0.30800453978E+03  0.28246298635E+04  0.28077868632E+04 0.  0.
        1    1    3    3  502    0 -0.82404512923E+03  0.24044004232E+03 -0.96354181142E+03  0.12904551954E+04  0.50400001928E-02 0.  1.
       -1    1    3    3    0  502  0.82404512923E+03 -0.24044004232E+03  0.12715463512E+04  0.15341746681E+04  0.50400001928E-02 0. -1.
</event>
<event>
 5   0  0.1001573E-05  0.2976230E+04  0.7818609E-02  0.8250551E-01
       -2   -1    0    0    0  501  0.00000000000E+00  0.00000000000E+00  0.91274939954E+03  0.91274939954E+03  0.25500000920E-02 0.  1.
        2   -1    0    0  501    0  0.00000000000E+00  0.00000000000E+00 -0.24261713519E+04  0.24261713519E+04  0.25500000920E-02 0. -1.
    10030    2    1    2    0    0  0.00000000000E+00  0.00000000000E+00 -0.15134219524E+04  0.33389207514E+04  0.29762301286E+04 0.  0.
        1    1    3    3  502    0  0.95679835925E+03 -0.10422560763E+04 -0.12741384650E+04  0.19039930821E+04  0.50400001928E-02 0. -1.
       -1    1    3    3    0  502 -0.95679835925E+03  0.10422560763E+04 -0.23928348736E+03  0.14349276693E+04  0.50400001928E-02 0.  1.
</event>
<event>
 5   0  0.9505359E-06  0.2182111E+04  0.7818609E-02  0.8525911E-01
        2   -1    0    0  501    0  0.00000000000E+00  0.00000000000E+00  0.15055927671E+04  0.15055927671E+04  0.25500000920E-02 0.  1.
       -2   -1    0    0    0  501  0.00000000000E+00  0.00000000000E+00 -0.79065317641E+03  0.79065317642E+03  0.25500000920E-02 0. -1.
    10030    2    1    2    0    0  0.00000000000E+00  0.00000000000E+00  0.71493959065E+03  0.22962459435E+04  0.21821106330E+04 0.  0.
        4    1    3    3  502    0 -0.97505042269E+03  0.17499778821E+03 -0.12366787266E+03  0.99832004302E+03  0.12699999809E+01 0. -1.
       -4    1    3    3    0  502  0.97505042269E+03 -0.17499778821E+03  0.83860746331E+03  0.12979259005E+04  0.12699999809E+01 0.  1.
</event>
<event>
 5   0  0.9251510E-06  0.2839252E+04  0.7818609E-02  0.8291185E-01
        2   -1    0    0  501    0  0.00000000000E+00  0.00000000000E+00  0.22180614452E+04  0.22180614452E+04  0.25500000920E-02 0.  1.
       -2   -1    0    0    0  501  0.00000000000E+00  0.00000000000E+00 -0.90860337214E+03  0.90860337215E+03  0.25500000920E-02 0. -1.
    10030    2    1    2    0    0  0.00000000000E+00  0.00000000000E+00  0.13094580730E+04  0.31266648173E+04  0.28392520907E+04 0.  0.
        2    1    3    3  502    0 -0.12197529121E+04  0.33698046503E+03  0.13632777798E+04  0.18600750806E+04  0.25500000920E-02 0.  1.
       -2    1    3    3    0  502  0.12197529121E+04 -0.33698046503E+03 -0.53819706803E+02  0.12665897367E+04  0.25500000920E-02 0. -1.
</event>
<event>
 5   0  0.3486236E-06  0.2839615E+04  0.7818609E-02  0.8291074E-01
       -1   -1    0    0    0  501  0.00000000000E+00  0.00000000000E+00  0.14314983537E+04  0.14314983537E+04  0.50400001928E-02 0.  1.
        1   -1    0    0  501    0  0.00000000000E+00  0.00000000000E+00 -0.14082122584E+04  0.14082122584E+04  0.50400001928E-02 0. -1.
    10030    2    1    2    0    0  0.00000000000E+00  0.00000000000E+00  0.23286095239E+02  0.28397106121E+04  0.28396151356E+04 0.  0.
        5    1    3    3  502    0 -0.65424967046E+03 -0.12527760592E+04  0.14707637830E+03  0.14209658817E+04  0.46999998093E+01 0. -1.
       -5    1    3    3    0  502  0.65424967046E+03  0.12527760592E+04 -0.12379028306E+03  0.14187447304E+04  0.46999998093E+01 0.  1.
</event>
<event>
 5   0  0.3474078E-06  0.2320553E+04  0.7818609E-02  0.8469861E-01
        1   -1    0    0  501    0  0.00000000000E+00  0.00000000000E+00  0.18993787347E+04  0.18993787347E+04  0.50400001928E-02 0.  1.
       -1   -1    0    0    0  501  0.00000000000E+00  0.00000000000E+00 -0.70877999474E+03  0.70877999475E+03  0.50400001928E-02 0. -1.
    10030    2    1    2    0    0  0.00000000000E+00  0.00000000000E+00  0.11905987399E+04  0.26081587294E+04  0.23205530803E+04 0.  0.
        3    1    3    3  502    0  0.38651223223E+03  0.62750449729E+03 -0.41192004974E+03  0.84429363220E+03  0.10100000352E+00 0. -1.
       -3    1    3    3    0  502 -0.38651223223E+03 -0.62750449729E+03  0.16025187897E+04  0.17638650972E+04  0.10100000352E+00 0.  1.
</event>
<event>
 5   0  0.1001573E-05  0.2875115E+04  0.7818609E-02  0.8280320E-01
       -2   -1    0    0    0  501  0.00000000000E+00  0.00000000000E+00  0.12111877229E+04  0.12111877229E+04  0.25500000920E-02 0.  1.
        2   -1    0    0  501    0  0.00000000000E+00  0.00000000000E+00 -0.17062361378E+04  0.17062361378E+04  0.25500000920E-02 0. -1.
    10030    2    1    2    0    0  0.00000000000E+00  0.00000000000E+00 -0.49504841490E+03  0.29174238607E+04  0.28751154847E+04 0.  0.
        1    1    3    3  502    0 -0.61649878763E+03 -0.98240764634E+02  0.10664637293E+04  0.12357454790E+04  0.50400001928E-02 0.  1.
       -1    1    3    3    0  502  0.61649878763E+03  0.98240764634E+02 -0.15615121442E+04  0.16816783817E+04  0.50400001928E-02 0. -1.
</event>
<event>
 5   0  0.3746518E-06  0.2899671E+04  0.7818609E-02  0.8272975E-01
       -1   -1    0    0    0  501  0.00000000000E+00  0.00000000000E+00  0.84486480379E+03  0.84486480381E+03  0.50400001928E-02 0. -1.
        1   -1    0    0  501    0  0.00000000000E+00  0.00000000000E+00 -0.24879993307E+04  0.24879993307E+04  0.50400001928E-02 0.  1.
    10030    2    1    2    0    0  0.00000000000E+00  0.00000000000E+00 -0.16431345269E+04  0.33328641345E+04  0.28996710616E+04 0.  0.
        4    1    3    3  502    0  0.66265749635E+03 -0.12015194461E+04 -0.13597702719E+04  0.19317714000E+04  0.12699999809E+01 0.  1.
       -4    1    3    3    0  502 -0.66265749635E+03  0.12015194461E+04 -0.28336425504E+03  0.14010927345E+04  0.12699999809E+01 0. -1.
</event>
<event>
 5   0  0.3474078E-06  0.2753759E+04  0.7818609E-02  0.8317770E-01
       -1   -1    0    0    0  501  0.00000000000E+00  0.00000000000E+00  0.11311807085E+04  0.11311807085E+04  0.50400001928E-02 0. -1.
        1   -1    0    0  501    0  0.00000000000E+00  0.00000000000E+00 -0.16759450111E+04  0.16759450111E+04  0.50400001928E-02 0.  1.
    10030    2    1    2    0    0  0.00000000000E+00  0.00000000000E+00 -0.54476430262E+03  0.28071257196E+04  0.27537586424E+04 0.  0.
        3    1    3    3  502    0 -0.49904047014E+03  0.10048507064E+04  0.54122740801E+03  0.12456698801E+04  0.10100000352E+00 0. -1.
       -3    1    3    3    0  502  0.49904047014E+03 -0.10048507064E+04 -0.10859917106E+04  0.15614558395E+04  0.10100000352E+00 0.  1.
</event>
<event>
 5   0  0.3564340E-06  0.2901090E+04  0.7818609E-02  0.8272553E-01
       -1   -1    0    0    0  501  0.00000000000E+00  0.00000000000E+00  0.93558480259E+03  0.93558480260E+03  0.50400001928E-02 0.  1.
        1   -1    0    0  501    0  0.00000000000E+00  0.00000000000E+00 -0.22489468367E+04  0.22489468367E+04  0.50400001928E-02 0. -1.
    10030    2    1    2    0    0  0.00000000000E+00  0.00000000000E+00 -0.13133620341E+04  0.31845316393E+04  0.29010897830E+04 0.  0.
        1    1    3    3  502    0  0.10526806122E+04 -0.99518977117E+03 -0.73839406596E+03  0.16259658510E+04  0.50400001928E-02 0.  1.
       -1    1    3    3    0  502 -0.10526806122E+04  0.99518977117E+03 -0.57496796815E+03  0.15585657883E+04  0.50400001928E-02 0. -1.
</event>
<event>
 5   0  0.3486236E-06  0.2884342E+04  0.7818609E-02  0.8277551E-01
        1   -1    0    0  501    0  0.00000000000E+00  0.00000000000E+00  0.13342595567E+04  0.13342595568E+04  0.50400001928E-02 0.  1.
       -1   -1    0    0    0  501  0.00000000000E+00  0.00000000000E+00 -0.15588099290E+04  0.15588099290E+04  0.50400001928E-02 0. -1.
    10030    2    1    2    0    0  0.00000000000E+00  0.00000000000E+00 -0.22455037226E+03  0.28930694858E+04  0.28843418972E+04 0.  0.
        5    1    3    3  502    0 -0.32641632342E+03 -0.95451210932E+03 -0.11460216630E+04  0.15267706851E+04  0.46999998093E+01 0. -1.
       -5    1    3    3    0  502  0.32641632342E+03  0.95451210932E+03  0.92147129070E+03  0.13662988006E+04  0.46999998093E+01 0.  1.
</event>
<event>
 5   0  0.3474078E-06  0.2982898E+04  0.7818609E-02  0.8248631E-01
       -1   -1    0    0    0  501  0.00000000000E+00  0.00000000000E+00  0.17203522195E+04  0.17203522195E+04  0.50400001928E-02 0. -1.
        1   -1    0    0  501    0  0.00000000000E+00  0.00000000000E+00 -0.12930026326E+04  0.12930026326E+04  0.50400001928E-02 0.  1.
    10030    2    1    2    0    0  0.00000000000E+00  0.00000000000E+00  0.42734958690E+03  0.30133548522E+04  0.29828978856E+04 0.  0.
        3    1    3    3  502    0  0.71625641578E+03 -0.12137191787E+04 -0.27945121763E+03  0.14367430150E+04  0.10100000352E+00 0. -1.
       -3    1    3    3    0  502 -0.71625641578E+03  0.12137191787E+04  0.70680080453E+03  0.15766118372E+04  0.10100000352E+00 0.  1.
</event>
<event>
 5   0  0.9505359E-06  0.2879680E+04  0.7818609E-02  0.8278949E-01
        2   -1    0    0  501    0  0.00000000000E+00  0.00000000000E+00  0.13842604354E+04  0.13842604354E+04  0.25500000920E-02 0.  1.
       -2   -1    0    0    0  501  0.00000000000E+00  0.00000000000E+00 -0.14976506848E+04  0.14976506848E+04  0.25500000920E-02 0. -1.
    10030    2    1    2    0    0  0.00000000000E+00  0.00000000000E+00 -0.11339024940E+03  0.28819111201E+04  0.28796795578E+04 0.  0.
        4    1    3    3  502    0  0.19813007689E+03 -0.76878832419E+02  0.13684769351E+04  0.13848814452E+04  0.12699999809E+01 0.  1.
       -4    1    3    3    0  502 -0.19813007689E+03  0.76878832419E+02 -0.14818671845E+04  0.14970296750E+04  0.12699999809E+01 0. -1.
</event>
<event>
 5   0  0.1001573E-05  0.2890078E+04  0.7818609E-02  0.8275836E-01
        2   -1    0    0  501    0  0.00000000000E+00  0.00000000000E+00  0.19524444629E+04  0.19524444629E+04  0.25500000920E-02 0.  1.
       -2   -1    0    0    0  501  0.00000000000E+00  0.00000000000E+00 -0.10694993369E+04  0.10694993369E+04  0.25500000920E-02 0. -1.
    10030    2    1    2    0    0  0.00000000000E+00  0.00000000000E+00  0.88294512598E+03  0.30219437997E+04  0.28900782400E+04 0.  0.
        1    1    3    3  502    0  0.27510485784E+03 -0.13086266082E+04 -0.13119489105E+03  0.13436511385E+04  0.50400001928E-02 0. -1.
       -1    1    3    3    0  502 -0.27510485784E+03  0.13086266082E+04  0.10141400170E+04  0.16782926612E+04  0.50400001928E-02 0.  1.
</event>
<event>
 5   0  0.3746518E-06  0.2930516E+04  0.7818609E-02  0.8263856E-01
        1   -1    0    0  501    0  0.00000000000E+00  0.00000000000E+00  0.16727974095E+04  0.16727974096E+04  0.50400001928E-02 0.  1.
       -1   -1    0    0    0  501  0.00000000000E+00  0.00000000000E+00 -0.12834675670E+04  0.12834675670E+04  0.50400001928E-02 0. -1.
    10030    2    1    2    0    0  0.00000000000E+00  0.00000000000E+00  0.38932984259E+03  0.29562649765E+04  0.29305161465E+04 0.  0.
        4    1    3    3  502    0 -0.55984460322E+03  0.11107076801E+04  0.97599075353E+03  0.15810303901E+04  0.12699999809E+01 0.  1.
       -4    1    3    3    0  502  0.55984460322E+03 -0.11107076801E+04 -0.58666091095E+03  0.13752345865E+04  0.12699999809E+01 0. -1.
</event>
<event>
 5   0  0.9360689E-06  0.2933346E+04  0.7818609E-02  0.8263025E-01
       -2   -1    0    0    0  501  0.00000000000E+00  0.00000000000E+00  0.15719829162E+04  0.15719829162E+04  0.25500000920E-02 0. -1.
        2   -1    0    0  501    0  0.00000000000E+00  0.00000000000E+00 -0.13684175758E+04  0.13684175758E+04  0.25500000920E-02 0.  1.
    10030    2    1    2    0    0  0.00000000000E+00  0.00000000000E+00  0.20356534034E+03  0.29404004920E+04  0.29333455653E+04 0.  0.
        5    1    3    3  502    0 -0.12830684495E+04  0.73860903852E+02  0.81015538307E+03  0.15192412296E+04  0.46999998093E+01 0. -1.
       -5    1    3    3    0  502  0.12830684495E+04 -0.73860903852E+02 -0.60659004274E+03  0.14211592624E+04  0.46999998093E+01 0.  1.
</event>
<event>
 5   0  0.3746518E-06  0.2945974E+04  0.7818609E-02  0.8259329E-01
        1   -1    0    0  501    0  0.00000000000E+00  0.00000000000E+00  0.17773468779E+04  0.17773468779E+04  0.50400001928E-02 0.  1.
       -1   -1    0    0    0  501  0.00000000000E+00  0.00000000000E+00 -0.12207471453E+04  0.12207471453E+04  0.50400001928E-02 0. -1.
    10030    2    1    2    0    0  0.00000000000E+00  0.00000000000E+00  0.55659973263E+03  0.29980940232E+04  0.29459742887E+04 0.  0.
        4    1    3    3  502    0  0.30072656523E+03  0.62414855638E+03  0.16011785622E+04  0.17446410199E+04  0.12699999809E+01 0.  1.
       -4    1    3    3    0  502 -0.30072656523E+03 -0.62414855638E+03 -0.10445788296E+04  0.12534530033E+04  0.12699999809E+01 0. -1.
</event>
<event>
 5   0  0.3564340E-06  0.2897741E+04  0.7818609E-02  0.8273550E-01
       -1   -1    0    0    0  501  0.00000000000E+00  0.00000000000E+00  0.13113738875E+04  0.13113738875E+04  0.50400001928E-02 0. -1.
        1   -1    0    0  501    0  0.00000000000E+00  0.00000000000E+00 -0.16007837022E+04  0.16007837022E+04  0.50400001928E-02 0.  1.
    10030    2    1    2    0    0  0.00000000000E+00  0.00000000000E+00 -0.28940981476E+03  0.29121575897E+04  0.28977411524E+04 0.  0.
        1    1    3    3  502    0  0.43522349498E+03 -0.69084271344E+03 -0.13475483022E+04  0.15756172035E+04  0.50400001928E-02 0.  1.
       -1    1    3    3    0  502 -0.43522349498E+03  0.69084271344E+03  0.10581384874E+04  0.13365403862E+04  0.50400001928E-02 0. -1.
</event>
<event>
 5   0  0.3564340E-06  0.2885357E+04  0.7818609E-02  0.8277248E-01
       -1   -1    0    0    0  501  0.00000000000E+00  0.00000000000E+00  0.79770107706E+03  0.79770107707E+03  0.50400001928E-02 0.  1.
        1   -1    0    0  501    0  0.00000000000E+00  0.00000000000E+00 -0.26091487685E+04  0.26091487685E+04  0.50400001928E-02 0. -1.
    10030    2    1    2    0    0  0.00000000000E+00  0.00000000000E+00 -0.18114476915E+04  0.34068498456E+04  0.28853566732E+04 0.  0.
        1    1    3    3  502    0 -0.47035702318E+03  0.58415089382E+03 -0.23608857881E+04  0.24771454743E+04  0.50400001928E-02 0. -1.
       -1    1    3    3    0  502  0.47035702318E+03 -0.58415089382E+03  0.54943809666E+03  0.92970437134E+03  0.50400001928E-02 0.  1.
</event>
<event>
 5   0  0.3474078E-06  0.2890702E+04  0.7818609E-02  0.8275649E-01
        1   -1    0    0  501    0  0.00000000000E+00  0.00000000000E+00  0.20037969072E+04  0.20037969072E+04  0.50400001928E-02 0. -1.
       -1   -1    0    0    0  501  0.00000000000E+00  0.00000000000E+00 -0.10425402012E+04  0.10425402012E+04  0.50400001928E-02 0.  1.
    10030    2    1    2    0    0  0.00000000000E+00  0.00000000000E+00  0.96125670596E+03  0.30463371084E+04  0.28907015279E+04 0.  0.
        3    1    3    3  502    0 -0.10428962335E+04  0.98977875532E+03  0.32522970066E+03  0.14741332730E+04  0.10100000352E+00 0.  1.
       -3    1    3    3    0  502  0.10428962335E+04 -0.98977875532E+03  0.63602700530E+03  0.15722038354E+04  0.10100000352E+00 0. -1.
</event>
<event>
 5   0  0.9360689E-06  0.2771651E+04  0.7818609E-02  0.8312124E-01
       -2   -1    0    0    0  501  0.00000000000E+00  0.00000000000E+00  0.13033979210E+04  0.13033979210E+04  0.25500000920E-02 0.  1.
        2   -1    0    0  501    0  0.00000000000E+00  0.00000000000E+00 -0.14734658436E+04  0.14734658436E+04  0.25500000920E-02 0. -1.
    10030    2    1    2    0    0  0.00000000000E+00  0.00000000000E+00 -0.17006792260E+03  0.27768637646E+04  0.27716510005E+04 0.  0.
        5    1    3    3  502    0  0.70994828396E+03 -0.36254540454E+02  0.11068038382E+04  0.13154382478E+04  0.46999998093E+01 0.  1.
       -5    1    3    3    0  502 -0.70994828396E+03  0.36254540454E+02 -0.12768717608E+04  0.14614255168E+04  0.46999998093E+01 0. -1.
</event>
<event>
 5   0  0.1001573E-05  0.2780919E+04  0.7818609E-02  0.8309217E-01
        2   -1    0    0  501    0  0.00000000000E+00  0.00000000000E+00  0.14975928058E+04  0.14975928058E+04  0.25500000920E-02 0.  1.
       -2   -1    0    0    0  501  0.00000000000E+00  0.00000000000E+00 -0.12909901554E+04  0.12909901554E+04  0.25500000920E-02 0. -1.
    10030    2    1    2    0    0  0.00000000000E+00  0.00000000000E+00  0.20660265037E+03  0.27885829612E+04  0.27809189625E+04 0.  0.
        1    1    3    3  502    0  0.95483585432E+03  0.91265982256E+03 -0.33231287009E+03  0.13620173656E+04  0.50400001928E-02 0.  1.
       -1    1    3    3    0  502 -0.95483585432E+03 -0.91265982256E+03  0.53891552046E+03  0.14265655956E+04  0.50400001928E-02 0. -1.
</event>
<event>
 5   0  0.3746518E-06  0.2746517E+04  0.7818609E-02  0.8320068E-01
        1   -1    0    0  501    0  0.00000000000E+00  0.00000000000E+00  0.16422840828E+04  0.16422840828E+04  0.50400001928E-02 0. -1.
       -1   -1    0    0    0  501  0.00000000000E+00  0.00000000000E+00 -0.11483026619E+04  0.11483026619E+04  0.50400001928E-02 0.  1.
    10030    2    1    2    0    0  0.00000000000E+00  0.00000000000E+00  0.49398142093E+03  0.27905867447E+04  0.27465172010E+04 0.  0.
        4    1    3    3  502    0  0.24977081286E+03 -0.11140380174E+04 -0.52838684589E+03  0.12580383281E+04  0.12699999809E+01 0.  1.
       -4    1    3    3    0  502 -0.24977081286E+03  0.11140380174E+04  0.10223682668E+04  0.15325484166E+04  0.12699999809E+01 0. -1.
</event>
<event>
 5   0  0.3474078E-06  0.2892893E+04  0.7818609E-02  0.8274995E-01
       -1   -1    0    0    0  501  0.00000000000E+00  0.00000000000E+00  0.20344304242E+04  0.20344304243E+04  0.50400001928E-02 0.  1.
        1   -1    0    0  501    0  0.00000000000E+00  0.00000000000E+00 -0.10283994125E+04  0.10283994125E+04  0.50400001928E-02 0. -1.
    10030    2    1    2    0    0  0.00000000000E+00  0.00000000000E+00  0.10060310118E+04  0.30628298367E+04  0.28928927067E+04 0.  0.
        3    1    3    3  502    0 -0.49217148104E+03 -0.55127235319E+03  0.18194690868E+04  0.19638232461E+04  0.10100000352E+00 0.  1.
       -3    1    3    3    0  502  0.49217148104E+03  0.55127235319E+03 -0.81343807500E+03  0.10990065906E+04  0.10100000352E+00 0. -1.
</event>
<event>
 5   0  0.9360689E-06  0.2907827E+04  0.7818609E-02  0.8270552E-01
        2   -1    0    0  501    0  0.00000000000E+00  0.00000000000E+00  0.18891899514E+04  0.18891899514E+04  0.25500000920E-02 0. -1.
       -2   -1    0    0    0  501  0.00000000000E+00  0.00000000000E+00 -0.11189264530E+04  0.11189264530E+04  0.25500000920E-02 0.  1.
    10030    2    1    2    0    0  0.00000000000E+00  0.00000000000E+00  0.77026349849E+03  0.30081164044E+04  0.29078271003E+04 0.  0.
        5    1    3    3  502    0 -0.95715666490E+03  0.14790241174E+02  0.15171652148E+04  0.17939286528E+04  0.46999998093E+01 0. -1.
       -5    1    3    3    0  502  0.95715666490E+03 -0.14790241174E+02 -0.74690171628E+03  0.12141877516E+04  0.46999998093E+01 0.  1.
</event>
<event>
 5   0  0.3474078E-06  0.2899319E+04  0.7818609E-02  0.8273080E-01
       -1   -1    0    0    0  501  0.00000000000E+00  0.00000000000E+00  0.13173420002E+04  0.13173420002E+04  0.50400001928E-02 0.  1.
        1   -1    0    0  501    0  0.00000000000E+00  0.00000000000E+00 -0.15952672830E+04  0.15952672830E+04  0.50400001928E-02 0. -1.
    10030    2    1    2    0    0  0.00000000000E+00  0.00000000000E+00 -0.27792528282E+03  0.29126092832E+04  0.28993189500E+04 0.  0.
        3    1    3    3  502    0  0.14071761809E+04 -0.34798931783E+03 -0.12241857853E+03  0.14547259838E+04  0.10100000352E+00 0.  1.
       -3    1    3    3    0  502 -0.14071761809E+04  0.34798931783E+03 -0.15550670428E+03  0.14578832994E+04  0.10100000352E+00 0. -1.
</event>
<event>
 5   0  0.3474078E-06  0.2259456E+04  0.7818609E-02  0.8494081E-01
        1   -1    0    0  501    0  0.00000000000E+00  0.00000000000E+00  0.79567276133E+03  0.79567276135E+03  0.50400001928E-02 0.  1.
       -1   -1    0    0    0  501  0.00000000000E+00  0.00000000000E+00 -0.16040332525E+04  0.16040332525E+04  0.50400001928E-02 0. -1.
    10030    2    1    2    0    0  0.00000000000E+00  0.00000000000E+00 -0.80836049116E+03  0.23997060138E+04  0.22594561888E+04 0.  0.
        3    1    3    3  502    0  0.61593960217E+03 -0.62873739378E+03 -0.11563744074E+04  0.14532357291E+04  0.10100000352E+00 0. -1.
       -3    1    3    3    0  502 -0.61593960217E+03  0.62873739378E+03  0.34801391627E+03  0.94647028479E+03  0.10100000352E+00 0.  1.
</event>
<event>
 5   0  0.9505359E-06  0.2920396E+04  0.7818609E-02  0.8266835E-01
       -2   -1    0    0    0  501  0.00000000000E+00  0.00000000000E+00  0.11263007554E+04  0.11263007554E+04  0.25500000920E-02 0.  1.
        2   -1    0    0  501    0  0.00000000000E+00  0.00000000000E+00 -0.18930801496E+04  0.18930801496E+04  0.25500000920E-02 0. -1.
    10030    2    1    2    0    0  0.00000000000E+00  0.00000000000E+00 -0.76677939419E+03  0.30193809049E+04  0.29203955913E+04 0.  0.
        4    1    3    3  502    0 -0.15075185299E+03 -0.10233794253E+04 -0.14489253996E+04  0.17802859309E+04  0.12699999809E+01 0. -1.
       -4    1    3    3    0  502  0.15075185299E+03  0.10233794253E+04  0.68214600538E+03  0.12390949741E+04  0.12699999809E+01 0.  1.
</event>
<event>
 5   0  0.9251510E-06  0.2878471E+04  0.7818609E-02  0.8279312E-01
       -2   -1    0    0    0  501  0.00000000000E+00  0.00000000000E+00  0.11220322496E+04  0.11220322496E+04  0.25500000920E-02 0.  1.
        2   -1    0    0  501    0  0.00000000000E+00  0.00000000000E+00 -0.18461139673E+04  0.18461139673E+04  0.25500000920E-02 0. -1.
    10030    2    1    2    0    0  0.00000000000E+00  0.00000000000E+00 -0.72408171769E+03  0.29681462169E+04  0.28784714053E+04 0.  0.
        2    1    3    3  502    0  0.58400033464E+03 -0.12546245839E+04  0.45571664238E+02  0.13846356972E+04  0.25500000920E-02 0.  1.
       -2    1    3    3    0  502 -0.58400033464E+03  0.12546245839E+04 -0.76965338193E+03  0.15835105196E+04  0.25500000920E-02 0. -1.
</event>
<event>
 5   0  0.3649705E-06  0.2925394E+04  0.7818609E-02  0.8265362E-01
        1   -1    0    0  501    0  0.00000000000E+00  0.00000000000E+00  0.11800946909E+04  0.11800946909E+04  0.50400001928E-02 0. -1.
       -1   -1    0    0    0  501  0.00000000000E+00  0.00000000000E+00 -0.18129757939E+04  0.18129757939E+04  0.50400001928E-02 0.  1.
    10030    2    1    2    0    0  0.00000000000E+00  0.00000000000E+00 -0.63288110301E+03  0.29930704847E+04  0.29253944069E+04 0.  0.
        2    1    3    3  502    0 -0.81012514330E+02 -0.54330460586E+03 -0.17034345240E+04  0.17898134260E+04  0.25500000920E-02 0.  1.
       -2    1    3    3    0  502  0.81012514330E+02  0.54330460586E+03  0.10705534210E+04  0.12032570588E+04  0.25500000920E-02 0. -1.
</event>
<event>
 5   0  0.9251510E-06  0.2898775E+04  0.7818609E-02  0.8273242E-01
        2   -1    0    0  501    0  0.00000000000E+00  0.00000000000E+00  0.14895988718E+04  0.14895988718E+04  0.25500000920E-02 0.  1.
       -2   -1    0    0    0  501  0.00000000000E+00  0.00000000000E+00 -0.14102611403E+04  0.14102611403E+04  0.25500000920E-02 0. -1.
    10030    2    1    2    0    0  0.00000000000E+00  0.00000000000E+00  0.79337731523E+02  0.28998600120E+04  0.28987745021E+04 0.  0.
        2    1    3    3  502    0 -0.10073117043E+04  0.44401305833E+03  0.98283629421E+03  0.14757342738E+04  0.25500000920E-02 0.  1.
       -2    1    3    3    0  502  0.10073117043E+04 -0.44401305833E+03 -0.90349856269E+03  0.14241257383E+04  0.25500000920E-02 0. -1.
</event>
<event>
 5   0  0.3649705E-06  0.2921795E+04  0.7818609E-02  0.8266422E-01
        1   -1    0    0  501    0  0.00000000000E+00  0.00000000000E+00  0.19115249288E+04  0.19115249288E+04  0.50400001928E-02 0.  1.
       -1   -1    0    0    0  501  0.00000000000E+00  0.00000000000E+00 -0.11165017693E+04  0.11165017693E+04  0.50400001928E-02 0. -1.
    10030    2    1    2    0    0  0.00000000000E+00  0.00000000000E+00  0.79502315952E+03  0.30280266981E+04  0.29217946300E+04 0.  0.
        2    1    3    3  502    0 -0.22111225767E+03  0.43918795584E+02  0.18933906888E+04  0.19067636957E+04  0.25500000920E-02 0.  1.
       -2    1    3    3    0  502  0.22111225767E+03 -0.43918795584E+02 -0.10983675292E+04  0.11212630023E+04  0.25500000920E-02 0. -1.
</event>
<event>
 5   0  0.3188375E-06  0.2324537E+04  0.7818609E-02  0.8468309E-01
       -3   -1    0    0    0  501  0.00000000000E+00  0.00000000000E+00  0.13585403198E+04  0.13585403236E+04  0.10100000352E+00 0. -1.
        3   -1    0    0  501    0  0.00000000000E+00  0.00000000000E+00 -0.99435217615E+03  0.99435218128E+03  0.10100000352E+00 0.  1.
    10030    2    1    2    0    0  0.00000000000E+00  0.00000000000E+00  0.36418814369E+03  0.23528925049E+04  0.23245365421E+04 0.  0.
        3    1    3    3  502    0 -0.43403287905E+03  0.10671419007E+04  0.26297192046E+02  0.11523315186E+04  0.10100000352E+00 0.  1.
       -3    1    3    3    0  502  0.43403287905E+03 -0.10671419007E+04  0.33789095164E+03  0.12005609863E+04  0.10100000352E+00 0. -1.
</event>
<event>
 5   0  0.3564340E-06  0.2903453E+04  0.7818609E-02  0.8271851E-01
        1   -1    0    0  501    0  0.00000000000E+00  0.00000000000E+00  0.23427340061E+04  0.23427340061E+04  0.50400001928E-02 0.  1.
       -1   -1    0    0    0  501  0.00000000000E+00  0.00000000000E+00 -0.89959411706E+03  0.89959411707E+03  0.50400001928E-02 0. -1.
    10030    2    1    2    0    0  0.00000000000E+00  0.00000000000E+00  0.14431398890E+04  0.32423281231E+04  0.29034529304E+04 0.  0.
        1    1    3    3  502    0  0.21440876278E+03  0.11841981563E+03 -0.87635272331E+03  0.90993871550E+03  0.50400001928E-02 0. -1.
       -1    1    3    3    0  502 -0.21440876278E+03 -0.11841981563E+03  0.23194926123E+04  0.23323894076E+04  0.50400001928E-02 0.  1.
</event>
<event>
 5   0  0.9251510E-06  0.2881774E+04  0.7818609E-02  0.8278321E-01
        2   -1    0    0  501    0  0.00000000000E+00  0.00000000000E+00  0.10865987378E+04  0.10865987378E+04  0.25500000920E-02 0.  1.
       -2   -1    0    0    0  501  0.00000000000E+00  0.00000000000E+00 -0.19106915996E+04  0.19106915996E+04  0.25500000920E-02 0. -1.
    10030    2    1    2    0    0  0.00000000000E+00  0.00000000000E+00 -0.82409286176E+03  0.29972903374E+04  0.28817738152E+04 0.  0.
        2    1    3    3  502    0 -0.72730569105E+03  0.87107895705E+03 -0.13355595018E+04  0.17525613543E+04  0.25500000920E-02 0. -1.
       -2    1    3    3    0  502  0.72730569105E+03 -0.87107895705E+03  0.51146664002E+03  0.12447289832E+04  0.25500000920E-02 0.  1.
</event>
<event>
 5   0  0.9505359E-06  0.2901977E+04  0.7818609E-02  0.8272289E-01
       -2   -1    0    0    0  501  0.00000000000E+00  0.00000000000E+00  0.12231277905E+04  0.12231277905E+04  0.25500000920E-02 0. -1.
        2   -1    0    0  501    0  0.00000000000E+00  0.00000000000E+00 -0.17212987080E+04  0.17212987080E+04  0.25500000920E-02 0.  1.
    10030    2    1    2    0    0  0.00000000000E+00  0.00000000000E+00 -0.49817091744E+03  0.29444264985E+04  0.29019774538E+04 0.  0.
        4    1    3    3  502    0  0.36619867500E+03  0.13070828714E+04  0.27105305098E+03  0.13842104145E+04  0.12699999809E+01 0. -1.
       -4    1    3    3    0  502 -0.36619867500E+03 -0.13070828714E+04 -0.76922396842E+03  0.15602160840E+04  0.12699999809E+01 0.  1.
</event>
<event>
 5   0  0.1001573E-05  0.2654137E+04  0.7818609E-02  0.8350041E-01
        2   -1    0    0  501    0  0.00000000000E+00  0.00000000000E+00  0.15420189592E+04  0.15420189592E+04  0.25500000920E-02 0.  1.
       -2   -1    0    0    0  501  0.00000000000E+00  0.00000000000E+00 -0.11420808611E+04  0.11420808611E+04  0.25500000920E-02 0. -1.
    10030    2    1    2    0    0  0.00000000000E+00  0.00000000000E+00  0.39993809812E+03  0.26840998203E+04  0.26541366511E+04 0.  0.
        1    1    3    3  502    0  0.71361805411E+03 -0.74594358448E+02 -0.92900994518E+03  0.11738290011E+04  0.50400001928E-02 0. -1.
       -1    1    3    3    0  502 -0.71361805411E+03  0.74594358448E+02  0.13289480433E+04  0.15102708192E+04  0.50400001928E-02 0.  1.
</event>
<event>
 5   0  0.1001573E-05  0.2900840E+04  0.7818609E-02  0.8272627E-01
        2   -1    0    0  501    0  0.00000000000E+00  0.00000000000E+00  0.19291474675E+04  0.19291474675E+04  0.25500000920E-02 0. -1.
       -2   -1    0    0    0  501  0.00000000000E+00  0.00000000000E+00 -0.10904914120E+04  0.10904914120E+04  0.25500000920E-02 0.  1.
    10030    2    1    2    0    0  0.00000000000E+00  0.00000000000E+00  0.83865605558E+03  0.30196388795E+04  0.29008403925E+04 0.  0.
        1    1    3    3  502    0 -0.36439860592E+03  0.38511620980E+03  0.18246602069E+04  0.19001278141E+04  0.50400001928E-02 0. -1.
       -1    1    3    3    0  502  0.36439860592E+03 -0.38511620980E+03 -0.98600415136E+03  0.11195110654E+04  0.50400001928E-02 0.  1.
</event>
<event>
 5   0  0.3649705E-06  0.2892547E+04  0.7818609E-02  0.8275098E-01
        1   -1    0    0  501    0  0.00000000000E+00  0.00000000000E+00  0.15661244580E+04  0.15661244580E+04  0.50400001928E-02 0.  1.
       -1   -1    0    0    0  501  0.00000000000E+00  0.00000000000E+00 -0.13355945372E+04  0.13355945372E+04  0.50400001928E-02 0. -1.
    10030    2    1    2    0    0  0.00000000000E+00  0.00000000000E+00  0.23052992081E+03  0.29017189953E+04  0.28925471618E+04 0.  0.
        2    1    3    3  502    0  0.15143302605E+03 -0.53851896176E+03  0.14532002968E+04  0.15571530869E+04  0.25500000920E-02 0.  1.
       -2    1    3    3    0  502 -0.15143302605E+03  0.53851896176E+03 -0.12226703760E+04  0.13445659083E+04  0.25500000920E-02 0. -1.
</event>
<event>
 5   0  0.3188375E-06  0.2789259E+04  0.7818609E-02  0.8306611E-01
       -4   -1    0    0    0  501  0.00000000000E+00  0.00000000000E+00  0.18165735588E+04  0.18165740027E+04  0.12699999809E+01 0.  1.
        4   -1    0    0  501    0  0.00000000000E+00  0.00000000000E+00 -0.10706912758E+04  0.10706920290E+04  0.12699999809E+01 0. -1.
    10030    2    1    2    0    0  0.00000000000E+00  0.00000000000E+00  0.74588228300E+03  0.28872660317E+04  0.27892588187E+04 0.  0.
        1    1    3    3  502    0 -0.18634907329E+03 -0.33691124272E+03  0.17604716524E+04  0.18020809087E+04  0.50400001928E-02 0.  1.
       -1    1    3    3    0  502  0.18634907329E+03  0.33691124272E+03 -0.10145893694E+04  0.10851851230E+04  0.50400001928E-02 0. -1.
</event>
<event>
 5   0  0.1001573E-05  0.2890484E+04  0.7818609E-02  0.8275714E-01
       -2   -1    0    0    0  501  0.00000000000E+00  0.00000000000E+00  0.80984556397E+03  0.80984556397E+03  0.25500000920E-02 0. -1.
        2   -1    0    0  501    0  0.00000000000E+00  0.00000000000E+00 -0.25791646614E+04  0.25791646614E+04  0.25500000920E-02 0.  1.
    10030    2    1    2    0    0  0.00000000000E+00  0.00000000000E+00 -0.17693190974E+04  0.33890102253E+04  0.28904844298E+04 0.  0.
        1    1    3    3  502    0 -0.46988480835E+02 -0.12127944072E+04 -0.18046177219E+04  0.21747927060E+04  0.50400001928E-02 0.  1.
       -1    1    3    3    0  502  0.46988480835E+02  0.12127944072E+04  0.35298624546E+02  0.12142175194E+04  0.50400001928E-02 0. -1.
</event>
<event>
 5   0  0.9360689E-06  0.2846494E+04  0.7818609E-02  0.8288978E-01
       -2   -1    0    0    0  501  0.00000000000E+00  0.00000000000E+00  0.10561090736E+04  0.10561090736E+04  0.25500000920E-02 0. -1.
        2   -1    0    0  501    0  0.00000000000E+00  0.00000000000E+00 -0.19180137303E+04  0.19180137303E+04  0.25500000920E-02 0.  1.
    10030    2    1    2    0    0  0.00000000000E+00  0.00000000000E+00 -0.86190465675E+03  0.29741228039E+04  0.28464937757E+04 0.  0.
        5    1    3    3  502    0  0.10271809264E+04 -0.61461492556E+03  0.37347565442E+03  0.12539371263E+04  0.46999998093E+01 0. -1.
       -5    1    3    3    0  502 -0.10271809264E+04  0.61461492556E+03 -0.12353803112E+04  0.17201856776E+04  0.46999998093E+01 0.  1.
</event>
<event>
 5   0  0.9505359E-06  0.2879611E+04  0.7818609E-02  0.8278970E-01
       -2   -1    0    0    0  501  0.00000000000E+00  0.00000000000E+00  0.15838556328E+04  0.15838556328E+04  0.25500000920E-02 0. -1.
        2   -1    0    0  501    0  0.00000000000E+00  0.00000000000E+00 -0.13088564397E+04  0.13088564397E+04  0.25500000920E-02 0.  1.
    10030    2    1    2    0    0  0.00000000000E+00  0.00000000000E+00  0.27499919306E+03  0.28927120725E+04  0.28796108379E+04 0.  0.
        4    1    3    3  502    0 -0.63371313340E+03  0.10916686322E+04 -0.55825913322E+03  0.13802128860E+04  0.12699999809E+01 0. -1.
       -4    1    3    3    0  502  0.63371313340E+03 -0.10916686322E+04  0.83325832628E+03  0.15124991865E+04  0.12699999809E+01 0.  1.
</event>
<event>
 5   0  0.3564340E-06  0.2645494E+04  0.7818609E-02  0.8352910E-01
        1   -1    0    0  501    0  0.00000000000E+00  0.00000000000E+00  0.15244256871E+04  0.15244256871E+04  0.50400001928E-02 0. -1.
       -1   -1    0    0    0  501  0.00000000000E+00  0.00000000000E+00 -0.11477502180E+04  0.11477502180E+04  0.50400001928E-02 0.  1.
    10030    2    1    2    0    0  0.00000000000E+00  0.00000000000E+00  0.37667546905E+03  0.26721759051E+04  0.26454942183E+04 0.  0.
        1    1    3    3  502    0  0.29994105859E+03 -0.48513921463E+02  0.14886996830E+04  0.15193896753E+04  0.50400001928E-02 0. -1.
       -1    1    3    3    0  502 -0.29994105859E+03  0.48513921463E+02 -0.11120242140E+04  0.11527862298E+04  0.50400001928E-02 0.  1.
</event>
<event>
 5   0  0.9646321E-06  0.2871938E+04  0.7818609E-02  0.8281276E-01
        2   -1    0    0  501    0  0.00000000000E+00  0.00000000000E+00  0.18449082026E+04  0.18449082026E+04  0.25500000920E-02 0. -1.
       -2   -1    0    0    0  501  0.00000000000E+00  0.00000000000E+00 -0.11176749400E+04  0.11176749400E+04  0.25500000920E-02 0.  1.
    10030    2    1    2    0    0  0.00000000000E+00  0.00000000000E+00  0.72723326259E+03  0.29625831426E+04  0.28719384845E+04 0.  0.
        3    1    3    3  502    0  0.12724962034E+04 -0.62726679333E+03  0.13457860994E+03  0.14250689914E+04  0.10100000352E+00 0.  1.
       -3    1    3    3    0  502 -0.12724962034E+04  0.62726679333E+03  0.59265465266E+03  0.15375141512E+04  0.10100000352E+00 0. -1.
</event>
<event>
 5   0  0.1001573E-05  0.2914362E+04  0.7818609E-02  0.8268617E-01
       -2   -1    0    0    0  501  0.00000000000E+00  0.00000000000E+00  0.12525981633E+04  0.12525981633E+04  0.25500000920E-02 0.  1.
        2   -1    0    0  501    0  0.00000000000E+00  0.00000000000E+00 -0.16951773736E+04  0.16951773736E+04  0.25500000920E-02 0. -1.
    10030    2    1    2    0    0  0.00000000000E+00  0.00000000000E+00 -0.44257921028E+03  0.29477755369E+04  0.29143617240E+04 0.  0.
        1    1    3    3  502    0  0.13064209062E+04  0.21768675476E+03  0.39333925235E+03  0.13816073519E+04  0.50400001928E-02 0.  1.
       -1    1    3    3    0  502 -0.13064209062E+04 -0.21768675476E+03 -0.83591846263E+03  0.15661681850E+04  0.50400001928E-02 0. -1.
</event>
<event>
 5   0  0.3746518E-06  0.2899468E+04  0.7818609E-02  0.8273036E-01
       -1   -1    0    0    0  501  0.00000000000E+00  0.00000000000E+00  0.15484575115E+04  0.15484575115E+04  0.50400001928E-02 0.  1.
        1   -1    0    0  501    0  0.00000000000E+00  0.00000000000E+00 -0.13573045871E+04  0.13573045871E+04  0.50400001928E-02 0. -1.
    10030    2    1    2    0    0  0.00000000000E+00  0.00000000000E+00  0.19115292442E+03  0.29057620986E+04  0.28994678707E+04 0.  0.
        4    1    3    3  502    0 -0.13043851379E+04 -0.58792506945E+03 -0.13870525993E+03  0.14374690387E+04  0.12699999809E+01 0.  1.
       -4    1    3    3    0  502  0.13043851379E+04  0.58792506945E+03  0.32985818435E+03  0.14682930599E+04  0.12699999809E+01 0. -1.
</event>
<event>
 5   0  0.9646321E-06  0.2902258E+04  0.7818609E-02  0.8272206E-01
        2   -1    0    0  501    0  0.00000000000E+00  0.00000000000E+00  0.22115444407E+04  0.22115444407E+04  0.25500000920E-02 0.  1.
       -2   -1    0    0    0  501  0.00000000000E+00  0.00000000000E+00 -0.95217400906E+03  0.95217400907E+03  0.25500000920E-02 0. -1.
    10030    2    1    2    0    0  0.00000000000E+00  0.00000000000E+00  0.12593704317E+04  0.31637184498E+04  0.29022578358E+04 0.  0.
        3    1    3    3  502    0  0.12058522353E+04 -0.44880653180E+03  0.13611568304E+04  0.18730335938E+04  0.10100000352E+00 0.  1.
       -3    1    3    3    0  502 -0.12058522353E+04  0.44880653180E+03 -0.10178639873E+03  0.12906848560E+04  0.10100000352E+00 0. -1.
</event>
<event>
 5   0  0.1001573E-05  0.2901626E+04  0.7818609E-02  0.8272394E-01
       -2   -1    0    0    0  501  0.00000000000E+00  0.00000000000E+00  0.96870852584E+03  0.96870852584E+03  0.25500000920E-02 0. -1.
        2   -1    0    0  501    0  0.00000000000E+00  0.00000000000E+00 -0.21728498696E+04  0.21728498696E+04  0.25500000920E-02 0.  1.
    10030    2    1    2    0    0  0.00000000000E+00  0.00000000000E+00 -0.12041413438E+04  0.31415583954E+04  0.29016258849E+04 0.  0.
        1    1    3    3  502    0 -0.35626782224E+03  0.10145939157E+04 -0.16565289419E+04  0.19749470146E+04  0.50400001928E-02 0.  1.
       -1    1    3    3    0  502  0.35626782224E+03 -0.10145939157E+04  0.45238759815E+03  0.11666113809E+04  0.50400001928E-02 0. -1.
</event>
<event>
 5   0  0.3649705E-06  0.2909774E+04  0.7818609E-02  0.8269975E-01
       -1   -1    0    0    0  501  0.00000000000E+00  0.00000000000E+00  0.12391898110E+04  0.12391898110E+04  0.50400001928E-02 0. -1.
        1   -1    0    0  501    0  0.00000000000E+00  0.00000000000E+00 -0.17081289390E+04  0.17081289390E+04  0.50400001928E-02 0.  1.
    10030    2    1    2    0    0  0.00000000000E+00  0.00000000000E+00 -0.46893912795E+03  0.29473187500E+04  0.29097738587E+04 0.  0.
        2    1    3    3  502    0  0.38876406624E+03 -0.12496223188E+04  0.40934369419E+03  0.13712241607E+04  0.25500000920E-02 0. -1.
       -2    1    3    3    0  502 -0.38876406624E+03  0.12496223188E+04 -0.87828282214E+03  0.15760945893E+04  0.25500000920E-02 0.  1.
</event>
<event>
 5   0  0.9360689E-06  0.2917463E+04  0.7818609E-02  0.8267701E-01
        2   -1    0    0  501    0  0.00000000000E+00  0.00000000000E+00  0.18749148412E+04  0.18749148412E+04  0.25500000920E-02 0. -1.
       -2   -1    0    0    0  501  0.00000000000E+00  0.00000000000E+00 -0.11349305161E+04  0.11349305161E+04  0.25500000920E-02 0.  1.
    10030    2    1    2    0    0  0.00000000000E+00  0.00000000000E+00  0.73998432506E+03  0.30098453573E+04  0.29174633285E+04 0.  0.
        5    1    3    3  502    0 -0.10803171901E+04 -0.80822479956E+02 -0.63780188596E+03  0.12571518764E+04  0.46999998093E+01 0.  1.
       -5    1    3    3    0  502  0.10803171901E+04  0.80822479956E+02  0.13777862110E+04  0.17526934809E+04  0.46999998093E+01 0. -1.
</event>
<event>
 5   0  0.3564340E-06  0.2500185E+04  0.7818609E-02  0.8402919E-01
        1   -1    0    0  501    0  0.00000000000E+00  0.00000000000E+00  0.18998984984E+04  0.18998984984E+04  0.50400001928E-02 0. -1.
       -1   -1    0    0    0  501  0.00000000000E+00  0.00000000000E+00 -0.82253433154E+03  0.82253433155E+03  0.50400001928E-02 0.  1.
    10030    2    1    2    0    0  0.00000000000E+00  0.00000000000E+00  0.10773641668E+04  0.27224328299E+04  0.25001853862E+04 0.  0.
        1    1    3    3  502    0  0.47577574088E+03  0.13584491157E+03  0.17887359230E+04  0.18559074863E+04  0.50400001928E-02 0. -1.
       -1    1    3    3    0  502 -0.47577574088E+03 -0.13584491157E+03 -0.71137175616E+03  0.86652534360E+03  0.50400001928E-02 0.  1.
</event>
<event>
 5   0  0.1001573E-05  0.2886125E+04  0.7818609E-02  0.8277018E-01
       -2   -1    0    0    0  501  0.00000000000E+00  0.00000000000E+00  0.10824130417E+04  0.10824130417E+04  0.25500000920E-02 0.  1.
        2   -1    0    0  501    0  0.00000000000E+00  0.00000000000E+00 -0.19238762550E+04  0.19238762550E+04  0.25500000920E-02 0. -1.
    10030    2    1    2    0    0  0.00000000000E+00  0.00000000000E+00 -0.84146321327E+03  0.30062892968E+04  0.28861245636E+04 0.  0.
        1    1    3    3  502    0  0.10214133736E+04 -0.97900726706E+03 -0.12484805570E+03  0.14203265630E+04  0.50400001928E-02 0. -1.
       -1    1    3    3    0  502 -0.10214133736E+04  0.97900726706E+03 -0.71661515757E+03  0.15859627337E+04  0.50400001928E-02 0.  1.
</event>
<event>
 5   0  0.9251510E-06  0.2838527E+04  0.7818609E-02  0.8291406E-01
        2   -1    0    0  501    0  0.00000000000E+00  0.00000000000E+00  0.24905712728E+04  0.24905712728E+04  0.25500000920E-02 0. -1.
       -2   -1    0    0    0  501  0.00000000000E+00  0.00000000000E+00 -0.80877396603E+03  0.80877396603E+03  0.25500000920E-02 0.  1.
    10030    2    1    2    0    0  0.00000000000E+00  0.00000000000E+00  0.16817973067E+04  0.32993452388E+04  0.28385272280E+04 0.  0.
        2    1    3    3  502    0 -0.11898939000E+04  0.72265407379E+03  0.11618251976E+04  0.18132606524E+04  0.25500000920E-02 0.  1.
       -2    1    3    3    0  502  0.11898939000E+04 -0.72265407379E+03  0.51997210910E+03  0.14860845864E+04  0.25500000920E-02 0. -1.
</event>
<event>
 5   0  0.3486236E-06  0.2884731E+04  0.7818609E-02  0.8277435E-01
       -1   -1    0    0    0  501  0.00000000000E+00  0.00000000000E+00  0.18288958727E+04  0.18288958727E+04  0.50400001928E-02 0. -1.
        1   -1    0    0  501    0  0.00000000000E+00  0.00000000000E+00 -0.11375268467E+04  0.11375268468E+04  0.50400001928E-02 0.  1.
    10030    2    1    2    0    0  0.00000000000E+00  0.00000000000E+00  0.69136902598E+03  0.29664227195E+04  0.28847309442E+04 0.  0.
        5    1    3    3  502    0 -0.20250711943E+03 -0.76079143606E+03 -0.89708586814E+03  0.11935652003E+04  0.46999998093E+01 0.  1.
       -5    1    3    3    0  502  0.20250711943E+03  0.76079143606E+03  0.15884548941E+04  0.17728575192E+04  0.46999998093E+01 0. -1.
</event>
<event>
 5   0  0.3474078E-06  0.2887922E+04  0.7818609E-02  0.8276480E-01
       -1   -1    0    0    0  501  0.00000000000E+00  0.00000000000E+00  0.14068797590E+04  0.14068797590E+04  0.50400001928E-02 0.  1.
        1   -1    0    0  501    0  0.00000000000E+00  0.00000000000E+00 -0.14820196590E+04  0.14820196590E+04  0.50400001928E-02 0. -1.
    10030    2    1    2    0    0  0.00000000000E+00  0.00000000000E+00 -0.75139900018E+02  0.28888994180E+04  0.28879220631E+04 0.  0.
        3    1    3    3  502    0 -0.23114580548E+03  0.11843094816E+04 -0.83093741713E+03  0.14650850941E+04  0.10100000352E+00 0. -1.
       -3    1    3    3    0  502  0.23114580548E+03 -0.11843094816E+04  0.75579751711E+03  0.14238143238E+04  0.10100000352E+00 0.  1.
</event>
<event>
 5   0  0.9646321E-06  0.2892708E+04  0.7818609E-02  0.8275050E-01
       -2   -1    0    0    0  501  0.00000000000E+00  0.00000000000E+00  0.93328693992E+03  0.93328693993E+03  0.25500000920E-02 0. -1.
        2   -1    0    0  501    0  0.00000000000E+00  0.00000000000E+00 -0.22414754256E+04  0.22414754256E+04  0.25500000920E-02 0.  1.
    10030    2    1    2    0    0  0.00000000000E+00  0.00000000000E+00 -0.13081884857E+04  0.31747623656E+04  0.28927078946E+04 0.  0.
        3    1    3    3  502    0 -0.44114042451E+03  0.11532724287E+04  0.17253754346E+03  0.12467603551E+04  0.10100000352E+00 0. -1.
       -3    1    3    3    0  502  0.44114042451E+03 -0.11532724287E+04 -0.14807260292E+04  0.19280020105E+04  0.10100000352E+00 0.  1.
</event>
<event>
 5   0  0.9360689E-06  0.2876395E+04  0.7818609E-02  0.8279935E-01
       -2   -1    0    0    0  501  0.00000000000E+00  0.00000000000E+00  0.11774338583E+04  0.11774338583E+04  0.25500000920E-02 0. -1.
        2   -1    0    0  501    0  0.00000000000E+00  0.00000000000E+00 -0.17567124144E+04  0.17567124144E+04  0.25500000920E-02 0.  1.
    10030    2    1    2    0    0  0.00000000000E+00  0.00000000000E+00 -0.57927855608E+03  0.29341462727E+04  0.28763954359E+04 0.  0.
        5    1    3    3  502    0 -0.10754829819E+04 -0.39895845112E+03 -0.11745581847E+04  0.16417796775E+04  0.46999998093E+01 0.  1.
       -5    1    3    3    0  502  0.10754829819E+04  0.39895845112E+03  0.59527962863E+03  0.12923665952E+04  0.46999998093E+01 0. -1.
</event>
<event>
 5   0  0.3486236E-06  0.2849839E+04  0.7818609E-02  0.8287960E-01
       -1   -1    0    0    0  501  0.00000000000E+00  0.00000000000E+00  0.10534271645E+04  0.10534271645E+04  0.50400001928E-02 0. -1.
        1   -1    0    0  501    0  0.00000000000E+00  0.00000000000E+00 -0.19274189389E+04  0.19274189389E+04  0.50400001928E-02 0.  1.
    10030    2    1    2    0    0  0.00000000000E+00  0.00000000000E+00 -0.87399177442E+03  0.29808461034E+04  0.28498389201E+04 0.  0.
        5    1    3    3  502    0  0.13414210753E+04 -0.21622574670E+03 -0.88592215817E+03  0.16220493935E+04  0.46999998093E+01 0.  1.
       -5    1    3    3    0  502 -0.13414210753E+04  0.21622574670E+03  0.11930383747E+02  0.13587967099E+04  0.46999998093E+01 0. -1.
</event>
<event>
 5   0  0.1001573E-05  0.2899637E+04  0.7818609E-02  0.8272985E-01
       -2   -1    0    0    0  501  0.00000000000E+00  0.00000000000E+00  0.75731140104E+03  0.75731140104E+03  0.25500000920E-02 0.  1.
        2   -1    0    0  501    0  0.00000000000E+00  0.00000000000E+00 -0.27755747341E+04  0.27755747341E+04  0.25500000920E-02 0. -1.
    10030    2    1    2    0    0  0.00000000000E+00  0.00000000000E+00 -0.20182633331E+04  0.35328861352E+04  0.28996374881E+04 0.  0.
        1    1    3    3  502    0 -0.97695565975E+03  0.71790355152E+03 -0.19778439579E+04  0.23198479674E+04  0.50400001928E-02 0. -1.
       -1    1    3    3    0  502  0.97695565975E+03 -0.71790355152E+03 -0.40419375217E+02  0.12130381677E+04  0.50400001928E-02 0.  1.
</event>
<event>
 5   0  0.3564340E-06  0.2921680E+04  0.7818609E-02  0.8266456E-01
        1   -1    0    0  501    0  0.00000000000E+00  0.00000000000E+00  0.11899397341E+04  0.11899397341E+04  0.50400001928E-02 0.  1.
       -1   -1    0    0    0  501  0.00000000000E+00  0.00000000000E+00 -0.17934127775E+04  0.17934127775E+04  0.50400001928E-02 0. -1.
    10030    2    1    2    0    0  0.00000000000E+00  0.00000000000E+00 -0.60347304334E+03  0.29833525116E+04  0.29216797385E+04 0.  0.
        1    1    3    3  502    0 -0.93262982231E+03 -0.69095973983E+03  0.60402162012E+03  0.13084593479E+04  0.50400001928E-02 0.  1.
       -1    1    3    3    0  502  0.93262982231E+03  0.69095973983E+03 -0.12074946635E+04  0.16748931637E+04  0.50400001928E-02 0. -1.
</event>
<event>
 5   0  0.9646321E-06  0.2904856E+04  0.7818609E-02  0.8271434E-01
        2   -1    0    0  501    0  0.00000000000E+00  0.00000000000E+00  0.15511384808E+04  0.15511384808E+04  0.25500000920E-02 0.  1.
       -2   -1    0    0    0  501  0.00000000000E+00  0.00000000000E+00 -0.13599987831E+04  0.13599987831E+04  0.25500000920E-02 0. -1.
    10030    2    1    2    0    0  0.00000000000E+00  0.00000000000E+00  0.19113969763E+03  0.29111372639E+04  0.29048555533E+04 0.  0.
        3    1    3    3  502    0  0.19402208948E+03 -0.94731389725E+03 -0.99051643245E+03  0.13842582867E+04  0.10100000352E+00 0. -1.
       -3    1    3    3    0  502 -0.19402208948E+03  0.94731389725E+03  0.11816561301E+04  0.15268789772E+04  0.10100000352E+00 0.  1.
</event>
<event>
 5   0  0.9505359E-06  0.2635606E+04  0.7818609E-02  0.8356206E-01
       -2   -1    0    0    0  501  0.00000000000E+00  0.00000000000E+00  0.98520866045E+03  0.98520866045E+03  0.25500000920E-02 0. -1.
        2   -1    0    0  501    0  0.00000000000E+00  0.00000000000E+00 -0.17626765166E+04  0.17626765166E+04  0.25500000920E-02 0.  1.
    10030    2    1    2    0    0  0.00000000000E+00  0.00000000000E+00 -0.77746785612E+03  0.27478851770E+04  0.26356055621E+04 0.  0.
        4    1    3    3  502    0  0.93020152479E+03 -0.99234802637E+02  0.57896620204E+03  0.11001481258E+04  0.12699999809E+01 0. -1.
       -4    1    3    3    0  502 -0.93020152479E+03  0.99234802637E+02 -0.13564340582E+04  0.16477370512E+04  0.12699999809E+01 0.  1.
</event>
<event>
 5   0  0.9251510E-06  0.2120615E+04  0.7818609E-02  0.8552216E-01
        2   -1    0    0  501    0  0.00000000000E+00  0.00000000000E+00  0.99022438741E+03  0.99022438741E+03  0.25500000920E-02 0. -1.
       -2   -1    0    0    0  501  0.00000000000E+00  0.00000000000E+00 -0.11353511785E+04  0.11353511785E+04  0.25500000920E-02 0.  1.
    10030    2    1    2    0    0  0.00000000000E+00  0.00000000000E+00 -0.14512679113E+03  0.21255755659E+04  0.21206154062E+04 0.  0.
        2    1    3    3  502    0  0.26064397670E+03  0.10024305823E+04 -0.29992002549E+03  0.10783108905E+04  0.25500000920E-02 0. -1.
       -2    1    3    3    0  502 -0.26064397670E+03 -0.10024305823E+04  0.15479323436E+03  0.10472646754E+04  0.25500000920E-02 0.  1.
</event>
<event>
 5   0  0.9251510E-06  0.2903049E+04  0.7818609E-02  0.8271971E-01
        2   -1    0    0  501    0  0.00000000000E+00  0.00000000000E+00  0.28218128493E+04  0.28218128493E+04  0.25500000920E-02 0.  1.
       -2   -1    0    0    0  501  0.00000000000E+00  0.00000000000E+00 -0.74665598035E+03  0.74665598035E+03  0.25500000920E-02 0. -1.
    10030    2    1    2    0    0  0.00000000000E+00  0.00000000000E+00  0.20751568690E+04  0.35684688297E+04  0.29030490450E+04 0.  0.
        2    1    3    3  502    0  0.89325229305E+02  0.75740891377E+02  0.28159958501E+04  0.28184301139E+04  0.25500000920E-02 0.  1.
       -2    1    3    3    0  502 -0.89325229305E+02 -0.75740891377E+02 -0.74083898111E+03  0.75003871577E+03  0.25500000920E-02 0. -1.
</event>
<event>
 5   0  0.1001573E-05  0.2897125E+04  0.7818609E-02  0.8273733E-01
       -2   -1    0    0    0  501  0.00000000000E+00  0.00000000000E+00  0.15828149019E+04  0.15828149019E+04  0.25500000920E-02 0.  1.
        2   -1    0    0  501    0  0.00000000000E+00  0.00000000000E+00 -0.13256972664E+04  0.13256972664E+04  0.25500000920E-02 0. -1.
    10030    2    1    2    0    0  0.00000000000E+00  0.00000000000E+00  0.25711763551E+03  0.29085121684E+04  0.28971250500E+04 0.  0.
        1    1    3    3  502    0 -0.46203171494E+02 -0.14430447142E+04  0.10535661398E+02  0.14438226278E+04  0.50400001928E-02 0. -1.
       -1    1    3    3    0  502  0.46203171494E+02  0.14430447142E+04  0.24658197411E+03  0.14646895406E+04  0.50400001928E-02 0.  1.
</event>
<event>
 5   0  0.3486236E-06  0.2799900E+04  0.7818609E-02  0.8303299E-01
        1   -1    0    0  501    0  0.00000000000E+00  0.00000000000E+00  0.13600407439E+04  0.13600407440E+04  0.50400001928E-02 0. -1.
       -1   -1    0    0    0  501  0.00000000000E+00  0.00000000000E+00 -0.14410302719E+04  0.14410302719E+04  0.50400001928E-02 0.  1.
    10030    2    1    2    0    0  0.00000000000E+00  0.00000000000E+00 -0.80989527951E+02  0.28010710159E+04  0.27998999147E+04 0.  0.
        5    1    3    3  502    0  0.89377018695E+03 -0.85389239522E+03  0.61695620771E+03  0.13815261206E+04  0.46999998093E+01 0. -1.
       -5    1    3    3    0  502 -0.89377018695E+03  0.85389239522E+03 -0.69794573567E+03  0.14195448952E+04  0.46999998093E+01 0.  1.
</event>
<event>
 5   0  0.3564340E-06  0.2898722E+04  0.7818609E-02  0.8273258E-01
        1   -1    0    0  501    0  0.00000000000E+00  0.00000000000E+00  0.19953283049E+04  0.19953283049E+04  0.50400001928E-02 0.  1.
       -1   -1    0    0    0  501  0.00000000000E+00  0.00000000000E+00 -0.10527825065E+04  0.10527825066E+04  0.50400001928E-02 0. -1.
    10030    2    1    2    0    0  0.00000000000E+00  0.00000000000E+00  0.94254579831E+03  0.30481108114E+04  0.28987216039E+04 0.  0.
        1    1    3    3  502    0  0.15873855525E+03 -0.39491474533E+03 -0.98558536215E+03  0.10735614054E+04  0.50400001928E-02 0. -1.
       -1    1    3    3    0  502 -0.15873855525E+03  0.39491474533E+03  0.19281311605E+04  0.19745494061E+04  0.50400001928E-02 0.  1.
</event>
<event>
 5   0  0.1001573E-05  0.2879077E+04  0.7818609E-02  0.8279130E-01
       -2   -1    0    0    0  501  0.00000000000E+00  0.00000000000E+00  0.12663019138E+04  0.12663019138E+04  0.25500000920E-02 0.  1.
        2   -1    0    0  501    0  0.00000000000E+00  0.00000000000E+00 -0.16364749826E+04  0.16364749826E+04  0.25500000920E-02 0. -1.
    10030    2    1    2    0    0  0.00000000000E+00  0.00000000000E+00 -0.37017306881E+03  0.29027768963E+04  0.28790772149E+04 0.  0.
        1    1    3    3  502    0  0.46531112077E+03 -0.97930844857E+03  0.76965720254E+03  0.13296359224E+04  0.50400001928E-02 0.  1.
       -1    1    3    3    0  502 -0.46531112077E+03  0.97930844857E+03 -0.11398302713E+04  0.15731409740E+04  0.50400001928E-02 0. -1.
</event>
<event>
 5   0  0.3649705E-06  0.2915846E+04  0.7818609E-02  0.8268178E-01
        1   -1    0    0  501    0  0.00000000000E+00  0.00000000000E+00  0.22178099847E+04  0.22178099847E+04  0.50400001928E-02 0.  1.
       -1   -1    0    0    0  501  0.00000000000E+00  0.00000000000E+00 -0.95839586785E+03  0.95839586786E+03  0.50400001928E-02 0. -1.
    10030    2    1    2    0    0  0.00000000000E+00  0.00000000000E+00  0.12594141169E+04  0.31762058526E+04  0.29158463094E+04 0.  0.
        2    1    3    3  502    0 -0.20116811281E+03  0.13178249710E+04  0.12726737628E+04  0.18430490418E+04  0.25500000920E-02 0.  1.
       -2    1    3    3    0  502  0.20116811281E+03 -0.13178249710E+04 -0.13259645934E+02  0.13331568108E+04  0.25500000920E-02 0. -1.
</event>
<event>
 5   0  0.3474078E-06  0.2920260E+04  0.7818609E-02  0.8266875E-01
       -1   -1    0    0    0  501  0.00000000000E+00  0.00000000000E+00  0.12687532097E+04  0.12687532097E+04  0.50400001928E-02 0.  1.
        1   -1    0    0  501    0  0.00000000000E+00  0.00000000000E+00 -0.16803737324E+04  0.16803737324E+04  0.50400001928E-02 0. -1.
    10030    2    1    2    0    0  0.00000000000E+00  0.00000000000E+00 -0.41162052266E+03  0.29491269421E+04  0.29202599655E+04 0.  0.
        3    1    3    3  502    0  0.13185999886E+04 -0.62492013721E+03 -0.25875413950E+03  0.14819530434E+04  0.10100000352E+00 0.  1.
       -3    1    3    3    0  502 -0.13185999886E+04  0.62492013721E+03 -0.15286638316E+03  0.14671738988E+04  0.10100000352E+00 0. -1.
</event>
<event>
 5   0  0.3746518E-06  0.2874078E+04  0.7818609E-02  0.8280632E-01
        1   -1    0    0  501    0  0.00000000000E+00  0.00000000000E+00  0.10186469748E+04  0.10186469748E+04  0.50400001928E-02 0. -1.
       -1   -1    0    0    0  501  0.00000000000E+00  0.00000000000E+00 -0.20272778265E+04  0.20272778265E+04  0.50400001928E-02 0.  1.
    10030    2    1    2    0    0  0.00000000000E+00  0.00000000000E+00 -0.10086308517E+04  0.30459248013E+04  0.28740775390E+04 0.  0.
        4    1    3    3  502    0 -0.50786136135E+03 -0.93192036895E+03  0.52246952864E+03  0.11829517140E+04  0.12699999809E+01 0. -1.
       -4    1    3    3    0  502  0.50786136135E+03  0.93192036895E+03 -0.15311003804E+04  0.18629730873E+04  0.12699999809E+01 0.  1.
</event>
<event>
 5   0  0.1001573E-05  0.2908193E+04  0.7818609E-02  0.8270444E-01
        2   -1    0    0  501    0  0.00000000000E+00  0.00000000000E+00  0.88038590872E+03  0.88038590873E+03  0.25500000920E-02 0.  1.
       -2   -1    0    0    0  501  0.00000000000E+00  0.00000000000E+00 -0.24016710190E+04  0.24016710190E+04  0.25500000920E-02 0. -1.
    10030    2    1    2    0    0  0.00000000000E+00  0.00000000000E+00 -0.15212851103E+04  0.32820569277E+04  0.29081934754E+04 0.  0.
        1    1    3    3  502    0 -0.36290288499E+03 -0.34657936488E+03  0.77956930657E+03  0.92711599267E+03  0.50400001928E-02 0.  1.
       -1    1    3    3    0  502  0.36290288499E+03  0.34657936488E+03 -0.23008544168E+04  0.23549409351E+04  0.50400001928E-02 0. -1.
</event>
<event>
 5   0  0.3649705E-06  0.2908675E+04  0.7818609E-02  0.8270301E-01
       -1   -1    0    0    0  501  0.00000000000E+00  0.00000000000E+00  0.13899898568E+04  0.13899898568E+04  0.50400001928E-02 0. -1.
        1   -1    0    0  501    0  0.00000000000E+00  0.00000000000E+00 -0.15216637982E+04  0.15216637982E+04  0.50400001928E-02 0.  1.
    10030    2    1    2    0    0  0.00000000000E+00  0.00000000000E+00 -0.13167394145E+03  0.29116536550E+04  0.29086747807E+04 0.  0.
        2    1    3    3  502    0 -0.26964508648E+02 -0.13191804204E+04 -0.67812766675E+03  0.14835164977E+04  0.25500000920E-02 0. -1.
       -2    1    3    3    0  502  0.26964508648E+02  0.13191804204E+04  0.54645372530E+03  0.14281371574E+04  0.25500000920E-02 0.  1.
</event>
<event>
 5   0  0.3486236E-06  0.2942580E+04  0.7818609E-02  0.8260320E-01
       -1   -1    0    0    0  501  0.00000000000E+00  0.00000000000E+00  0.15689662114E+04  0.15689662114E+04  0.50400001928E-02 0. -1.
        1   -1    0    0  501    0  0.00000000000E+00  0.00000000000E+00 -0.13796946882E+04  0.13796946882E+04  0.50400001928E-02 0.  1.
    10030    2    1    2    0    0  0.00000000000E+00  0.00000000000E+00  0.18927152321E+03  0.29486608996E+04  0.29425800569E+04 0.  0.
        5    1    3    3  502    0 -0.41512187321E+03  0.13983366558E+04 -0.98117362960E+02  0.14619578241E+04  0.46999998093E+01 0. -1.
       -5    1    3    3    0  502  0.41512187321E+03 -0.13983366558E+04  0.28738888618E+03  0.14867030754E+04  0.46999998093E+01 0.  1.
</event>
<event>
 5   0  0.3486236E-06  0.2805750E+04  0.7818609E-02  0.8301485E-01
        1   -1    0    0  501    0  0.00000000000E+00  0.00000000000E+00  0.10904618599E+04  0.10904618600E+04  0.50400001928E-02 0.  1.
       -1   -1    0    0    0  501  0.00000000000E+00  0.00000000000E+00 -0.18047932524E+04  0.18047932524E+04  0.50400001928E-02 0. -1.
    10030    2    1    2    0    0  0.00000000000E+00  0.00000000000E+00 -0.71433139245E+03  0.28952551124E+04  0.28057499581E+04 0.  0.
        5    1    3    3  502    0 -0.10849101104E+04  0.86205146815E+03 -0.13138585182E+03  0.13919220572E+04  0.46999998093E+01 0.  1.
       -5    1    3    3    0  502  0.10849101104E+04 -0.86205146815E+03 -0.58294554064E+03  0.15033330551E+04  0.46999998093E+01 0. -1.
</event>
<event>
 5   0  0.1001573E-05  0.2919564E+04  0.7818609E-02  0.8267080E-01
        2   -1    0    0  501    0  0.00000000000E+00  0.00000000000E+00  0.19823635908E+04  0.19823635908E+04  0.25500000920E-02 0. -1.
       -2   -1    0    0    0  501  0.00000000000E+00  0.00000000000E+00 -0.10749606297E+04  0.10749606297E+04  0.25500000920E-02 0.  1.
    10030    2    1    2    0    0  0.00000000000E+00  0.00000000000E+00  0.90740296107E+03  0.30573242205E+04  0.29195635385E+04 0.  0.
        1    1    3    3  502    0 -0.11594175421E+03 -0.61812222471E+03 -0.92582176442E+03  0.11192245148E+04  0.50400001928E-02 0.  1.
       -1    1    3    3    0  502  0.11594175421E+03  0.61812222471E+03  0.18332247255E+04  0.19380997057E+04  0.50400001928E-02 0. -1.
</event>
<event>
 5   0  0.3486236E-06  0.2910336E+04  0.7818609E-02  0.8269809E-01
        1   -1    0    0  501    0  0.00000000000E+00  0.00000000000E+00  0.23759517856E+04  0.23759517856E+04  0.50400001928E-02 0.  1.
       -1   -1    0    0    0  501  0.00000000000E+00  0.00000000000E+00 -0.89122757588E+03  0.89122757589E+03  0.50400001928E-02 0. -1.
    10030    2    1    2    0    0  0.00000000000E+00  0.00000000000E+00  0.14847242098E+04  0.32671793615E+04  0.29103358915E+04 0.  0.
        5    1    3    3  502    0 -0.29877173181E+03  0.67839751360E+03 -0.66337281949E+03  0.99477300015E+03  0.46999998093E+01 0. -1.
       -5    1    3    3    0  502  0.29877173181E+03 -0.67839751360E+03  0.21480970293E+04  0.22724063614E+04  0.46999998093E+01 0.  1.
</event>
<event>
 5   0  0.9251510E-06  0.2311877E+04  0.7818609E-02  0.8473253E-01
        2   -1    0    0  501    0  0.00000000000E+00  0.00000000000E+00  0.82991200816E+03  0.82991200816E+03  0.25500000920E-02 0.  1.
       -2   -1    0    0    0  501  0.00000000000E+00  0.00000000000E+00 -0.16100423259E+04  0.16100423259E+04  0.25500000920E-02 0. -1.
    10030    2    1    2    0    0  0.00000000000E+00  0.00000000000E+00 -0.78013031772E+03  0.24399543340E+04  0.23118766921E+04 0.  0.
        2    1    3    3  502    0  0.31703129043E+02  0.74301790069E+03 -0.13240271123E+04  0.15185942458E+04  0.25500000920E-02 0. -1.
       -2    1    3    3    0  502 -0.31703129043E+02 -0.74301790069E+03  0.54389679457E+03  0.92136008829E+03  0.25500000920E-02 0.  1.
</event>
<event>
 5   0  0.3649705E-06  0.2822446E+04  0.7818609E-02  0.8296333E-01
        1   -1    0    0  501    0  0.00000000000E+00  0.00000000000E+00  0.18795708010E+04  0.18795708010E+04  0.50400001928E-02 0. -1.
       -1   -1    0    0    0  501  0.00000000000E+00  0.00000000000E+00 -0.10595773328E+04  0.10595773328E+04  0.50400001928E-02 0.  1.
    10030    2    1    2    0    0  0.00000000000E+00  0.00000000000E+00  0.81999346825E+03  0.29391481338E+04  0.28224461845E+04 0.  0.
        2    1    3    3  502    0  0.12901832292E+04 -0.50148790428E+03  0.69610736626E+03  0.15493961238E+04  0.25500000920E-02 0. -1.
       -2    1    3    3    0  502 -0.12901832292E+04  0.50148790428E+03  0.12388610199E+03  0.13897520100E+04  0.25500000920E-02 0.  1.
</event>
<event>
 5   0  0.9360689E-06  0.3001256E+04  0.7818609E-02  0.8243372E-01
       -2   -1    0    0    0  501  0.00000000000E+00  0.00000000000E+00  0.88829018665E+03  0.88829018665E+03  0.25500000920E-02 0.  1.
        2   -1    0    0  501    0  0.00000000000E+00  0.00000000000E+00 -0.25350770734E+04  0.25350770734E+04  0.25500000920E-02 0. -1.
    10030    2    1    2    0    0  0.00000000000E+00  0.00000000000E+00 -0.16467868868E+04  0.34233672601E+04  0.30012557950E+04 0.  0.
        5    1    3    3  502    0  0.44149945856E+03  0.52057429727E+03 -0.23477418205E+04  0.24449607597E+04  0.46999998093E+01 0. -1.
       -5    1    3    3    0  502 -0.44149945856E+03 -0.52057429727E+03  0.70095493370E+03  0.97840650037E+03  0.46999998093E+01 0.  1.
</event>
<event>
 5   0  0.9505359E-06  0.2907605E+04  0.7818609E-02  0.8270618E-01
       -2   -1    0    0    0  501  0.00000000000E+00  0.00000000000E+00  0.15907210650E+04  0.15907210650E+04  0.25500000920E-02 0.  1.
        2   -1    0    0  501    0  0.00000000000E+00  0.00000000000E+00 -0.13286692646E+04  0.13286692646E+04  0.25500000920E-02 0. -1.
    10030    2    1    2    0    0  0.00000000000E+00  0.00000000000E+00  0.26205180037E+03  0.29193903297E+04  0.29076053293E+04 0.  0.
        4    1    3    3  502    0 -0.80524090864E+03  0.91902302588E+03  0.92195238173E+03  0.15306907101E+04  0.12699999809E+01 0.  1.
       -4    1    3    3    0  502  0.80524090864E+03 -0.91902302588E+03 -0.65990058135E+03  0.13886996195E+04  0.12699999809E+01 0. -1.
</event>
<event>
 5   0  0.9505359E-06  0.2908452E+04  0.7818609E-02  0.8270367E-01
       -2   -1    0    0    0  501  0.00000000000E+00  0.00000000000E+00  0.10257671212E+04  0.10257671212E+04  0.25500000920E-02 0.  1.
        2   -1    0    0  501    0  0.00000000000E+00  0.00000000000E+00 -0.20616502577E+04  0.20616502577E+04  0.25500000920E-02 0. -1.
    10030    2    1    2    0    0  0.00000000000E+00  0.00000000000E+00 -0.10358831365E+04  0.30874173789E+04  0.29084518560E+04 0.  0.
        4    1    3    3  502    0  0.19954470446E+03 -0.12621251214E+04  0.21903565774E+03  0.12964397955E+04  0.12699999809E+01 0.  1.
       -4    1    3    3    0  502 -0.19954470446E+03  0.12621251214E+04 -0.12549187943E+04  0.17909775834E+04  0.12699999809E+01 0. -1.
</event>
<event>
 5   0  0.3486236E-06  0.2869748E+04  0.7818609E-02  0.8281936E-01
       -1   -1    0    0    0  501  0.00000000000E+00  0.00000000000E+00  0.12107589147E+04  0.12107589148E+04  0.50400001928E-02 0. -1.
        1   -1    0    0  501    0  0.00000000000E+00  0.00000000000E+00 -0.17004738852E+04  0.17004738852E+04  0.50400001928E-02 0.  1.
    10030    2    1    2    0    0  0.00000000000E+00  0.00000000000E+00 -0.48971497048E+03  0.29112328000E+04  0.28697483624E+04 0.  0.
        5    1    3    3  502    0  0.12665151032E+03 -0.81620970257E+02  0.12027034536E+04  0.12121139695E+04  0.46999998093E+01 0. -1.
       -5    1    3    3    0  502 -0.12665151032E+03  0.81620970257E+02 -0.16924184241E+04  0.16991188305E+04  0.46999998093E+01 0.  1.
</event>
<event>
 5   0  0.3188375E-06  0.2903114E+04  0.7818609E-02  0.8271952E-01
        3   -1    0    0  501    0  0.00000000000E+00  0.00000000000E+00  0.10928172916E+04  0.10928172963E+04  0.10100000352E+00 0. -1.
       -3   -1    0    0    0  501  0.00000000000E+00  0.00000000000E+00 -0.19280603937E+04  0.19280603964E+04  0.10100000352E+00 0.  1.
    10030    2    1    2    0    0  0.00000000000E+00  0.00000000000E+00 -0.83524310213E+03  0.30208776926E+04  0.29031140167E+04 0.  0.
        2    1    3    3  502    0  0.13771166856E+04 -0.14329713481E+03  0.35989807137E+02  0.13850197474E+04  0.25500000920E-02 0. -1.
       -2    1    3    3    0  502 -0.13771166856E+04  0.14329713481E+03 -0.87123290927E+03  0.16358579452E+04  0.25500000920E-02 0.  1.
</event>
<event>
 5   0  0.3486236E-06  0.2534160E+04  0.7818609E-02  0.8390916E-01
        1   -1    0    0  501    0  0.00000000000E+00  0.00000000000E+00  0.12404980366E+04  0.12404980366E+04  0.50400001928E-02 0.  1.
       -1   -1    0    0    0  501  0.00000000000E+00  0.00000000000E+00 -0.12942319619E+04  0.12942319619E+04  0.50400001928E-02 0. -1.
    10030    2    1    2    0    0  0.00000000000E+00  0.00000000000E+00 -0.53733925290E+02  0.25347299986E+04  0.25341603799E+04 0.  0.
        5    1    3    3  502    0 -0.54962813874E+03  0.11415863000E+04 -0.39508885873E+02  0.12676329963E+04  0.46999998093E+01 0.  1.
       -5    1    3    3    0  502  0.54962813874E+03 -0.11415863000E+04 -0.14225039417E+02  0.12670970022E+04  0.46999998093E+01 0. -1.
</event>
<event>
 5   0  0.9505359E-06  0.2840857E+04  0.7818609E-02  0.8290695E-01
       -2   -1    0    0    0  501  0.00000000000E+00  0.00000000000E+00  0.16814630334E+04  0.16814630334E+04  0.25500000920E-02 0.  1.
        2   -1    0    0  501    0  0.00000000000E+00  0.00000000000E+00 -0.11999179942E+04  0.11999179942E+04  0.25500000920E-02 0. -1.
    10030    2    1    2    0    0  0.00000000000E+00  0.00000000000E+00  0.48154503926E+03  0.28813810276E+04  0.28408574413E+04 0.  0.
        4    1    3    3  502    0 -0.35003204511E+03  0.10256260354E+04 -0.69057695126E+03  0.12850405969E+04  0.12699999809E+01 0. -1.
       -4    1    3    3    0  502  0.35003204511E+03 -0.10256260354E+04  0.11721219905E+04  0.15963404307E+04  0.12699999809E+01 0.  1.
</event>
<event>
 5   0  0.9360689E-06  0.2900466E+04  0.7818609E-02  0.8272739E-01
       -2   -1    0    0    0  501  0.00000000000E+00  0.00000000000E+00  0.72207302936E+03  0.72207302937E+03  0.25500000920E-02 0.  1.
        2   -1    0    0  501    0  0.00000000000E+00  0.00000000000E+00 -0.29126915219E+04  0.29126915219E+04  0.25500000920E-02 0. -1.
    10030    2    1    2    0    0  0.00000000000E+00  0.00000000000E+00 -0.21906184926E+04  0.36347645513E+04  0.29004661631E+04 0.  0.
        5    1    3    3  502    0  0.25666867120E+03 -0.86755614576E+02  0.69006637868E+03  0.74136296132E+03  0.46999998093E+01 0.  1.
       -5    1    3    3    0  502 -0.25666867120E+03  0.86755614576E+02 -0.28806848713E+04  0.28934015900E+04  0.46999998093E+01 0. -1.
</event>
<event>
 5   0  0.3474078E-06  0.2874819E+04  0.7818609E-02  0.8280409E-01
       -1   -1    0    0    0  501  0.00000000000E+00  0.00000000000E+00  0.12745420669E+04  0.12745420669E+04  0.50400001928E-02 0. -1.
        1   -1    0    0  501    0  0.00000000000E+00  0.00000000000E+00 -0.16210888707E+04  0.16210888707E+04  0.50400001928E-02 0.  1.
    10030    2    1    2    0    0  0.00000000000E+00  0.00000000000E+00 -0.34654680380E+03  0.28956309377E+04  0.28748189230E+04 0.  0.
        3    1    3    3  502    0  0.28890350312E+03  0.71329056461E+03  0.10495572682E+04  0.13014680684E+04  0.10100000352E+00 0. -1.
       -3    1    3    3    0  502 -0.28890350312E+03 -0.71329056461E+03 -0.13961040720E+04  0.15941628693E+04  0.10100000352E+00 0.  1.
</event>
<event>
 5   0  0.9505359E-06  0.2923763E+04  0.7818609E-02  0.8265842E-01
        2   -1    0    0  501    0  0.00000000000E+00  0.00000000000E+00  0.15011118856E+04  0.15011118856E+04  0.25500000920E-02 0. -1.
       -2   -1    0    0    0  501  0.00000000000E+00  0.00000000000E+00 -0.14236763198E+04  0.14236763198E+04  0.25500000920E-02 0.  1.
    10030    2    1    2    0    0  0.00000000000E+00  0.00000000000E+00  0.77435565869E+02  0.29247882054E+04  0.29237629486E+04 0.  0.
        4    1    3    3  502    0 -0.41932811502E+03 -0.23856910335E+03 -0.13417460337E+04  0.14258454745E+04  0.12699999809E+01 0.  1.
       -4    1    3    3    0  502  0.41932811502E+03  0.23856910335E+03  0.14191815996E+04  0.14989427310E+04  0.12699999809E+01 0. -1.
</event>
<event>
 5   0  0.1001573E-05  0.2816239E+04  0.7818609E-02  0.8298245E-01
        2   -1    0    0  501    0  0.00000000000E+00  0.00000000000E+00  0.11328251833E+04  0.11328251833E+04  0.25500000920E-02 0.  1.
       -2   -1    0    0    0  501  0.00000000000E+00  0.00000000000E+00 -0.17503142076E+04  0.17503142076E+04  0.25500000920E-02 0. -1.
    10030    2    1    2    0    0  0.00000000000E+00  0.00000000000E+00 -0.61748902432E+03  0.28831393909E+04  0.28162386355E+04 0.  0.
        1    1    3    3  502    0  0.11835994936E+04  0.49290522870E+03 -0.90475716239E+03  0.15692191844E+04  0.50400001928E-02 0. -1.
       -1    1    3    3    0  502 -0.11835994936E+04 -0.49290522870E+03  0.28726813807E+03  0.13139202065E+04  0.50400001928E-02 0.  1.
</event>
<event>
 5   0  0.3474078E-06  0.2876704E+04  0.7818609E-02  0.8279843E-01
        1   -1    0    0  501    0  0.00000000000E+00  0.00000000000E+00  0.12154319177E+04  0.12154319177E+04  0.50400001928E-02 0. -1.
       -1   -1    0    0    0  501  0.00000000000E+00  0.00000000000E+00 -0.17021572964E+04  0.17021572965E+04  0.50400001928E-02 0.  1.
    10030    2    1    2    0    0  0.00000000000E+00  0.00000000000E+00 -0.48672537872E+03  0.29175892142E+04  0.28767038827E+04 0.  0.
        3    1    3    3  502    0  0.83247547247E+03 -0.25604102474E+03 -0.14043077926E+04  0.16524687002E+04  0.10100000352E+00 0.  1.
       -3    1    3    3    0  502 -0.83247547247E+03  0.25604102474E+03  0.91758241385E+03  0.12651205140E+04  0.10100000352E+00 0. -1.
</event>
<event>
 5   0  0.9646321E-06  0.2902015E+04  0.7818609E-02  0.8272278E-01
        2   -1    0    0  501    0  0.00000000000E+00  0.00000000000E+00  0.24446345994E+04  0.24446345994E+04  0.25500000920E-02 0.  1.
       -2   -1    0    0    0  501  0.00000000000E+00  0.00000000000E+00 -0.86124248954E+03  0.86124248954E+03  0.25500000920E-02 0. -1.
    10030    2    1    2    0    0  0.00000000000E+00  0.00000000000E+00  0.15833921098E+04  0.33058770889E+04  0.29020152917E+04 0.  0.
        3    1    3    3  502    0  0.46096589706E+03 -0.11921302510E+04  0.92630853463E+01  0.12781822673E+04  0.10100000352E+00 0. -1.
       -3    1    3    3    0  502 -0.46096589706E+03  0.11921302510E+04  0.15741290245E+04  0.20276948216E+04  0.10100000352E+00 0.  1.
</event>
<event>
 5   0  0.3474078E-06  0.2864809E+04  0.7818609E-02  0.8283426E-01
       -1   -1    0    0    0  501  0.00000000000E+00  0.00000000000E+00  0.15688952462E+04  0.15688952462E+04  0.50400001928E-02 0. -1.
        1   -1    0    0  501    0  0.00000000000E+00  0.00000000000E+00 -0.13077877910E+04  0.13077877910E+04  0.50400001928E-02 0.  1.
    10030    2    1    2    0    0  0.00000000000E+00  0.00000000000E+00  0.26110745522E+03  0.28766830372E+04  0.28648085789E+04 0.  0.
        3    1    3    3  502    0  0.13298567699E+04 -0.78067335567E+02 -0.39809639868E+03  0.13903576124E+04  0.10100000352E+00 0.  1.
       -3    1    3    3    0  502 -0.13298567699E+04  0.78067335567E+02  0.65920385389E+03  0.14863254249E+04  0.10100000352E+00 0. -1.
</event>
<event>
 5   0  0.3486236E-06  0.2917822E+04  0.7818609E-02  0.8267595E-01
       -1   -1    0    0    0  501  0.00000000000E+00  0.00000000000E+00  0.14045143672E+04  0.14045143672E+04  0.50400001928E-02 0.  1.
        1   -1    0    0  501    0  0.00000000000E+00  0.00000000000E+00 -0.15154147160E+04  0.15154147161E+04  0.50400001928E-02 0. -1.
    10030    2    1    2    0    0  0.00000000000E+00  0.00000000000E+00 -0.11090034882E+03  0.29199290833E+04  0.29178222982E+04 0.  0.
        5    1    3    3  502    0 -0.13005253318E+04 -0.39749128834E+03  0.47316810113E+03  0.14398873584E+04  0.46999998093E+01 0.  1.
       -5    1    3    3    0  502  0.13005253318E+04  0.39749128834E+03 -0.58406844995E+03  0.14800417248E+04  0.46999998093E+01 0. -1.
</event>
<event>
 5   0  0.3564340E-06  0.2923244E+04  0.7818609E-02  0.8265995E-01
       -1   -1    0    0    0  501  0.00000000000E+00  0.00000000000E+00  0.15278744457E+04  0.15278744457E+04  0.50400001928E-02 0.  1.
        1   -1    0    0  501    0  0.00000000000E+00  0.00000000000E+00 -0.13982422641E+04  0.13982422641E+04  0.50400001928E-02 0. -1.
    10030    2    1    2    0    0  0.00000000000E+00  0.00000000000E+00  0.12963218158E+03  0.29261167099E+04  0.29232438313E+04 0.  0.
        1    1    3    3  502    0 -0.36557998956E+03  0.73746012723E+02 -0.13498142605E+04  0.14003877110E+04  0.50400001928E-02 0. -1.
       -1    1    3    3    0  502  0.36557998956E+03 -0.73746012723E+02  0.14794464421E+04  0.15257289989E+04  0.50400001928E-02 0.  1.
</event>
<event>
 5   0  0.3564340E-06  0.2894198E+04  0.7818609E-02  0.8274606E-01
        1   -1    0    0  501    0  0.00000000000E+00  0.00000000000E+00  0.27807463169E+04  0.27807463169E+04  0.50400001928E-02 0.  1.
       -1   -1    0    0    0  501  0.00000000000E+00  0.00000000000E+00 -0.75306943446E+03  0.75306943448E+03  0.50400001928E-02 0. -1.
    10030    2    1    2    0    0  0.00000000000E+00  0.00000000000E+00  0.20276768825E+04  0.35338157514E+04  0.28941976825E+04 0.  0.
        1    1    3    3  502    0 -0.11666683078E+04  0.47463629113E+03  0.18838389556E+04  0.22661076232E+04  0.50400001928E-02 0.  1.
       -1    1    3    3    0  502  0.11666683078E+04 -0.47463629113E+03  0.14383792690E+03  0.12677081283E+04  0.50400001928E-02 0. -1.
</event>
<event>
 5   0  0.9646321E-06  0.2824997E+04  0.7818609E-02  0.8295550E-01
        2   -1    0    0  501    0  0.00000000000E+00  0.00000000000E+00  0.16645219621E+04  0.16645219621E+04  0.25500000920E-02 0. -1.
       -2   -1    0    0    0  501  0.00000000000E+00  0.00000000000E+00 -0.11986337033E+04  0.11986337033E+04  0.25500000920E-02 0.  1.
    10030    2    1    2    0    0  0.00000000000E+00  0.00000000000E+00  0.46588825874E+03  0.28631556654E+04  0.28249970787E+04 0.  0.
        3    1    3    3  502    0  0.36061070444E+03  0.13032841240E+04  0.64657753521E+03  0.14988836203E+04  0.10100000352E+00 0.  1.
       -3    1    3    3    0  502 -0.36061070444E+03 -0.13032841240E+04 -0.18068927647E+03  0.13642720450E+04  0.10100000352E+00 0. -1.
</event>
<event>
 5   0  0.3564340E-06  0.2862876E+04  0.7818609E-02  0.8284009E-01
       -1   -1    0    0    0  501  0.00000000000E+00  0.00000000000E+00  0.17579082153E+04  0.17579082154E+04  0.50400001928E-02 0.  1.
        1   -1    0    0  501    0  0.00000000000E+00  0.00000000000E+00 -0.11655986612E+04  0.11655986612E+04  0.50400001928E-02 0. -1.
    10030    2    1    2    0    0  0.00000000000E+00  0.00000000000E+00  0.59230955414E+03  0.29235068766E+04  0.28628764992E+04 0.  0.
        1    1    3    3  502    0  0.35865919302E+03 -0.46556055221E+02  0.17104815428E+04  0.17482994569E+04  0.50400001928E-02 0.  1.
       -1    1    3    3    0  502 -0.35865919302E+03  0.46556055221E+02 -0.11181719886E+04  0.11752074196E+04  0.50400001928E-02 0. -1.
</event>
<event>
 5   0  0.3649705E-06  0.2872225E+04  0.7818609E-02  0.8281190E-01
        1   -1    0    0  501    0  0.00000000000E+00  0.00000000000E+00  0.20803738572E+04  0.20803738573E+04  0.50400001928E-02 0.  1.
       -1   -1    0    0    0  501  0.00000000000E+00  0.00000000000E+00 -0.99136931066E+03  0.99136931067E+03  0.50400001928E-02 0. -1.
    10030    2    1    2    0    0  0.00000000000E+00  0.00000000000E+00  0.10890045466E+04  0.30717431679E+04  0.28722247801E+04 0.  0.
        2    1    3    3  502    0  0.29303237155E+03  0.14010700227E+03 -0.95157183501E+03  0.10054784434E+04  0.25500000920E-02 0. -1.
       -2    1    3    3    0  502 -0.29303237155E+03 -0.14010700227E+03  0.20405763816E+04  0.20662647246E+04  0.25500000920E-02 0.  1.
</event>
<event>
 5   0  0.3486236E-06  0.2882525E+04  0.7818609E-02  0.8278096E-01
        1   -1    0    0  501    0  0.00000000000E+00  0.00000000000E+00  0.15064130717E+04  0.15064130717E+04  0.50400001928E-02 0.  1.
       -1   -1    0    0    0  501  0.00000000000E+00  0.00000000000E+00 -0.13789293114E+04  0.13789293114E+04  0.50400001928E-02 0. -1.
    10030    2    1    2    0    0  0.00000000000E+00  0.00000000000E+00  0.12748376030E+03  0.28853423832E+04  0.28825246849E+04 0.  0.
        5    1    3    3  502    0  0.59044595852E+02  0.12980349707E+04 -0.56043321583E+03  0.14150931167E+04  0.46999998093E+01 0. -1.
       -5    1    3    3    0  502 -0.59044595852E+02 -0.12980349707E+04  0.68791697613E+03  0.14702492665E+04  0.46999998093E+01 0.  1.
</event>
<event>
 5   0  0.9505359E-06  0.2826943E+04  0.7818609E-02  0.8294952E-01
       -2   -1    0    0    0  501  0.00000000000E+00  0.00000000000E+00  0.13481681245E+04  0.13481681245E+04  0.25500000920E-02 0.  1.
        2   -1    0    0  501    0  0.00000000000E+00  0.00000000000E+00 -0.14819376862E+04  0.14819376862E+04  0.25500000920E-02 0. -1.
    10030    2    1    2    0    0  0.00000000000E+00  0.00000000000E+00 -0.13376956174E+03  0.28301058107E+04  0.28269426248E+04 0.  0.
        4    1    3    3  502    0 -0.91480015209E+02 -0.77032006232E+03  0.11160201563E+04  0.13591409764E+04  0.12699999809E+01 0.  1.
       -4    1    3    3    0  502  0.91480015209E+02  0.77032006232E+03 -0.12497897180E+04  0.14709648343E+04  0.12699999809E+01 0. -1.
</event>
<event>
 5   0  0.9646321E-06  0.2796379E+04  0.7818609E-02  0.8304393E-01
       -2   -1    0    0    0  501  0.00000000000E+00  0.00000000000E+00  0.21939843359E+04  0.21939843359E+04  0.25500000920E-02 0.  1.
        2   -1    0    0  501    0  0.00000000000E+00  0.00000000000E+00 -0.89104286196E+03  0.89104286197E+03  0.25500000920E-02 0. -1.
    10030    2    1    2    0    0  0.00000000000E+00  0.00000000000E+00  0.13029414740E+04  0.30850271979E+04  0.27963791458E+04 0.  0.
        3    1    3    3  502    0 -0.69773280330E+03 -0.91026007415E+03 -0.23078251734E+03  0.11698995888E+04  0.10100000352E+00 0. -1.
       -3    1    3    3    0  502  0.69773280330E+03  0.91026007415E+03  0.15337239913E+04  0.19151276091E+04  0.10100000352E+00 0.  1.
</event>
<event>
 5   0  0.3746518E-06  0.2918044E+04  0.7818609E-02  0.8267529E-01
       -1   -1    0    0    0  501  0.00000000000E+00  0.00000000000E+00  0.15892122061E+04  0.15892122062E+04  0.50400001928E-02 0. -1.
        1   -1    0    0  501    0  0.00000000000E+00  0.00000000000E+00 -0.13394970217E+04  0.13394970217E+04  0.50400001928E-02 0.  1.
    10030    2    1    2    0    0  0.00000000000E+00  0.00000000000E+00  0.24971518446E+03  0.29287092278E+04  0.29180438770E+04 0.  0.
        4    1    3    3  502    0  0.13282978672E+04  0.18940276013E+03  0.70009705308E+03  0.15134021693E+04  0.12699999809E+01 0. -1.
       -4    1    3    3    0  502 -0.13282978672E+04 -0.18940276013E+03 -0.45038186862E+03  0.14153070585E+04  0.12699999809E+01 0.  1.
</event>
<event>
 5   0  0.3649705E-06  0.2909387E+04  0.7818609E-02  0.8270090E-01
        1   -1    0    0  501    0  0.00000000000E+00  0.00000000000E+00  0.81628036312E+03  0.81628036314E+03  0.50400001928E-02 0.  1.
       -1   -1    0    0    0  501  0.00000000000E+00  0.00000000000E+00 -0.25924098695E+04  0.25924098695E+04  0.50400001928E-02 0. -1.
    10030    2    1    2    0    0  0.00000000000E+00  0.00000000000E+00 -0.17761295064E+04  0.34086902327E+04  0.29093870624E+04 0.  0.
        2    1    3    3  502    0  0.40797335061E+03 -0.11263977168E+04  0.78728970934E+02  0.12005883233E+04  0.25500000920E-02 0.  1.
       -2    1    3    3    0  502 -0.40797335061E+03  0.11263977168E+04 -0.18548584773E+04  0.22081019094E+04  0.25500000920E-02 0. -1.
</event>
<event>
 5   0  0.3746518E-06  0.2982953E+04  0.7818609E-02  0.8248616E-01
       -1   -1    0    0    0  501  0.00000000000E+00  0.00000000000E+00  0.11423404175E+04  0.11423404176E+04  0.50400001928E-02 0. -1.
        1   -1    0    0  501    0  0.00000000000E+00  0.00000000000E+00 -0.19473194156E+04  0.19473194156E+04  0.50400001928E-02 0.  1.
    10030    2    1    2    0    0  0.00000000000E+00  0.00000000000E+00 -0.80497899807E+03  0.30896598332E+04  0.29829526811E+04 0.  0.
        4    1    3    3  502    0 -0.85243629891E+03  0.29960853879E+03 -0.16315664348E+04  0.18650532336E+04  0.12699999809E+01 0.  1.
       -4    1    3    3    0  502  0.85243629891E+03 -0.29960853879E+03  0.82658743672E+03  0.12246065996E+04  0.12699999809E+01 0. -1.
</event>
<event>
 5   0  0.3564340E-06  0.2920100E+04  0.7818609E-02  0.8266922E-01
        1   -1    0    0  501    0  0.00000000000E+00  0.00000000000E+00  0.13344189896E+04  0.13344189896E+04  0.50400001928E-02 0.  1.
       -1   -1    0    0    0  501  0.00000000000E+00  0.00000000000E+00 -0.15975092372E+04  0.15975092372E+04  0.50400001928E-02 0. -1.
    10030    2    1    2    0    0  0.00000000000E+00  0.00000000000E+00 -0.26309024756E+03  0.29319282268E+04  0.29201004518E+04 0.  0.
        1    1    3    3  502    0  0.11465588995E+04 -0.90039372523E+03 -0.50967389305E+02  0.14587336444E+04  0.50400001928E-02 0. -1.
       -1    1    3    3    0  502 -0.11465588995E+04  0.90039372523E+03 -0.21212285826E+03  0.14731945824E+04  0.50400001928E-02 0.  1.
</event>
<event>
 5   0  0.3188375E-06  0.2893455E+04  0.7818609E-02  0.8274827E-01
        3   -1    0    0  501    0  0.00000000000E+00  0.00000000000E+00  0.10395928298E+04  0.10395928347E+04  0.10100000352E+00 0.  1.
       -3   -1    0    0    0  501  0.00000000000E+00  0.00000000000E+00 -0.20133077312E+04  0.20133077338E+04  0.10100000352E+00 0. -1.
    10030    2    1    2    0    0  0.00000000000E+00  0.00000000000E+00 -0.97371490145E+03  0.30529005685E+04  0.28934548850E+04 0.  0.
        3    1    3    3  502    0  0.46363124231E+03  0.11453604519E+04 -0.12807960786E+04  0.17796749981E+04  0.10100000352E+00 0. -1.
       -3    1    3    3    0  502 -0.46363124231E+03 -0.11453604519E+04  0.30708117711E+03  0.12732255704E+04  0.10100000352E+00 0.  1.
</event>
<event>
 5   0  0.3564340E-06  0.2898384E+04  0.7818609E-02  0.8273359E-01
       -1   -1    0    0    0  501  0.00000000000E+00  0.00000000000E+00  0.15311243295E+04  0.15311243295E+04  0.50400001928E-02 0. -1.
        1   -1    0    0  501    0  0.00000000000E+00  0.00000000000E+00 -0.13716435477E+04  0.13716435477E+04  0.50400001928E-02 0.  1.
    10030    2    1    2    0    0  0.00000000000E+00  0.00000000000E+00  0.15948078175E+03  0.29027678772E+04  0.28983835545E+04 0.  0.
        1    1    3    3  502    0 -0.78281764671E+03  0.70777629386E+03  0.10744225234E+04  0.15060327051E+04  0.50400001928E-02 0. -1.
       -1    1    3    3    0  502  0.78281764671E+03 -0.70777629386E+03 -0.91494174164E+03  0.13967351720E+04  0.50400001928E-02 0.  1.
</event>
<event>
 5   0  0.9505359E-06  0.2904760E+04  0.7818609E-02  0.8271463E-01
        2   -1    0    0  501    0  0.00000000000E+00  0.00000000000E+00  0.13541588723E+04  0.13541588723E+04  0.25500000920E-02 0. -1.
       -2   -1    0    0    0  501  0.00000000000E+00  0.00000000000E+00 -0.15577249134E+04  0.15577249134E+04  0.25500000920E-02 0.  1.
    10030    2    1    2    0    0  0.00000000000E+00  0.00000000000E+00 -0.20356604107E+03  0.29118837858E+04  0.29047595509E+04 0.  0.
        4    1    3    3  502    0 -0.16355085230E+03  0.10650406091E+04 -0.10780015205E+04  0.15241880695E+04  0.12699999809E+01 0.  1.
       -4    1    3    3    0  502  0.16355085230E+03 -0.10650406091E+04  0.87443547939E+03  0.13876957162E+04  0.12699999809E+01 0. -1.
</event>
<event>
 5   0  0.9505359E-06  0.2915210E+04  0.7818609E-02  0.8268366E-01
       -2   -1    0    0    0  501  0.00000000000E+00  0.00000000000E+00  0.18416128820E+04  0.18416128820E+04  0.25500000920E-02 0.  1.
        2   -1    0    0  501    0  0.00000000000E+00  0.00000000000E+00 -0.11536694359E+04  0.11536694360E+04  0.25500000920E-02 0. -1.
    10030    2    1    2    0    0  0.00000000000E+00  0.00000000000E+00  0.68794344607E+03  0.29952823180E+04  0.29152101090E+04 0.  0.
        4    1    3    3  502    0 -0.10973625500E+04 -0.86980900197E+03  0.75985938532E+03  0.15931604327E+04  0.12699999809E+01 0.  1.
       -4    1    3    3    0  502  0.10973625500E+04  0.86980900197E+03 -0.71915939252E+02  0.14021218853E+04  0.12699999809E+01 0. -1.
</event>
<event>
 5   0  0.3564340E-06  0.2883545E+04  0.7818609E-02  0.8277790E-01
       -1   -1    0    0    0  501  0.00000000000E+00  0.00000000000E+00  0.17908321905E+04  0.17908321905E+04  0.50400001928E-02 0.  1.
        1   -1    0    0  501    0  0.00000000000E+00  0.00000000000E+00 -0.11607501041E+04  0.11607501041E+04  0.50400001928E-02 0. -1.
    10030    2    1    2    0    0  0.00000000000E+00  0.00000000000E+00  0.63008208642E+03  0.29515822947E+04  0.28835454924E+04 0.  0.
        1    1    3    3  502    0 -0.82282056115E+03 -0.54864932755E+02  0.15255971251E+04  0.17342117589E+04  0.50400001928E-02 0.  1.
       -1    1    3    3    0  502  0.82282056115E+03  0.54864932755E+02 -0.89551503869E+03  0.12173705357E+04  0.50400001928E-02 0. -1.
</event>
<event>
 5   0  0.3746518E-06  0.2714316E+04  0.7818609E-02  0.8330375E-01
        1   -1    0    0  501    0  0.00000000000E+00  0.00000000000E+00  0.10205073696E+04  0.10205073696E+04  0.50400001928E-02 0. -1.
       -1   -1    0    0    0  501  0.00000000000E+00  0.00000000000E+00 -0.18048650850E+04  0.18048650850E+04  0.50400001928E-02 0.  1.
    10030    2    1    2    0    0  0.00000000000E+00  0.00000000000E+00 -0.78435771534E+03  0.28253724546E+04  0.27143162089E+04 0.  0.
        4    1    3    3  502    0  0.11575785401E+04  0.14328038033E+03 -0.11143662270E+04  0.16131742140E+04  0.12699999809E+01 0.  1.
       -4    1    3    3    0  502 -0.11575785401E+04 -0.14328038033E+03  0.33000851171E+03  0.12121982406E+04  0.12699999809E+01 0. -1.
</event>
<event>
 5   0  0.9505359E-06  0.2885405E+04  0.7818609E-02  0.8277233E-01
        2   -1    0    0  501    0  0.00000000000E+00  0.00000000000E+00  0.23865948452E+04  0.23865948452E+04  0.25500000920E-02 0.  1.
       -2   -1    0    0    0  501  0.00000000000E+00  0.00000000000E+00 -0.87211700498E+03  0.87211700498E+03  0.25500000920E-02 0. -1.
    10030    2    1    2    0    0  0.00000000000E+00  0.00000000000E+00  0.15144778403E+04  0.32587118502E+04  0.28854046153E+04 0.  0.
        4    1    3    3  502    0  0.11625588618E+04 -0.85361352867E+03  0.79618480653E+03  0.16474559243E+04  0.12699999809E+01 0. -1.
       -4    1    3    3    0  502 -0.11625588618E+04  0.85361352867E+03  0.71829303373E+03  0.16112559259E+04  0.12699999809E+01 0.  1.
</event>
<event>
 5   0  0.9505359E-06  0.2907605E+04  0.7818609E-02  0.8270618E-01
        2   -1    0    0  501    0  0.00000000000E+00  0.00000000000E+00  0.15848801617E+04  0.15848801617E+04  0.25500000920E-02 0. -1.
       -2   -1    0    0    0  501  0.00000000000E+00  0.00000000000E+00 -0.13335652435E+04  0.13335652435E+04  0.25500000920E-02 0.  1.
    10030    2    1    2    0    0  0.00000000000E+00  0.00000000000E+00  0.25131491820E+03  0.29184454052E+04  0.29076045803E+04 0.  0.
        4    1    3    3  502    0  0.53760809646E+03  0.13131550179E+04  0.44328782601E+03  0.14865746790E+04  0.12699999809E+01 0. -1.
       -4    1    3    3    0  502 -0.53760809646E+03 -0.13131550179E+04 -0.19197290782E+03  0.14318707263E+04  0.12699999809E+01 0.  1.
</event>
<event>
 5   0  0.9360689E-06  0.2673065E+04  0.7818609E-02  0.8343798E-01
        2   -1    0    0  501    0  0.00000000000E+00  0.00000000000E+00  0.14161389174E+04  0.14161389174E+04  0.25500000920E-02 0. -1.
       -2   -1    0    0    0  501  0.00000000000E+00  0.00000000000E+00 -0.12614006012E+04  0.12614006012E+04  0.25500000920E-02 0.  1.
    10030    2    1    2    0    0  0.00000000000E+00  0.00000000000E+00  0.15473831617E+03  0.26775395186E+04  0.26730645199E+04 0.  0.
        5    1    3    3  502    0  0.13846149818E+02 -0.32852034835E+03  0.13749833789E+04  0.14137604880E+04  0.46999998093E+01 0. -1.
       -5    1    3    3    0  502 -0.13846149818E+02  0.32852034835E+03 -0.12202450627E+04  0.12637790306E+04  0.46999998093E+01 0.  1.
</event>
<event>
 5   0  0.1001573E-05  0.2930555E+04  0.7818609E-02  0.8263844E-01
       -2   -1    0    0    0  501  0.00000000000E+00  0.00000000000E+00  0.11404760285E+04  0.11404760285E+04  0.25500000920E-02 0. -1.
        2   -1    0    0  501    0  0.00000000000E+00  0.00000000000E+00 -0.18825804229E+04  0.18825804229E+04  0.25500000920E-02 0.  1.
    10030    2    1    2    0    0  0.00000000000E+00  0.00000000000E+00 -0.74210439436E+03  0.30230564514E+04  0.29305547898E+04 0.  0.
        1    1    3    3  502    0 -0.65125173501E+03 -0.12039730470E+04 -0.91039171840E+03  0.16439260936E+04  0.50400001928E-02 0.  1.
       -1    1    3    3    0  502  0.65125173501E+03  0.12039730470E+04  0.16828732405E+03  0.13791303578E+04  0.50400001928E-02 0. -1.
</event>
<event>
 5   0  0.3486236E-06  0.2934200E+04  0.7818609E-02  0.8262774E-01
        1   -1    0    0  501    0  0.00000000000E+00  0.00000000000E+00  0.20112793041E+04  0.20112793042E+04  0.50400001928E-02 0.  1.
       -1   -1    0    0    0  501  0.00000000000E+00  0.00000000000E+00 -0.10701555890E+04  0.10701555891E+04  0.50400001928E-02 0. -1.
    10030    2    1    2    0    0  0.00000000000E+00  0.00000000000E+00  0.94112371511E+03  0.30814348932E+04  0.29341995764E+04 0.  0.
        5    1    3    3  502    0 -0.70532171294E+03 -0.11529157322E+04  0.10698694120E+04  0.17237563787E+04  0.46999998093E+01 0.  1.
       -5    1    3    3    0  502  0.70532171294E+03  0.11529157322E+04 -0.12874569693E+03  0.13576785145E+04  0.46999998093E+01 0. -1.
</event>
<event>
 5   0  0.9360689E-06  0.2887459E+04  0.7818609E-02  0.8276618E-01
        2   -1    0    0  501    0  0.00000000000E+00  0.00000000000E+00  0.13767442853E+04  0.13767442853E+04  0.25500000920E-02 0.  1.
       -2   -1    0    0    0  501  0.00000000000E+00  0.00000000000E+00 -0.15139742922E+04  0.15139742922E+04  0.25500000920E-02 0. -1.
    10030    2    1    2    0    0  0.00000000000E+00  0.00000000000E+00 -0.13723000684E+03  0.28907185775E+04  0.28874594057E+04 0.  0.
        5    1    3    3  502    0 -0.13877139199E+04  0.84245727472E+02 -0.45826647178E+03  0.14638570679E+04  0.46999998093E+01 0.  1.
       -5    1    3    3    0  502  0.13877139199E+04 -0.84245727472E+02  0.32103646493E+03  0.14268615097E+04  0.46999998093E+01 0. -1.
</event>
<event>
 5   0  0.3649705E-06  0.2884273E+04  0.7818609E-02  0.8277572E-01
       -1   -1    0    0    0  501  0.00000000000E+00  0.00000000000E+00  0.13164425230E+04  0.13164425230E+04  0.50400001928E-02 0. -1.
        1   -1    0    0  501    0  0.00000000000E+00  0.00000000000E+00 -0.15798319565E+04  0.15798319565E+04  0.50400001928E-02 0.  1.
    10030    2    1    2    0    0  0.00000000000E+00  0.00000000000E+00 -0.26338943352E+03  0.28962744795E+04  0.28842731957E+04 0.  0.
        2    1    3    3  502    0 -0.92764258360E+03 -0.88515427972E+03 -0.79454674888E+03  0.15084175145E+04  0.25500000920E-02 0.  1.
       -2    1    3    3    0  502  0.92764258360E+03  0.88515427972E+03  0.53115731536E+03  0.13878569651E+04  0.25500000920E-02 0. -1.
</event>
<event>
 5   0  0.9360689E-06  0.2897836E+04  0.7818609E-02  0.8273522E-01
       -2   -1    0    0    0  501  0.00000000000E+00  0.00000000000E+00  0.77058439394E+03  0.77058439394E+03  0.25500000920E-02 0.  1.
        2   -1    0    0  501    0  0.00000000000E+00  0.00000000000E+00 -0.27243782288E+04  0.27243782288E+04  0.25500000920E-02 0. -1.
    10030    2    1    2    0    0  0.00000000000E+00  0.00000000000E+00 -0.19537938348E+04  0.34949626227E+04  0.28978359831E+04 0.  0.
        5    1    3    3  502    0  0.12680830011E+04  0.50370710648E+03 -0.38902992680E+03  0.14188452068E+04  0.46999998093E+01 0.  1.
       -5    1    3    3    0  502 -0.12680830011E+04 -0.50370710648E+03 -0.15647639080E+04  0.20761174159E+04  0.46999998093E+01 0. -1.
</event>
<event>
 5   0  0.3474078E-06  0.2877903E+04  0.7818609E-02  0.8279483E-01
       -1   -1    0    0    0  501  0.00000000000E+00  0.00000000000E+00  0.11176632818E+04  0.11176632818E+04  0.50400001928E-02 0. -1.
        1   -1    0    0  501    0  0.00000000000E+00  0.00000000000E+00 -0.18525984010E+04  0.18525984011E+04  0.50400001928E-02 0.  1.
    10030    2    1    2    0    0  0.00000000000E+00  0.00000000000E+00 -0.73493511928E+03  0.29702616828E+04  0.28779028536E+04 0.  0.
        3    1    3    3  502    0 -0.76916288358E+03  0.89240349977E+03 -0.12201693210E+04  0.16961157773E+04  0.10100000352E+00 0.  1.
       -3    1    3    3    0  502  0.76916288358E+03 -0.89240349977E+03  0.48523420171E+03  0.12741459055E+04  0.10100000352E+00 0. -1.
</event>
<event>
 5   0  0.3746518E-06  0.2499241E+04  0.7818609E-02  0.8403256E-01
       -1   -1    0    0    0  501  0.00000000000E+00  0.00000000000E+00  0.57403008994E+03  0.57403008997E+03  0.50400001928E-02 0. -1.
        1   -1    0    0  501    0  0.00000000000E+00  0.00000000000E+00 -0.27203310796E+04  0.27203310796E+04  0.50400001928E-02 0.  1.
    10030    2    1    2    0    0  0.00000000000E+00  0.00000000000E+00 -0.21463009896E+04  0.32943611696E+04  0.24992414004E+04 0.  0.
        4    1    3    3  502    0 -0.12490533261E+04  0.36835381701E+02 -0.10832946213E+04  0.16537895592E+04  0.12699999809E+01 0. -1.
       -4    1    3    3    0  502  0.12490533261E+04 -0.36835381701E+02 -0.10630063684E+04  0.16405716104E+04  0.12699999809E+01 0.  1.
</event>
<event>
 5   0  0.3474078E-06  0.2904271E+04  0.7818609E-02  0.8271608E-01
       -1   -1    0    0    0  501  0.00000000000E+00  0.00000000000E+00  0.16755871179E+04  0.16755871179E+04  0.50400001928E-02 0.  1.
        1   -1    0    0  501    0  0.00000000000E+00  0.00000000000E+00 -0.12584823654E+04  0.12584823654E+04  0.50400001928E-02 0. -1.
    10030    2    1    2    0    0  0.00000000000E+00  0.00000000000E+00  0.41710475250E+03  0.29340694834E+04  0.29042705381E+04 0.  0.
        3    1    3    3  502    0 -0.11106220501E+02  0.39720306663E+03 -0.12024899960E+04  0.12664421917E+04  0.10100000352E+00 0. -1.
       -3    1    3    3    0  502  0.11106220501E+02 -0.39720306663E+03  0.16195947485E+04  0.16676272917E+04  0.10100000352E+00 0.  1.
</event>
<event>
 5   0  0.3474078E-06  0.2898219E+04  0.7818609E-02  0.8273408E-01
        1   -1    0    0  501    0  0.00000000000E+00  0.00000000000E+00  0.29318196987E+04  0.29318196987E+04  0.50400001928E-02 0. -1.
       -1   -1    0    0    0  501  0.00000000000E+00  0.00000000000E+00 -0.71625075937E+03  0.71625075939E+03  0.50400001928E-02 0.  1.
    10030    2    1    2    0    0  0.00000000000E+00  0.00000000000E+00  0.22155689393E+04  0.36480704581E+04  0.28982188224E+04 0.  0.
        3    1    3    3  502    0 -0.13398334678E+04 -0.53152196843E+03  0.12955365953E+04  0.19380620228E+04  0.10100000352E+00 0. -1.
       -3    1    3    3    0  502  0.13398334678E+04  0.53152196843E+03  0.92003234408E+03  0.17100084353E+04  0.10100000352E+00 0.  1.
</event>
<event>
 5   0  0.9251510E-06  0.2911166E+04  0.7818609E-02  0.8269563E-01
       -2   -1    0    0    0  501  0.00000000000E+00  0.00000000000E+00  0.20302613368E+04  0.20302613368E+04  0.25500000920E-02 0. -1.
        2   -1    0    0  501    0  0.00000000000E+00  0.00000000000E+00 -0.10435709062E+04  0.10435709062E+04  0.25500000920E-02 0.  1.
    10030    2    1    2    0    0  0.00000000000E+00  0.00000000000E+00  0.98669043057E+03  0.30738322429E+04  0.29111658579E+04 0.  0.
        2    1    3    3  502    0  0.10054678787E+04  0.17523504024E+03  0.15891441672E+04  0.18886641201E+04  0.25500000920E-02 0. -1.
       -2    1    3    3    0  502 -0.10054678787E+04 -0.17523504024E+03 -0.60245373664E+03  0.11851681228E+04  0.25500000920E-02 0.  1.
</event>
<event>
 5   0  0.3486236E-06  0.2749485E+04  0.7818609E-02  0.8319125E-01
       -1   -1    0    0    0  501  0.00000000000E+00  0.00000000000E+00  0.11438530675E+04  0.11438530675E+04  0.50400001928E-02 0. -1.
        1   -1    0    0  501    0  0.00000000000E+00  0.00000000000E+00 -0.16522380038E+04  0.16522380038E+04  0.50400001928E-02 0.  1.
    10030    2    1    2    0    0  0.00000000000E+00  0.00000000000E+00 -0.50838493633E+03  0.27960910714E+04  0.27494854129E+04 0.  0.
        5    1    3    3  502    0 -0.49876343508E+03 -0.85011926909E+03 -0.12287834213E+04  0.15752455435E+04  0.46999998093E+01 0.  1.
       -5    1    3    3    0  502  0.49876343508E+03  0.85011926909E+03  0.72039848495E+03  0.12208455279E+04  0.46999998093E+01 0. -1.
</event>
<event>
 5   0  0.3649705E-06  0.2942913E+04  0.7818609E-02  0.8260223E-01
        1   -1    0    0  501    0  0.00000000000E+00  0.00000000000E+00  0.72744494158E+03  0.72744494160E+03  0.50400001928E-02 0.  1.
       -1   -1    0    0    0  501  0.00000000000E+00  0.00000000000E+00 -0.29764243031E+04  0.29764243031E+04  0.50400001928E-02 0. -1.
    10030    2    1    2    0    0  0.00000000000E+00  0.00000000000E+00 -0.22489793615E+04  0.37038692447E+04  0.29429133887E+04 0.  0.
        2    1    3    3  502    0 -0.22933939544E+03  0.74424589703E+03  0.44680457755E+03  0.89784900962E+03  0.25500000920E-02 0.  1.
       -2    1    3    3    0  502  0.22933939544E+03 -0.74424589703E+03 -0.26957839391E+04  0.28060202351E+04  0.25500000920E-02 0. -1.
</event>
<event>
 5   0  0.3474078E-06  0.2982866E+04  0.7818609E-02  0.8248641E-01
        1   -1    0    0  501    0  0.00000000000E+00  0.00000000000E+00  0.19530237843E+04  0.19530237843E+04  0.50400001928E-02 0.  1.
       -1   -1    0    0    0  501  0.00000000000E+00  0.00000000000E+00 -0.11389375179E+04  0.11389375179E+04  0.50400001928E-02 0. -1.
    10030    2    1    2    0    0  0.00000000000E+00  0.00000000000E+00  0.81408626642E+03  0.30919613022E+04  0.29828657773E+04 0.  0.
        3    1    3    3  502    0 -0.11277067614E+04 -0.47884437169E+03 -0.47456757485E+03  0.13138602914E+04  0.10100000352E+00 0. -1.
       -3    1    3    3    0  502  0.11277067614E+04  0.47884437169E+03  0.12886538413E+04  0.17781010109E+04  0.10100000352E+00 0.  1.
</event>
<event>
 5   0  0.1001573E-05  0.2922181E+04  0.7818609E-02  0.8266308E-01
       -2   -1    0    0    0  501  0.00000000000E+00  0.00000000000E+00  0.99685578308E+03  0.99685578309E+03  0.25500000920E-02 0.  1.
        2   -1    0    0  501    0  0.00000000000E+00  0.00000000000E+00 -0.21415192548E+04  0.21415192548E+04  0.25500000920E-02 0. -1.
    10030    2    1    2    0    0  0.00000000000E+00  0.00000000000E+00 -0.11446634717E+04  0.31383750379E+04  0.29221812769E+04 0.  0.
        1    1    3    3  502    0 -0.39001201314E+02 -0.51501632858E+03  0.89554230392E+03  0.10338079757E+04  0.50400001928E-02 0.  1.
       -1    1    3    3    0  502  0.39001201314E+02  0.51501632858E+03 -0.20402057757E+04  0.21045670622E+04  0.50400001928E-02 0. -1.
</event>
<event>
 5   0  0.9251510E-06  0.2843037E+04  0.7818609E-02  0.8290030E-01
       -2   -1    0    0    0  501  0.00000000000E+00  0.00000000000E+00  0.73500372003E+03  0.73500372004E+03  0.25500000920E-02 0.  1.
        2   -1    0    0  501    0  0.00000000000E+00  0.00000000000E+00 -0.27492579900E+04  0.27492579900E+04  0.25500000920E-02 0. -1.
    10030    2    1    2    0    0  0.00000000000E+00  0.00000000000E+00 -0.20142542700E+04  0.34842617101E+04  0.28430370029E+04 0.  0.
        2    1    3    3  502    0  0.11361802288E+04 -0.76592183999E+03 -0.14708504470E+04  0.20102096445E+04  0.25500000920E-02 0. -1.
       -2    1    3    3    0  502 -0.11361802288E+04  0.76592183999E+03 -0.54340382295E+03  0.14740520656E+04  0.25500000920E-02 0.  1.
</event>
<event>
 5   0  0.3474078E-06  0.2947204E+04  0.7818609E-02  0.8258970E-01
       -1   -1    0    0    0  501  0.00000000000E+00  0.00000000000E+00  0.17742325197E+04  0.17742325197E+04  0.50400001928E-02 0. -1.
        1   -1    0    0  501    0  0.00000000000E+00  0.00000000000E+00 -0.12239111505E+04  0.12239111505E+04  0.50400001928E-02 0.  1.
    10030    2    1    2    0    0  0.00000000000E+00  0.00000000000E+00  0.55032136924E+03  0.29981436702E+04  0.29472040747E+04 0.  0.
        3    1    3    3  502    0  0.10393594529E+04  0.88146979349E+03 -0.29510472705E+03  0.13943973176E+04  0.10100000352E+00 0. -1.
       -3    1    3    3    0  502 -0.10393594529E+04 -0.88146979349E+03  0.84542609628E+03  0.16037463526E+04  0.10100000352E+00 0.  1.
</event>
<event>
 5   0  0.1001573E-05  0.2922186E+04  0.7818609E-02  0.8266307E-01
        2   -1    0    0  501    0  0.00000000000E+00  0.00000000000E+00  0.23091300142E+04  0.23091300142E+04  0.25500000920E-02 0.  1.
       -2   -1    0    0    0  501  0.00000000000E+00  0.00000000000E+00 -0.92450111622E+03  0.92450111622E+03  0.25500000920E-02 0. -1.
    10030    2    1    2    0    0  0.00000000000E+00  0.00000000000E+00  0.13846288980E+04  0.32336311305E+04  0.29221863566E+04 0.  0.
        1    1    3    3  502    0 -0.39500253629E+03 -0.49857876452E+03 -0.76324149091E+03  0.99355189174E+03  0.50400001928E-02 0. -1.
       -1    1    3    3    0  502  0.39500253629E+03  0.49857876452E+03  0.21478703889E+04  0.22400792387E+04  0.50400001928E-02 0.  1.
</event>
<event>
 5   0  0.3564340E-06  0.2902894E+04  0.7818609E-02  0.8272017E-01
        1   -1    0    0  501    0  0.00000000000E+00  0.00000000000E+00  0.17216400197E+04  0.17216400197E+04  0.50400001928E-02 0. -1.
       -1   -1    0    0    0  501  0.00000000000E+00  0.00000000000E+00 -0.12236577144E+04  0.12236577144E+04  0.50400001928E-02 0.  1.
    10030    2    1    2    0    0  0.00000000000E+00  0.00000000000E+00  0.49798230529E+03  0.29452977341E+04  0.29028937918E+04 0.  0.
        1    1    3    3  502    0 -0.21750956268E+03 -0.13981435143E+04 -0.79124801874E+02  0.14171719835E+04  0.50400001928E-02 0. -1.
       -1    1    3    3    0  502  0.21750956268E+03  0.13981435143E+04  0.57710710717E+03  0.15281257506E+04  0.50400001928E-02 0.  1.
</event>
<event>
 5   0  0.3474078E-06  0.2858026E+04  0.7818609E-02  0.8285477E-01
       -1   -1    0    0    0  501  0.00000000000E+00  0.00000000000E+00  0.12495266255E+04  0.12495266255E+04  0.50400001928E-02 0.  1.
        1   -1    0    0  501    0  0.00000000000E+00  0.00000000000E+00 -0.16342818342E+04  0.16342818342E+04  0.50400001928E-02 0. -1.
    10030    2    1    2    0    0  0.00000000000E+00  0.00000000000E+00 -0.38475520865E+03  0.28838084597E+04  0.28580263578E+04 0.  0.
        3    1    3    3  502    0 -0.10989090598E+04 -0.66834290326E+02 -0.11116453668E+04  0.15645521327E+04  0.10100000352E+00 0.  1.
       -3    1    3    3    0  502  0.10989090598E+04  0.66834290326E+02  0.72689015817E+03  0.13192563270E+04  0.10100000352E+00 0. -1.
</event>
<event>
 5   0  0.9505359E-06  0.2682856E+04  0.7818609E-02  0.8340589E-01
        2   -1    0    0  501    0  0.00000000000E+00  0.00000000000E+00  0.13101120738E+04  0.13101120738E+04  0.25500000920E-02 0. -1.
       -2   -1    0    0    0  501  0.00000000000E+00  0.00000000000E+00 -0.13734921922E+04  0.13734921922E+04  0.25500000920E-02 0.  1.
    10030    2    1    2    0    0  0.00000000000E+00  0.00000000000E+00 -0.63380118432E+02  0.26836042660E+04  0.26828557205E+04 0.  0.
        4    1    3    3  502    0 -0.27550025617E+03 -0.98373834075E+03  0.83791179248E+03  0.13212642806E+04  0.12699999809E+01 0. -1.
       -4    1    3    3    0  502  0.27550025617E+03  0.98373834075E+03 -0.90129191091E+03  0.13623399854E+04  0.12699999809E+01 0.  1.
</event>
<event>
 5   0  0.9360689E-06  0.2401177E+04  0.7818609E-02  0.8439063E-01
        2   -1    0    0  501    0  0.00000000000E+00  0.00000000000E+00  0.25184930536E+04  0.25184930536E+04  0.25500000920E-02 0. -1.
       -2   -1    0    0    0  501  0.00000000000E+00  0.00000000000E+00 -0.57233124749E+03  0.57233124750E+03  0.25500000920E-02 0.  1.
    10030    2    1    2    0    0  0.00000000000E+00  0.00000000000E+00  0.19461618061E+04  0.30908243011E+04  0.24011766042E+04 0.  0.
        5    1    3    3  502    0 -0.44341906037E+01  0.29205914492E+03 -0.52588441776E+03  0.60157685878E+03  0.46999998093E+01 0.  1.
       -5    1    3    3    0  502  0.44341906037E+01 -0.29205914492E+03  0.24720462239E+04  0.24892474423E+04  0.46999998093E+01 0. -1.
</event>
<event>
 5   0  0.1001573E-05  0.2881550E+04  0.7818609E-02  0.8278388E-01
        2   -1    0    0  501    0  0.00000000000E+00  0.00000000000E+00  0.25977933402E+04  0.25977933402E+04  0.25500000920E-02 0.  1.
       -2   -1    0    0    0  501  0.00000000000E+00  0.00000000000E+00 -0.79907507627E+03  0.79907507627E+03  0.25500000920E-02 0. -1.
    10030    2    1    2    0    0  0.00000000000E+00  0.00000000000E+00  0.17987182639E+04  0.33968684165E+04  0.28815495217E+04 0.  0.
        1    1    3    3  502    0  0.60227335103E+03 -0.10998299646E+04  0.17358103739E+04  0.21413539630E+04  0.50400001928E-02 0.  1.
       -1    1    3    3    0  502 -0.60227335103E+03  0.10998299646E+04  0.62907889990E+02  0.12555144535E+04  0.50400001928E-02 0. -1.
</event>
<event>
 5   0  0.9360689E-06  0.2930537E+04  0.7818609E-02  0.8263849E-01
        2   -1    0    0  501    0  0.00000000000E+00  0.00000000000E+00  0.23086888738E+04  0.23086888738E+04  0.25500000920E-02 0.  1.
       -2   -1    0    0    0  501  0.00000000000E+00  0.00000000000E+00 -0.92997013423E+03  0.92997013423E+03  0.25500000920E-02 0. -1.
    10030    2    1    2    0    0  0.00000000000E+00  0.00000000000E+00  0.13787187395E+04  0.32386590080E+04  0.29305369486E+04 0.  0.
        5    1    3    3  502    0 -0.12990234581E+04  0.66990944346E+03  0.57478112920E+03  0.15705527828E+04  0.46999998093E+01 0. -1.
       -5    1    3    3    0  502  0.12990234581E+04 -0.66990944346E+03  0.80393761035E+03  0.16681062252E+04  0.46999998093E+01 0.  1.
</event>
<event>
 5   0  0.9505359E-06  0.2142369E+04  0.7818609E-02  0.8542806E-01
       -2   -1    0    0    0  501  0.00000000000E+00  0.00000000000E+00  0.91916928399E+03  0.91916928400E+03  0.25500000920E-02 0. -1.
        2   -1    0    0  501    0  0.00000000000E+00  0.00000000000E+00 -0.12483399877E+04  0.12483399877E+04  0.25500000920E-02 0.  1.
    10030    2    1    2    0    0  0.00000000000E+00  0.00000000000E+00 -0.32917070369E+03  0.21675092717E+04  0.21423685702E+04 0.  0.
        4    1    3    3  502    0 -0.95554089857E+03  0.30392272322E+03  0.21667464316E+03  0.10258542511E+04  0.12699999809E+01 0. -1.
       -4    1    3    3    0  502  0.95554089857E+03 -0.30392272322E+03 -0.54584534685E+03  0.11416550206E+04  0.12699999809E+01 0.  1.
</event>
<event>
 5   0  0.3474078E-06  0.2920169E+04  0.7818609E-02  0.8266902E-01
        1   -1    0    0  501    0  0.00000000000E+00  0.00000000000E+00  0.16026460989E+04  0.16026460989E+04  0.50400001928E-02 0.  1.
       -1   -1    0    0    0  501  0.00000000000E+00  0.00000000000E+00 -0.13302044965E+04  0.13302044965E+04  0.50400001928E-02 0. -1.
    10030    2    1    2    0    0  0.00000000000E+00  0.00000000000E+00  0.27244160246E+03  0.29328505954E+04  0.29201692054E+04 0.  0.
        3    1    3    3  502    0  0.55773826900E+03 -0.61561448452E+03  0.13421824861E+04  0.15784508248E+04  0.10100000352E+00 0.  1.
       -3    1    3    3    0  502 -0.55773826900E+03  0.61561448452E+03 -0.10697408836E+04  0.13543997706E+04  0.10100000352E+00 0. -1.
</event>
<event>
 5   0  0.3474078E-06  0.2851947E+04  0.7818609E-02  0.8287320E-01
        1   -1    0    0  501    0  0.00000000000E+00  0.00000000000E+00  0.19789605521E+04  0.19789605521E+04  0.50400001928E-02 0. -1.
       -1   -1    0    0    0  501  0.00000000000E+00  0.00000000000E+00 -0.10275094139E+04  0.10275094139E+04  0.50400001928E-02 0.  1.
    10030    2    1    2    0    0  0.00000000000E+00  0.00000000000E+00  0.95145113821E+03  0.30064699660E+04  0.28519471222E+04 0.  0.
        3    1    3    3  502    0  0.12810829653E+04  0.57621642417E+03  0.21707131998E+03  0.14213792244E+04  0.10100000352E+00 0.  1.
       -3    1    3    3    0  502 -0.12810829653E+04 -0.57621642417E+03  0.73437981824E+03  0.15850907416E+04  0.10100000352E+00 0. -1.
</event>
<event>
 5   0  0.9646321E-06  0.2906503E+04  0.7818609E-02  0.8270945E-01
       -2   -1    0    0    0  501  0.00000000000E+00  0.00000000000E+00  0.17230612662E+04  0.17230612662E+04  0.25500000920E-02 0. -1.
        2   -1    0    0  501    0  0.00000000000E+00  0.00000000000E+00 -0.12256903900E+04  0.12256903900E+04  0.25500000920E-02 0.  1.
    10030    2    1    2    0    0  0.00000000000E+00  0.00000000000E+00  0.49737087624E+03  0.29487516563E+04  0.29065028026E+04 0.  0.
        3    1    3    3  502    0  0.67152720014E+03 -0.81769084619E+03 -0.76197395711E+03  0.13039062167E+04  0.10100000352E+00 0.  1.
       -3    1    3    3    0  502 -0.67152720014E+03  0.81769084619E+03  0.12593448333E+04  0.16448454395E+04  0.10100000352E+00 0. -1.
</event>
<event>
 5   0  0.9505359E-06  0.2897156E+04  0.7818609E-02  0.8273724E-01
        2   -1    0    0  501    0  0.00000000000E+00  0.00000000000E+00  0.21759676706E+04  0.21759676706E+04  0.25500000920E-02 0.  1.
       -2   -1    0    0    0  501  0.00000000000E+00  0.00000000000E+00 -0.96434261952E+03  0.96434261953E+03  0.25500000920E-02 0. -1.
    10030    2    1    2    0    0  0.00000000000E+00  0.00000000000E+00  0.12116250511E+04  0.31403102901E+04  0.28971560976E+04 0.  0.
        4    1    3    3  502    0  0.50011385968E+03  0.11895009575E+04  0.13193556778E+04  0.18454613022E+04  0.12699999809E+01 0.  1.
       -4    1    3    3    0  502 -0.50011385968E+03 -0.11895009575E+04 -0.10773062671E+03  0.12948489879E+04  0.12699999809E+01 0. -1.
</event>
<event>
 5   0  0.3649705E-06  0.2913617E+04  0.7818609E-02  0.8268837E-01
        1   -1    0    0  501    0  0.00000000000E+00  0.00000000000E+00  0.15372015076E+04  0.15372015076E+04  0.50400001928E-02 0.  1.
       -1   -1    0    0    0  501  0.00000000000E+00  0.00000000000E+00 -0.13806200835E+04  0.13806200836E+04  0.50400001928E-02 0. -1.
    10030    2    1    2    0    0  0.00000000000E+00  0.00000000000E+00  0.15658142409E+03  0.29178215912E+04  0.29136171841E+04 0.  0.
        2    1    3    3  502    0 -0.71079488411E+03 -0.66965983011E+03  0.11608768419E+04  0.15170064922E+04  0.25500000920E-02 0.  1.
       -2    1    3    3    0  502  0.71079488411E+03  0.66965983011E+03 -0.10042954178E+04  0.14008150990E+04  0.25500000920E-02 0. -1.
</event>
<event>
 5   0  0.3564340E-06  0.2390401E+04  0.7818609E-02  0.8443106E-01
       -1   -1    0    0    0  501  0.00000000000E+00  0.00000000000E+00  0.13606080216E+04  0.13606080216E+04  0.50400001928E-02 0. -1.
        1   -1    0    0  501    0  0.00000000000E+00  0.00000000000E+00 -0.10499013907E+04  0.10499013907E+04  0.50400001928E-02 0.  1.
    10030    2    1    2    0    0  0.00000000000E+00  0.00000000000E+00  0.31070663083E+03  0.24105094123E+04  0.23904010158E+04 0.  0.
        1    1    3    3  502    0  0.32669414542E+03 -0.24266267600E+03 -0.97788390892E+03  0.10591842042E+04  0.50400001928E-02 0.  1.
       -1    1    3    3    0  502 -0.32669414542E+03  0.24266267600E+03  0.12885905398E+04  0.13513252081E+04  0.50400001928E-02 0. -1.
</event>
<event>
 5   0  0.3649705E-06  0.2904391E+04  0.7818609E-02  0.8271572E-01
       -1   -1    0    0    0  501  0.00000000000E+00  0.00000000000E+00  0.13763441818E+04  0.13763441818E+04  0.50400001928E-02 0. -1.
        1   -1    0    0  501    0  0.00000000000E+00  0.00000000000E+00 -0.15322268068E+04  0.15322268068E+04  0.50400001928E-02 0.  1.
    10030    2    1    2    0    0  0.00000000000E+00  0.00000000000E+00 -0.15588262498E+03  0.29085709886E+04  0.29043907800E+04 0.  0.
        2    1    3    3  502    0  0.97234260034E+03  0.93572007061E+03 -0.61522936450E+03  0.14830810342E+04  0.25500000920E-02 0.  1.
       -2    1    3    3    0  502 -0.97234260034E+03 -0.93572007061E+03  0.45934673952E+03  0.14254899544E+04  0.25500000920E-02 0. -1.
</event>
<event>
 5   0  0.9505359E-06  0.2996710E+04  0.7818609E-02  0.8244671E-01
       -2   -1    0    0    0  501  0.00000000000E+00  0.00000000000E+00  0.12201101513E+04  0.12201101513E+04  0.25500000920E-02 0.  1.
        2   -1    0    0  501    0  0.00000000000E+00  0.00000000000E+00 -0.18400528635E+04  0.18400528635E+04  0.25500000920E-02 0. -1.
    10030    2    1    2    0    0  0.00000000000E+00  0.00000000000E+00 -0.61994271216E+03  0.30601630147E+04  0.29967096473E+04 0.  0.
        4    1    3    3  502    0 -0.70770685247E+03  0.41514935852E+03 -0.15902599462E+04  0.17894485990E+04  0.12699999809E+01 0. -1.
       -4    1    3    3    0  502  0.70770685247E+03 -0.41514935852E+03  0.97031723404E+03  0.12707144158E+04  0.12699999809E+01 0.  1.
</event>
<event>
 5   0  0.9505359E-06  0.2621532E+04  0.7818609E-02  0.8360924E-01
        2   -1    0    0  501    0  0.00000000000E+00  0.00000000000E+00  0.18985840473E+04  0.18985840473E+04  0.25500000920E-02 0. -1.
       -2   -1    0    0    0  501  0.00000000000E+00  0.00000000000E+00 -0.90494163119E+03  0.90494163119E+03  0.25500000920E-02 0.  1.
    10030    2    1    2    0    0  0.00000000000E+00  0.00000000000E+00  0.99364241610E+03  0.28035256785E+04  0.26215321815E+04 0.  0.
        4    1    3    3  502    0 -0.21961563571E+03 -0.27090628896E+03 -0.85441648271E+03  0.92284905790E+03  0.12699999809E+01 0.  1.
       -4    1    3    3    0  502  0.21961563571E+03  0.27090628896E+03  0.18480588988E+04  0.18806766206E+04  0.12699999809E+01 0. -1.
</event>
<event>
 5   0  0.9360689E-06  0.2939655E+04  0.7818609E-02  0.8261176E-01
       -2   -1    0    0    0  501  0.00000000000E+00  0.00000000000E+00  0.21839590874E+04  0.21839590874E+04  0.25500000920E-02 0. -1.
        2   -1    0    0  501    0  0.00000000000E+00  0.00000000000E+00 -0.98920945214E+03  0.98920945214E+03  0.25500000920E-02 0.  1.
    10030    2    1    2    0    0  0.00000000000E+00  0.00000000000E+00  0.11947496353E+04  0.31731685396E+04  0.29396550630E+04 0.  0.
        5    1    3    3  502    0 -0.15161360898E+03 -0.10966902375E+03 -0.97629168695E+03  0.99407320113E+03  0.46999998093E+01 0.  1.
       -5    1    3    3    0  502  0.15161360898E+03  0.10966902375E+03  0.21710413223E+04  0.21790953385E+04  0.46999998093E+01 0. -1.
</event>
<event>
 5   0  0.3474078E-06  0.2156749E+04  0.7818609E-02  0.8536649E-01
        1   -1    0    0  501    0  0.00000000000E+00  0.00000000000E+00  0.17021227991E+04  0.17021227991E+04  0.50400001928E-02 0. -1.
       -1   -1    0    0    0  501  0.00000000000E+00  0.00000000000E+00 -0.68320085323E+03  0.68320085325E+03  0.50400001928E-02 0.  1.
    10030    2    1    2    0    0  0.00000000000E+00  0.00000000000E+00  0.10189219459E+04  0.23853236524E+04  0.21567491729E+04 0.  0.
        3    1    3    3  502    0  0.97474408997E+03 -0.10374496208E+02  0.10194826157E+04  0.14105241880E+04  0.10100000352E+00 0. -1.
       -3    1    3    3    0  502 -0.97474408997E+03  0.10374496208E+02 -0.56066983190E+00  0.97479946433E+03  0.10100000352E+00 0.  1.
</event>
<event>
 5   0  0.3649705E-06  0.2962689E+04  0.7818609E-02  0.8254466E-01
       -1   -1    0    0    0  501  0.00000000000E+00  0.00000000000E+00  0.89754677922E+03  0.89754677924E+03  0.50400001928E-02 0. -1.
        1   -1    0    0  501    0  0.00000000000E+00  0.00000000000E+00 -0.24448659623E+04  0.24448659623E+04  0.50400001928E-02 0.  1.
    10030    2    1    2    0    0  0.00000000000E+00  0.00000000000E+00 -0.15473191831E+04  0.33424127415E+04  0.29626890286E+04 0.  0.
        2    1    3    3  502    0 -0.13123542376E+04 -0.53856897899E+02 -0.15464405578E+04  0.20289535749E+04  0.25500000920E-02 0.  1.
       -2    1    3    3    0  502  0.13123542376E+04  0.53856897899E+02 -0.87862523728E+00  0.13134591666E+04  0.25500000920E-02 0. -1.
</event>
<event>
 5   0  0.1001573E-05  0.2833068E+04  0.7818609E-02  0.8293075E-01
       -2   -1    0    0    0  501  0.00000000000E+00  0.00000000000E+00  0.13673253310E+04  0.13673253310E+04  0.25500000920E-02 0.  1.
        2   -1    0    0  501    0  0.00000000000E+00  0.00000000000E+00 -0.14675133843E+04  0.14675133843E+04  0.25500000920E-02 0. -1.
    10030    2    1    2    0    0  0.00000000000E+00  0.00000000000E+00 -0.10018805326E+03  0.28348387153E+04  0.28330677535E+04 0.  0.
        1    1    3    3  502    0  0.80466251363E+03 -0.39029075604E+03 -0.11493068180E+04  0.14562674195E+04  0.50400001928E-02 0. -1.
       -1    1    3    3    0  502 -0.80466251363E+03  0.39029075604E+03  0.10491187648E+04  0.13785712958E+04  0.50400001928E-02 0.  1.
</event>
<event>
 5   0  0.3746518E-06  0.2851045E+04  0.7818609E-02  0.8287594E-01
        1   -1    0    0  501    0  0.00000000000E+00  0.00000000000E+00  0.19822537097E+04  0.19822537097E+04  0.50400001928E-02 0. -1.
       -1   -1    0    0    0  501  0.00000000000E+00  0.00000000000E+00 -0.10251535060E+04  0.10251535060E+04  0.50400001928E-02 0.  1.
    10030    2    1    2    0    0  0.00000000000E+00  0.00000000000E+00  0.95710020371E+03  0.30074072157E+04  0.28510449595E+04 0.  0.
        4    1    3    3  502    0  0.10530247484E+04 -0.57284215466E+03 -0.33518755432E+03  0.12447335314E+04  0.12699999809E+01 0.  1.
       -4    1    3    3    0  502 -0.10530247484E+04  0.57284215466E+03  0.12922877580E+04  0.17626736843E+04  0.12699999809E+01 0. -1.
</event>
<event>
 5   0  0.9505359E-06  0.3012638E+04  0.7818609E-02  0.8240131E-01
        2   -1    0    0  501    0  0.00000000000E+00  0.00000000000E+00  0.21074333333E+04  0.21074333333E+04  0.25500000920E-02 0.  1.
       -2   -1    0    0    0  501  0.00000000000E+00  0.00000000000E+00 -0.10766633885E+04  0.10766633885E+04  0.25500000920E-02 0. -1.
    10030    2    1    2    0    0  0.00000000000E+00  0.00000000000E+00  0.10307699448E+04  0.31840967218E+04  0.30126375910E+04 0.  0.
        4    1    3    3  502    0  0.32203064495E+03  0.45717292233E+03  0.19936602005E+04  0.20706021890E+04  0.12699999809E+01 0.  1.
       -4    1    3    3    0  502 -0.32203064495E+03 -0.45717292233E+03 -0.96289025570E+03  0.11134945328E+04  0.12699999809E+01 0. -1.
</event>
<event>
 5   0  0.3188375E-06  0.2898364E+04  0.7818609E-02  0.8273364E-01
       -3   -1    0    0    0  501  0.00000000000E+00  0.00000000000E+00  0.11515634448E+04  0.11515634492E+04  0.10100000352E+00 0.  1.
        3   -1    0    0  501    0  0.00000000000E+00  0.00000000000E+00 -0.18237195255E+04  0.18237195283E+04  0.10100000352E+00 0. -1.
    10030    2    1    2    0    0  0.00000000000E+00  0.00000000000E+00 -0.67215608071E+03  0.29752829775E+04  0.28983641937E+04 0.  0.
        5    1    3    3  502    0  0.36769010258E+03 -0.94485137539E+03 -0.13990123950E+04  0.17277725268E+04  0.46999998093E+01 0. -1.
       -5    1    3    3    0  502 -0.36769010258E+03  0.94485137539E+03  0.72685631425E+03  0.12475104507E+04  0.46999998093E+01 0.  1.
</event>
<event>
 5   0  0.9251510E-06  0.2835134E+04  0.7818609E-02  0.8292443E-01
       -2   -1    0    0    0  501  0.00000000000E+00  0.00000000000E+00  0.13903292723E+04  0.13903292724E+04  0.25500000920E-02 0.  1.
        2   -1    0    0  501    0  0.00000000000E+00  0.00000000000E+00 -0.14453388113E+04  0.14453388113E+04  0.25500000920E-02 0. -1.
    10030    2    1    2    0    0  0.00000000000E+00  0.00000000000E+00 -0.55009538961E+02  0.28356680837E+04  0.28351344644E+04 0.  0.
        2    1    3    3  502    0  0.59979452107E+03  0.53642401558E+03  0.11397593023E+04  0.13951901158E+04  0.25500000920E-02 0.  1.
       -2    1    3    3    0  502 -0.59979452107E+03 -0.53642401558E+03 -0.11947688412E+04  0.14404779679E+04  0.25500000920E-02 0. -1.
</event>
<event>
 5   0  0.3746518E-06  0.2908050E+04  0.7818609E-02  0.8270486E-01
       -1   -1    0    0    0  501  0.00000000000E+00  0.00000000000E+00  0.86093716636E+03  0.86093716637E+03  0.50400001928E-02 0. -1.
        1   -1    0    0  501    0  0.00000000000E+00  0.00000000000E+00 -0.24556835012E+04  0.24556835012E+04  0.50400001928E-02 0.  1.
    10030    2    1    2    0    0  0.00000000000E+00  0.00000000000E+00 -0.15947463348E+04  0.33166206675E+04  0.29080503400E+04 0.  0.
        4    1    3    3  502    0  0.53064899275E+03  0.44409077933E+03  0.66111721629E+03  0.95701753399E+03  0.12699999809E+01 0. -1.
       -4    1    3    3    0  502 -0.53064899275E+03 -0.44409077933E+03 -0.22558635511E+04  0.23596031335E+04  0.12699999809E+01 0.  1.
</event>
<event>
 5   0  0.9505359E-06  0.2873513E+04  0.7818609E-02  0.8280802E-01
       -2   -1    0    0    0  501  0.00000000000E+00  0.00000000000E+00  0.14437046409E+04  0.14437046409E+04  0.25500000920E-02 0. -1.
        2   -1    0    0  501    0  0.00000000000E+00  0.00000000000E+00 -0.14298421807E+04  0.14298421807E+04  0.25500000920E-02 0.  1.
    10030    2    1    2    0    0  0.00000000000E+00  0.00000000000E+00  0.13862460184E+02  0.28735468216E+04  0.28735133841E+04 0.  0.
        4    1    3    3  502    0  0.69681850290E+03 -0.35541562593E+03 -0.11982350189E+04  0.14309594916E+04  0.12699999809E+01 0.  1.
       -4    1    3    3    0  502 -0.69681850290E+03  0.35541562593E+03  0.12120974791E+04  0.14425873301E+04  0.12699999809E+01 0. -1.
</event>
<event>
 5   0  0.3474078E-06  0.2896852E+04  0.7818609E-02  0.8273815E-01
       -1   -1    0    0    0  501  0.00000000000E+00  0.00000000000E+00  0.13998328324E+04  0.13998328324E+04  0.50400001928E-02 0. -1.
        1   -1    0    0  501    0  0.00000000000E+00  0.00000000000E+00 -0.14987057189E+04  0.14987057189E+04  0.50400001928E-02 0.  1.
    10030    2    1    2    0    0  0.00000000000E+00  0.00000000000E+00 -0.98872886494E+02  0.28985385513E+04  0.28968517197E+04 0.  0.
        3    1    3    3  502    0  0.11748763875E+04 -0.72185979770E+03  0.39412900015E+03  0.14341386866E+04  0.10100000352E+00 0. -1.
       -3    1    3    3    0  502 -0.11748763875E+04  0.72185979770E+03 -0.49300188664E+03  0.14643998647E+04  0.10100000352E+00 0.  1.
</event>
<event>
 5   0  0.9360689E-06  0.2876011E+04  0.7818609E-02  0.8280051E-01
        2   -1    0    0  501    0  0.00000000000E+00  0.00000000000E+00  0.96293049963E+03  0.96293049963E+03  0.25500000920E-02 0.  1.
       -2   -1    0    0    0  501  0.00000000000E+00  0.00000000000E+00 -0.21474654418E+04  0.21474654418E+04  0.25500000920E-02 0. -1.
    10030    2    1    2    0    0  0.00000000000E+00  0.00000000000E+00 -0.11845349422E+04  0.31103959414E+04  0.28760111063E+04 0.  0.
        5    1    3    3  502    0 -0.52207743916E+03  0.10920541403E+04 -0.14318673991E+04  0.18749435822E+04  0.46999998093E+01 0. -1.
       -5    1    3    3    0  502  0.52207743916E+03 -0.10920541403E+04  0.24733245692E+03  0.12354523593E+04  0.46999998093E+01 0.  1.
</event>
<event>
 5   0  0.9360689E-06  0.2896543E+04  0.7818609E-02  0.8273907E-01
       -2   -1    0    0    0  501  0.00000000000E+00  0.00000000000E+00  0.22535212066E+04  0.22535212066E+04  0.25500000920E-02 0.  1.
        2   -1    0    0  501    0  0.00000000000E+00  0.00000000000E+00 -0.93076123293E+03  0.93076123293E+03  0.25500000920E-02 0. -1.
    10030    2    1    2    0    0  0.00000000000E+00  0.00000000000E+00  0.13227599737E+04  0.31842824396E+04  0.28965428888E+04 0.  0.
        5    1    3    3  502    0 -0.26455069630E+03  0.53216887469E+03  0.21132889404E+04  0.21952683248E+04  0.46999998093E+01 0.  1.
       -5    1    3    3    0  502  0.26455069630E+03 -0.53216887469E+03 -0.79052896669E+03  0.98901411480E+03  0.46999998093E+01 0. -1.
</event>
<event>
 5   0  0.1001573E-05  0.2656571E+04  0.7818609E-02  0.8349235E-01
       -2   -1    0    0    0  501  0.00000000000E+00  0.00000000000E+00  0.13075286290E+04  0.13075286290E+04  0.25500000920E-02 0.  1.
        2   -1    0    0  501    0  0.00000000000E+00  0.00000000000E+00 -0.13493721612E+04  0.13493721612E+04  0.25500000920E-02 0. -1.
    10030    2    1    2    0    0  0.00000000000E+00  0.00000000000E+00 -0.41843532249E+02  0.26569007902E+04  0.26565712728E+04 0.  0.
        1    1    3    3  502    0  0.98484303500E+02  0.11090216772E+04  0.70353987615E+03  0.13170408482E+04  0.50400001928E-02 0.  1.
       -1    1    3    3    0  502 -0.98484303500E+02 -0.11090216772E+04 -0.74538340840E+03  0.13398599420E+04  0.50400001928E-02 0. -1.
</event>
<event>
 5   0  0.3746518E-06  0.2854568E+04  0.7818609E-02  0.8286525E-01
        1   -1    0    0  501    0  0.00000000000E+00  0.00000000000E+00  0.25504950735E+04  0.25504950735E+04  0.50400001928E-02 0.  1.
       -1   -1    0    0    0  501  0.00000000000E+00  0.00000000000E+00 -0.79872293391E+03  0.79872293393E+03  0.50400001928E-02 0. -1.
    10030    2    1    2    0    0  0.00000000000E+00  0.00000000000E+00  0.17517721396E+04  0.33492180074E+04  0.28545675035E+04 0.  0.
        4    1    3    3  502    0  0.73431224832E+03 -0.10353586726E+04  0.11013946345E+03  0.12740935497E+04  0.12699999809E+01 0. -1.
       -4    1    3    3    0  502 -0.73431224832E+03  0.10353586726E+04  0.16416326761E+04  0.20751244577E+04  0.12699999809E+01 0.  1.
</event>
<event>
 5   0  0.3474078E-06  0.2791077E+04  0.7818609E-02  0.8306044E-01
       -1   -1    0    0    0  501  0.00000000000E+00  0.00000000000E+00  0.10067102952E+04  0.10067102952E+04  0.50400001928E-02 0.  1.
        1   -1    0    0  501    0  0.00000000000E+00  0.00000000000E+00 -0.19345460845E+04  0.19345460845E+04  0.50400001928E-02 0. -1.
    10030    2    1    2    0    0  0.00000000000E+00  0.00000000000E+00 -0.92783578927E+03  0.29412563797E+04  0.27910768243E+04 0.  0.
        3    1    3    3  502    0  0.74389161506E+03 -0.38349765577E+03  0.71289831752E+03  0.10993949283E+04  0.10100000352E+00 0.  1.
       -3    1    3    3    0  502 -0.74389161506E+03  0.38349765577E+03 -0.16407341068E+04  0.18418614514E+04  0.10100000352E+00 0. -1.
</event>
<event>
 5   0  0.3474078E-06  0.3129709E+04  0.7818609E-02  0.8207632E-01
        1   -1    0    0  501    0  0.00000000000E+00  0.00000000000E+00  0.11592846580E+04  0.11592846580E+04  0.50400001928E-02 0.  1.
       -1   -1    0    0    0  501  0.00000000000E+00  0.00000000000E+00 -0.21123107933E+04  0.21123107933E+04  0.50400001928E-02 0. -1.
    10030    2    1    2    0    0  0.00000000000E+00  0.00000000000E+00 -0.95302613522E+03  0.32715954513E+04  0.31297089294E+04 0.  0.
        3    1    3    3  502    0  0.18390108802E+03 -0.13685241651E+04  0.29313456791E+03  0.14115969275E+04  0.10100000352E+00 0.  1.
       -3    1    3    3    0  502 -0.18390108802E+03  0.13685241651E+04 -0.12461607031E+04  0.18599985238E+04  0.10100000352E+00 0. -1.
</event>
<event>
 5   0  0.9505359E-06  0.2874187E+04  0.7818609E-02  0.8280599E-01
       -2   -1    0    0    0  501  0.00000000000E+00  0.00000000000E+00  0.89568931373E+03  0.89568931373E+03  0.25500000920E-02 0. -1.
        2   -1    0    0  501    0  0.00000000000E+00  0.00000000000E+00 -0.23057518190E+04  0.23057518190E+04  0.25500000920E-02 0.  1.
    10030    2    1    2    0    0  0.00000000000E+00  0.00000000000E+00 -0.14100625052E+04  0.32014411327E+04  0.28741866776E+04 0.  0.
        4    1    3    3  502    0  0.60318693945E+03 -0.74618875319E+02  0.74548337927E+03  0.96184694321E+03  0.12699999809E+01 0. -1.
       -4    1    3    3    0  502 -0.60318693945E+03  0.74618875319E+02 -0.21555458845E+04  0.22395941895E+04  0.12699999809E+01 0.  1.
</event>
<event>
 5   0  0.3486236E-06  0.2907841E+04  0.7818609E-02  0.8270548E-01
       -1   -1    0    0    0  501  0.00000000000E+00  0.00000000000E+00  0.14738104251E+04  0.14738104251E+04  0.50400001928E-02 0. -1.
        1   -1    0    0  501    0  0.00000000000E+00  0.00000000000E+00 -0.14342987108E+04  0.14342987108E+04  0.50400001928E-02 0.  1.
    10030    2    1    2    0    0  0.00000000000E+00  0.00000000000E+00  0.39511714328E+02  0.29081091360E+04  0.29078407059E+04 0.  0.
        5    1    3    3  502    0 -0.24335744126E+02 -0.15678046810E+03 -0.14256076270E+04  0.14344167943E+04  0.46999998093E+01 0.  1.
       -5    1    3    3    0  502  0.24335744126E+02  0.15678046810E+03  0.14651193413E+04  0.14736923417E+04  0.46999998093E+01 0. -1.
</event>
<event>
 5   0  0.3746518E-06  0.2930640E+04  0.7818609E-02  0.8263819E-01
       -1   -1    0    0    0  501  0.00000000000E+00  0.00000000000E+00  0.14795536482E+04  0.14795536482E+04  0.50400001928E-02 0. -1.
        1   -1    0    0  501    0  0.00000000000E+00  0.00000000000E+00 -0.14512229264E+04  0.14512229264E+04  0.50400001928E-02 0.  1.
    10030    2    1    2    0    0  0.00000000000E+00  0.00000000000E+00  0.28330721813E+02  0.29307765746E+04  0.29306396402E+04 0.  0.
        4    1    3    3  502    0  0.84547060244E+03 -0.11875498580E+04  0.16271642758E+03  0.14668242749E+04  0.12699999809E+01 0. -1.
       -4    1    3    3    0  502 -0.84547060244E+03  0.11875498580E+04 -0.13438570577E+03  0.14639522997E+04  0.12699999809E+01 0.  1.
</event>
<event>
 5   0  0.3649705E-06  0.2938568E+04  0.7818609E-02  0.8261494E-01
        1   -1    0    0  501    0  0.00000000000E+00  0.00000000000E+00  0.22675136270E+04  0.22675136270E+04  0.50400001928E-02 0. -1.
       -1   -1    0    0    0  501  0.00000000000E+00  0.00000000000E+00 -0.95205379022E+03  0.95205379023E+03  0.50400001928E-02 0.  1.
    10030    2    1    2    0    0  0.00000000000E+00  0.00000000000E+00  0.13154598368E+04  0.32195674172E+04  0.29385676395E+04 0.  0.
        2    1    3    3  502    0 -0.22218995535E+03  0.93563037683E+03 -0.55936191185E+03  0.11125009334E+04  0.25500000920E-02 0.  1.
       -2    1    3    3    0  502  0.22218995535E+03 -0.93563037683E+03  0.18748217486E+04  0.21070664838E+04  0.25500000920E-02 0. -1.
</event>
<event>
 5   0  0.9646321E-06  0.2906920E+04  0.7818609E-02  0.8270822E-01
        2   -1    0    0  501    0  0.00000000000E+00  0.00000000000E+00  0.26661519469E+04  0.26661519469E+04  0.25500000920E-02 0. -1.
       -2   -1    0    0    0  501  0.00000000000E+00  0.00000000000E+00 -0.79235758747E+03  0.79235758747E+03  0.25500000920E-02 0.  1.
    10030    2    1    2    0    0  0.00000000000E+00  0.00000000000E+00  0.18737943594E+04  0.34585095344E+04  0.29069198300E+04 0.  0.
        3    1    3    3  502    0  0.57258074304E+03 -0.11363416260E+04  0.10116644749E+03  0.12764621649E+04  0.10100000352E+00 0.  1.
       -3    1    3    3    0  502 -0.57258074304E+03  0.11363416260E+04  0.17726279119E+04  0.21820473694E+04  0.10100000352E+00 0. -1.
</event>
<event>
 5   0  0.9505359E-06  0.2886765E+04  0.7818609E-02  0.8276826E-01
       -2   -1    0    0    0  501  0.00000000000E+00  0.00000000000E+00  0.11601394916E+04  0.11601394916E+04  0.25500000920E-02 0. -1.
        2   -1    0    0  501    0  0.00000000000E+00  0.00000000000E+00 -0.17957786146E+04  0.17957786146E+04  0.25500000920E-02 0.  1.
    10030    2    1    2    0    0  0.00000000000E+00  0.00000000000E+00 -0.63563912299E+03  0.29559181061E+04  0.28867654486E+04 0.  0.
        4    1    3    3  502    0  0.79037981156E+03  0.71238936554E+03  0.68081396129E+03  0.12632134093E+04  0.12699999809E+01 0. -1.
       -4    1    3    3    0  502 -0.79037981156E+03 -0.71238936554E+03 -0.13164530843E+04  0.16927046968E+04  0.12699999809E+01 0.  1.
</event>
<event>
 5   0  0.1001573E-05  0.2967582E+04  0.7818609E-02  0.8253049E-01
        2   -1    0    0  501    0  0.00000000000E+00  0.00000000000E+00  0.21645940691E+04  0.21645940691E+04  0.25500000920E-02 0. -1.
       -2   -1    0    0    0  501  0.00000000000E+00  0.00000000000E+00 -0.10171127038E+04  0.10171127038E+04  0.25500000920E-02 0.  1.
    10030    2    1    2    0    0  0.00000000000E+00  0.00000000000E+00  0.11474813653E+04  0.31817067729E+04  0.29675822659E+04 0.  0.
        1    1    3    3  502    0 -0.51380605580E+03 -0.13889709256E+04  0.47548059488E+03  0.15554159223E+04  0.50400001928E-02 0.  1.
       -1    1    3    3    0  502  0.51380605580E+03  0.13889709256E+04  0.67200077045E+03  0.16262908506E+04  0.50400001928E-02 0. -1.
</event>
<event>
 5   0  0.9646321E-06  0.2902909E+04  0.7818609E-02  0.8272012E-01
       -2   -1    0    0    0  501  0.00000000000E+00  0.00000000000E+00  0.10147207068E+04  0.10147207068E+04  0.25500000920E-02 0.  1.
        2   -1    0    0  501    0  0.00000000000E+00  0.00000000000E+00 -0.20761578710E+04  0.20761578710E+04  0.25500000920E-02 0. -1.
    10030    2    1    2    0    0  0.00000000000E+00  0.00000000000E+00 -0.10614371641E+04  0.30908785778E+04  0.29029091494E+04 0.  0.
        3    1    3    3  502    0 -0.40410648019E+03  0.23976413044E+03 -0.19929343271E+04  0.20475781128E+04  0.10100000352E+00 0. -1.
       -3    1    3    3    0  502  0.40410648019E+03 -0.23976413044E+03  0.93149716295E+03  0.10433004650E+04  0.10100000352E+00 0.  1.
</event>
<event>
 5   0  0.3486236E-06  0.2915167E+04  0.7818609E-02  0.8268379E-01
       -1   -1    0    0    0  501  0.00000000000E+00  0.00000000000E+00  0.12298083970E+04  0.12298083970E+04  0.50400001928E-02 0. -1.
        1   -1    0    0  501    0  0.00000000000E+00  0.00000000000E+00 -0.17275449836E+04  0.17275449836E+04  0.50400001928E-02 0.  1.
    10030    2    1    2    0    0  0.00000000000E+00  0.00000000000E+00 -0.49773658660E+03  0.29573533807E+04  0.29151667720E+04 0.  0.
        5    1    3    3  502    0 -0.39768986891E+03 -0.13401135836E+04  0.16998137734E+03  0.14081823062E+04  0.46999998093E+01 0. -1.
       -5    1    3    3    0  502  0.39768986891E+03  0.13401135836E+04 -0.66771796394E+03  0.15491710745E+04  0.46999998093E+01 0.  1.
</event>
<event>
 5   0  0.3746518E-06  0.2895289E+04  0.7818609E-02  0.8274281E-01
        1   -1    0    0  501    0  0.00000000000E+00  0.00000000000E+00  0.15179014645E+04  0.15179014646E+04  0.50400001928E-02 0. -1.
       -1   -1    0    0    0  501  0.00000000000E+00  0.00000000000E+00 -0.13806390583E+04  0.13806390584E+04  0.50400001928E-02 0.  1.
    10030    2    1    2    0    0  0.00000000000E+00  0.00000000000E+00  0.13726240620E+03  0.28985405229E+04  0.28952886203E+04 0.  0.
        4    1    3    3  502    0  0.25423794982E+03  0.13767128131E+04 -0.30015372670E+03  0.14318061941E+04  0.12699999809E+01 0.  1.
       -4    1    3    3    0  502 -0.25423794982E+03 -0.13767128131E+04  0.43741613290E+03  0.14667343288E+04  0.12699999809E+01 0. -1.
</event>
<event>
 5   0  0.3486236E-06  0.2910461E+04  0.7818609E-02  0.8269772E-01
        1   -1    0    0  501    0  0.00000000000E+00  0.00000000000E+00  0.16833548321E+04  0.16833548322E+04  0.50400001928E-02 0.  1.
       -1   -1    0    0    0  501  0.00000000000E+00  0.00000000000E+00 -0.12580210897E+04  0.12580210897E+04  0.50400001928E-02 0. -1.
    10030    2    1    2    0    0  0.00000000000E+00  0.00000000000E+00  0.42533374246E+03  0.29413759218E+04  0.29104610496E+04 0.  0.
        5    1    3    3  502    0 -0.10953845071E+04 -0.95801350078E+03  0.20853636791E+03  0.14700906750E+04  0.46999998093E+01 0.  1.
       -5    1    3    3    0  502  0.10953845071E+04  0.95801350078E+03  0.21679737455E+03  0.14712852468E+04  0.46999998093E+01 0. -1.
</event>
<event>
 5   0  0.3564340E-06  0.2821655E+04  0.7818609E-02  0.8296577E-01
        1   -1    0    0  501    0  0.00000000000E+00  0.00000000000E+00  0.19733531283E+04  0.19733531283E+04  0.50400001928E-02 0.  1.
       -1   -1    0    0    0  501  0.00000000000E+00  0.00000000000E+00 -0.10086557551E+04  0.10086557551E+04  0.50400001928E-02 0. -1.
    10030    2    1    2    0    0  0.00000000000E+00  0.00000000000E+00  0.96469737317E+03  0.29820088834E+04  0.28216548263E+04 0.  0.
        1    1    3    3  502    0  0.97883684476E+03  0.58940356430E+03  0.13569772550E+04  0.17739519162E+04  0.50400001928E-02 0.  1.
       -1    1    3    3    0  502 -0.97883684476E+03 -0.58940356430E+03 -0.39227988183E+03  0.12080569672E+04  0.50400001928E-02 0. -1.
</event>
<event>
 5   0  0.9505359E-06  0.2903547E+04  0.7818609E-02  0.8271823E-01
        2   -1    0    0  501    0  0.00000000000E+00  0.00000000000E+00  0.23396216588E+04  0.23396216588E+04  0.25500000920E-02 0. -1.
       -2   -1    0    0    0  501  0.00000000000E+00  0.00000000000E+00 -0.90084914712E+03  0.90084914713E+03  0.25500000920E-02 0.  1.
    10030    2    1    2    0    0  0.00000000000E+00  0.00000000000E+00  0.14387725117E+04  0.32404708059E+04  0.29035469178E+04 0.  0.
        4    1    3    3  502    0 -0.80719532544E+03  0.11840124419E+04  0.45957491625E+03  0.15048788897E+04  0.12699999809E+01 0. -1.
       -4    1    3    3    0  502  0.80719532544E+03 -0.11840124419E+04  0.97919759543E+03  0.17355919163E+04  0.12699999809E+01 0.  1.
</event>
<event>
 5   0  0.1001573E-05  0.2867785E+04  0.7818609E-02  0.8282527E-01
       -2   -1    0    0    0  501  0.00000000000E+00  0.00000000000E+00  0.10294441242E+04  0.10294441242E+04  0.25500000920E-02 0. -1.
        2   -1    0    0  501    0  0.00000000000E+00  0.00000000000E+00 -0.19972410258E+04  0.19972410258E+04  0.25500000920E-02 0.  1.
    10030    2    1    2    0    0  0.00000000000E+00  0.00000000000E+00 -0.96779690160E+03  0.30266851500E+04  0.28677852351E+04 0.  0.
        1    1    3    3  502    0  0.10571007089E+04 -0.41735743159E+03  0.43884431566E+03  0.12182912082E+04  0.50400001928E-02 0. -1.
       -1    1    3    3    0  502 -0.10571007089E+04  0.41735743159E+03 -0.14066412173E+04  0.18083939418E+04  0.50400001928E-02 0.  1.
</event>
<event>
 5   0  0.9251510E-06  0.2890023E+04  0.7818609E-02  0.8275852E-01
        2   -1    0    0  501    0  0.00000000000E+00  0.00000000000E+00  0.22751702985E+04  0.22751702985E+04  0.25500000920E-02 0. -1.
       -2   -1    0    0    0  501  0.00000000000E+00  0.00000000000E+00 -0.91775926937E+03  0.91775926937E+03  0.25500000920E-02 0.  1.
    10030    2    1    2    0    0  0.00000000000E+00  0.00000000000E+00  0.13574110291E+04  0.31929295679E+04  0.28900232738E+04 0.  0.
        2    1    3    3  502    0 -0.10342711577E+04  0.10081085427E+04  0.62857375630E+03  0.15751522557E+04  0.25500000920E-02 0.  1.
       -2    1    3    3    0  502  0.10342711577E+04 -0.10081085427E+04  0.72883727281E+03  0.16177773122E+04  0.25500000920E-02 0. -1.
</event>
<event>
 5   0  0.3474078E-06  0.2957765E+04  0.7818609E-02  0.8255895E-01
       -1   -1    0    0    0  501  0.00000000000E+00  0.00000000000E+00  0.24351050752E+04  0.24351050752E+04  0.50400001928E-02 0.  1.
        1   -1    0    0  501    0  0.00000000000E+00  0.00000000000E+00 -0.89815170493E+03  0.89815170494E+03  0.50400001928E-02 0. -1.
    10030    2    1    2    0    0  0.00000000000E+00  0.00000000000E+00  0.15369533703E+04  0.33332567802E+04  0.29577652206E+04 0.  0.
        3    1    3    3  502    0  0.10194330495E+04 -0.39087143954E+03 -0.35569279217E+03  0.11482776656E+04  0.10100000352E+00 0. -1.
       -3    1    3    3    0  502 -0.10194330495E+04  0.39087143954E+03  0.18926461624E+04  0.21849791146E+04  0.10100000352E+00 0.  1.
</event>
<event>
 5   0  0.9646321E-06  0.2729037E+04  0.7818609E-02  0.8325645E-01
       -2   -1    0    0    0  501  0.00000000000E+00  0.00000000000E+00  0.86255510663E+03  0.86255510663E+03  0.25500000920E-02 0.  1.
        2   -1    0    0  501    0  0.00000000000E+00  0.00000000000E+00 -0.21585985271E+04  0.21585985271E+04  0.25500000920E-02 0. -1.
    10030    2    1    2    0    0  0.00000000000E+00  0.00000000000E+00 -0.12960434205E+04  0.30211536338E+04  0.27290365939E+04 0.  0.
        3    1    3    3  502    0  0.47277228021E+03  0.10656285527E+04 -0.14330314567E+04  0.18473378162E+04  0.10100000352E+00 0. -1.
       -3    1    3    3    0  502 -0.47277228021E+03 -0.10656285527E+04  0.13698803622E+03  0.11738158175E+04  0.10100000352E+00 0.  1.
</event>
<event>
 5   0  0.9360689E-06  0.2946379E+04  0.7818609E-02  0.8259211E-01
        2   -1    0    0  501    0  0.00000000000E+00  0.00000000000E+00  0.17803740381E+04  0.17803740381E+04  0.25500000920E-02 0. -1.
       -2   -1    0    0    0  501  0.00000000000E+00  0.00000000000E+00 -0.12190062576E+04  0.12190062576E+04  0.25500000920E-02 0.  1.
    10030    2    1    2    0    0  0.00000000000E+00  0.00000000000E+00  0.56136778057E+03  0.29993802957E+04  0.29463788577E+04 0.  0.
        5    1    3    3  502    0 -0.69625470019E+03  0.99312346284E+03  0.11319075990E+04  0.16590062455E+04  0.46999998093E+01 0. -1.
       -5    1    3    3    0  502  0.69625470019E+03 -0.99312346284E+03 -0.57053981843E+03  0.13403740502E+04  0.46999998093E+01 0.  1.
</event>
<event>
 5   0  0.1001573E-05  0.2899708E+04  0.7818609E-02  0.8272964E-01
       -2   -1    0    0    0  501  0.00000000000E+00  0.00000000000E+00  0.98454974795E+03  0.98454974795E+03  0.25500000920E-02 0.  1.
        2   -1    0    0  501    0  0.00000000000E+00  0.00000000000E+00 -0.21350644363E+04  0.21350644363E+04  0.25500000920E-02 0. -1.
    10030    2    1    2    0    0  0.00000000000E+00  0.00000000000E+00 -0.11505146884E+04  0.31196141843E+04  0.28997083665E+04 0.  0.
        1    1    3    3  502    0 -0.30839597827E+03 -0.71347536784E+03 -0.18919704563E+04  0.20454113004E+04  0.50400001928E-02 0. -1.
       -1    1    3    3    0  502  0.30839597827E+03  0.71347536784E+03  0.74145576797E+03  0.10742028839E+04  0.50400001928E-02 0.  1.
</event>
<event>
 5   0  0.3474078E-06  0.2880930E+04  0.7818609E-02  0.8278574E-01
       -1   -1    0    0    0  501  0.00000000000E+00  0.00000000000E+00  0.12740546042E+04  0.12740546043E+04  0.50400001928E-02 0.  1.
        1   -1    0    0  501    0  0.00000000000E+00  0.00000000000E+00 -0.16286109418E+04  0.16286109419E+04  0.50400001928E-02 0. -1.
    10030    2    1    2    0    0  0.00000000000E+00  0.00000000000E+00 -0.35455633760E+03  0.29026655461E+04  0.28809298978E+04 0.  0.
        3    1    3    3  502    0 -0.57746295085E+03 -0.71121029224E+03  0.94270900524E+03  0.13145279830E+04  0.10100000352E+00 0.  1.
       -3    1    3    3    0  502  0.57746295085E+03  0.71121029224E+03 -0.12972653428E+04  0.15881375631E+04  0.10100000352E+00 0. -1.
</event>
<event>
 5   0  0.3746518E-06  0.2907773E+04  0.7818609E-02  0.8270568E-01
        1   -1    0    0  501    0  0.00000000000E+00  0.00000000000E+00  0.15476490966E+04  0.15476490966E+04  0.50400001928E-02 0.  1.
       -1   -1    0    0    0  501  0.00000000000E+00  0.00000000000E+00 -0.13658048269E+04  0.13658048269E+04  0.50400001928E-02 0. -1.
    10030    2    1    2    0    0  0.00000000000E+00  0.00000000000E+00  0.18184426962E+03  0.29134539235E+04  0.29077734482E+04 0.  0.
        4    1    3    3  502    0 -0.54358838388E+03  0.73721125191E+03  0.12222054448E+04  0.15273364145E+04  0.12699999809E+01 0.  1.
       -4    1    3    3    0  502  0.54358838388E+03 -0.73721125191E+03 -0.10403611751E+04  0.13861175090E+04  0.12699999809E+01 0. -1.
</event>
<event>
 5   0  0.3474078E-06  0.2948890E+04  0.7818609E-02  0.8258478E-01
       -1   -1    0    0    0  501  0.00000000000E+00  0.00000000000E+00  0.89177193500E+03  0.89177193501E+03  0.50400001928E-02 0. -1.
        1   -1    0    0  501    0  0.00000000000E+00  0.00000000000E+00 -0.24378288400E+04  0.24378288400E+04  0.50400001928E-02 0.  1.
    10030    2    1    2    0    0  0.00000000000E+00  0.00000000000E+00 -0.15460569050E+04  0.33296007750E+04  0.29488895143E+04 0.  0.
        3    1    3    3  502    0  0.44989316815E+03 -0.14026458279E+04 -0.84592473076E+03  0.16986488282E+04  0.10100000352E+00 0.  1.
       -3    1    3    3    0  502 -0.44989316815E+03  0.14026458279E+04 -0.70013217426E+03  0.16309519468E+04  0.10100000352E+00 0. -1.
</event>
<event>
 5   0  0.9505359E-06  0.2833097E+04  0.7818609E-02  0.8293066E-01
       -2   -1    0    0    0  501  0.00000000000E+00  0.00000000000E+00  0.86679999986E+03  0.86679999987E+03  0.25500000920E-02 0. -1.
        2   -1    0    0  501    0  0.00000000000E+00  0.00000000000E+00 -0.23149624361E+04  0.23149624361E+04  0.25500000920E-02 0.  1.
    10030    2    1    2    0    0  0.00000000000E+00  0.00000000000E+00 -0.14481624362E+04  0.31817624360E+04  0.28330968493E+04 0.  0.
        4    1    3    3  502    0 -0.63610779858E+03  0.11779887433E+04 -0.12439992240E+04  0.18275191635E+04  0.12699999809E+01 0.  1.
       -4    1    3    3    0  502  0.63610779858E+03 -0.11779887433E+04 -0.20416321226E+03  0.13542432725E+04  0.12699999809E+01 0. -1.
</event>
<event>
 5   0  0.9360689E-06  0.2857114E+04  0.7818609E-02  0.8285753E-01
       -2   -1    0    0    0  501  0.00000000000E+00  0.00000000000E+00  0.91635523418E+03  0.91635523418E+03  0.25500000920E-02 0. -1.
        2   -1    0    0  501    0  0.00000000000E+00  0.00000000000E+00 -0.22270570705E+04  0.22270570705E+04  0.25500000920E-02 0.  1.
    10030    2    1    2    0    0  0.00000000000E+00  0.00000000000E+00 -0.13107018363E+04  0.31434123047E+04  0.28571142108E+04 0.  0.
        5    1    3    3  502    0 -0.25059307537E+01  0.19279451772E+03  0.90196527578E+03  0.92235538404E+03  0.46999998093E+01 0. -1.
       -5    1    3    3    0  502  0.25059307537E+01 -0.19279451772E+03 -0.22126671121E+04  0.22210569206E+04  0.46999998093E+01 0.  1.
</event>
<event>
 5   0  0.9251510E-06  0.2730426E+04  0.7818609E-02  0.8325200E-01
       -2   -1    0    0    0  501  0.00000000000E+00  0.00000000000E+00  0.14437211138E+04  0.14437211138E+04  0.25500000920E-02 0. -1.
        2   -1    0    0  501    0  0.00000000000E+00  0.00000000000E+00 -0.12909736632E+04  0.12909736632E+04  0.25500000920E-02 0.  1.
    10030    2    1    2    0    0  0.00000000000E+00  0.00000000000E+00  0.15274745055E+03  0.27346947770E+04  0.27304255602E+04 0.  0.
        2    1    3    3  502    0  0.11867901259E+04  0.67083561862E+03  0.33577164115E+01  0.13632690506E+04  0.25500000920E-02 0. -1.
       -2    1    3    3    0  502 -0.11867901259E+04 -0.67083561862E+03  0.14938973414E+03  0.13714257263E+04  0.25500000920E-02 0.  1.
</event>
<event>
 5   0  0.9646321E-06  0.3109468E+04  0.7818609E-02  0.8213144E-01
        2   -1    0    0  501    0  0.00000000000E+00  0.00000000000E+00  0.18019394130E+04  0.18019394130E+04  0.25500000920E-02 0.  1.
       -2   -1    0    0    0  501  0.00000000000E+00  0.00000000000E+00 -0.13414421338E+04  0.13414421338E+04  0.25500000920E-02 0. -1.
    10030    2    1    2    0    0  0.00000000000E+00  0.00000000000E+00  0.46049727922E+03  0.31433815468E+04  0.31094677687E+04 0.  0.
        3    1    3    3  502    0  0.56517028476E+03 -0.22002276127E+03  0.16774242158E+04  0.17836982582E+04  0.10100000352E+00 0.  1.
       -3    1    3    3    0  502 -0.56517028476E+03  0.22002276127E+03 -0.12169269366E+04  0.13596832886E+04  0.10100000352E+00 0. -1.
</event>
<event>
 5   0  0.9251510E-06  0.2862882E+04  0.7818609E-02  0.8284008E-01
       -2   -1    0    0    0  501  0.00000000000E+00  0.00000000000E+00  0.15628537307E+04  0.15628537307E+04  0.25500000920E-02 0.  1.
        2   -1    0    0  501    0  0.00000000000E+00  0.00000000000E+00 -0.13110779877E+04  0.13110779877E+04  0.25500000920E-02 0. -1.
    10030    2    1    2    0    0  0.00000000000E+00  0.00000000000E+00  0.25177574297E+03  0.28739317184E+04  0.28628818518E+04 0.  0.
        2    1    3    3  502    0 -0.18385302520E+03 -0.14013968423E+04 -0.10149926945E+03  0.14170452167E+04  0.25500000920E-02 0. -1.
       -2    1    3    3    0  502  0.18385302520E+03  0.14013968423E+04  0.35327501242E+03  0.14568865017E+04  0.25500000920E-02 0.  1.
</event>
<event>
 5   0  0.9646321E-06  0.2896769E+04  0.7818609E-02  0.8273839E-01
       -2   -1    0    0    0  501  0.00000000000E+00  0.00000000000E+00  0.13471039861E+04  0.13471039861E+04  0.25500000920E-02 0. -1.
        2   -1    0    0  501    0  0.00000000000E+00  0.00000000000E+00 -0.15572796681E+04  0.15572796681E+04  0.25500000920E-02 0.  1.
    10030    2    1    2    0    0  0.00000000000E+00  0.00000000000E+00 -0.21017568205E+03  0.29043836542E+04  0.28967689921E+04 0.  0.
        3    1    3    3  502    0  0.24640917538E+03 -0.67696166755E+02  0.13243236051E+04  0.13487524880E+04  0.10100000352E+00 0. -1.
       -3    1    3    3    0  502 -0.24640917538E+03  0.67696166755E+02 -0.15344992872E+04  0.15556311662E+04  0.10100000352E+00 0.  1.
</event>
<event>
 5   0  0.9646321E-06  0.2942125E+04  0.7818609E-02  0.8260453E-01
       -2   -1    0    0    0  501  0.00000000000E+00  0.00000000000E+00  0.90857605563E+03  0.90857605564E+03  0.25500000920E-02 0. -1.
        2   -1    0    0  501    0  0.00000000000E+00  0.00000000000E+00 -0.23817756482E+04  0.23817756482E+04  0.25500000920E-02 0.  1.
    10030    2    1    2    0    0  0.00000000000E+00  0.00000000000E+00 -0.14731995926E+04  0.32903517039E+04  0.29421246227E+04 0.  0.
        3    1    3    3  502    0  0.53581453031E+03  0.13372292788E+03 -0.22614466969E+04  0.23279003857E+04  0.10100000352E+00 0.  1.
       -3    1    3    3    0  502 -0.53581453031E+03 -0.13372292788E+03  0.78824710430E+03  0.96245131823E+03  0.10100000352E+00 0. -1.
</event>
<event>
 5   0  0.9251510E-06  0.2889118E+04  0.7818609E-02  0.8276123E-01
        2   -1    0    0  501    0  0.00000000000E+00  0.00000000000E+00  0.22710067326E+04  0.22710067326E+04  0.25500000920E-02 0.  1.
       -2   -1    0    0    0  501  0.00000000000E+00  0.00000000000E+00 -0.91886566246E+03  0.91886566247E+03  0.25500000920E-02 0. -1.
    10030    2    1    2    0    0  0.00000000000E+00  0.00000000000E+00  0.13521410701E+04  0.31898723951E+04  0.28891175856E+04 0.  0.
        2    1    3    3  502    0  0.34087266546E+03 -0.67719394142E+03 -0.68155144475E+03  0.10194597492E+04  0.25500000920E-02 0. -1.
       -2    1    3    3    0  502 -0.34087266546E+03  0.67719394142E+03  0.20336925149E+04  0.21704126459E+04  0.25500000920E-02 0.  1.
</event>
<event>
 5   0  0.3486236E-06  0.2848910E+04  0.7818609E-02  0.8288243E-01
       -1   -1    0    0    0  501  0.00000000000E+00  0.00000000000E+00  0.10692075486E+04  0.10692075486E+04  0.50400001928E-02 0. -1.
        1   -1    0    0  501    0  0.00000000000E+00  0.00000000000E+00 -0.18977338952E+04  0.18977338952E+04  0.50400001928E-02 0.  1.
    10030    2    1    2    0    0  0.00000000000E+00  0.00000000000E+00 -0.82852634659E+03  0.29669414438E+04  0.28489095499E+04 0.  0.
        5    1    3    3  502    0  0.44745662773E+03  0.13504768493E+04 -0.48822792624E+03  0.15041255773E+04  0.46999998093E+01 0. -1.
       -5    1    3    3    0  502 -0.44745662773E+03 -0.13504768493E+04 -0.34029842035E+03  0.14628158665E+04  0.46999998093E+01 0.  1.
</event>
<event>
 5   0  0.3649705E-06  0.3023074E+04  0.7818609E-02  0.8237172E-01
        1   -1    0    0  501    0  0.00000000000E+00  0.00000000000E+00  0.15738291412E+04  0.15738291412E+04  0.50400001928E-02 0. -1.
       -1   -1    0    0    0  501  0.00000000000E+00  0.00000000000E+00 -0.14517108552E+04  0.14517108552E+04  0.50400001928E-02 0.  1.
    10030    2    1    2    0    0  0.00000000000E+00  0.00000000000E+00  0.12211828601E+03  0.30255399964E+04  0.30230744936E+04 0.  0.
        2    1    3    3  502    0  0.10720979274E+04 -0.34351078004E+03  0.10705200525E+04  0.15535143401E+04  0.25500000920E-02 0. -1.
       -2    1    3    3    0  502 -0.10720979274E+04  0.34351078004E+03 -0.94840176650E+03  0.14720256563E+04  0.25500000920E-02 0.  1.
</event>
<event>
 5   0  0.3649705E-06  0.2843182E+04  0.7818609E-02  0.8289986E-01
       -1   -1    0    0    0  501  0.00000000000E+00  0.00000000000E+00  0.81897805778E+03  0.81897805780E+03  0.50400001928E-02 0. -1.
        1   -1    0    0  501    0  0.00000000000E+00  0.00000000000E+00 -0.24676123799E+04  0.24676123799E+04  0.50400001928E-02 0.  1.
    10030    2    1    2    0    0  0.00000000000E+00  0.00000000000E+00 -0.16486343221E+04  0.32865904377E+04  0.28431815941E+04 0.  0.
        2    1    3    3  502    0  0.27883965971E+03 -0.13673216094E+04 -0.51071341825E+03  0.14859838946E+04  0.25500000920E-02 0. -1.
       -2    1    3    3    0  502 -0.27883965971E+03  0.13673216094E+04 -0.11379209038E+04  0.18006065430E+04  0.25500000920E-02 0.  1.
</event>
<event>
 5   0  0.3474078E-06  0.2861382E+04  0.7818609E-02  0.8284461E-01
       -1   -1    0    0    0  501  0.00000000000E+00  0.00000000000E+00  0.10187212241E+04  0.10187212241E+04  0.50400001928E-02 0.  1.
        1   -1    0    0  501    0  0.00000000000E+00  0.00000000000E+00 -0.20092616001E+04  0.20092616001E+04  0.50400001928E-02 0. -1.
    10030    2    1    2    0    0  0.00000000000E+00  0.00000000000E+00 -0.99054037595E+03  0.30279828242E+04  0.28613824888E+04 0.  0.
        3    1    3    3  502    0 -0.10888437201E+04  0.91566193295E+03 -0.65526859068E+03  0.15663314970E+04  0.10100000352E+00 0. -1.
       -3    1    3    3    0  502  0.10888437201E+04 -0.91566193295E+03 -0.33527178527E+03  0.14616513272E+04  0.10100000352E+00 0.  1.
</event>
<event>
 5   0  0.1001573E-05  0.2883451E+04  0.7818609E-02  0.8277818E-01
        2   -1    0    0  501    0  0.00000000000E+00  0.00000000000E+00  0.16007720500E+04  0.16007720500E+04  0.25500000920E-02 0.  1.
       -2   -1    0    0    0  501  0.00000000000E+00  0.00000000000E+00 -0.12984815200E+04  0.12984815200E+04  0.25500000920E-02 0. -1.
    10030    2    1    2    0    0  0.00000000000E+00  0.00000000000E+00  0.30229053001E+03  0.28992535700E+04  0.28834513518E+04 0.  0.
        1    1    3    3  502    0  0.11159820895E+04  0.49061752086E+03 -0.62278159261E+03  0.13689333395E+04  0.50400001928E-02 0. -1.
       -1    1    3    3    0  502 -0.11159820895E+04 -0.49061752086E+03  0.92507212262E+03  0.15303202305E+04  0.50400001928E-02 0.  1.
</event>
<event>
 5   0  0.3474078E-06  0.2908085E+04  0.7818609E-02  0.8270476E-01
        1   -1    0    0  501    0  0.00000000000E+00  0.00000000000E+00  0.25133080726E+04  0.25133080726E+04  0.50400001928E-02 0. -1.
       -1   -1    0    0    0  501  0.00000000000E+00  0.00000000000E+00 -0.84121761394E+03  0.84121761395E+03  0.50400001928E-02 0.  1.
    10030    2    1    2    0    0  0.00000000000E+00  0.00000000000E+00  0.16720904587E+04  0.33545256866E+04  0.29080846067E+04 0.  0.
        3    1    3    3  502    0 -0.42474753857E+03 -0.22916710313E+03 -0.74612926429E+03  0.88861517087E+03  0.10100000352E+00 0.  1.
       -3    1    3    3    0  502  0.42474753857E+03  0.22916710313E+03  0.24182197230E+04  0.24659105157E+04  0.10100000352E+00 0. -1.
</event>
<event>
 5   0  0.9646321E-06  0.2912114E+04  0.7818609E-02  0.8269282E-01
       -2   -1    0    0    0  501  0.00000000000E+00  0.00000000000E+00  0.14040284523E+04  0.14040284523E+04  0.25500000920E-02 0. -1.
        2   -1    0    0  501    0  0.00000000000E+00  0.00000000000E+00 -0.15100132488E+04  0.15100132488E+04  0.25500000920E-02 0.  1.
    10030    2    1    2    0    0  0.00000000000E+00  0.00000000000E+00 -0.10598479652E+03  0.29140417011E+04  0.29121137098E+04 0.  0.
        3    1    3    3  502    0 -0.10477710335E+04 -0.36466928037E+03  0.89065565668E+03  0.14227000146E+04  0.10100000352E+00 0. -1.
       -3    1    3    3    0  502  0.10477710335E+04  0.36466928037E+03 -0.99664045320E+03  0.14913416865E+04  0.10100000352E+00 0.  1.
</event>
<event>
 5   0  0.3564340E-06  0.2728983E+04  0.7818609E-02  0.8325662E-01
       -1   -1    0    0    0  501  0.00000000000E+00  0.00000000000E+00  0.12458500613E+04  0.12458500613E+04  0.50400001928E-02 0. -1.
        1   -1    0    0  501    0  0.00000000000E+00  0.00000000000E+00 -0.14944306554E+04  0.14944306554E+04  0.50400001928E-02 0.  1.
    10030    2    1    2    0    0  0.00000000000E+00  0.00000000000E+00 -0.24858059411E+03  0.27402807168E+04  0.27289826117E+04 0.  0.
        1    1    3    3  502    0  0.11484941321E+04 -0.52113632730E+03  0.39864852349E+03  0.13227027211E+04  0.50400001928E-02 0. -1.
       -1    1    3    3    0  502 -0.11484941321E+04  0.52113632730E+03 -0.64722911760E+03  0.14175779957E+04  0.50400001928E-02 0.  1.
</event>
<event>
 5   0  0.9505359E-06  0.2853360E+04  0.7818609E-02  0.8286891E-01
        2   -1    0    0  501    0  0.00000000000E+00  0.00000000000E+00  0.16581171981E+04  0.16581171981E+04  0.25500000920E-02 0. -1.
       -2   -1    0    0    0  501  0.00000000000E+00  0.00000000000E+00 -0.12275467725E+04  0.12275467725E+04  0.25500000920E-02 0.  1.
    10030    2    1    2    0    0  0.00000000000E+00  0.00000000000E+00  0.43057042558E+03  0.28856639706E+04  0.28533604153E+04 0.  0.
        4    1    3    3  502    0 -0.37105613883E+03 -0.15263521198E+02  0.16083776105E+04  0.16506955455E+04  0.12699999809E+01 0. -1.
       -4    1    3    3    0  502  0.37105613883E+03  0.15263521198E+02 -0.11778071849E+04  0.12349684251E+04  0.12699999809E+01 0.  1.
</event>
<event>
 5   0  0.9505359E-06  0.2860698E+04  0.7818609E-02  0.8284668E-01
        2   -1    0    0  501    0  0.00000000000E+00  0.00000000000E+00  0.12390181057E+04  0.12390181057E+04  0.25500000920E-02 0.  1.
       -2   -1    0    0    0  501  0.00000000000E+00  0.00000000000E+00 -0.16512260472E+04  0.16512260472E+04  0.25500000920E-02 0. -1.
    10030    2    1    2    0    0  0.00000000000E+00  0.00000000000E+00 -0.41220794155E+03  0.28902441529E+04  0.28606984945E+04 0.  0.
        4    1    3    3  502    0  0.67041363995E+03 -0.16300152995E+03  0.10597825062E+04  0.12645807688E+04  0.12699999809E+01 0.  1.
       -4    1    3    3    0  502 -0.67041363995E+03  0.16300152995E+03 -0.14719904477E+04  0.16256633841E+04  0.12699999809E+01 0. -1.
</event>
<event>
 5   0  0.3486236E-06  0.2662174E+04  0.7818609E-02  0.8347384E-01
        1   -1    0    0  501    0  0.00000000000E+00  0.00000000000E+00  0.16446903265E+04  0.16446903266E+04  0.50400001928E-02 0.  1.
       -1   -1    0    0    0  501  0.00000000000E+00  0.00000000000E+00 -0.10772801631E+04  0.10772801631E+04  0.50400001928E-02 0. -1.
    10030    2    1    2    0    0  0.00000000000E+00  0.00000000000E+00  0.56741016342E+03  0.27219704897E+04  0.26621737459E+04 0.  0.
        5    1    3    3  502    0 -0.95612836083E+03  0.72081518994E+03 -0.31074375903E+03  0.12370690176E+04  0.46999998093E+01 0. -1.
       -5    1    3    3    0  502  0.95612836083E+03 -0.72081518994E+03  0.87815392245E+03  0.14849014721E+04  0.46999998093E+01 0.  1.
</event>
<event>
 5   0  0.3474078E-06  0.2708944E+04  0.7818609E-02  0.8332109E-01
        1   -1    0    0  501    0  0.00000000000E+00  0.00000000000E+00  0.84253907831E+03  0.84253907832E+03  0.50400001928E-02 0.  1.
       -1   -1    0    0    0  501  0.00000000000E+00  0.00000000000E+00 -0.21774595971E+04  0.21774595971E+04  0.50400001928E-02 0. -1.
    10030    2    1    2    0    0  0.00000000000E+00  0.00000000000E+00 -0.13349205188E+04  0.30199986754E+04  0.27089442977E+04 0.  0.
        3    1    3    3  502    0  0.87922688959E+03 -0.76758659416E+03 -0.14336667906E+04  0.18486832015E+04  0.10100000352E+00 0. -1.
       -3    1    3    3    0  502 -0.87922688959E+03  0.76758659416E+03  0.98746271862E+02  0.11713154739E+04  0.10100000352E+00 0.  1.
</event>
<event>
 5   0  0.3649705E-06  0.2903538E+04  0.7818609E-02  0.8271826E-01
        1   -1    0    0  501    0  0.00000000000E+00  0.00000000000E+00  0.14449840079E+04  0.14449840079E+04  0.50400001928E-02 0. -1.
       -1   -1    0    0    0  501  0.00000000000E+00  0.00000000000E+00 -0.14585854382E+04  0.14585854382E+04  0.50400001928E-02 0.  1.
    10030    2    1    2    0    0  0.00000000000E+00  0.00000000000E+00 -0.13601430302E+02  0.29035694461E+04  0.29035375887E+04 0.  0.
        2    1    3    3  502    0  0.62982776125E+03  0.38135405564E+03  0.12444199134E+04  0.14459235268E+04  0.25500000920E-02 0. -1.
       -2    1    3    3    0  502 -0.62982776125E+03 -0.38135405564E+03 -0.12580213437E+04  0.14576459192E+04  0.25500000920E-02 0.  1.
</event>
<event>
 5   0  0.9505359E-06  0.2810561E+04  0.7818609E-02  0.8299997E-01
       -2   -1    0    0    0  501  0.00000000000E+00  0.00000000000E+00  0.10899391264E+04  0.10899391264E+04  0.25500000920E-02 0. -1.
        2   -1    0    0  501    0  0.00000000000E+00  0.00000000000E+00 -0.18118564431E+04  0.18118564431E+04  0.25500000920E-02 0.  1.
    10030    2    1    2    0    0  0.00000000000E+00  0.00000000000E+00 -0.72191731672E+03  0.29017955696E+04  0.28105609610E+04 0.  0.
        4    1    3    3  502    0  0.39020965879E+03  0.13497351149E+04 -0.33243659317E+03  0.14438019807E+04  0.12699999809E+01 0. -1.
       -4    1    3    3    0  502 -0.39020965879E+03 -0.13497351149E+04 -0.38948072355E+03  0.14579935888E+04  0.12699999809E+01 0.  1.
</event>
<event>
 5   0  0.3474078E-06  0.2903084E+04  0.7818609E-02  0.8271960E-01
        1   -1    0    0  501    0  0.00000000000E+00  0.00000000000E+00  0.17243019717E+04  0.17243019717E+04  0.50400001928E-02 0. -1.
       -1   -1    0    0    0  501  0.00000000000E+00  0.00000000000E+00 -0.12219287820E+04  0.12219287820E+04  0.50400001928E-02 0.  1.
    10030    2    1    2    0    0  0.00000000000E+00  0.00000000000E+00  0.50237318969E+03  0.29462307537E+04  0.29030840209E+04 0.  0.
        3    1    3    3  502    0 -0.86601937733E+02  0.69139358444E+03 -0.10410999675E+04  0.12527626019E+04  0.10100000352E+00 0.  1.
       -3    1    3    3    0  502  0.86601937733E+02 -0.69139358444E+03  0.15434731571E+04  0.16934681518E+04  0.10100000352E+00 0. -1.
</event>
<event>
 5   0  0.9251510E-06  0.2919946E+04  0.7818609E-02  0.8266968E-01
       -2   -1    0    0    0  501  0.00000000000E+00  0.00000000000E+00  0.12134850039E+04  0.12134850039E+04  0.25500000920E-02 0. -1.
        2   -1    0    0  501    0  0.00000000000E+00  0.00000000000E+00 -0.17565286735E+04  0.17565286735E+04  0.25500000920E-02 0.  1.
    10030    2    1    2    0    0  0.00000000000E+00  0.00000000000E+00 -0.54304366956E+03  0.29700136774E+04  0.29199460298E+04 0.  0.
        2    1    3    3  502    0  0.89856479399E+03 -0.62854911461E+03  0.70886653263E+03  0.13057505273E+04  0.25500000920E-02 0. -1.
       -2    1    3    3    0  502 -0.89856479399E+03  0.62854911461E+03 -0.12519102022E+04  0.16642631501E+04  0.25500000920E-02 0.  1.
</event>
<event>
 5   0  0.9505359E-06  0.2864608E+04  0.7818609E-02  0.8283486E-01
        2   -1    0    0  501    0  0.00000000000E+00  0.00000000000E+00  0.25535817900E+04  0.25535817900E+04  0.25500000920E-02 0. -1.
       -2   -1    0    0    0  501  0.00000000000E+00  0.00000000000E+00 -0.80337955382E+03  0.80337955382E+03  0.25500000920E-02 0.  1.
    10030    2    1    2    0    0  0.00000000000E+00  0.00000000000E+00  0.17502022362E+04  0.33569613439E+04  0.28646084543E+04 0.  0.
        4    1    3    3  502    0 -0.62159344483E+03 -0.12250401455E+04  0.39996129269E+03  0.14307593848E+04  0.12699999809E+01 0.  1.
       -4    1    3    3    0  502  0.62159344483E+03  0.12250401455E+04  0.13502409435E+04  0.19262019591E+04  0.12699999809E+01 0. -1.
</event>
<event>
 5   0  0.3486236E-06  0.2901644E+04  0.7818609E-02  0.8272388E-01
        1   -1    0    0  501    0  0.00000000000E+00  0.00000000000E+00  0.28776515995E+04  0.28776515995E+04  0.50400001928E-02 0.  1.
       -1   -1    0    0    0  501  0.00000000000E+00  0.00000000000E+00 -0.73145930001E+03  0.73145930002E+03  0.50400001928E-02 0. -1.
    10030    2    1    2    0    0  0.00000000000E+00  0.00000000000E+00  0.21461922995E+04  0.36091108995E+04  0.29016443784E+04 0.  0.
        5    1    3    3  502    0 -0.45095927822E+01 -0.48426869817E+03 -0.62794471660E+03  0.79301523665E+03  0.46999998093E+01 0. -1.
       -5    1    3    3    0  502  0.45095927822E+01  0.48426869817E+03  0.27741370161E+04  0.28160956629E+04  0.46999998093E+01 0.  1.
</event>
<event>
 5   0  0.3649705E-06  0.2908067E+04  0.7818609E-02  0.8270481E-01
        1   -1    0    0  501    0  0.00000000000E+00  0.00000000000E+00  0.18959203100E+04  0.18959203100E+04  0.50400001928E-02 0.  1.
       -1   -1    0    0    0  501  0.00000000000E+00  0.00000000000E+00 -0.11151381370E+04  0.11151381370E+04  0.50400001928E-02 0. -1.
    10030    2    1    2    0    0  0.00000000000E+00  0.00000000000E+00  0.78078217304E+03  0.30110584470E+04  0.29080667409E+04 0.  0.
        2    1    3    3  502    0  0.11422883362E+04  0.84707378600E+03  0.76579100326E+02  0.14241562416E+04  0.25500000920E-02 0.  1.
       -2    1    3    3    0  502 -0.11422883362E+04 -0.84707378600E+03  0.70420307271E+03  0.15869022054E+04  0.25500000920E-02 0. -1.
</event>
<event>
 5   0  0.9251510E-06  0.2901232E+04  0.7818609E-02  0.8272511E-01
        2   -1    0    0  501    0  0.00000000000E+00  0.00000000000E+00  0.31342824534E+04  0.31342824534E+04  0.25500000920E-02 0.  1.
       -2   -1    0    0    0  501  0.00000000000E+00  0.00000000000E+00 -0.67137742631E+03  0.67137742631E+03  0.25500000920E-02 0. -1.
    10030    2    1    2    0    0  0.00000000000E+00  0.00000000000E+00  0.24629050271E+04  0.38056598797E+04  0.29012317983E+04 0.  0.
        2    1    3    3  502    0 -0.77481837407E+03  0.82770550169E+03  0.44457725975E+02  0.11346437325E+04  0.25500000920E-02 0. -1.
       -2    1    3    3    0  502  0.77481837407E+03 -0.82770550169E+03  0.24184473011E+04  0.26710161472E+04  0.25500000920E-02 0.  1.
</event>
<event>
 5   0  0.9646321E-06  0.2854794E+04  0.7818609E-02  0.8286456E-01
       -2   -1    0    0    0  501  0.00000000000E+00  0.00000000000E+00  0.77757067103E+03  0.77757067104E+03  0.25500000920E-02 0.  1.
        2   -1    0    0  501    0  0.00000000000E+00  0.00000000000E+00 -0.26202913538E+04  0.26202913538E+04  0.25500000920E-02 0. -1.
    10030    2    1    2    0    0  0.00000000000E+00  0.00000000000E+00 -0.18427206828E+04  0.33978620249E+04  0.28547936572E+04 0.  0.
        3    1    3    3  502    0  0.82002809786E+03 -0.10908186418E+04 -0.42326592966E+03  0.14288056019E+04  0.10100000352E+00 0.  1.
       -3    1    3    3    0  502 -0.82002809786E+03  0.10908186418E+04 -0.14194547531E+04  0.19690564230E+04  0.10100000352E+00 0. -1.
</event>
<event>
 5   0  0.9360689E-06  0.2542301E+04  0.7818609E-02  0.8388069E-01
        2   -1    0    0  501    0  0.00000000000E+00  0.00000000000E+00  0.11603830811E+04  0.11603830811E+04  0.25500000920E-02 0. -1.
       -2   -1    0    0    0  501  0.00000000000E+00  0.00000000000E+00 -0.13924912499E+04  0.13924912499E+04  0.25500000920E-02 0.  1.
    10030    2    1    2    0    0  0.00000000000E+00  0.00000000000E+00 -0.23210816876E+03  0.25528743310E+04  0.25423007587E+04 0.  0.
        5    1    3    3  502    0 -0.83121422106E+03 -0.65795097281E+03 -0.82038747629E+03  0.13404753877E+04  0.46999998093E+01 0. -1.
       -5    1    3    3    0  502  0.83121422106E+03  0.65795097281E+03  0.58827930753E+03  0.12123989432E+04  0.46999998093E+01 0.  1.
</event>
<event>
 5   0  0.3649705E-06  0.2876900E+04  0.7818609E-02  0.8279784E-01
        1   -1    0    0  501    0  0.00000000000E+00  0.00000000000E+00  0.11977829332E+04  0.11977829332E+04  0.50400001928E-02 0. -1.
       -1   -1    0    0    0  501  0.00000000000E+00  0.00000000000E+00 -0.17274732715E+04  0.17274732715E+04  0.50400001928E-02 0.  1.
    10030    2    1    2    0    0  0.00000000000E+00  0.00000000000E+00 -0.52969033835E+03  0.29252562047E+04  0.28768997217E+04 0.  0.
        2    1    3    3  502    0 -0.31473978767E+03 -0.13427201153E+04 -0.68059374873E+03  0.15379097155E+04  0.25500000920E-02 0.  1.
       -2    1    3    3    0  502  0.31473978767E+03  0.13427201153E+04  0.15090341038E+03  0.13873464893E+04  0.25500000920E-02 0. -1.
</event>
<event>
 5   0  0.9251510E-06  0.2907904E+04  0.7818609E-02  0.8270530E-01
        2   -1    0    0  501    0  0.00000000000E+00  0.00000000000E+00  0.16919857617E+04  0.16919857617E+04  0.25500000920E-02 0.  1.
       -2   -1    0    0    0  501  0.00000000000E+00  0.00000000000E+00 -0.12494052548E+04  0.12494052548E+04  0.25500000920E-02 0. -1.
    10030    2    1    2    0    0  0.00000000000E+00  0.00000000000E+00  0.44258050694E+03  0.29413910165E+04  0.29079036447E+04 0.  0.
        2    1    3    3  502    0 -0.49311257111E+03  0.11738058116E+04 -0.48893214429E+03  0.13638309033E+04  0.25500000920E-02 0. -1.
       -2    1    3    3    0  502  0.49311257111E+03 -0.11738058116E+04  0.93151265124E+03  0.15775601132E+04  0.25500000920E-02 0.  1.
</event>
<event>
 5   0  0.3649705E-06  0.2935626E+04  0.7818609E-02  0.8262356E-01
       -1   -1    0    0    0  501  0.00000000000E+00  0.00000000000E+00  0.20023479723E+04  0.20023479723E+04  0.50400001928E-02 0. -1.
        1   -1    0    0  501    0  0.00000000000E+00  0.00000000000E+00 -0.10759739904E+04  0.10759739904E+04  0.50400001928E-02 0.  1.
    10030    2    1    2    0    0  0.00000000000E+00  0.00000000000E+00  0.92637398190E+03  0.30783219627E+04  0.29356255469E+04 0.  0.
        2    1    3    3  502    0  0.88216783592E+03  0.14787337255E+02 -0.76687844282E+03  0.11689915749E+04  0.25500000920E-02 0.  1.
       -2    1    3    3    0  502 -0.88216783592E+03 -0.14787337255E+02  0.16932524247E+04  0.19093303878E+04  0.25500000920E-02 0. -1.
</event>
<event>
 5   0  0.9360689E-06  0.2946550E+04  0.7818609E-02  0.8259161E-01
        2   -1    0    0  501    0  0.00000000000E+00  0.00000000000E+00  0.10407733899E+04  0.10407733899E+04  0.25500000920E-02 0. -1.
       -2   -1    0    0    0  501  0.00000000000E+00  0.00000000000E+00 -0.20855056032E+04  0.20855056032E+04  0.25500000920E-02 0.  1.
    10030    2    1    2    0    0  0.00000000000E+00  0.00000000000E+00 -0.10447322133E+04  0.31262789931E+04  0.29465496679E+04 0.  0.
        5    1    3    3  502    0  0.72446765731E+02 -0.92718297022E+03  0.68995875758E+03  0.11580077596E+04  0.46999998093E+01 0. -1.
       -5    1    3    3    0  502 -0.72446765731E+02  0.92718297022E+03 -0.17346909709E+04  0.19682712335E+04  0.46999998093E+01 0.  1.
</event>
<event>
 5   0  0.3564340E-06  0.2819642E+04  0.7818609E-02  0.8297196E-01
       -1   -1    0    0    0  501  0.00000000000E+00  0.00000000000E+00  0.17115868679E+04  0.17115868679E+04  0.50400001928E-02 0. -1.
        1   -1    0    0  501    0  0.00000000000E+00  0.00000000000E+00 -0.11612586438E+04  0.11612586439E+04  0.50400001928E-02 0.  1.
    10030    2    1    2    0    0  0.00000000000E+00  0.00000000000E+00  0.55032822401E+03  0.28728455117E+04  0.28196418532E+04 0.  0.
        1    1    3    3  502    0 -0.51263673927E+03  0.12504654390E+04 -0.13382618224E+03  0.13580757298E+04  0.50400001928E-02 0.  1.
       -1    1    3    3    0  502  0.51263673927E+03 -0.12504654390E+04  0.68415440625E+03  0.15147697820E+04  0.50400001928E-02 0. -1.
</event>
<event>
 5   0  0.3649705E-06  0.2841572E+04  0.7818609E-02  0.8290477E-01
       -1   -1    0    0    0  501  0.00000000000E+00  0.00000000000E+00  0.81680820524E+03  0.81680820526E+03  0.50400001928E-02 0. -1.
        1   -1    0    0  501    0  0.00000000000E+00  0.00000000000E+00 -0.24713676862E+04  0.24713676862E+04  0.50400001928E-02 0.  1.
    10030    2    1    2    0    0  0.00000000000E+00  0.00000000000E+00 -0.16545594809E+04  0.32881758914E+04  0.28415723846E+04 0.  0.
        2    1    3    3  502    0 -0.11108919766E+04  0.41346260092E+03  0.79160925989E+02  0.11879809587E+04  0.25500000920E-02 0. -1.
       -2    1    3    3    0  502  0.11108919766E+04 -0.41346260092E+03 -0.17337204069E+04  0.21001949327E+04  0.25500000920E-02 0.  1.
</event>
<event>
 5   0  0.3564340E-06  0.2903559E+04  0.7818609E-02  0.8271819E-01
       -1   -1    0    0    0  501  0.00000000000E+00  0.00000000000E+00  0.74145178255E+03  0.74145178257E+03  0.50400001928E-02 0.  1.
        1   -1    0    0  501    0  0.00000000000E+00  0.00000000000E+00 -0.28426164899E+04  0.28426164899E+04  0.50400001928E-02 0. -1.
    10030    2    1    2    0    0  0.00000000000E+00  0.00000000000E+00 -0.21011647073E+04  0.35840682724E+04  0.29035585502E+04 0.  0.
        1    1    3    3  502    0  0.27127479726E+03 -0.13080876002E+04 -0.17520916312E+04  0.22032948667E+04  0.50400001928E-02 0. -1.
       -1    1    3    3    0  502 -0.27127479726E+03  0.13080876002E+04 -0.34907307612E+03  0.13807734057E+04  0.50400001928E-02 0.  1.
</event>
<event>
 5   0  0.9360689E-06  0.2843346E+04  0.7818609E-02  0.8289936E-01
       -2   -1    0    0    0  501  0.00000000000E+00  0.00000000000E+00  0.13309076406E+04  0.13309076406E+04  0.25500000920E-02 0.  1.
        2   -1    0    0  501    0  0.00000000000E+00  0.00000000000E+00 -0.15186280456E+04  0.15186280456E+04  0.25500000920E-02 0. -1.
    10030    2    1    2    0    0  0.00000000000E+00  0.00000000000E+00 -0.18772040504E+03  0.28495356861E+04  0.28433456836E+04 0.  0.
        5    1    3    3  502    0 -0.95743141334E+03 -0.81315831323E+03 -0.76106494068E+03  0.14687216508E+04  0.46999998093E+01 0. -1.
       -5    1    3    3    0  502  0.95743141334E+03  0.81315831323E+03  0.57334453564E+03  0.13808140353E+04  0.46999998093E+01 0.  1.
</event>
<event>
 5   0  0.3486236E-06  0.2890943E+04  0.7818609E-02  0.8275577E-01
       -1   -1    0    0    0  501  0.00000000000E+00  0.00000000000E+00  0.14403782188E+04  0.14403782188E+04  0.50400001928E-02 0. -1.
        1   -1    0    0  501    0  0.00000000000E+00  0.00000000000E+00 -0.14505825621E+04  0.14505825621E+04  0.50400001928E-02 0.  1.
    10030    2    1    2    0    0  0.00000000000E+00  0.00000000000E+00 -0.10204343252E+02  0.28909607809E+04  0.28909427715E+04 0.  0.
        5    1    3    3  502    0  0.12966687119E+04 -0.16091471615E+03  0.61306196821E+03  0.14432984310E+04  0.46999998093E+01 0. -1.
       -5    1    3    3    0  502 -0.12966687119E+04  0.16091471615E+03 -0.62326631146E+03  0.14476623499E+04  0.46999998093E+01 0.  1.
</event>
<event>
 5   0  0.3474078E-06  0.2965934E+04  0.7818609E-02  0.8253526E-01
        1   -1    0    0  501    0  0.00000000000E+00  0.00000000000E+00  0.26631972200E+04  0.26631972200E+04  0.50400001928E-02 0. -1.
       -1   -1    0    0    0  501  0.00000000000E+00  0.00000000000E+00 -0.82577096477E+03  0.82577096478E+03  0.50400001928E-02 0.  1.
    10030    2    1    2    0    0  0.00000000000E+00  0.00000000000E+00  0.18374262552E+04  0.34889681847E+04  0.29659338750E+04 0.  0.
        3    1    3    3  502    0 -0.44013051962E+03 -0.12059153174E+04  0.45324362588E+02  0.12845236219E+04  0.10100000352E+00 0.  1.
       -3    1    3    3    0  502  0.44013051962E+03  0.12059153174E+04  0.17921018926E+04  0.22044445629E+04  0.10100000352E+00 0. -1.
</event>
<event>
 5   0  0.1001573E-05  0.2879384E+04  0.7818609E-02  0.8279038E-01
       -2   -1    0    0    0  501  0.00000000000E+00  0.00000000000E+00  0.96422781069E+03  0.96422781070E+03  0.25500000920E-02 0. -1.
        2   -1    0    0  501    0  0.00000000000E+00  0.00000000000E+00 -0.21496097759E+04  0.21496097759E+04  0.25500000920E-02 0.  1.
    10030    2    1    2    0    0  0.00000000000E+00  0.00000000000E+00 -0.11853819652E+04  0.31138375866E+04  0.28793843287E+04 0.  0.
        1    1    3    3  502    0  0.10878983474E+04 -0.32048240302E+03  0.36635767726E+03  0.11918262175E+04  0.50400001928E-02 0. -1.
       -1    1    3    3    0  502 -0.10878983474E+04  0.32048240302E+03 -0.15517396424E+04  0.19220113691E+04  0.50400001928E-02 0.  1.
</event>
<event>
 5   0  0.3474078E-06  0.2888229E+04  0.7818609E-02  0.8276388E-01
        1   -1    0    0  501    0  0.00000000000E+00  0.00000000000E+00  0.11463541940E+04  0.11463541940E+04  0.50400001928E-02 0.  1.
       -1   -1    0    0    0  501  0.00000000000E+00  0.00000000000E+00 -0.18192164169E+04  0.18192164169E+04  0.50400001928E-02 0. -1.
    10030    2    1    2    0    0  0.00000000000E+00  0.00000000000E+00 -0.67286222290E+03  0.29655706109E+04  0.28882287785E+04 0.  0.
        3    1    3    3  502    0  0.10840842851E+04  0.37641581265E+03  0.56370786064E+03  0.12785515882E+04  0.10100000352E+00 0.  1.
       -3    1    3    3    0  502 -0.10840842851E+04 -0.37641581265E+03 -0.12365700835E+04  0.16870190227E+04  0.10100000352E+00 0. -1.
</event>
<event>
 5   0  0.9646321E-06  0.2868918E+04  0.7818609E-02  0.8282186E-01
        2   -1    0    0  501    0  0.00000000000E+00  0.00000000000E+00  0.21309628191E+04  0.21309628191E+04  0.25500000920E-02 0.  1.
       -2   -1    0    0    0  501  0.00000000000E+00  0.00000000000E+00 -0.96560695465E+03  0.96560695465E+03  0.25500000920E-02 0. -1.
    10030    2    1    2    0    0  0.00000000000E+00  0.00000000000E+00  0.11653558645E+04  0.30965697738E+04  0.28689179272E+04 0.  0.
        3    1    3    3  502    0 -0.31819694943E+03 -0.13727418098E+04  0.29305133426E+03  0.14392874868E+04  0.10100000352E+00 0.  1.
       -3    1    3    3    0  502  0.31819694943E+03  0.13727418098E+04  0.87230453019E+03  0.16572822869E+04  0.10100000352E+00 0. -1.
</event>
<event>
 5   0  0.3564340E-06  0.2878870E+04  0.7818609E-02  0.8279192E-01
        1   -1    0    0  501    0  0.00000000000E+00  0.00000000000E+00  0.16126675467E+04  0.16126675467E+04  0.50400001928E-02 0.  1.
       -1   -1    0    0    0  501  0.00000000000E+00  0.00000000000E+00 -0.12848111093E+04  0.12848111093E+04  0.50400001928E-02 0. -1.
    10030    2    1    2    0    0  0.00000000000E+00  0.00000000000E+00  0.32785643743E+03  0.28974786561E+04  0.28788700420E+04 0.  0.
        1    1    3    3  502    0 -0.72941232556E+03  0.95235400827E+03 -0.63679755405E+03  0.13581353477E+04  0.50400001928E-02 0. -1.
       -1    1    3    3    0  502  0.72941232556E+03 -0.95235400827E+03  0.96465399148E+03  0.15393433084E+04  0.50400001928E-02 0.  1.
</event>
<event>
 5   0  0.3564340E-06  0.2902306E+04  0.7818609E-02  0.8272192E-01
       -1   -1    0    0    0  501  0.00000000000E+00  0.00000000000E+00  0.91538572248E+03  0.91538572250E+03  0.50400001928E-02 0. -1.
        1   -1    0    0  501    0  0.00000000000E+00  0.00000000000E+00 -0.23005004436E+04  0.23005004436E+04  0.50400001928E-02 0.  1.
    10030    2    1    2    0    0  0.00000000000E+00  0.00000000000E+00 -0.13851147211E+04  0.32158861661E+04  0.29023061594E+04 0.  0.
        1    1    3    3  502    0  0.13859055400E+04 -0.37522268618E+03 -0.45929075443E+03  0.15074727948E+04  0.50400001928E-02 0.  1.
       -1    1    3    3    0  502 -0.13859055400E+04  0.37522268618E+03 -0.92582396669E+03  0.17084133713E+04  0.50400001928E-02 0. -1.
</event>
<event>
 5   0  0.1001573E-05  0.2865189E+04  0.7818609E-02  0.8283311E-01
       -2   -1    0    0    0  501  0.00000000000E+00  0.00000000000E+00  0.12861461525E+04  0.12861461525E+04  0.25500000920E-02 0. -1.
        2   -1    0    0  501    0  0.00000000000E+00  0.00000000000E+00 -0.15957178649E+04  0.15957178649E+04  0.25500000920E-02 0.  1.
    10030    2    1    2    0    0  0.00000000000E+00  0.00000000000E+00 -0.30957171241E+03  0.28818640174E+04  0.28651885749E+04 0.  0.
        1    1    3    3  502    0 -0.51425308331E+03 -0.36358647303E+03 -0.14490050134E+04  0.15799578747E+04  0.50400001928E-02 0.  1.
       -1    1    3    3    0  502  0.51425308331E+03  0.36358647303E+03  0.11394333010E+04  0.13019061427E+04  0.50400001928E-02 0. -1.
</event>
<event>
 5   0  0.3474078E-06  0.2884198E+04  0.7818609E-02  0.8277595E-01
       -1   -1    0    0    0  501  0.00000000000E+00  0.00000000000E+00  0.86170165285E+03  0.86170165286E+03  0.50400001928E-02 0. -1.
        1   -1    0    0  501    0  0.00000000000E+00  0.00000000000E+00 -0.24134217641E+04  0.24134217641E+04  0.50400001928E-02 0.  1.
    10030    2    1    2    0    0  0.00000000000E+00  0.00000000000E+00 -0.15517201113E+04  0.32751234170E+04  0.28841979982E+04 0.  0.
        3    1    3    3  502    0  0.13804066603E+04 -0.23707667418E+03 -0.11658014224E+04  0.18223119558E+04  0.10100000352E+00 0.  1.
       -3    1    3    3    0  502 -0.13804066603E+04  0.23707667418E+03 -0.38591868882E+03  0.14528114612E+04  0.10100000352E+00 0. -1.
</event>
<event>
 5   0  0.3564340E-06  0.2950576E+04  0.7818609E-02  0.8257987E-01
       -1   -1    0    0    0  501  0.00000000000E+00  0.00000000000E+00  0.13444865155E+04  0.13444865155E+04  0.50400001928E-02 0. -1.
        1   -1    0    0  501    0  0.00000000000E+00  0.00000000000E+00 -0.16188143493E+04  0.16188143493E+04  0.50400001928E-02 0.  1.
    10030    2    1    2    0    0  0.00000000000E+00  0.00000000000E+00 -0.27432783386E+03  0.29633008648E+04  0.29505755803E+04 0.  0.
        1    1    3    3  502    0 -0.52095441260E+03  0.93078560592E+03 -0.11607349413E+04  0.15764076085E+04  0.50400001928E-02 0.  1.
       -1    1    3    3    0  502  0.52095441260E+03 -0.93078560592E+03  0.88640710745E+03  0.13868932563E+04  0.50400001928E-02 0. -1.
</event>
<event>
 5   0  0.9646321E-06  0.2894720E+04  0.7818609E-02  0.8274450E-01
        2   -1    0    0  501    0  0.00000000000E+00  0.00000000000E+00  0.10420566373E+04  0.10420566373E+04  0.25500000920E-02 0. -1.
       -2   -1    0    0    0  501  0.00000000000E+00  0.00000000000E+00 -0.20103042414E+04  0.20103042414E+04  0.25500000920E-02 0.  1.
    10030    2    1    2    0    0  0.00000000000E+00  0.00000000000E+00 -0.96824760413E+03  0.30523608787E+04  0.28947199365E+04 0.  0.
        3    1    3    3  502    0  0.12750054122E+04  0.67911307515E+03 -0.38970711868E+03  0.14962302693E+04  0.10100000352E+00 0.  1.
       -3    1    3    3    0  502 -0.12750054122E+04 -0.67911307515E+03 -0.57854048545E+03  0.15561306094E+04  0.10100000352E+00 0. -1.
</event>
<event>
 5   0  0.9360689E-06  0.2291895E+04  0.7818609E-02  0.8481123E-01
        2   -1    0    0  501    0  0.00000000000E+00  0.00000000000E+00  0.11303528778E+04  0.11303528778E+04  0.25500000920E-02 0. -1.
       -2   -1    0    0    0  501  0.00000000000E+00  0.00000000000E+00 -0.11617577102E+04  0.11617577102E+04  0.25500000920E-02 0.  1.
    10030    2    1    2    0    0  0.00000000000E+00  0.00000000000E+00 -0.31404832346E+02  0.22921105880E+04  0.22918954348E+04 0.  0.
        5    1    3    3  502    0  0.10354021395E+04  0.14957914950E+02 -0.50655675438E+03  0.11527806232E+04  0.46999998093E+01 0. -1.
       -5    1    3    3    0  502 -0.10354021395E+04 -0.14957914950E+02  0.47515192203E+03  0.11393299648E+04  0.46999998093E+01 0.  1.
</event>
<event>
 5   0  0.9251510E-06  0.2864049E+04  0.7818609E-02  0.8283655E-01
       -2   -1    0    0    0  501  0.00000000000E+00  0.00000000000E+00  0.13627596695E+04  0.13627596695E+04  0.25500000920E-02 0. -1.
        2   -1    0    0  501    0  0.00000000000E+00  0.00000000000E+00 -0.15048098951E+04  0.15048098951E+04  0.25500000920E-02 0.  1.
    10030    2    1    2    0    0  0.00000000000E+00  0.00000000000E+00 -0.14205022567E+03  0.28675695646E+04  0.28640490466E+04 0.  0.
        2    1    3    3  502    0 -0.19450516855E+03  0.14039864056E+04 -0.27544303724E+03  0.14439109925E+04  0.25500000920E-02 0.  1.
       -2    1    3    3    0  502  0.19450516855E+03 -0.14039864056E+04  0.13339281157E+03  0.14236585721E+04  0.25500000920E-02 0. -1.
</event>
<event>
 5   0  0.9251510E-06  0.2819593E+04  0.7818609E-02  0.8297211E-01
       -2   -1    0    0    0  501  0.00000000000E+00  0.00000000000E+00  0.14655760098E+04  0.14655760098E+04  0.25500000920E-02 0. -1.
        2   -1    0    0  501    0  0.00000000000E+00  0.00000000000E+00 -0.13561395175E+04  0.13561395175E+04  0.25500000920E-02 0.  1.
    10030    2    1    2    0    0  0.00000000000E+00  0.00000000000E+00  0.10943649229E+03  0.28217155273E+04  0.28195925541E+04 0.  0.
        2    1    3    3  502    0 -0.44501926068E+03 -0.14656177889E+02 -0.12839243579E+04  0.13589402866E+04  0.25500000920E-02 0.  1.
       -2    1    3    3    0  502  0.44501926068E+03  0.14656177889E+02  0.13933608502E+04  0.14627752407E+04  0.25500000920E-02 0. -1.
</event>
<event>
 5   0  0.9646321E-06  0.2855400E+04  0.7818609E-02  0.8286272E-01
       -2   -1    0    0    0  501  0.00000000000E+00  0.00000000000E+00  0.11108011943E+04  0.11108011943E+04  0.25500000920E-02 0. -1.
        2   -1    0    0  501    0  0.00000000000E+00  0.00000000000E+00 -0.18350064958E+04  0.18350064958E+04  0.25500000920E-02 0.  1.
    10030    2    1    2    0    0  0.00000000000E+00  0.00000000000E+00 -0.72420530147E+03  0.29458076901E+04  0.28554000820E+04 0.  0.
        3    1    3    3  502    0  0.74128176624E+03  0.66226729414E+03  0.69515246012E+03  0.12129853993E+04  0.10100000352E+00 0. -1.
       -3    1    3    3    0  502 -0.74128176624E+03 -0.66226729414E+03 -0.14193577616E+04  0.17328222908E+04  0.10100000352E+00 0.  1.
</event>
<event>
 5   0  0.3649705E-06  0.2981632E+04  0.7818609E-02  0.8248995E-01
        1   -1    0    0  501    0  0.00000000000E+00  0.00000000000E+00  0.20025904830E+04  0.20025904830E+04  0.50400001928E-02 0.  1.
       -1   -1    0    0    0  501  0.00000000000E+00  0.00000000000E+00 -0.11098289320E+04  0.11098289320E+04  0.50400001928E-02 0. -1.
    10030    2    1    2    0    0  0.00000000000E+00  0.00000000000E+00  0.89276155101E+03  0.31124194151E+04  0.29816323429E+04 0.  0.
        2    1    3    3  502    0  0.40902019289E+03  0.41485945222E+03  0.18788451411E+04  0.19670955614E+04  0.25500000920E-02 0.  1.
       -2    1    3    3    0  502 -0.40902019289E+03 -0.41485945222E+03 -0.98608359008E+03  0.11453238537E+04  0.25500000920E-02 0. -1.
</event>
<event>
 5   0  0.1001573E-05  0.2888327E+04  0.7818609E-02  0.8276359E-01
       -2   -1    0    0    0  501  0.00000000000E+00  0.00000000000E+00  0.17773700318E+04  0.17773700318E+04  0.25500000920E-02 0.  1.
        2   -1    0    0  501    0  0.00000000000E+00  0.00000000000E+00 -0.11734235030E+04  0.11734235030E+04  0.25500000920E-02 0. -1.
    10030    2    1    2    0    0  0.00000000000E+00  0.00000000000E+00  0.60394652889E+03  0.29507935348E+04  0.28883266912E+04 0.  0.
        1    1    3    3  502    0  0.25556423734E+03  0.55509100572E+03 -0.10348247195E+04  0.12017908737E+04  0.50400001928E-02 0. -1.
       -1    1    3    3    0  502 -0.25556423734E+03 -0.55509100572E+03  0.16387712484E+04  0.17490026611E+04  0.50400001928E-02 0.  1.
</event>
<event>
 5   0  0.3474078E-06  0.2940949E+04  0.7818609E-02  0.8260797E-01
        1   -1    0    0  501    0  0.00000000000E+00  0.00000000000E+00  0.18278436798E+04  0.18278436798E+04  0.50400001928E-02 0.  1.
       -1   -1    0    0    0  501  0.00000000000E+00  0.00000000000E+00 -0.11829761708E+04  0.11829761708E+04  0.50400001928E-02 0. -1.
    10030    2    1    2    0    0  0.00000000000E+00  0.00000000000E+00  0.64486750896E+03  0.30108198507E+04  0.29409491782E+04 0.  0.
        3    1    3    3  502    0  0.71954365822E+03 -0.72999922406E+03 -0.75696517594E+03  0.12742206367E+04  0.10100000352E+00 0. -1.
       -3    1    3    3    0  502 -0.71954365822E+03  0.72999922406E+03  0.14018326849E+04  0.17365992139E+04  0.10100000352E+00 0.  1.
</event>
<event>
 5   0  0.3474078E-06  0.2892896E+04  0.7818609E-02  0.8274994E-01
       -1   -1    0    0    0  501  0.00000000000E+00  0.00000000000E+00  0.11036087128E+04  0.11036087128E+04  0.50400001928E-02 0.  1.
        1   -1    0    0  501    0  0.00000000000E+00  0.00000000000E+00 -0.18957916209E+04  0.18957916209E+04  0.50400001928E-02 0. -1.
    10030    2    1    2    0    0  0.00000000000E+00  0.00000000000E+00 -0.79218290812E+03  0.29994003336E+04  0.28928962307E+04 0.  0.
        3    1    3    3  502    0  0.86836484328E+03 -0.95325164100E+03 -0.10755546651E+04  0.16791557521E+04  0.10100000352E+00 0. -1.
       -3    1    3    3    0  502 -0.86836484328E+03  0.95325164100E+03  0.28337175700E+03  0.13202445815E+04  0.10100000352E+00 0.  1.
</event>
<event>
 5   0  0.3746518E-06  0.3344570E+04  0.7818609E-02  0.8151646E-01
        1   -1    0    0  501    0  0.00000000000E+00  0.00000000000E+00  0.17773830697E+04  0.17773830697E+04  0.50400001928E-02 0.  1.
       -1   -1    0    0    0  501  0.00000000000E+00  0.00000000000E+00 -0.15734017858E+04  0.15734017858E+04  0.50400001928E-02 0. -1.
    10030    2    1    2    0    0  0.00000000000E+00  0.00000000000E+00  0.20398128389E+03  0.33507848554E+04  0.33445703436E+04 0.  0.
        4    1    3    3  502    0  0.70036493694E+03  0.68788689361E+03  0.14583291460E+04  0.17579604473E+04  0.12699999809E+01 0.  1.
       -4    1    3    3    0  502 -0.70036493694E+03 -0.68788689361E+03 -0.12543478621E+04  0.15928244082E+04  0.12699999809E+01 0. -1.
</event>
<event>
 5   0  0.9505359E-06  0.2812739E+04  0.7818609E-02  0.8299324E-01
        2   -1    0    0  501    0  0.00000000000E+00  0.00000000000E+00  0.12146605243E+04  0.12146605243E+04  0.25500000920E-02 0. -1.
       -2   -1    0    0    0  501  0.00000000000E+00  0.00000000000E+00 -0.16283358929E+04  0.16283358929E+04  0.25500000920E-02 0.  1.
    10030    2    1    2    0    0  0.00000000000E+00  0.00000000000E+00 -0.41367536856E+03  0.28429964172E+04  0.28127391129E+04 0.  0.
        4    1    3    3  502    0  0.92230196875E+03  0.69114654753E+03  0.60777825043E+03  0.13029660342E+04  0.12699999809E+01 0. -1.
       -4    1    3    3    0  502 -0.92230196875E+03 -0.69114654753E+03 -0.10214536190E+04  0.15400303829E+04  0.12699999809E+01 0.  1.
</event>
<event>
 5   0  0.3474078E-06  0.2912538E+04  0.7818609E-02  0.8269157E-01
       -1   -1    0    0    0  501  0.00000000000E+00  0.00000000000E+00  0.10724833726E+04  0.10724833726E+04  0.50400001928E-02 0. -1.
        1   -1    0    0  501    0  0.00000000000E+00  0.00000000000E+00 -0.19773913870E+04  0.19773913870E+04  0.50400001928E-02 0.  1.
    10030    2    1    2    0    0  0.00000000000E+00  0.00000000000E+00 -0.90490801442E+03  0.30498747595E+04  0.29125379885E+04 0.  0.
        3    1    3    3  502    0  0.86343576126E+03  0.10356323010E+03 -0.16756409468E+04  0.18878610248E+04  0.10100000352E+00 0.  1.
       -3    1    3    3    0  502 -0.86343576126E+03 -0.10356323010E+03  0.77073293234E+03  0.11620137347E+04  0.10100000352E+00 0. -1.
</event>
<event>
 5   0  0.9360689E-06  0.2867827E+04  0.7818609E-02  0.8282515E-01
        2   -1    0    0  501    0  0.00000000000E+00  0.00000000000E+00  0.25464096233E+04  0.25464096233E+04  0.25500000920E-02 0. -1.
       -2   -1    0    0    0  501  0.00000000000E+00  0.00000000000E+00 -0.80745346507E+03  0.80745346507E+03  0.25500000920E-02 0.  1.
    10030    2    1    2    0    0  0.00000000000E+00  0.00000000000E+00  0.17389561582E+04  0.33538630884E+04  0.28678265455E+04 0.  0.
        5    1    3    3  502    0 -0.51942021835E+03 -0.93895863195E+03 -0.24284622077E+03  0.11001986424E+04  0.46999998093E+01 0.  1.
       -5    1    3    3    0  502  0.51942021835E+03  0.93895863195E+03  0.19818023790E+04  0.22536644460E+04  0.46999998093E+01 0. -1.
</event>
<event>
 5   0  0.3474078E-06  0.2889379E+04  0.7818609E-02  0.8276045E-01
       -1   -1    0    0    0  501  0.00000000000E+00  0.00000000000E+00  0.97461762508E+03  0.97461762509E+03  0.50400001928E-02 0. -1.
        1   -1    0    0  501    0  0.00000000000E+00  0.00000000000E+00 -0.21414835434E+04  0.21414835434E+04  0.50400001928E-02 0.  1.
    10030    2    1    2    0    0  0.00000000000E+00  0.00000000000E+00 -0.11668659183E+04  0.31161011685E+04  0.28893788988E+04 0.  0.
        3    1    3    3  502    0 -0.16175940906E+03  0.11456892756E+04 -0.15163899669E+04  0.19074088614E+04  0.10100000352E+00 0.  1.
       -3    1    3    3    0  502  0.16175940906E+03 -0.11456892756E+04  0.34952404858E+03  0.12086923071E+04  0.10100000352E+00 0. -1.
</event>
<event>
 5   0  0.1001573E-05  0.2986550E+04  0.7818609E-02  0.8247582E-01
       -2   -1    0    0    0  501  0.00000000000E+00  0.00000000000E+00  0.15460507037E+04  0.15460507037E+04  0.25500000920E-02 0.  1.
        2   -1    0    0  501    0  0.00000000000E+00  0.00000000000E+00 -0.14423006969E+04  0.14423006969E+04  0.25500000920E-02 0. -1.
    10030    2    1    2    0    0  0.00000000000E+00  0.00000000000E+00  0.10375000682E+03  0.29883514006E+04  0.29865498538E+04 0.  0.
        1    1    3    3  502    0 -0.43633402666E+03 -0.77403848496E+03  0.12527435494E+04  0.15358676244E+04  0.50400001928E-02 0.  1.
       -1    1    3    3    0  502  0.43633402666E+03  0.77403848496E+03 -0.11489935426E+04  0.14524837762E+04  0.50400001928E-02 0. -1.
</event>
<event>
 5   0  0.3474078E-06  0.2921401E+04  0.7818609E-02  0.8266538E-01
        1   -1    0    0  501    0  0.00000000000E+00  0.00000000000E+00  0.15621923693E+04  0.15621923694E+04  0.50400001928E-02 0.  1.
       -1   -1    0    0    0  501  0.00000000000E+00  0.00000000000E+00 -0.13658022119E+04  0.13658022120E+04  0.50400001928E-02 0. -1.
    10030    2    1    2    0    0  0.00000000000E+00  0.00000000000E+00  0.19639015740E+03  0.29279945813E+04  0.29214008924E+04 0.  0.
        3    1    3    3  502    0 -0.12000851906E+04  0.58709998771E+03 -0.49369257968E+03  0.14242974527E+04  0.10100000352E+00 0. -1.
       -3    1    3    3    0  502  0.12000851906E+04 -0.58709998771E+03  0.69008273708E+03  0.15036971286E+04  0.10100000352E+00 0.  1.
</event>
<event>
 5   0  0.9360689E-06  0.2796584E+04  0.7818609E-02  0.8304330E-01
        2   -1    0    0  501    0  0.00000000000E+00  0.00000000000E+00  0.16636389573E+04  0.16636389573E+04  0.25500000920E-02 0. -1.
       -2   -1    0    0    0  501  0.00000000000E+00  0.00000000000E+00 -0.11752673632E+04  0.11752673632E+04  0.25500000920E-02 0.  1.
    10030    2    1    2    0    0  0.00000000000E+00  0.00000000000E+00  0.48837159415E+03  0.28389063205E+04  0.27965840382E+04 0.  0.
        5    1    3    3  502    0 -0.96163345642E+02  0.78303614846E+03  0.14161290210E+04  0.16210602990E+04  0.46999998093E+01 0. -1.
       -5    1    3    3    0  502  0.96163345642E+02 -0.78303614846E+03 -0.92775742689E+03  0.12178460215E+04  0.46999998093E+01 0.  1.
</event>
<event>
 5   0  0.9646321E-06  0.2888304E+04  0.7818609E-02  0.8276366E-01
       -2   -1    0    0    0  501  0.00000000000E+00  0.00000000000E+00  0.89259317143E+03  0.89259317144E+03  0.25500000920E-02 0.  1.
        2   -1    0    0  501    0  0.00000000000E+00  0.00000000000E+00 -0.23365350564E+04  0.23365350564E+04  0.25500000920E-02 0. -1.
    10030    2    1    2    0    0  0.00000000000E+00  0.00000000000E+00 -0.14439418849E+04  0.32291282278E+04  0.28883041641E+04 0.  0.
        3    1    3    3  502    0 -0.12892822714E+04 -0.10487712945E+02 -0.14492877754E+04  0.19397922141E+04  0.10100000352E+00 0. -1.
       -3    1    3    3    0  502  0.12892822714E+04  0.10487712945E+02  0.53458904880E+01  0.12893360137E+04  0.10100000352E+00 0.  1.
</event>
<event>
 5   0  0.9646321E-06  0.2882544E+04  0.7818609E-02  0.8278090E-01
        2   -1    0    0  501    0  0.00000000000E+00  0.00000000000E+00  0.98622831882E+03  0.98622831882E+03  0.25500000920E-02 0.  1.
       -2   -1    0    0    0  501  0.00000000000E+00  0.00000000000E+00 -0.21062714631E+04  0.21062714631E+04  0.25500000920E-02 0. -1.
    10030    2    1    2    0    0  0.00000000000E+00  0.00000000000E+00 -0.11200431442E+04  0.30924997819E+04  0.28825437128E+04 0.  0.
        3    1    3    3  502    0 -0.62861394995E+03  0.14633169885E+03 -0.19425652394E+04  0.20469802597E+04  0.10100000352E+00 0. -1.
       -3    1    3    3    0  502  0.62861394995E+03 -0.14633169885E+03  0.82252209511E+03  0.10455195222E+04  0.10100000352E+00 0.  1.
</event>
<event>
 5   0  0.3564340E-06  0.2923213E+04  0.7818609E-02  0.8266004E-01
        1   -1    0    0  501    0  0.00000000000E+00  0.00000000000E+00  0.13410445338E+04  0.13410445338E+04  0.50400001928E-02 0. -1.
       -1   -1    0    0    0  501  0.00000000000E+00  0.00000000000E+00 -0.15930077041E+04  0.15930077041E+04  0.50400001928E-02 0.  1.
    10030    2    1    2    0    0  0.00000000000E+00  0.00000000000E+00 -0.25196317035E+03  0.29340522379E+04  0.29232134878E+04 0.  0.
        1    1    3    3  502    0  0.45660197219E+03  0.13356535089E+04  0.25468526370E+03  0.14343361672E+04  0.50400001928E-02 0. -1.
       -1    1    3    3    0  502 -0.45660197219E+03 -0.13356535089E+04 -0.50664843406E+03  0.14997160707E+04  0.50400001928E-02 0.  1.
</event>
<event>
 5   0  0.3746518E-06  0.2920963E+04  0.7818609E-02  0.8266668E-01
        1   -1    0    0  501    0  0.00000000000E+00  0.00000000000E+00  0.13793493193E+04  0.13793493193E+04  0.50400001928E-02 0.  1.
       -1   -1    0    0    0  501  0.00000000000E+00  0.00000000000E+00 -0.15463860264E+04  0.15463860264E+04  0.50400001928E-02 0. -1.
    10030    2    1    2    0    0  0.00000000000E+00  0.00000000000E+00 -0.16703670713E+03  0.29257353457E+04  0.29209632062E+04 0.  0.
        4    1    3    3  502    0  0.12323513658E+03  0.11430042336E+04 -0.98574482967E+03  0.15143777795E+04  0.12699999809E+01 0. -1.
       -4    1    3    3    0  502 -0.12323513658E+03 -0.11430042336E+04  0.81870812254E+03  0.14113575662E+04  0.12699999809E+01 0.  1.
</event>
<event>
 5   0  0.3564340E-06  0.2957443E+04  0.7818609E-02  0.8255989E-01
       -1   -1    0    0    0  501  0.00000000000E+00  0.00000000000E+00  0.99927083424E+03  0.99927083426E+03  0.50400001928E-02 0. -1.
        1   -1    0    0  501    0  0.00000000000E+00  0.00000000000E+00 -0.21882123663E+04  0.21882123663E+04  0.50400001928E-02 0.  1.
    10030    2    1    2    0    0  0.00000000000E+00  0.00000000000E+00 -0.11889415320E+04  0.31874832006E+04  0.29574426769E+04 0.  0.
        1    1    3    3  502    0  0.69035092437E+03 -0.74577050251E+03  0.56326085115E+03  0.11619039666E+04  0.50400001928E-02 0. -1.
       -1    1    3    3    0  502 -0.69035092437E+03  0.74577050251E+03 -0.17522023832E+04  0.20255792339E+04  0.50400001928E-02 0.  1.
</event>
<event>
 5   0  0.3188375E-06  0.2899426E+04  0.7818609E-02  0.8273048E-01
       -3   -1    0    0    0  501  0.00000000000E+00  0.00000000000E+00  0.12160520394E+04  0.12160520435E+04  0.10100000352E+00 0.  1.
        3   -1    0    0  501    0  0.00000000000E+00  0.00000000000E+00 -0.17282713044E+04  0.17282713073E+04  0.10100000352E+00 0. -1.
    10030    2    1    2    0    0  0.00000000000E+00  0.00000000000E+00 -0.51221926503E+03  0.29443233509E+04  0.28994260499E+04 0.  0.
        2    1    3    3  502    0  0.50181484170E+03 -0.13594887412E+04 -0.29723466321E+03  0.14793161318E+04  0.25500000920E-02 0. -1.
       -2    1    3    3    0  502 -0.50181484170E+03  0.13594887412E+04 -0.21498460181E+03  0.14650072191E+04  0.25500000920E-02 0.  1.
</event>
<event>
 5   0  0.3474078E-06  0.2961536E+04  0.7818609E-02  0.8254800E-01
        1   -1    0    0  501    0  0.00000000000E+00  0.00000000000E+00  0.21286124048E+04  0.21286124048E+04  0.50400001928E-02 0.  1.
       -1   -1    0    0    0  501  0.00000000000E+00  0.00000000000E+00 -0.10300957002E+04  0.10300957002E+04  0.50400001928E-02 0. -1.
    10030    2    1    2    0    0  0.00000000000E+00  0.00000000000E+00  0.10985167046E+04  0.31587081050E+04  0.29615364159E+04 0.  0.
        3    1    3    3  502    0 -0.49043698560E+03 -0.12686134530E+04 -0.75182418607E+02  0.13621897578E+04  0.10100000352E+00 0. -1.
       -3    1    3    3    0  502  0.49043698560E+03  0.12686134530E+04  0.11736991232E+04  0.17965183472E+04  0.10100000352E+00 0.  1.
</event>
<event>
 5   0  0.3746518E-06  0.2846458E+04  0.7818609E-02  0.8288988E-01
       -1   -1    0    0    0  501  0.00000000000E+00  0.00000000000E+00  0.10192374419E+04  0.10192374419E+04  0.50400001928E-02 0. -1.
        1   -1    0    0  501    0  0.00000000000E+00  0.00000000000E+00 -0.19873498431E+04  0.19873498431E+04  0.50400001928E-02 0.  1.
    10030    2    1    2    0    0  0.00000000000E+00  0.00000000000E+00 -0.96811240125E+03  0.30065872850E+04  0.28464584102E+04 0.  0.
        4    1    3    3  502    0  0.60983265614E+03 -0.95162964261E+03  0.42951925177E+03  0.12091249918E+04  0.12699999809E+01 0. -1.
       -4    1    3    3    0  502 -0.60983265614E+03  0.95162964261E+03 -0.13976316530E+04  0.17974622932E+04  0.12699999809E+01 0.  1.
</event>
<event>
 5   0  0.3649705E-06  0.2862517E+04  0.7818609E-02  0.8284118E-01
       -1   -1    0    0    0  501  0.00000000000E+00  0.00000000000E+00  0.71968803910E+03  0.71968803912E+03  0.50400001928E-02 0. -1.
        1   -1    0    0  501    0  0.00000000000E+00  0.00000000000E+00 -0.28463726156E+04  0.28463726156E+04  0.50400001928E-02 0.  1.
    10030    2    1    2    0    0  0.00000000000E+00  0.00000000000E+00 -0.21266845765E+04  0.35660606547E+04  0.28625166035E+04 0.  0.
        2    1    3    3  502    0 -0.53502859059E+02 -0.12279726114E+04 -0.19768647383E+04  0.23278259135E+04  0.25500000920E-02 0.  1.
       -2    1    3    3    0  502  0.53502859059E+02  0.12279726114E+04 -0.14981983818E+03  0.12382347411E+04  0.25500000920E-02 0. -1.
</event>
<event>
 5   0  0.9251510E-06  0.2923992E+04  0.7818609E-02  0.8265775E-01
        2   -1    0    0  501    0  0.00000000000E+00  0.00000000000E+00  0.18142260775E+04  0.18142260775E+04  0.25500000920E-02 0. -1.
       -2   -1    0    0    0  501  0.00000000000E+00  0.00000000000E+00 -0.11781511057E+04  0.11781511057E+04  0.25500000920E-02 0.  1.
    10030    2    1    2    0    0  0.00000000000E+00  0.00000000000E+00  0.63607497178E+03  0.29923771831E+04  0.29239921061E+04 0.  0.
        2    1    3    3  502    0  0.60879298813E+03  0.10058228820E+04 -0.57126446089E+03  0.13071540294E+04  0.25500000920E-02 0.  1.
       -2    1    3    3    0  502 -0.60879298813E+03 -0.10058228820E+04  0.12073394327E+04  0.16852231537E+04  0.25500000920E-02 0. -1.
</event>
<event>
 5   0  0.3486236E-06  0.2846488E+04  0.7818609E-02  0.8288979E-01
        1   -1    0    0  501    0  0.00000000000E+00  0.00000000000E+00  0.22215297791E+04  0.22215297791E+04  0.50400001928E-02 0. -1.
       -1   -1    0    0    0  501  0.00000000000E+00  0.00000000000E+00 -0.91181472884E+03  0.91181472886E+03  0.50400001928E-02 0.  1.
    10030    2    1    2    0    0  0.00000000000E+00  0.00000000000E+00  0.13097150503E+04  0.31333445080E+04  0.28464880630E+04 0.  0.
        5    1    3    3  502    0  0.64736578445E+02 -0.13805908071E+04  0.10287643991E+04  0.17229625882E+04  0.46999998093E+01 0. -1.
       -5    1    3    3    0  502 -0.64736578445E+02  0.13805908071E+04  0.28095065120E+03  0.14103819198E+04  0.46999998093E+01 0.  1.
</event>
<event>
 5   0  0.3474078E-06  0.2918296E+04  0.7818609E-02  0.8267455E-01
        1   -1    0    0  501    0  0.00000000000E+00  0.00000000000E+00  0.10511523833E+04  0.10511523833E+04  0.50400001928E-02 0. -1.
       -1   -1    0    0    0  501  0.00000000000E+00  0.00000000000E+00 -0.20255037450E+04  0.20255037450E+04  0.50400001928E-02 0.  1.
    10030    2    1    2    0    0  0.00000000000E+00  0.00000000000E+00 -0.97435136171E+03  0.30766561284E+04  0.29182961392E+04 0.  0.
        3    1    3    3  502    0  0.11399910928E+04 -0.90479579208E+03 -0.59713280206E+03  0.15731505683E+04  0.10100000352E+00 0.  1.
       -3    1    3    3    0  502 -0.11399910928E+04  0.90479579208E+03 -0.37721855966E+03  0.15035055600E+04  0.10100000352E+00 0. -1.
</event>
<event>
 5   0  0.9251510E-06  0.2782481E+04  0.7818609E-02  0.8308728E-01
        2   -1    0    0  501    0  0.00000000000E+00  0.00000000000E+00  0.21055042224E+04  0.21055042224E+04  0.25500000920E-02 0. -1.
       -2   -1    0    0    0  501  0.00000000000E+00  0.00000000000E+00 -0.91928127038E+03  0.91928127038E+03  0.25500000920E-02 0.  1.
    10030    2    1    2    0    0  0.00000000000E+00  0.00000000000E+00  0.11862229521E+04  0.30247854928E+04  0.27824813361E+04 0.  0.
        2    1    3    3  502    0  0.13603531098E+04 -0.29139648427E+03  0.60271860396E+03  0.15161603510E+04  0.25500000920E-02 0. -1.
       -2    1    3    3    0  502 -0.13603531098E+04  0.29139648427E+03  0.58350434809E+03  0.15086251418E+04  0.25500000920E-02 0.  1.
</event>
<event>
 5   0  0.3649705E-06  0.2874737E+04  0.7818609E-02  0.8280434E-01
       -1   -1    0    0    0  501  0.00000000000E+00  0.00000000000E+00  0.16088986513E+04  0.16088986513E+04  0.50400001928E-02 0. -1.
        1   -1    0    0  501    0  0.00000000000E+00  0.00000000000E+00 -0.12841256019E+04  0.12841256019E+04  0.50400001928E-02 0.  1.
    10030    2    1    2    0    0  0.00000000000E+00  0.00000000000E+00  0.32477304943E+03  0.28930242532E+04  0.28747368220E+04 0.  0.
        2    1    3    3  502    0 -0.21258367750E+03 -0.61609321064E+03 -0.11268819829E+04  0.13017778872E+04  0.25500000920E-02 0.  1.
       -2    1    3    3    0  502  0.21258367750E+03  0.61609321064E+03  0.14516550324E+04  0.15912463660E+04  0.25500000920E-02 0. -1.
</event>
<event>
 5   0  0.3486236E-06  0.2878923E+04  0.7818609E-02  0.8279176E-01
        1   -1    0    0  501    0  0.00000000000E+00  0.00000000000E+00  0.17781360762E+04  0.17781360762E+04  0.50400001928E-02 0.  1.
       -1   -1    0    0    0  501  0.00000000000E+00  0.00000000000E+00 -0.11652929622E+04  0.11652929622E+04  0.50400001928E-02 0. -1.
    10030    2    1    2    0    0  0.00000000000E+00  0.00000000000E+00  0.61284311402E+03  0.29434290385E+04  0.28789230316E+04 0.  0.
        5    1    3    3  502    0 -0.74840706291E+03  0.10301212821E+04  0.99285480384E+03  0.16146348625E+04  0.46999998093E+01 0.  1.
       -5    1    3    3    0  502  0.74840706291E+03 -0.10301212821E+04 -0.38001168982E+03  0.13287941760E+04  0.46999998093E+01 0. -1.
</event>
<event>
 5   0  0.1001573E-05  0.2939239E+04  0.7818609E-02  0.8261298E-01
        2   -1    0    0  501    0  0.00000000000E+00  0.00000000000E+00  0.25354449804E+04  0.25354449804E+04  0.25500000920E-02 0.  1.
       -2   -1    0    0    0  501  0.00000000000E+00  0.00000000000E+00 -0.85183529402E+03  0.85183529402E+03  0.25500000920E-02 0. -1.
    10030    2    1    2    0    0  0.00000000000E+00  0.00000000000E+00  0.16836096864E+04  0.33872802744E+04  0.29392390310E+04 0.  0.
        1    1    3    3  502    0 -0.22945796615E+03  0.11446561168E+03 -0.82585506625E+03  0.86474847497E+03  0.50400001928E-02 0. -1.
       -1    1    3    3    0  502  0.22945796615E+03 -0.11446561168E+03  0.25094647526E+04  0.25225317994E+04  0.50400001928E-02 0.  1.
</event>
<event>
 5   0  0.9251510E-06  0.2862764E+04  0.7818609E-02  0.8284043E-01
        2   -1    0    0  501    0  0.00000000000E+00  0.00000000000E+00  0.13335248640E+04  0.13335248640E+04  0.25500000920E-02 0. -1.
       -2   -1    0    0    0  501  0.00000000000E+00  0.00000000000E+00 -0.15364198153E+04  0.15364198153E+04  0.25500000920E-02 0.  1.
    10030    2    1    2    0    0  0.00000000000E+00  0.00000000000E+00 -0.20289495134E+03  0.28699446793E+04  0.28627637173E+04 0.  0.
        2    1    3    3  502    0  0.33290459918E+03 -0.10231228934E+04 -0.10478749281E+04  0.15018814175E+04  0.25500000920E-02 0.  1.
       -2    1    3    3    0  502 -0.33290459918E+03  0.10231228934E+04  0.84497997679E+03  0.13680632618E+04  0.25500000920E-02 0. -1.
</event>
<event>
 5   0  0.9505359E-06  0.2865204E+04  0.7818609E-02  0.8283306E-01
        2   -1    0    0  501    0  0.00000000000E+00  0.00000000000E+00  0.14834519821E+04  0.14834519821E+04  0.25500000920E-02 0.  1.
       -2   -1    0    0    0  501  0.00000000000E+00  0.00000000000E+00 -0.13834954679E+04  0.13834954679E+04  0.25500000920E-02 0. -1.
    10030    2    1    2    0    0  0.00000000000E+00  0.00000000000E+00  0.99956514180E+02  0.28669474500E+04  0.28652044214E+04 0.  0.
        4    1    3    3  502    0 -0.76065614317E+03 -0.62527871150E+03 -0.99122011337E+03  0.13971722017E+04  0.12699999809E+01 0. -1.
       -4    1    3    3    0  502  0.76065614317E+03  0.62527871150E+03  0.10911766275E+04  0.14697752483E+04  0.12699999809E+01 0.  1.
</event>
<event>
 5   0  0.9360689E-06  0.2883164E+04  0.7818609E-02  0.8277904E-01
        2   -1    0    0  501    0  0.00000000000E+00  0.00000000000E+00  0.11264992408E+04  0.11264992408E+04  0.25500000920E-02 0. -1.
       -2   -1    0    0    0  501  0.00000000000E+00  0.00000000000E+00 -0.18447931436E+04  0.18447931436E+04  0.25500000920E-02 0.  1.
    10030    2    1    2    0    0  0.00000000000E+00  0.00000000000E+00 -0.71829390282E+03  0.29712923844E+04  0.28831635927E+04 0.  0.
        5    1    3    3  502    0 -0.14010958148E+04  0.30890860154E+03 -0.21471318780E+03  0.14507301091E+04  0.46999998093E+01 0.  1.
       -5    1    3    3    0  502  0.14010958148E+04 -0.30890860154E+03 -0.50358071501E+03  0.15205622753E+04  0.46999998093E+01 0. -1.
</event>
<event>
 5   0  0.9505359E-06  0.2897425E+04  0.7818609E-02  0.8273644E-01
       -2   -1    0    0    0  501  0.00000000000E+00  0.00000000000E+00  0.10790256761E+04  0.10790256761E+04  0.25500000920E-02 0.  1.
        2   -1    0    0  501    0  0.00000000000E+00  0.00000000000E+00 -0.19450580249E+04  0.19450580249E+04  0.25500000920E-02 0. -1.
    10030    2    1    2    0    0  0.00000000000E+00  0.00000000000E+00 -0.86603234887E+03  0.30240837010E+04  0.28974247533E+04 0.  0.
        4    1    3    3  502    0 -0.60740428796E+03 -0.18768950631E+03  0.92565720170E+03  0.11229470993E+04  0.12699999809E+01 0.  1.
       -4    1    3    3    0  502  0.60740428796E+03  0.18768950631E+03 -0.17916895506E+04  0.19011366017E+04  0.12699999809E+01 0. -1.
</event>
<event>
 5   0  0.1001573E-05  0.2877431E+04  0.7818609E-02  0.8279624E-01
        2   -1    0    0  501    0  0.00000000000E+00  0.00000000000E+00  0.15275369370E+04  0.15275369370E+04  0.25500000920E-02 0.  1.
       -2   -1    0    0    0  501  0.00000000000E+00  0.00000000000E+00 -0.13550587008E+04  0.13550587008E+04  0.25500000920E-02 0. -1.
    10030    2    1    2    0    0  0.00000000000E+00  0.00000000000E+00  0.17247823625E+03  0.28825956378E+04  0.28774309495E+04 0.  0.
        1    1    3    3  502    0  0.82542993030E+03  0.50622429733E+03 -0.97976885246E+03  0.13775139249E+04  0.50400001928E-02 0. -1.
       -1    1    3    3    0  502 -0.82542993030E+03 -0.50622429733E+03  0.11522470887E+04  0.15050817129E+04  0.50400001928E-02 0.  1.
</event>
<event>
 5   0  0.3649705E-06  0.2922868E+04  0.7818609E-02  0.8266106E-01
       -1   -1    0    0    0  501  0.00000000000E+00  0.00000000000E+00  0.16870679588E+04  0.16870679588E+04  0.50400001928E-02 0. -1.
        1   -1    0    0  501    0  0.00000000000E+00  0.00000000000E+00 -0.12659771462E+04  0.12659771462E+04  0.50400001928E-02 0.  1.
    10030    2    1    2    0    0  0.00000000000E+00  0.00000000000E+00  0.42109081267E+03  0.29530451050E+04  0.29228680982E+04 0.  0.
        2    1    3    3  502    0 -0.87115718118E+03 -0.50891542004E+03  0.12787597520E+04  0.16288450640E+04  0.25500000920E-02 0. -1.
       -2    1    3    3    0  502  0.87115718118E+03  0.50891542004E+03 -0.85766893936E+03  0.13242000410E+04  0.25500000920E-02 0.  1.
</event>
<event>
 5   0  0.9251510E-06  0.2907932E+04  0.7818609E-02  0.8270521E-01
       -2   -1    0    0    0  501  0.00000000000E+00  0.00000000000E+00  0.72114381550E+03  0.72114381551E+03  0.25500000920E-02 0.  1.
        2   -1    0    0  501    0  0.00000000000E+00  0.00000000000E+00 -0.29314773312E+04  0.29314773312E+04  0.25500000920E-02 0. -1.
    10030    2    1    2    0    0  0.00000000000E+00  0.00000000000E+00 -0.22103335157E+04  0.36526211467E+04  0.29079317377E+04 0.  0.
        2    1    3    3  502    0  0.48895677693E+03 -0.64437073958E+03  0.41242811514E+03  0.90795888117E+03  0.25500000920E-02 0.  1.
       -2    1    3    3    0  502 -0.48895677693E+03  0.64437073958E+03 -0.26227616309E+04  0.27446622656E+04  0.25500000920E-02 0. -1.
</event>
<event>
 5   0  0.9646321E-06  0.2909566E+04  0.7818609E-02  0.8270037E-01
       -2   -1    0    0    0  501  0.00000000000E+00  0.00000000000E+00  0.13492252691E+04  0.13492252691E+04  0.25500000920E-02 0. -1.
        2   -1    0    0  501    0  0.00000000000E+00  0.00000000000E+00 -0.15685991894E+04  0.15685991894E+04  0.25500000920E-02 0.  1.
    10030    2    1    2    0    0  0.00000000000E+00  0.00000000000E+00 -0.21937392025E+03  0.29178244585E+04  0.29095660593E+04 0.  0.
        3    1    3    3  502    0 -0.67771767879E+03 -0.51206656954E+03  0.10747157647E+04  0.13698640111E+04  0.10100000352E+00 0. -1.
       -3    1    3    3    0  502  0.67771767879E+03  0.51206656954E+03 -0.12940896850E+04  0.15479604474E+04  0.10100000352E+00 0.  1.
</event>
<event>
 5   0  0.9360689E-06  0.2845046E+04  0.7818609E-02  0.8289418E-01
        2   -1    0    0  501    0  0.00000000000E+00  0.00000000000E+00  0.18277062839E+04  0.18277062839E+04  0.25500000920E-02 0. -1.
       -2   -1    0    0    0  501  0.00000000000E+00  0.00000000000E+00 -0.11071642437E+04  0.11071642437E+04  0.25500000920E-02 0.  1.
    10030    2    1    2    0    0  0.00000000000E+00  0.00000000000E+00  0.72054204018E+03  0.29348705276E+04  0.28450455501E+04 0.  0.
        5    1    3    3  502    0 -0.22345788400E+03 -0.56500354046E+02  0.18083074350E+04  0.18229436595E+04  0.46999998093E+01 0. -1.
       -5    1    3    3    0  502  0.22345788400E+03  0.56500354046E+02 -0.10877653949E+04  0.11119268682E+04  0.46999998093E+01 0.  1.
</event>
<event>
 5   0  0.1001573E-05  0.2891526E+04  0.7818609E-02  0.8275403E-01
        2   -1    0    0  501    0  0.00000000000E+00  0.00000000000E+00  0.20205946426E+04  0.20205946426E+04  0.25500000920E-02 0. -1.
       -2   -1    0    0    0  501  0.00000000000E+00  0.00000000000E+00 -0.10344632305E+04  0.10344632305E+04  0.25500000920E-02 0.  1.
    10030    2    1    2    0    0  0.00000000000E+00  0.00000000000E+00  0.98613141211E+03  0.30550578731E+04  0.28915261448E+04 0.  0.
        1    1    3    3  502    0  0.10186476500E+04 -0.59857198536E+03  0.13734366787E+04  0.18117007940E+04  0.50400001928E-02 0. -1.
       -1    1    3    3    0  502 -0.10186476500E+04  0.59857198536E+03 -0.38730526664E+03  0.12433570791E+04  0.50400001928E-02 0.  1.
</event>
<event>
 5   0  0.3564340E-06  0.2784539E+04  0.7818609E-02  0.8308085E-01
        1   -1    0    0  501    0  0.00000000000E+00  0.00000000000E+00  0.14928722997E+04  0.14928722998E+04  0.50400001928E-02 0. -1.
       -1   -1    0    0    0  501  0.00000000000E+00  0.00000000000E+00 -0.12984461331E+04  0.12984461331E+04  0.50400001928E-02 0.  1.
    10030    2    1    2    0    0  0.00000000000E+00  0.00000000000E+00  0.19442616664E+03  0.27913184329E+04  0.27845389312E+04 0.  0.
        1    1    3    3  502    0 -0.12666882940E+04  0.39836699657E+03  0.51682363332E+03  0.14248867205E+04  0.50400001928E-02 0. -1.
       -1    1    3    3    0  502  0.12666882940E+04 -0.39836699657E+03 -0.32239746668E+03  0.13664317124E+04  0.50400001928E-02 0.  1.
</event>
<event>
 5   0  0.9251510E-06  0.2895522E+04  0.7818609E-02  0.8274211E-01
        2   -1    0    0  501    0  0.00000000000E+00  0.00000000000E+00  0.24470514243E+04  0.24470514243E+04  0.25500000920E-02 0.  1.
       -2   -1    0    0    0  501  0.00000000000E+00  0.00000000000E+00 -0.85654615275E+03  0.85654615275E+03  0.25500000920E-02 0. -1.
    10030    2    1    2    0    0  0.00000000000E+00  0.00000000000E+00  0.15905052716E+04  0.33035975771E+04  0.28955223937E+04 0.  0.
        2    1    3    3  502    0  0.41176790961E+03 -0.13057404901E+04  0.25828452854E+03  0.13932774083E+04  0.25500000920E-02 0. -1.
       -2    1    3    3    0  502 -0.41176790961E+03  0.13057404901E+04  0.13322207431E+04  0.19103201688E+04  0.25500000920E-02 0.  1.
</event>
<event>
 5   0  0.3486236E-06  0.2177350E+04  0.7818609E-02  0.8527915E-01
        1   -1    0    0  501    0  0.00000000000E+00  0.00000000000E+00  0.11892506118E+04  0.11892506118E+04  0.50400001928E-02 0.  1.
       -1   -1    0    0    0  501  0.00000000000E+00  0.00000000000E+00 -0.99660502138E+03  0.99660502139E+03  0.50400001928E-02 0. -1.
    10030    2    1    2    0    0  0.00000000000E+00  0.00000000000E+00  0.19264559044E+03  0.21858556332E+04  0.21773498859E+04 0.  0.
        5    1    3    3  502    0  0.23953363514E+03 -0.54239140475E+03 -0.82027528076E+03  0.10121454562E+04  0.46999998093E+01 0. -1.
       -5    1    3    3    0  502 -0.23953363514E+03  0.54239140475E+03  0.10129208712E+04  0.11737101770E+04  0.46999998093E+01 0.  1.
</event>
<event>
 5   0  0.9360689E-06  0.2867351E+04  0.7818609E-02  0.8282658E-01
       -2   -1    0    0    0  501  0.00000000000E+00  0.00000000000E+00  0.18170575055E+04  0.18170575055E+04  0.25500000920E-02 0. -1.
        2   -1    0    0  501    0  0.00000000000E+00  0.00000000000E+00 -0.11311833457E+04  0.11311833457E+04  0.25500000920E-02 0.  1.
    10030    2    1    2    0    0  0.00000000000E+00  0.00000000000E+00  0.68587415979E+03  0.29482408511E+04  0.28673508249E+04 0.  0.
        5    1    3    3  502    0  0.96829627719E+03 -0.10536172312E+04  0.25273452644E+03  0.14531358440E+04  0.46999998093E+01 0. -1.
       -5    1    3    3    0  502 -0.96829627719E+03  0.10536172312E+04  0.43313963335E+03  0.14951050071E+04  0.46999998093E+01 0.  1.
</event>
<event>
 5   0  0.3746518E-06  0.2910087E+04  0.7818609E-02  0.8269883E-01
        1   -1    0    0  501    0  0.00000000000E+00  0.00000000000E+00  0.18010101266E+04  0.18010101266E+04  0.50400001928E-02 0.  1.
       -1   -1    0    0    0  501  0.00000000000E+00  0.00000000000E+00 -0.11755358254E+04  0.11755358254E+04  0.50400001928E-02 0. -1.
    10030    2    1    2    0    0  0.00000000000E+00  0.00000000000E+00  0.62547430127E+03  0.29765459520E+04  0.29100872329E+04 0.  0.
        4    1    3    3  502    0  0.42645112491E+03 -0.12003355823E+04 -0.40651772018E+03  0.13371328811E+04  0.12699999809E+01 0. -1.
       -4    1    3    3    0  502 -0.42645112491E+03  0.12003355823E+04  0.10319920214E+04  0.16394130709E+04  0.12699999809E+01 0.  1.
</event>
<event>
 5   0  0.9505359E-06  0.2753854E+04  0.7818609E-02  0.8317740E-01
        2   -1    0    0  501    0  0.00000000000E+00  0.00000000000E+00  0.17954105655E+04  0.17954105655E+04  0.25500000920E-02 0. -1.
       -2   -1    0    0    0  501  0.00000000000E+00  0.00000000000E+00 -0.10559859888E+04  0.10559859888E+04  0.25500000920E-02 0.  1.
    10030    2    1    2    0    0  0.00000000000E+00  0.00000000000E+00  0.73942457675E+03  0.28513965543E+04  0.27538543181E+04 0.  0.
        4    1    3    3  502    0 -0.10078294974E+04  0.89874575628E+03  0.90988850806E+02  0.13534196741E+04  0.12699999809E+01 0. -1.
       -4    1    3    3    0  502  0.10078294974E+04 -0.89874575628E+03  0.64843572594E+03  0.14979768803E+04  0.12699999809E+01 0.  1.
</event>
<event>
 5   0  0.3564340E-06  0.2924442E+04  0.7818609E-02  0.8265642E-01
        1   -1    0    0  501    0  0.00000000000E+00  0.00000000000E+00  0.10345572895E+04  0.10345572895E+04  0.50400001928E-02 0. -1.
       -1   -1    0    0    0  501  0.00000000000E+00  0.00000000000E+00 -0.20666710488E+04  0.20666710488E+04  0.50400001928E-02 0.  1.
    10030    2    1    2    0    0  0.00000000000E+00  0.00000000000E+00 -0.10321137593E+04  0.31012283383E+04  0.29244415525E+04 0.  0.
        1    1    3    3  502    0  0.66410058136E+03 -0.38276220284E+03  0.80443009389E+03  0.11111454730E+04  0.50400001928E-02 0. -1.
       -1    1    3    3    0  502 -0.66410058136E+03  0.38276220284E+03 -0.18365438532E+04  0.19900828653E+04  0.50400001928E-02 0.  1.
</event>
<event>
 5   0  0.1001573E-05  0.2893022E+04  0.7818609E-02  0.8274957E-01
        2   -1    0    0  501    0  0.00000000000E+00  0.00000000000E+00  0.14449361470E+04  0.14449361470E+04  0.25500000920E-02 0. -1.
       -2   -1    0    0    0  501  0.00000000000E+00  0.00000000000E+00 -0.14480876987E+04  0.14480876987E+04  0.25500000920E-02 0.  1.
    10030    2    1    2    0    0  0.00000000000E+00  0.00000000000E+00 -0.31515517581E+01  0.28930238457E+04  0.28930221291E+04 0.  0.
        1    1    3    3  502    0  0.41005146256E+03  0.18601524310E+03 -0.13762221412E+04  0.14480094111E+04  0.50400001928E-02 0.  1.
       -1    1    3    3    0  502 -0.41005146256E+03 -0.18601524310E+03  0.13730705894E+04  0.14450144346E+04  0.50400001928E-02 0. -1.
</event>
<event>
 5   0  0.3746518E-06  0.2920193E+04  0.7818609E-02  0.8266895E-01
       -1   -1    0    0    0  501  0.00000000000E+00  0.00000000000E+00  0.12018116596E+04  0.12018116596E+04  0.50400001928E-02 0. -1.
        1   -1    0    0  501    0  0.00000000000E+00  0.00000000000E+00 -0.17738906680E+04  0.17738906681E+04  0.50400001928E-02 0.  1.
    10030    2    1    2    0    0  0.00000000000E+00  0.00000000000E+00 -0.57207900842E+03  0.29757023277E+04  0.29201934784E+04 0.  0.
        4    1    3    3  502    0 -0.13330632090E+03 -0.26763037818E+03 -0.17423608640E+04  0.17678290607E+04  0.12699999809E+01 0.  1.
       -4    1    3    3    0  502  0.13330632090E+03  0.26763037818E+03  0.11702818556E+04  0.12078732670E+04  0.12699999809E+01 0. -1.
</event>
<event>
 5   0  0.9646321E-06  0.2892612E+04  0.7818609E-02  0.8275079E-01
        2   -1    0    0  501    0  0.00000000000E+00  0.00000000000E+00  0.13154723301E+04  0.13154723301E+04  0.25500000920E-02 0.  1.
       -2   -1    0    0    0  501  0.00000000000E+00  0.00000000000E+00 -0.15901520181E+04  0.15901520181E+04  0.25500000920E-02 0. -1.
    10030    2    1    2    0    0  0.00000000000E+00  0.00000000000E+00 -0.27467968793E+03  0.29056243482E+04  0.28926119550E+04 0.  0.
        3    1    3    3  502    0  0.12352775723E+03 -0.41040507941E+03 -0.15248971871E+04  0.15839832315E+04  0.10100000352E+00 0. -1.
       -3    1    3    3    0  502 -0.12352775723E+03  0.41040507941E+03  0.12502174992E+04  0.13216411168E+04  0.10100000352E+00 0.  1.
</event>
<event>
 5   0  0.3474078E-06  0.2869025E+04  0.7818609E-02  0.8282154E-01
        1   -1    0    0  501    0  0.00000000000E+00  0.00000000000E+00  0.17848947723E+04  0.17848947723E+04  0.50400001928E-02 0.  1.
       -1   -1    0    0    0  501  0.00000000000E+00  0.00000000000E+00 -0.11529116641E+04  0.11529116641E+04  0.50400001928E-02 0. -1.
    10030    2    1    2    0    0  0.00000000000E+00  0.00000000000E+00  0.63198310816E+03  0.29378064364E+04  0.28690249230E+04 0.  0.
        3    1    3    3  502    0 -0.82610187055E+03  0.57750666054E+03 -0.72919822542E+03  0.12440612146E+04  0.10100000352E+00 0. -1.
       -3    1    3    3    0  502  0.82610187055E+03 -0.57750666054E+03  0.13611813336E+04  0.16937452219E+04  0.10100000352E+00 0.  1.
</event>
<event>
 5   0  0.1001573E-05  0.2714994E+04  0.7818609E-02  0.8330156E-01
        2   -1    0    0  501    0  0.00000000000E+00  0.00000000000E+00  0.12499070326E+04  0.12499070326E+04  0.25500000920E-02 0. -1.
       -2   -1    0    0    0  501  0.00000000000E+00  0.00000000000E+00 -0.14743486366E+04  0.14743486366E+04  0.25500000920E-02 0.  1.
    10030    2    1    2    0    0  0.00000000000E+00  0.00000000000E+00 -0.22444160398E+03  0.27242556691E+04  0.27149944599E+04 0.  0.
        1    1    3    3  502    0  0.10930474110E+04  0.68424845283E+03 -0.53775484281E+03  0.13971860502E+04  0.50400001928E-02 0.  1.
       -1    1    3    3    0  502 -0.10930474110E+04 -0.68424845283E+03  0.31331323883E+03  0.13270696189E+04  0.50400001928E-02 0. -1.
</event>
<event>
 5   0  0.3746518E-06  0.2910616E+04  0.7818609E-02  0.8269726E-01
       -1   -1    0    0    0  501  0.00000000000E+00  0.00000000000E+00  0.12187609031E+04  0.12187609031E+04  0.50400001928E-02 0.  1.
        1   -1    0    0  501    0  0.00000000000E+00  0.00000000000E+00 -0.17377661147E+04  0.17377661147E+04  0.50400001928E-02 0. -1.
    10030    2    1    2    0    0  0.00000000000E+00  0.00000000000E+00 -0.51900521161E+03  0.29565270179E+04  0.29106160169E+04 0.  0.
        4    1    3    3  502    0  0.55907424974E+03 -0.78925652355E+03 -0.13640507252E+04  0.16721620348E+04  0.12699999809E+01 0. -1.
       -4    1    3    3    0  502 -0.55907424974E+03  0.78925652355E+03  0.84504551364E+03  0.12843649831E+04  0.12699999809E+01 0.  1.
</event>
<event>
 5   0  0.9646321E-06  0.3037383E+04  0.7818609E-02  0.8233136E-01
       -2   -1    0    0    0  501  0.00000000000E+00  0.00000000000E+00  0.11401548567E+04  0.11401548567E+04  0.25500000920E-02 0.  1.
        2   -1    0    0  501    0  0.00000000000E+00  0.00000000000E+00 -0.20229038653E+04  0.20229038653E+04  0.25500000920E-02 0. -1.
    10030    2    1    2    0    0  0.00000000000E+00  0.00000000000E+00 -0.88274900861E+03  0.31630587219E+04  0.30373828646E+04 0.  0.
        3    1    3    3  502    0 -0.14555117873E+04  0.42238113327E+03 -0.54289279294E+03  0.16098611678E+04  0.10100000352E+00 0. -1.
       -3    1    3    3    0  502  0.14555117873E+04 -0.42238113327E+03 -0.33985621567E+03  0.15531975542E+04  0.10100000352E+00 0.  1.
</event>
<event>
 5   0  0.3746518E-06  0.3053068E+04  0.7818609E-02  0.8228737E-01
       -1   -1    0    0    0  501  0.00000000000E+00  0.00000000000E+00  0.16384762224E+04  0.16384762224E+04  0.50400001928E-02 0. -1.
        1   -1    0    0  501    0  0.00000000000E+00  0.00000000000E+00 -0.14222397176E+04  0.14222397176E+04  0.50400001928E-02 0.  1.
    10030    2    1    2    0    0  0.00000000000E+00  0.00000000000E+00  0.21623650482E+03  0.30607159401E+04  0.30530679389E+04 0.  0.
        4    1    3    3  502    0 -0.14570075270E+04  0.40498694130E+03  0.31701246976E+03  0.15451161365E+04  0.12699999809E+01 0. -1.
       -4    1    3    3    0  502  0.14570075270E+04 -0.40498694130E+03 -0.10077596494E+03  0.15155998035E+04  0.12699999809E+01 0.  1.
</event>
<event>
 5   0  0.3188375E-06  0.2187863E+04  0.7818609E-02  0.8523497E-01
       -3   -1    0    0    0  501  0.00000000000E+00  0.00000000000E+00  0.12981349314E+04  0.12981349353E+04  0.10100000352E+00 0.  1.
        3   -1    0    0  501    0  0.00000000000E+00  0.00000000000E+00 -0.92185071227E+03  0.92185071780E+03  0.10100000352E+00 0. -1.
    10030    2    1    2    0    0  0.00000000000E+00  0.00000000000E+00  0.37628421912E+03  0.22199856531E+04  0.21878634524E+04 0.  0.
        2    1    3    3  502    0 -0.46420628905E+03  0.28847959024E+03  0.11496723873E+04  0.12729707581E+04  0.25500000920E-02 0.  1.
       -2    1    3    3    0  502  0.46420628905E+03 -0.28847959024E+03 -0.77338816817E+03  0.94701489505E+03  0.25500000920E-02 0. -1.
</event>
<event>
 5   0  0.3746518E-06  0.2867950E+04  0.7818609E-02  0.8282478E-01
        1   -1    0    0  501    0  0.00000000000E+00  0.00000000000E+00  0.13516786072E+04  0.13516786072E+04  0.50400001928E-02 0.  1.
       -1   -1    0    0    0  501  0.00000000000E+00  0.00000000000E+00 -0.15212819691E+04  0.15212819691E+04  0.50400001928E-02 0. -1.
    10030    2    1    2    0    0  0.00000000000E+00  0.00000000000E+00 -0.16960336192E+03  0.28729605764E+04  0.28679499949E+04 0.  0.
        4    1    3    3  502    0  0.81830934990E+03 -0.99538176729E+03 -0.71508104021E+03  0.14736884209E+04  0.12699999809E+01 0. -1.
       -4    1    3    3    0  502 -0.81830934990E+03  0.99538176729E+03  0.54547767829E+03  0.13992721555E+04  0.12699999809E+01 0.  1.
</event>
<event>
 5   0  0.3486236E-06  0.2837830E+04  0.7818609E-02  0.8291619E-01
        1   -1    0    0  501    0  0.00000000000E+00  0.00000000000E+00  0.12698315289E+04  0.12698315289E+04  0.50400001928E-02 0. -1.
       -1   -1    0    0    0  501  0.00000000000E+00  0.00000000000E+00 -0.15855012545E+04  0.15855012545E+04  0.50400001928E-02 0.  1.
    10030    2    1    2    0    0  0.00000000000E+00  0.00000000000E+00 -0.31566972558E+03  0.28553327834E+04  0.28378297920E+04 0.  0.
        5    1    3    3  502    0 -0.15420199688E+03 -0.61131721578E+03  0.11211505383E+04  0.12862688730E+04  0.46999998093E+01 0. -1.
       -5    1    3    3    0  502  0.15420199688E+03  0.61131721578E+03 -0.14368202639E+04  0.15690639104E+04  0.46999998093E+01 0.  1.
</event>
<event>
 5   0  0.9251510E-06  0.2892746E+04  0.7818609E-02  0.8275039E-01
        2   -1    0    0  501    0  0.00000000000E+00  0.00000000000E+00  0.17165730705E+04  0.17165730705E+04  0.25500000920E-02 0. -1.
       -2   -1    0    0    0  501  0.00000000000E+00  0.00000000000E+00 -0.12187044328E+04  0.12187044328E+04  0.25500000920E-02 0.  1.
    10030    2    1    2    0    0  0.00000000000E+00  0.00000000000E+00  0.49786863769E+03  0.29352775033E+04  0.28927462455E+04 0.  0.
        2    1    3    3  502    0 -0.45514896925E+03  0.22144812327E+03 -0.11259018874E+04  0.12344451853E+04  0.25500000920E-02 0.  1.
       -2    1    3    3    0  502  0.45514896925E+03 -0.22144812327E+03  0.16237705251E+04  0.17008323179E+04  0.25500000920E-02 0. -1.
</event>
<event>
 5   0  0.9505359E-06  0.2771702E+04  0.7818609E-02  0.8312108E-01
        2   -1    0    0  501    0  0.00000000000E+00  0.00000000000E+00  0.13519802263E+04  0.13519802263E+04  0.25500000920E-02 0.  1.
       -2   -1    0    0    0  501  0.00000000000E+00  0.00000000000E+00 -0.14205698698E+04  0.14205698699E+04  0.25500000920E-02 0. -1.
    10030    2    1    2    0    0  0.00000000000E+00  0.00000000000E+00 -0.68589643584E+02  0.27725500961E+04  0.27717015525E+04 0.  0.
        4    1    3    3  502    0  0.70086284527E+03 -0.11460427535E+04 -0.37492519514E+03  0.13947018447E+04  0.12699999809E+01 0. -1.
       -4    1    3    3    0  502 -0.70086284527E+03  0.11460427535E+04  0.30633555156E+03  0.13778482514E+04  0.12699999809E+01 0.  1.
</event>
<event>
 5   0  0.9360689E-06  0.2954722E+04  0.7818609E-02  0.8256780E-01
        2   -1    0    0  501    0  0.00000000000E+00  0.00000000000E+00  0.17997961996E+04  0.17997961996E+04  0.25500000920E-02 0. -1.
       -2   -1    0    0    0  501  0.00000000000E+00  0.00000000000E+00 -0.12126905332E+04  0.12126905332E+04  0.25500000920E-02 0.  1.
    10030    2    1    2    0    0  0.00000000000E+00  0.00000000000E+00  0.58710566642E+03  0.30124867329E+04  0.29547221954E+04 0.  0.
        5    1    3    3  502    0 -0.74205878916E+03 -0.29169170442E+03  0.15615870258E+04  0.17533714456E+04  0.46999998093E+01 0. -1.
       -5    1    3    3    0  502  0.74205878916E+03  0.29169170442E+03 -0.97448135937E+03  0.12591152873E+04  0.46999998093E+01 0.  1.
</event>
<event>
 5   0  0.9360689E-06  0.2868864E+04  0.7818609E-02  0.8282202E-01
       -2   -1    0    0    0  501  0.00000000000E+00  0.00000000000E+00  0.90083525866E+03  0.90083525867E+03  0.25500000920E-02 0. -1.
        2   -1    0    0  501    0  0.00000000000E+00  0.00000000000E+00 -0.22840965341E+04  0.22840965341E+04  0.25500000920E-02 0.  1.
    10030    2    1    2    0    0  0.00000000000E+00  0.00000000000E+00 -0.13832612754E+04  0.31849317928E+04  0.28688636720E+04 0.  0.
        5    1    3    3  502    0 -0.32181823864E+03  0.84265109691E+03  0.54656928089E+03  0.10546980225E+04  0.46999998093E+01 0. -1.
       -5    1    3    3    0  502  0.32181823864E+03 -0.84265109691E+03 -0.19298305563E+04  0.21302337703E+04  0.46999998093E+01 0.  1.
</event>
<event>
 5   0  0.3746518E-06  0.2742996E+04  0.7818609E-02  0.8321188E-01
        1   -1    0    0  501    0  0.00000000000E+00  0.00000000000E+00  0.10955516979E+04  0.10955516979E+04  0.50400001928E-02 0.  1.
       -1   -1    0    0    0  501  0.00000000000E+00  0.00000000000E+00 -0.17169493051E+04  0.17169493051E+04  0.50400001928E-02 0. -1.
    10030    2    1    2    0    0  0.00000000000E+00  0.00000000000E+00 -0.62139760724E+03  0.28125010030E+04  0.27429959726E+04 0.  0.
        4    1    3    3  502    0  0.34570715253E+03  0.13258506433E+04 -0.37231946467E+03  0.14198650500E+04  0.12699999809E+01 0. -1.
       -4    1    3    3    0  502 -0.34570715253E+03 -0.13258506433E+04 -0.24907814257E+03  0.13926359530E+04  0.12699999809E+01 0.  1.
</event>
<event>
 5   0  0.3564340E-06  0.2893242E+04  0.7818609E-02  0.8274891E-01
        1   -1    0    0  501    0  0.00000000000E+00  0.00000000000E+00  0.17012238858E+04  0.17012238858E+04  0.50400001928E-02 0.  1.
       -1   -1    0    0    0  501  0.00000000000E+00  0.00000000000E+00 -0.12301213970E+04  0.12301213970E+04  0.50400001928E-02 0. -1.
    10030    2    1    2    0    0  0.00000000000E+00  0.00000000000E+00  0.47110248881E+03  0.29313452828E+04  0.28932417133E+04 0.  0.
        1    1    3    3  502    0  0.58666447075E+02  0.45642829092E+03  0.16250882549E+04  0.16889879730E+04  0.50400001928E-02 0.  1.
       -1    1    3    3    0  502 -0.58666447075E+02 -0.45642829092E+03 -0.11539857661E+04  0.12423573098E+04  0.50400001928E-02 0. -1.
</event>
<event>
 5   0  0.9646321E-06  0.2892982E+04  0.7818609E-02  0.8274968E-01
        2   -1    0    0  501    0  0.00000000000E+00  0.00000000000E+00  0.13371616295E+04  0.13371616295E+04  0.25500000920E-02 0. -1.
       -2   -1    0    0    0  501  0.00000000000E+00  0.00000000000E+00 -0.15647597398E+04  0.15647597398E+04  0.25500000920E-02 0.  1.
    10030    2    1    2    0    0  0.00000000000E+00  0.00000000000E+00 -0.22759811030E+03  0.29019213694E+04  0.28929823253E+04 0.  0.
        3    1    3    3  502    0  0.64880094829E+03 -0.59971026079E+02 -0.14092217961E+04  0.15525608765E+04  0.10100000352E+00 0.  1.
       -3    1    3    3    0  502 -0.64880094829E+03  0.59971026079E+02  0.11816236858E+04  0.13493604928E+04  0.10100000352E+00 0. -1.
</event>
<event>
 5   0  0.1001573E-05  0.2910227E+04  0.7818609E-02  0.8269841E-01
        2   -1    0    0  501    0  0.00000000000E+00  0.00000000000E+00  0.25653668551E+04  0.25653668551E+04  0.25500000920E-02 0.  1.
       -2   -1    0    0    0  501  0.00000000000E+00  0.00000000000E+00 -0.82536181912E+03  0.82536181912E+03  0.25500000920E-02 0. -1.
    10030    2    1    2    0    0  0.00000000000E+00  0.00000000000E+00  0.17400050360E+04  0.33907286742E+04  0.29102273824E+04 0.  0.
        1    1    3    3  502    0 -0.19244000134E+03 -0.76317600949E+03 -0.55595098215E+03  0.96361417079E+03  0.50400001928E-02 0. -1.
       -1    1    3    3    0  502  0.19244000134E+03  0.76317600949E+03  0.22959560181E+04  0.24271145034E+04  0.50400001928E-02 0.  1.
</event>
<event>
 5   0  0.9360689E-06  0.2902416E+04  0.7818609E-02  0.8272159E-01
       -2   -1    0    0    0  501  0.00000000000E+00  0.00000000000E+00  0.10977637606E+04  0.10977637606E+04  0.25500000920E-02 0. -1.
        2   -1    0    0  501    0  0.00000000000E+00  0.00000000000E+00 -0.19184500305E+04  0.19184500305E+04  0.25500000920E-02 0.  1.
    10030    2    1    2    0    0  0.00000000000E+00  0.00000000000E+00 -0.82068626987E+03  0.30162137910E+04  0.29024161796E+04 0.  0.
        5    1    3    3  502    0 -0.38882946108E+03 -0.13294105468E+04 -0.86028784324E+03  0.16305330463E+04  0.46999998093E+01 0.  1.
       -5    1    3    3    0  502  0.38882946108E+03  0.13294105468E+04  0.39601573370E+02  0.13856807448E+04  0.46999998093E+01 0. -1.
</event>
<event>
 5   0  0.3474078E-06  0.2790576E+04  0.7818609E-02  0.8306200E-01
        1   -1    0    0  501    0  0.00000000000E+00  0.00000000000E+00  0.10357073622E+04  0.10357073622E+04  0.50400001928E-02 0.  1.
       -1   -1    0    0    0  501  0.00000000000E+00  0.00000000000E+00 -0.18797096245E+04  0.18797096245E+04  0.50400001928E-02 0. -1.
    10030    2    1    2    0    0  0.00000000000E+00  0.00000000000E+00 -0.84400226225E+03  0.29154169867E+04  0.27905763541E+04 0.  0.
        3    1    3    3  502    0 -0.13709814320E+04  0.24686306213E+03 -0.33909335179E+03  0.14337070028E+04  0.10100000352E+00 0. -1.
       -3    1    3    3    0  502  0.13709814320E+04 -0.24686306213E+03 -0.50490891046E+03  0.14817099839E+04  0.10100000352E+00 0.  1.
</event>
<event>
 5   0  0.9251510E-06  0.2767211E+04  0.7818609E-02  0.8313521E-01
       -2   -1    0    0    0  501  0.00000000000E+00  0.00000000000E+00  0.72006093549E+03  0.72006093550E+03  0.25500000920E-02 0. -1.
        2   -1    0    0  501    0  0.00000000000E+00  0.00000000000E+00 -0.26586139624E+04  0.26586139624E+04  0.25500000920E-02 0.  1.
    10030    2    1    2    0    0  0.00000000000E+00  0.00000000000E+00 -0.19385530269E+04  0.33786748979E+04  0.27672109113E+04 0.  0.
        2    1    3    3  502    0  0.39136260701E+03 -0.81637698268E+02  0.64800312502E+03  0.76140492118E+03  0.25500000920E-02 0. -1.
       -2    1    3    3    0  502 -0.39136260701E+03  0.81637698268E+02 -0.25865561519E+04  0.26172699767E+04  0.25500000920E-02 0.  1.
</event>
<event>
 5   0  0.3564340E-06  0.2874837E+04  0.7818609E-02  0.8280404E-01
        1   -1    0    0  501    0  0.00000000000E+00  0.00000000000E+00  0.24568900481E+04  0.24568900481E+04  0.50400001928E-02 0.  1.
       -1   -1    0    0    0  501  0.00000000000E+00  0.00000000000E+00 -0.84097059159E+03  0.84097059161E+03  0.50400001928E-02 0. -1.
    10030    2    1    2    0    0  0.00000000000E+00  0.00000000000E+00  0.16159194565E+04  0.32978606398E+04  0.28748372318E+04 0.  0.
        1    1    3    3  502    0  0.88945402287E+03  0.80077765559E+03  0.17212204959E+04  0.20964191633E+04  0.50400001928E-02 0.  1.
       -1    1    3    3    0  502 -0.88945402287E+03 -0.80077765559E+03 -0.10530103938E+03  0.12014414765E+04  0.50400001928E-02 0. -1.
</event>
<event>
 5   0  0.9646321E-06  0.2996721E+04  0.7818609E-02  0.8244668E-01
        2   -1    0    0  501    0  0.00000000000E+00  0.00000000000E+00  0.20305785255E+04  0.20305785255E+04  0.25500000920E-02 0. -1.
       -2   -1    0    0    0  501  0.00000000000E+00  0.00000000000E+00 -0.11056373810E+04  0.11056373810E+04  0.25500000920E-02 0.  1.
    10030    2    1    2    0    0  0.00000000000E+00  0.00000000000E+00  0.92494114454E+03  0.31362159065E+04  0.29967205561E+04 0.  0.
        3    1    3    3  502    0 -0.51552215109E+03 -0.13333461823E+04  0.93226327288E+03  0.17066604672E+04  0.10100000352E+00 0. -1.
       -3    1    3    3    0  502  0.51552215109E+03  0.13333461823E+04 -0.73221283411E+01  0.14295554393E+04  0.10100000352E+00 0.  1.
</event>
<event>
 5   0  0.9251510E-06  0.2935859E+04  0.7818609E-02  0.8262288E-01
        2   -1    0    0  501    0  0.00000000000E+00  0.00000000000E+00  0.23318892105E+04  0.23318892105E+04  0.25500000920E-02 0.  1.
       -2   -1    0    0    0  501  0.00000000000E+00  0.00000000000E+00 -0.92406464302E+03  0.92406464303E+03  0.25500000920E-02 0. -1.
    10030    2    1    2    0    0  0.00000000000E+00  0.00000000000E+00  0.14078245675E+04  0.32559538536E+04  0.29358585599E+04 0.  0.
        2    1    3    3  502    0 -0.13090022257E+04 -0.28607527643E+03  0.38965623146E+02  0.13404641772E+04  0.25500000920E-02 0.  1.
       -2    1    3    3    0  502  0.13090022257E+04  0.28607527643E+03  0.13688589444E+04  0.19154896763E+04  0.25500000920E-02 0. -1.
</event>
<event>
 5   0  0.3564340E-06  0.2936075E+04  0.7818609E-02  0.8262224E-01
        1   -1    0    0  501    0  0.00000000000E+00  0.00000000000E+00  0.20470261079E+04  0.20470261079E+04  0.50400001928E-02 0. -1.
       -1   -1    0    0    0  501  0.00000000000E+00  0.00000000000E+00 -0.10528123535E+04  0.10528123535E+04  0.50400001928E-02 0.  1.
    10030    2    1    2    0    0  0.00000000000E+00  0.00000000000E+00  0.99421375440E+03  0.30998384614E+04  0.29360751859E+04 0.  0.
        1    1    3    3  502    0  0.50097286152E+03 -0.95367944290E+03  0.15500583639E+04  0.18876332322E+04  0.50400001928E-02 0. -1.
       -1    1    3    3    0  502 -0.50097286152E+03  0.95367944290E+03 -0.55584460947E+03  0.12122052292E+04  0.50400001928E-02 0.  1.
</event>
<event>
 5   0  0.9360689E-06  0.2965835E+04  0.7818609E-02  0.8253555E-01
       -2   -1    0    0    0  501  0.00000000000E+00  0.00000000000E+00  0.22853241413E+04  0.22853241413E+04  0.25500000920E-02 0.  1.
        2   -1    0    0  501    0  0.00000000000E+00  0.00000000000E+00 -0.96224590237E+03  0.96224590238E+03  0.25500000920E-02 0. -1.
    10030    2    1    2    0    0  0.00000000000E+00  0.00000000000E+00  0.13230782389E+04  0.32475700437E+04  0.29658346485E+04 0.  0.
        5    1    3    3  502    0  0.10597874286E+04 -0.10127947924E+04  0.90667837182E+03  0.17236561273E+04  0.46999998093E+01 0. -1.
       -5    1    3    3    0  502 -0.10597874286E+04  0.10127947924E+04  0.41639986709E+03  0.15239139164E+04  0.46999998093E+01 0.  1.
</event>
<event>
 5   0  0.9251510E-06  0.2524509E+04  0.7818609E-02  0.8394306E-01
        2   -1    0    0  501    0  0.00000000000E+00  0.00000000000E+00  0.14250949098E+04  0.14250949098E+04  0.25500000920E-02 0. -1.
       -2   -1    0    0    0  501  0.00000000000E+00  0.00000000000E+00 -0.11180212444E+04  0.11180212444E+04  0.25500000920E-02 0.  1.
    10030    2    1    2    0    0  0.00000000000E+00  0.00000000000E+00  0.30707366547E+03  0.25431161542E+04  0.25245089697E+04 0.  0.
        2    1    3    3  502    0  0.81896927976E+03 -0.40598164678E+03 -0.72337023587E+03  0.11656741727E+04  0.25500000920E-02 0.  1.
       -2    1    3    3    0  502 -0.81896927976E+03  0.40598164678E+03  0.10304439013E+04  0.13774419815E+04  0.25500000920E-02 0. -1.
</event>
<event>
 5   0  0.9360689E-06  0.2886754E+04  0.7818609E-02  0.8276830E-01
       -2   -1    0    0    0  501  0.00000000000E+00  0.00000000000E+00  0.20862216502E+04  0.20862216502E+04  0.25500000920E-02 0. -1.
        2   -1    0    0  501    0  0.00000000000E+00  0.00000000000E+00 -0.99861718792E+03  0.99861718793E+03  0.25500000920E-02 0.  1.
    10030    2    1    2    0    0  0.00000000000E+00  0.00000000000E+00  0.10876044623E+04  0.30848388381E+04  0.28867537461E+04 0.  0.
        5    1    3    3  502    0  0.54545721182E+03  0.12098158057E+04 -0.62714727502E+02  0.13285831102E+04  0.46999998093E+01 0.  1.
       -5    1    3    3    0  502 -0.54545721182E+03 -0.12098158057E+04  0.11503191898E+04  0.17562557279E+04  0.46999998093E+01 0. -1.
</event>
<event>
 5   0  0.3564340E-06  0.2868322E+04  0.7818609E-02  0.8282365E-01
       -1   -1    0    0    0  501  0.00000000000E+00  0.00000000000E+00  0.11278954502E+04  0.11278954502E+04  0.50400001928E-02 0. -1.
        1   -1    0    0  501    0  0.00000000000E+00  0.00000000000E+00 -0.18235895049E+04  0.18235895049E+04  0.50400001928E-02 0.  1.
    10030    2    1    2    0    0  0.00000000000E+00  0.00000000000E+00 -0.69569405470E+03  0.29514849551E+04  0.28683223707E+04 0.  0.
        1    1    3    3  502    0  0.16907467267E+03  0.13229275709E+04 -0.89048348855E+03  0.16036472325E+04  0.50400001928E-02 0.  1.
       -1    1    3    3    0  502 -0.16907467267E+03 -0.13229275709E+04  0.19478943385E+03  0.13478377226E+04  0.50400001928E-02 0. -1.
</event>
<event>
 5   0  0.9505359E-06  0.2860526E+04  0.7818609E-02  0.8284720E-01
       -2   -1    0    0    0  501  0.00000000000E+00  0.00000000000E+00  0.10028290358E+04  0.10028290358E+04  0.25500000920E-02 0. -1.
        2   -1    0    0  501    0  0.00000000000E+00  0.00000000000E+00 -0.20398808237E+04  0.20398808237E+04  0.25500000920E-02 0.  1.
    10030    2    1    2    0    0  0.00000000000E+00  0.00000000000E+00 -0.10370517880E+04  0.30427098595E+04  0.28605256297E+04 0.  0.
        4    1    3    3  502    0  0.85923614613E+03  0.10221789553E+04  0.26466634911E+02  0.13356042329E+04  0.12699999809E+01 0. -1.
       -4    1    3    3    0  502 -0.85923614613E+03 -0.10221789553E+04 -0.10635184229E+04  0.17071056265E+04  0.12699999809E+01 0.  1.
</event>
<event>
 5   0  0.9646321E-06  0.2902645E+04  0.7818609E-02  0.8272091E-01
        2   -1    0    0  501    0  0.00000000000E+00  0.00000000000E+00  0.11990882883E+04  0.11990882883E+04  0.25500000920E-02 0. -1.
       -2   -1    0    0    0  501  0.00000000000E+00  0.00000000000E+00 -0.17566154179E+04  0.17566154179E+04  0.25500000920E-02 0.  1.
    10030    2    1    2    0    0  0.00000000000E+00  0.00000000000E+00 -0.55752712957E+03  0.29557037062E+04  0.29026449832E+04 0.  0.
        3    1    3    3  502    0 -0.16219179607E+03  0.10398210223E+04 -0.12964333953E+04  0.16698124134E+04  0.10100000352E+00 0.  1.
       -3    1    3    3    0  502  0.16219179607E+03 -0.10398210223E+04  0.73890626574E+03  0.12858912928E+04  0.10100000352E+00 0. -1.
</event>
<event>
 5   0  0.9360689E-06  0.2926030E+04  0.7818609E-02  0.8265175E-01
       -2   -1    0    0    0  501  0.00000000000E+00  0.00000000000E+00  0.15137267893E+04  0.15137267893E+04  0.25500000920E-02 0. -1.
        2   -1    0    0  501    0  0.00000000000E+00  0.00000000000E+00 -0.14140023331E+04  0.14140023331E+04  0.25500000920E-02 0.  1.
    10030    2    1    2    0    0  0.00000000000E+00  0.00000000000E+00  0.99724456207E+02  0.29277291223E+04  0.29260302197E+04 0.  0.
        5    1    3    3  502    0  0.31166679888E+03  0.40777367045E+03 -0.13209608101E+04  0.14171715181E+04  0.46999998093E+01 0.  1.
       -5    1    3    3    0  502 -0.31166679888E+03 -0.40777367045E+03  0.14206852663E+04  0.15105576043E+04  0.46999998093E+01 0. -1.
</event>
<event>
 5   0  0.9646321E-06  0.3000528E+04  0.7818609E-02  0.8243580E-01
        2   -1    0    0  501    0  0.00000000000E+00  0.00000000000E+00  0.17637726640E+04  0.17637726640E+04  0.25500000920E-02 0. -1.
       -2   -1    0    0    0  501  0.00000000000E+00  0.00000000000E+00 -0.12761233339E+04  0.12761233339E+04  0.25500000920E-02 0.  1.
    10030    2    1    2    0    0  0.00000000000E+00  0.00000000000E+00  0.48764933012E+03  0.30398959979E+04  0.30005275884E+04 0.  0.
        3    1    3    3  502    0 -0.12320476072E+04 -0.83601208339E+03  0.57196066910E+02  0.14900097014E+04  0.10100000352E+00 0.  1.
       -3    1    3    3    0  502  0.12320476072E+04  0.83601208339E+03  0.43045326321E+03  0.15498862965E+04  0.10100000352E+00 0. -1.
</event>
<event>
 5   0  0.3474078E-06  0.2902971E+04  0.7818609E-02  0.8271994E-01
       -1   -1    0    0    0  501  0.00000000000E+00  0.00000000000E+00  0.13787318166E+04  0.13787318166E+04  0.50400001928E-02 0.  1.
        1   -1    0    0  501    0  0.00000000000E+00  0.00000000000E+00 -0.15280783170E+04  0.15280783170E+04  0.50400001928E-02 0. -1.
    10030    2    1    2    0    0  0.00000000000E+00  0.00000000000E+00 -0.14934650045E+03  0.29068101336E+04  0.29029710256E+04 0.  0.
        3    1    3    3  502    0  0.49646689922E+03  0.13631045258E+04 -0.12245273809E+03  0.14558598881E+04  0.10100000352E+00 0.  1.
       -3    1    3    3    0  502 -0.49646689922E+03 -0.13631045258E+04 -0.26893762361E+02  0.14509502455E+04  0.10100000352E+00 0. -1.
</event>
<event>
 5   0  0.3474078E-06  0.2893108E+04  0.7818609E-02  0.8274931E-01
       -1   -1    0    0    0  501  0.00000000000E+00  0.00000000000E+00  0.10955428436E+04  0.10955428436E+04  0.50400001928E-02 0.  1.
        1   -1    0    0  501    0  0.00000000000E+00  0.00000000000E+00 -0.19100293952E+04  0.19100293952E+04  0.50400001928E-02 0. -1.
    10030    2    1    2    0    0  0.00000000000E+00  0.00000000000E+00 -0.81448655161E+03  0.30055722388E+04  0.28931083871E+04 0.  0.
        3    1    3    3  502    0 -0.45349403966E+03  0.40753849998E+02 -0.18336432823E+04  0.18893293565E+04  0.10100000352E+00 0. -1.
       -3    1    3    3    0  502  0.45349403966E+03 -0.40753849998E+02  0.10191567307E+04  0.11162428823E+04  0.10100000352E+00 0.  1.
</event>
<event>
 5   0  0.9505359E-06  0.2881281E+04  0.7818609E-02  0.8278469E-01
        2   -1    0    0  501    0  0.00000000000E+00  0.00000000000E+00  0.21749091501E+04  0.21749091501E+04  0.25500000920E-02 0. -1.
       -2   -1    0    0    0  501  0.00000000000E+00  0.00000000000E+00 -0.95426746682E+03  0.95426746683E+03  0.25500000920E-02 0.  1.
    10030    2    1    2    0    0  0.00000000000E+00  0.00000000000E+00  0.12206416833E+04  0.31291766170E+04  0.28812809965E+04 0.  0.
        4    1    3    3  502    0 -0.50484230302E+03 -0.41944509005E+03  0.20030938691E+04  0.21078867607E+04  0.12699999809E+01 0. -1.
       -4    1    3    3    0  502  0.50484230302E+03  0.41944509005E+03 -0.78245218582E+03  0.10212898563E+04  0.12699999809E+01 0.  1.
</event>
<event>
 5   0  0.3486236E-06  0.2318047E+04  0.7818609E-02  0.8470839E-01
       -1   -1    0    0    0  501  0.00000000000E+00  0.00000000000E+00  0.14551387667E+04  0.14551387667E+04  0.50400001928E-02 0. -1.
        1   -1    0    0  501    0  0.00000000000E+00  0.00000000000E+00 -0.92316651138E+03  0.92316651140E+03  0.50400001928E-02 0.  1.
    10030    2    1    2    0    0  0.00000000000E+00  0.00000000000E+00  0.53197225530E+03  0.23783052781E+04  0.23180469183E+04 0.  0.
        5    1    3    3  502    0  0.83074295840E+03  0.80809585691E+03  0.25298745308E+03  0.11862451342E+04  0.46999998093E+01 0. -1.
       -5    1    3    3    0  502 -0.83074295840E+03 -0.80809585691E+03  0.27898480222E+03  0.11920601439E+04  0.46999998093E+01 0.  1.
</event>
<event>
 5   0  0.3188375E-06  0.2813087E+04  0.7818609E-02  0.8299217E-01
        3   -1    0    0  501    0  0.00000000000E+00  0.00000000000E+00  0.19608485163E+04  0.19608485189E+04  0.10100000352E+00 0.  1.
       -3   -1    0    0    0  501  0.00000000000E+00  0.00000000000E+00 -0.10089326749E+04  0.10089326800E+04  0.10100000352E+00 0. -1.
    10030    2    1    2    0    0  0.00000000000E+00  0.00000000000E+00  0.95191584134E+03  0.29697811988E+04  0.28130866677E+04 0.  0.
        5    1    3    3  502    0 -0.13820856473E+04 -0.98191501196E+02  0.73138490903E+03  0.15667636332E+04  0.46999998093E+01 0.  1.
       -5    1    3    3    0  502  0.13820856473E+04  0.98191501196E+02  0.22053093231E+03  0.14030175656E+04  0.46999998093E+01 0. -1.
</event>
<event>
 5   0  0.3474078E-06  0.2898910E+04  0.7818609E-02  0.8273202E-01
       -1   -1    0    0    0  501  0.00000000000E+00  0.00000000000E+00  0.94285120160E+03  0.94285120162E+03  0.50400001928E-02 0.  1.
        1   -1    0    0  501    0  0.00000000000E+00  0.00000000000E+00 -0.22282623690E+04  0.22282623690E+04  0.50400001928E-02 0. -1.
    10030    2    1    2    0    0  0.00000000000E+00  0.00000000000E+00 -0.12854111674E+04  0.31711135706E+04  0.28989100380E+04 0.  0.
        3    1    3    3  502    0 -0.52451729074E+03  0.28675224340E+03 -0.20871383295E+04  0.21710577271E+04  0.10100000352E+00 0. -1.
       -3    1    3    3    0  502  0.52451729074E+03 -0.28675224340E+03  0.80172716218E+03  0.10000558435E+04  0.10100000352E+00 0.  1.
</event>
<event>
 5   0  0.3188375E-06  0.2919969E+04  0.7818609E-02  0.8266961E-01
       -3   -1    0    0    0  501  0.00000000000E+00  0.00000000000E+00  0.14872168645E+04  0.14872168680E+04  0.10100000352E+00 0.  1.
        3   -1    0    0  501    0  0.00000000000E+00  0.00000000000E+00 -0.14332512251E+04  0.14332512287E+04  0.10100000352E+00 0. -1.
    10030    2    1    2    0    0  0.00000000000E+00  0.00000000000E+00  0.53965639392E+02  0.29204680967E+04  0.29199694542E+04 0.  0.
        4    1    3    3  502    0  0.40153801225E+02  0.11660778803E+04 -0.85077962954E+03  0.14440143841E+04  0.12699999809E+01 0. -1.
       -4    1    3    3    0  502 -0.40153801225E+02 -0.11660778803E+04  0.90474526893E+03  0.14764537125E+04  0.12699999809E+01 0.  1.
</event>
<event>
 5   0  0.3474078E-06  0.2732238E+04  0.7818609E-02  0.8324620E-01
        1   -1    0    0  501    0  0.00000000000E+00  0.00000000000E+00  0.18707210936E+04  0.18707210936E+04  0.50400001928E-02 0.  1.
       -1   -1    0    0    0  501  0.00000000000E+00  0.00000000000E+00 -0.99762652113E+03  0.99762652115E+03  0.50400001928E-02 0. -1.
    10030    2    1    2    0    0  0.00000000000E+00  0.00000000000E+00  0.87309457244E+03  0.28683476147E+04  0.27322378935E+04 0.  0.
        3    1    3    3  502    0 -0.56407902242E+03  0.59513979857E+03 -0.71054419945E+03  0.10850113331E+04  0.10100000352E+00 0. -1.
       -3    1    3    3    0  502  0.56407902242E+03 -0.59513979857E+03  0.15836387719E+04  0.17833362816E+04  0.10100000352E+00 0.  1.
</event>
<event>
 5   0  0.1001573E-05  0.3016341E+04  0.7818609E-02  0.8239080E-01
       -2   -1    0    0    0  501  0.00000000000E+00  0.00000000000E+00  0.11155225587E+04  0.11155225587E+04  0.25500000920E-02 0. -1.
        2   -1    0    0  501    0  0.00000000000E+00  0.00000000000E+00 -0.20390254271E+04  0.20390254271E+04  0.25500000920E-02 0.  1.
    10030    2    1    2    0    0  0.00000000000E+00  0.00000000000E+00 -0.92350286837E+03  0.31545479858E+04  0.30163414010E+04 0.  0.
        1    1    3    3  502    0 -0.73953776563E+02  0.69364241531E+03 -0.18601685948E+04  0.19866645822E+04  0.50400001928E-02 0.  1.
       -1    1    3    3    0  502  0.73953776563E+02 -0.69364241531E+03  0.93666572639E+03  0.11678834036E+04  0.50400001928E-02 0. -1.
</event>
<event>
 5   0  0.3649705E-06  0.2917134E+04  0.7818609E-02  0.8267798E-01
        1   -1    0    0  501    0  0.00000000000E+00  0.00000000000E+00  0.23389759885E+04  0.23389759885E+04  0.50400001928E-02 0.  1.
       -1   -1    0    0    0  501  0.00000000000E+00  0.00000000000E+00 -0.90955083730E+03  0.90955083731E+03  0.50400001928E-02 0. -1.
    10030    2    1    2    0    0  0.00000000000E+00  0.00000000000E+00  0.14294251512E+04  0.32485268258E+04  0.29171339145E+04 0.  0.
        2    1    3    3  502    0  0.62574034834E+03 -0.47635646887E+03  0.20826545444E+04  0.22261887657E+04  0.25500000920E-02 0.  1.
       -2    1    3    3    0  502 -0.62574034834E+03  0.47635646887E+03 -0.65322939325E+03  0.10223380601E+04  0.25500000920E-02 0. -1.
</event>
<event>
 5   0  0.3474078E-06  0.2704334E+04  0.7818609E-02  0.8333600E-01
        1   -1    0    0  501    0  0.00000000000E+00  0.00000000000E+00  0.16315191208E+04  0.16315191209E+04  0.50400001928E-02 0.  1.
       -1   -1    0    0    0  501  0.00000000000E+00  0.00000000000E+00 -0.11206457839E+04  0.11206457839E+04  0.50400001928E-02 0. -1.
    10030    2    1    2    0    0  0.00000000000E+00  0.00000000000E+00  0.51087333694E+03  0.27521649048E+04  0.27043335772E+04 0.  0.
        3    1    3    3  502    0  0.57449105443E+03 -0.81811458268E+03  0.11820368757E+04  0.15480835338E+04  0.10100000352E+00 0.  1.
       -3    1    3    3    0  502 -0.57449105443E+03  0.81811458268E+03 -0.67116353872E+03  0.12040813710E+04  0.10100000352E+00 0. -1.
</event>
<event>
 5   0  0.3649705E-06  0.2915297E+04  0.7818609E-02  0.8268341E-01
        1   -1    0    0  501    0  0.00000000000E+00  0.00000000000E+00  0.96223945018E+03  0.96223945019E+03  0.50400001928E-02 0.  1.
       -1   -1    0    0    0  501  0.00000000000E+00  0.00000000000E+00 -0.22081188109E+04  0.22081188109E+04  0.50400001928E-02 0. -1.
    10030    2    1    2    0    0  0.00000000000E+00  0.00000000000E+00 -0.12458793607E+04  0.31703582611E+04  0.29152969184E+04 0.  0.
        2    1    3    3  502    0 -0.84097848856E+02  0.25395293804E+03  0.93531513541E+03  0.97282009923E+03  0.25500000920E-02 0.  1.
       -2    1    3    3    0  502  0.84097848856E+02 -0.25395293804E+03 -0.21811944961E+04  0.21975381619E+04  0.25500000920E-02 0. -1.
</event>
<event>
 5   0  0.3474078E-06  0.2905494E+04  0.7818609E-02  0.8271245E-01
        1   -1    0    0  501    0  0.00000000000E+00  0.00000000000E+00  0.21731601436E+04  0.21731601436E+04  0.50400001928E-02 0.  1.
       -1   -1    0    0    0  501  0.00000000000E+00  0.00000000000E+00 -0.97115414274E+03  0.97115414275E+03  0.50400001928E-02 0. -1.
    10030    2    1    2    0    0  0.00000000000E+00  0.00000000000E+00  0.12020060008E+04  0.31443142863E+04  0.29054937455E+04 0.  0.
        3    1    3    3  502    0  0.50610309633E+03  0.13329010932E+04  0.90267729399E+03  0.16874809557E+04  0.10100000352E+00 0.  1.
       -3    1    3    3    0  502 -0.50610309633E+03 -0.13329010932E+04  0.29932870685E+03  0.14568333307E+04  0.10100000352E+00 0. -1.
</event>
<event>
 5   0  0.9360689E-06  0.2339082E+04  0.7818609E-02  0.8462669E-01
       -2   -1    0    0    0  501  0.00000000000E+00  0.00000000000E+00  0.50063806180E+03  0.50063806181E+03  0.25500000920E-02 0. -1.
        2   -1    0    0  501    0  0.00000000000E+00  0.00000000000E+00 -0.27321649712E+04  0.27321649712E+04  0.25500000920E-02 0.  1.
    10030    2    1    2    0    0  0.00000000000E+00  0.00000000000E+00 -0.22315269094E+04  0.32328030330E+04  0.23390816794E+04 0.  0.
        5    1    3    3  502    0 -0.10735930470E+04  0.15538426894E+03 -0.17198731019E+04  0.20334040125E+04  0.46999998093E+01 0.  1.
       -5    1    3    3    0  502  0.10735930470E+04 -0.15538426894E+03 -0.51165380752E+03  0.11993990205E+04  0.46999998093E+01 0. -1.
</event>
<event>
 5   0  0.1001573E-05  0.2938957E+04  0.7818609E-02  0.8261380E-01
        2   -1    0    0  501    0  0.00000000000E+00  0.00000000000E+00  0.12976394688E+04  0.12976394688E+04  0.25500000920E-02 0. -1.
       -2   -1    0    0    0  501  0.00000000000E+00  0.00000000000E+00 -0.16640736941E+04  0.16640736941E+04  0.25500000920E-02 0.  1.
    10030    2    1    2    0    0  0.00000000000E+00  0.00000000000E+00 -0.36643422530E+03  0.29617131629E+04  0.29389574373E+04 0.  0.
        1    1    3    3  502    0  0.10357965440E+04  0.63095452740E+03 -0.10193337241E+04  0.15843040546E+04  0.50400001928E-02 0.  1.
       -1    1    3    3    0  502 -0.10357965440E+04 -0.63095452740E+03  0.65289949877E+03  0.13774091084E+04  0.50400001928E-02 0. -1.
</event>
<event>
 5   0  0.3564340E-06  0.2875505E+04  0.7818609E-02  0.8280203E-01
        1   -1    0    0  501    0  0.00000000000E+00  0.00000000000E+00  0.14881749025E+04  0.14881749025E+04  0.50400001928E-02 0.  1.
       -1   -1    0    0    0  501  0.00000000000E+00  0.00000000000E+00 -0.13890382016E+04  0.13890382016E+04  0.50400001928E-02 0. -1.
    10030    2    1    2    0    0  0.00000000000E+00  0.00000000000E+00  0.99136700905E+02  0.28772131041E+04  0.28755046793E+04 0.  0.
        1    1    3    3  502    0 -0.12811476828E+04 -0.65250780039E+03  0.44468715976E+02  0.14384308400E+04  0.50400001928E-02 0.  1.
       -1    1    3    3    0  502  0.12811476828E+04  0.65250780039E+03  0.54667984929E+02  0.14387822641E+04  0.50400001928E-02 0. -1.
</event>
<event>
 5   0  0.9251510E-06  0.2863032E+04  0.7818609E-02  0.8283962E-01
       -2   -1    0    0    0  501  0.00000000000E+00  0.00000000000E+00  0.10228040948E+04  0.10228040948E+04  0.25500000920E-02 0. -1.
        2   -1    0    0  501    0  0.00000000000E+00  0.00000000000E+00 -0.20035483680E+04  0.20035483680E+04  0.25500000920E-02 0.  1.
    10030    2    1    2    0    0  0.00000000000E+00  0.00000000000E+00 -0.98074427317E+03  0.30263524628E+04  0.28630315926E+04 0.  0.
        2    1    3    3  502    0 -0.51609028128E+03  0.85702326898E+03  0.59195052252E+03  0.11624299906E+04  0.25500000920E-02 0. -1.
       -2    1    3    3    0  502  0.51609028128E+03 -0.85702326898E+03 -0.15726947957E+04  0.18639224722E+04  0.25500000920E-02 0.  1.
</event>
<event>
 5   0  0.9360689E-06  0.2967289E+04  0.7818609E-02  0.8253134E-01
        2   -1    0    0  501    0  0.00000000000E+00  0.00000000000E+00  0.21627341683E+04  0.21627341683E+04  0.25500000920E-02 0.  1.
       -2   -1    0    0    0  501  0.00000000000E+00  0.00000000000E+00 -0.10177861878E+04  0.10177861878E+04  0.25500000920E-02 0. -1.
    10030    2    1    2    0    0  0.00000000000E+00  0.00000000000E+00  0.11449479804E+04  0.31805203561E+04  0.29672889744E+04 0.  0.
        5    1    3    3  502    0  0.84099333361E+03  0.96646374101E+03 -0.22953061803E+03  0.13015484411E+04  0.46999998093E+01 0. -1.
       -5    1    3    3    0  502 -0.84099333361E+03 -0.96646374101E+03  0.13744785985E+04  0.18789719150E+04  0.46999998093E+01 0.  1.
</event>
<event>
 5   0  0.3649705E-06  0.2166468E+04  0.7818609E-02  0.8532516E-01
       -1   -1    0    0    0  501  0.00000000000E+00  0.00000000000E+00  0.66921899178E+03  0.66921899180E+03  0.50400001928E-02 0. -1.
        1   -1    0    0  501    0  0.00000000000E+00  0.00000000000E+00 -0.17533808360E+04  0.17533808360E+04  0.50400001928E-02 0.  1.
    10030    2    1    2    0    0  0.00000000000E+00  0.00000000000E+00 -0.10841618443E+04  0.24225998278E+04  0.21664678676E+04 0.  0.
        2    1    3    3  502    0  0.44299557861E+03 -0.90344261847E+03 -0.93475754225E+02  0.10105401349E+04  0.25500000920E-02 0. -1.
       -2    1    3    3    0  502 -0.44299557861E+03  0.90344261847E+03 -0.99068609003E+03  0.14120596930E+04  0.25500000920E-02 0.  1.
</event>
<event>
 5   0  0.9251510E-06  0.2908739E+04  0.7818609E-02  0.8270282E-01
        2   -1    0    0  501    0  0.00000000000E+00  0.00000000000E+00  0.20973053971E+04  0.20973053971E+04  0.25500000920E-02 0. -1.
       -2   -1    0    0    0  501  0.00000000000E+00  0.00000000000E+00 -0.10085279081E+04  0.10085279081E+04  0.25500000920E-02 0.  1.
    10030    2    1    2    0    0  0.00000000000E+00  0.00000000000E+00  0.10887774890E+04  0.31058333053E+04  0.29087392629E+04 0.  0.
        2    1    3    3  502    0 -0.13623049992E+03  0.20363355007E+03 -0.98633481388E+03  0.10163078947E+04  0.25500000920E-02 0.  1.
       -2    1    3    3    0  502  0.13623049992E+03 -0.20363355007E+03  0.20751123029E+04  0.20895254105E+04  0.25500000920E-02 0. -1.
</event>
<event>
 5   0  0.9646321E-06  0.2993780E+04  0.7818609E-02  0.8245509E-01
        2   -1    0    0  501    0  0.00000000000E+00  0.00000000000E+00  0.15052221734E+04  0.15052221734E+04  0.25500000920E-02 0.  1.
       -2   -1    0    0    0  501  0.00000000000E+00  0.00000000000E+00 -0.14886043773E+04  0.14886043773E+04  0.25500000920E-02 0. -1.
    10030    2    1    2    0    0  0.00000000000E+00  0.00000000000E+00  0.16617796074E+02  0.29938265507E+04  0.29937804302E+04 0.  0.
        3    1    3    3  502    0 -0.84842789394E+03 -0.67388017168E+03  0.10411538991E+04  0.15026462753E+04  0.10100000352E+00 0.  1.
       -3    1    3    3    0  502  0.84842789394E+03  0.67388017168E+03 -0.10245361030E+04  0.14911802753E+04  0.10100000352E+00 0. -1.
</event>
<event>
 5   0  0.3486236E-06  0.2901928E+04  0.7818609E-02  0.8272304E-01
        1   -1    0    0  501    0  0.00000000000E+00  0.00000000000E+00  0.13192114439E+04  0.13192114439E+04  0.50400001928E-02 0. -1.
       -1   -1    0    0    0  501  0.00000000000E+00  0.00000000000E+00 -0.15958752876E+04  0.15958752876E+04  0.50400001928E-02 0.  1.
    10030    2    1    2    0    0  0.00000000000E+00  0.00000000000E+00 -0.27666384371E+03  0.29150867315E+04  0.29019282848E+04 0.  0.
        5    1    3    3  502    0  0.13407423115E+04 -0.49792897065E+03  0.10721796889E+03  0.14342388185E+04  0.46999998093E+01 0.  1.
       -5    1    3    3    0  502 -0.13407423115E+04  0.49792897065E+03 -0.38388181260E+03  0.14808479131E+04  0.46999998093E+01 0. -1.
</event>
<event>
 5   0  0.3486236E-06  0.2884647E+04  0.7818609E-02  0.8277460E-01
        1   -1    0    0  501    0  0.00000000000E+00  0.00000000000E+00  0.10694704981E+04  0.10694704981E+04  0.50400001928E-02 0. -1.
       -1   -1    0    0    0  501  0.00000000000E+00  0.00000000000E+00 -0.19451659779E+04  0.19451659779E+04  0.50400001928E-02 0.  1.
    10030    2    1    2    0    0  0.00000000000E+00  0.00000000000E+00 -0.87569547984E+03  0.30146364760E+04  0.28846473804E+04 0.  0.
        5    1    3    3  502    0 -0.89834374424E+03  0.87452752882E+02  0.73783865281E+03  0.11658033429E+04  0.46999998093E+01 0. -1.
       -5    1    3    3    0  502  0.89834374424E+03 -0.87452752882E+02 -0.16135341327E+04  0.18488331331E+04  0.46999998093E+01 0.  1.
</event>
<event>
 5   0  0.1001573E-05  0.2917348E+04  0.7818609E-02  0.8267735E-01
        2   -1    0    0  501    0  0.00000000000E+00  0.00000000000E+00  0.16022186856E+04  0.16022186856E+04  0.25500000920E-02 0. -1.
       -2   -1    0    0    0  501  0.00000000000E+00  0.00000000000E+00 -0.13279895988E+04  0.13279895988E+04  0.25500000920E-02 0.  1.
    10030    2    1    2    0    0  0.00000000000E+00  0.00000000000E+00  0.27422908686E+03  0.29302082844E+04  0.29173479391E+04 0.  0.
        1    1    3    3  502    0 -0.34111081078E+03  0.53801795514E+03  0.14551147179E+04  0.15884516825E+04  0.50400001928E-02 0. -1.
       -1    1    3    3    0  502  0.34111081078E+03 -0.53801795514E+03 -0.11808856310E+04  0.13417566019E+04  0.50400001928E-02 0.  1.
</event>
<event>
 5   0  0.3746518E-06  0.2900660E+04  0.7818609E-02  0.8272681E-01
       -1   -1    0    0    0  501  0.00000000000E+00  0.00000000000E+00  0.14103624460E+04  0.14103624460E+04  0.50400001928E-02 0. -1.
        1   -1    0    0  501    0  0.00000000000E+00  0.00000000000E+00 -0.14914301665E+04  0.14914301665E+04  0.50400001928E-02 0.  1.
    10030    2    1    2    0    0  0.00000000000E+00  0.00000000000E+00 -0.81067720557E+02  0.29017926125E+04  0.29006599923E+04 0.  0.
        4    1    3    3  502    0  0.12084357846E+04  0.62022922964E+03  0.46804850123E+03  0.14366879812E+04  0.12699999809E+01 0. -1.
       -4    1    3    3    0  502 -0.12084357846E+04 -0.62022922964E+03 -0.54911622178E+03  0.14651046313E+04  0.12699999809E+01 0.  1.
</event>
<event>
 5   0  0.3649705E-06  0.2900670E+04  0.7818609E-02  0.8272678E-01
       -1   -1    0    0    0  501  0.00000000000E+00  0.00000000000E+00  0.13645903242E+04  0.13645903242E+04  0.50400001928E-02 0. -1.
        1   -1    0    0  501    0  0.00000000000E+00  0.00000000000E+00 -0.15414679245E+04  0.15414679245E+04  0.50400001928E-02 0.  1.
    10030    2    1    2    0    0  0.00000000000E+00  0.00000000000E+00 -0.17687760032E+03  0.29060582487E+04  0.29006704155E+04 0.  0.
        2    1    3    3  502    0  0.36895529184E+03  0.67680059107E+03  0.11423728021E+04  0.13781156216E+04  0.25500000920E-02 0. -1.
       -2    1    3    3    0  502 -0.36895529184E+03 -0.67680059107E+03 -0.13192504024E+04  0.15279426271E+04  0.25500000920E-02 0.  1.
</event>
<event>
 5   0  0.9505359E-06  0.2884292E+04  0.7818609E-02  0.8277566E-01
        2   -1    0    0  501    0  0.00000000000E+00  0.00000000000E+00  0.17339287049E+04  0.17339287049E+04  0.25500000920E-02 0. -1.
       -2   -1    0    0    0  501  0.00000000000E+00  0.00000000000E+00 -0.11994641809E+04  0.11994641809E+04  0.25500000920E-02 0.  1.
    10030    2    1    2    0    0  0.00000000000E+00  0.00000000000E+00  0.53446452394E+03  0.29333928858E+04  0.28842922000E+04 0.  0.
        4    1    3    3  502    0 -0.10439892359E+04  0.99174017790E+03  0.34809462051E+03  0.14814295740E+04  0.12699999809E+01 0.  1.
       -4    1    3    3    0  502  0.10439892359E+04 -0.99174017790E+03  0.18636990343E+03  0.14519633118E+04  0.12699999809E+01 0. -1.
</event>
<event>
 5   0  0.9251510E-06  0.2550349E+04  0.7818609E-02  0.8385265E-01
       -2   -1    0    0    0  501  0.00000000000E+00  0.00000000000E+00  0.74656667239E+03  0.74656667239E+03  0.25500000920E-02 0.  1.
        2   -1    0    0  501    0  0.00000000000E+00  0.00000000000E+00 -0.21780638915E+04  0.21780638915E+04  0.25500000920E-02 0. -1.
    10030    2    1    2    0    0  0.00000000000E+00  0.00000000000E+00 -0.14314972191E+04  0.29246305639E+04  0.25503489265E+04 0.  0.
        2    1    3    3  502    0 -0.68958291857E+03 -0.72107543390E+03 -0.16263888872E+04  0.19080396210E+04  0.25500000920E-02 0. -1.
       -2    1    3    3    0  502  0.68958291857E+03  0.72107543390E+03  0.19489166805E+03  0.10165909429E+04  0.25500000920E-02 0.  1.
</event>
<event>
 5   0  0.9646321E-06  0.2902819E+04  0.7818609E-02  0.8272039E-01
       -2   -1    0    0    0  501  0.00000000000E+00  0.00000000000E+00  0.13075819829E+04  0.13075819829E+04  0.25500000920E-02 0.  1.
        2   -1    0    0  501    0  0.00000000000E+00  0.00000000000E+00 -0.16110575543E+04  0.16110575543E+04  0.25500000920E-02 0. -1.
    10030    2    1    2    0    0  0.00000000000E+00  0.00000000000E+00 -0.30347557146E+03  0.29186395372E+04  0.29028192030E+04 0.  0.
        3    1    3    3  502    0 -0.53792463835E+03 -0.13257356139E+04 -0.39730643979E+03  0.14848536129E+04  0.10100000352E+00 0. -1.
       -3    1    3    3    0  502  0.53792463835E+03  0.13257356139E+04  0.93830868330E+02  0.14337859242E+04  0.10100000352E+00 0.  1.
</event>
<event>
 5   0  0.3188375E-06  0.2819708E+04  0.7818609E-02  0.8297176E-01
       -4   -1    0    0    0  501  0.00000000000E+00  0.00000000000E+00  0.13475302902E+04  0.13475308886E+04  0.12699999809E+01 0.  1.
        4   -1    0    0  501    0  0.00000000000E+00  0.00000000000E+00 -0.14750592935E+04  0.14750598402E+04  0.12699999809E+01 0. -1.
    10030    2    1    2    0    0  0.00000000000E+00  0.00000000000E+00 -0.12752900334E+03  0.28225907289E+04  0.28197082785E+04 0.  0.
        5    1    3    3  502    0  0.67709181081E+03 -0.11535119156E+04 -0.50989210480E+03  0.14314520978E+04  0.46999998093E+01 0. -1.
       -5    1    3    3    0  502 -0.67709181081E+03  0.11535119156E+04  0.38236310145E+03  0.13911386311E+04  0.46999998093E+01 0.  1.
</event>
<event>
 5   0  0.9505359E-06  0.2889175E+04  0.7818609E-02  0.8276105E-01
       -2   -1    0    0    0  501  0.00000000000E+00  0.00000000000E+00  0.95088490567E+03  0.95088490567E+03  0.25500000920E-02 0.  1.
        2   -1    0    0  501    0  0.00000000000E+00  0.00000000000E+00 -0.21946228461E+04  0.21946228461E+04  0.25500000920E-02 0. -1.
    10030    2    1    2    0    0  0.00000000000E+00  0.00000000000E+00 -0.12437379404E+04  0.31455077517E+04  0.28891754796E+04 0.  0.
        4    1    3    3  502    0  0.24300448415E+03 -0.48780164778E+03 -0.20784102299E+04  0.21486722234E+04  0.12699999809E+01 0. -1.
       -4    1    3    3    0  502 -0.24300448415E+03  0.48780164778E+03  0.83467228948E+03  0.99683552837E+03  0.12699999809E+01 0.  1.
</event>
<event>
 5   0  0.9646321E-06  0.2891043E+04  0.7818609E-02  0.8275547E-01
       -2   -1    0    0    0  501  0.00000000000E+00  0.00000000000E+00  0.13199773007E+04  0.13199773007E+04  0.25500000920E-02 0.  1.
        2   -1    0    0  501    0  0.00000000000E+00  0.00000000000E+00 -0.15830065805E+04  0.15830065805E+04  0.25500000920E-02 0. -1.
    10030    2    1    2    0    0  0.00000000000E+00  0.00000000000E+00 -0.26302927981E+03  0.29029838812E+04  0.28910432395E+04 0.  0.
        3    1    3    3  502    0  0.11305564857E+04 -0.86839049303E+03 -0.37182028256E+03  0.14732651997E+04  0.10100000352E+00 0. -1.
       -3    1    3    3    0  502 -0.11305564857E+04  0.86839049303E+03  0.10879100275E+03  0.14297186815E+04  0.10100000352E+00 0.  1.
</event>
<event>
 5   0  0.3474078E-06  0.2976642E+04  0.7818609E-02  0.8250432E-01
        1   -1    0    0  501    0  0.00000000000E+00  0.00000000000E+00  0.16668921553E+04  0.16668921553E+04  0.50400001928E-02 0.  1.
       -1   -1    0    0    0  501  0.00000000000E+00  0.00000000000E+00 -0.13288802590E+04  0.13288802590E+04  0.50400001928E-02 0. -1.
    10030    2    1    2    0    0  0.00000000000E+00  0.00000000000E+00  0.33801189628E+03  0.29957724143E+04  0.29766424569E+04 0.  0.
        3    1    3    3  502    0  0.92744649995E+03 -0.52719289844E+03 -0.87545487767E+03  0.13800400775E+04  0.10100000352E+00 0. -1.
       -3    1    3    3    0  502 -0.92744649995E+03  0.52719289844E+03  0.12134667740E+04  0.16157323368E+04  0.10100000352E+00 0.  1.
</event>
<event>
 5   0  0.9646321E-06  0.2866369E+04  0.7818609E-02  0.8282955E-01
        2   -1    0    0  501    0  0.00000000000E+00  0.00000000000E+00  0.11664614110E+04  0.11664614110E+04  0.25500000920E-02 0. -1.
       -2   -1    0    0    0  501  0.00000000000E+00  0.00000000000E+00 -0.17608965436E+04  0.17608965436E+04  0.25500000920E-02 0.  1.
    10030    2    1    2    0    0  0.00000000000E+00  0.00000000000E+00 -0.59443513257E+03  0.29273579546E+04  0.28663690389E+04 0.  0.
        3    1    3    3  502    0 -0.34549270534E+03  0.30347866748E+03  0.10890713847E+04  0.11821763838E+04  0.10100000352E+00 0. -1.
       -3    1    3    3    0  502  0.34549270534E+03 -0.30347866748E+03 -0.16835065173E+04  0.17451815708E+04  0.10100000352E+00 0.  1.
</event>
<event>
 5   0  0.3649705E-06  0.2894296E+04  0.7818609E-02  0.8274576E-01
        1   -1    0    0  501    0  0.00000000000E+00  0.00000000000E+00  0.12447946536E+04  0.12447946536E+04  0.50400001928E-02 0.  1.
       -1   -1    0    0    0  501  0.00000000000E+00  0.00000000000E+00 -0.16823963361E+04  0.16823963361E+04  0.50400001928E-02 0. -1.
    10030    2    1    2    0    0  0.00000000000E+00  0.00000000000E+00 -0.43760168258E+03  0.29271909897E+04  0.28942964357E+04 0.  0.
        2    1    3    3  502    0  0.11809506691E+04  0.78831596950E+03  0.63932137989E+02  0.14213282059E+04  0.25500000920E-02 0. -1.
       -2    1    3    3    0  502 -0.11809506691E+04 -0.78831596950E+03 -0.50153382057E+03  0.15058627838E+04  0.25500000920E-02 0.  1.
</event>
<event>
 5   0  0.3564340E-06  0.2954052E+04  0.7818609E-02  0.8256975E-01
        1   -1    0    0  501    0  0.00000000000E+00  0.00000000000E+00  0.12830087345E+04  0.12830087346E+04  0.50400001928E-02 0. -1.
       -1   -1    0    0    0  501  0.00000000000E+00  0.00000000000E+00 -0.17003830724E+04  0.17003830724E+04  0.50400001928E-02 0.  1.
    10030    2    1    2    0    0  0.00000000000E+00  0.00000000000E+00 -0.41737433785E+03  0.29833918070E+04  0.29540523584E+04 0.  0.
        1    1    3    3  502    0  0.86951052852E+03  0.34808650738E+03  0.94475659880E+03  0.13303299616E+04  0.50400001928E-02 0. -1.
       -1    1    3    3    0  502 -0.86951052852E+03 -0.34808650738E+03 -0.13621309367E+04  0.16530618453E+04  0.50400001928E-02 0.  1.
</event>
<event>
 5   0  0.9505359E-06  0.2891123E+04  0.7818609E-02  0.8275523E-01
       -2   -1    0    0    0  501  0.00000000000E+00  0.00000000000E+00  0.16286681602E+04  0.16286681602E+04  0.25500000920E-02 0.  1.
        2   -1    0    0  501    0  0.00000000000E+00  0.00000000000E+00 -0.12830411417E+04  0.12830411417E+04  0.25500000920E-02 0. -1.
    10030    2    1    2    0    0  0.00000000000E+00  0.00000000000E+00  0.34562701857E+03  0.29117093019E+04  0.28911231421E+04 0.  0.
        4    1    3    3  502    0  0.16514048534E+03 -0.12000918328E+04  0.96719784418E+03  0.15501500152E+04  0.12699999809E+01 0.  1.
       -4    1    3    3    0  502 -0.16514048534E+03  0.12000918328E+04 -0.62157082561E+03  0.13615592867E+04  0.12699999809E+01 0. -1.
</event>
<event>
 5   0  0.9505359E-06  0.2908247E+04  0.7818609E-02  0.8270428E-01
        2   -1    0    0  501    0  0.00000000000E+00  0.00000000000E+00  0.14338337398E+04  0.14338337398E+04  0.25500000920E-02 0. -1.
       -2   -1    0    0    0  501  0.00000000000E+00  0.00000000000E+00 -0.14747002797E+04  0.14747002797E+04  0.25500000920E-02 0.  1.
    10030    2    1    2    0    0  0.00000000000E+00  0.00000000000E+00 -0.40866539908E+02  0.29085340195E+04  0.29082469064E+04 0.  0.
        4    1    3    3  502    0 -0.30096248056E+03  0.59793675463E+03  0.12705724090E+04  0.14361276534E+04  0.12699999809E+01 0. -1.
       -4    1    3    3    0  502  0.30096248056E+03 -0.59793675463E+03 -0.13114389490E+04  0.14724063661E+04  0.12699999809E+01 0.  1.
</event>
<event>
 5   0  0.9505359E-06  0.2838799E+04  0.7818609E-02  0.8291323E-01
        2   -1    0    0  501    0  0.00000000000E+00  0.00000000000E+00  0.10755282578E+04  0.10755282578E+04  0.25500000920E-02 0. -1.
       -2   -1    0    0    0  501  0.00000000000E+00  0.00000000000E+00 -0.18732144801E+04  0.18732144801E+04  0.25500000920E-02 0.  1.
    10030    2    1    2    0    0  0.00000000000E+00  0.00000000000E+00 -0.79768622226E+03  0.29487427380E+04  0.28387991168E+04 0.  0.
        4    1    3    3  502    0  0.56917212428E+03 -0.10513005187E+04 -0.11936599950E+04  0.16893831668E+04  0.12699999809E+01 0.  1.
       -4    1    3    3    0  502 -0.56917212428E+03  0.10513005187E+04  0.39597377275E+03  0.12593595711E+04  0.12699999809E+01 0. -1.
</event>
<event>
 5   0  0.3564340E-06  0.2924126E+04  0.7818609E-02  0.8265735E-01
        1   -1    0    0  501    0  0.00000000000E+00  0.00000000000E+00  0.12102938114E+04  0.12102938114E+04  0.50400001928E-02 0. -1.
       -1   -1    0    0    0  501  0.00000000000E+00  0.00000000000E+00 -0.17662059793E+04  0.17662059793E+04  0.50400001928E-02 0.  1.
    10030    2    1    2    0    0  0.00000000000E+00  0.00000000000E+00 -0.55591216781E+03  0.29764997907E+04  0.29241259661E+04 0.  0.
        1    1    3    3  502    0  0.74644917203E+03 -0.15960635081E+03 -0.15472741254E+04  0.17253167167E+04  0.50400001928E-02 0.  1.
       -1    1    3    3    0  502 -0.74644917203E+03  0.15960635081E+03  0.99136195762E+03  0.12511830740E+04  0.50400001928E-02 0. -1.
</event>
<event>
 5   0  0.9646321E-06  0.2845379E+04  0.7818609E-02  0.8289317E-01
       -2   -1    0    0    0  501  0.00000000000E+00  0.00000000000E+00  0.15816245515E+04  0.15816245515E+04  0.25500000920E-02 0.  1.
        2   -1    0    0  501    0  0.00000000000E+00  0.00000000000E+00 -0.12797258268E+04  0.12797258268E+04  0.25500000920E-02 0. -1.
    10030    2    1    2    0    0  0.00000000000E+00  0.00000000000E+00  0.30189872467E+03  0.28613503783E+04  0.28453792625E+04 0.  0.
        3    1    3    3  502    0 -0.13307527434E+03  0.41613967789E+03 -0.12105943862E+04  0.12870198282E+04  0.10100000352E+00 0. -1.
       -3    1    3    3    0  502  0.13307527434E+03 -0.41613967789E+03  0.15124931109E+04  0.15743305501E+04  0.10100000352E+00 0.  1.
</event>
<event>
 5   0  0.1001573E-05  0.2922858E+04  0.7818609E-02  0.8266109E-01
        2   -1    0    0  501    0  0.00000000000E+00  0.00000000000E+00  0.15396139045E+04  0.15396139045E+04  0.25500000920E-02 0.  1.
       -2   -1    0    0    0  501  0.00000000000E+00  0.00000000000E+00 -0.13872142413E+04  0.13872142413E+04  0.25500000920E-02 0. -1.
    10030    2    1    2    0    0  0.00000000000E+00  0.00000000000E+00  0.15239966320E+03  0.29268281459E+04  0.29228577348E+04 0.  0.
        1    1    3    3  502    0 -0.85582405980E+03  0.29195649493E+03  0.12258451543E+04  0.15232759955E+04  0.50400001928E-02 0.  1.
       -1    1    3    3    0  502  0.85582405980E+03 -0.29195649493E+03 -0.10734454911E+04  0.14035521503E+04  0.50400001928E-02 0. -1.
</event>
<event>
 5   0  0.3649705E-06  0.2853841E+04  0.7818609E-02  0.8286745E-01
        1   -1    0    0  501    0  0.00000000000E+00  0.00000000000E+00  0.19424145462E+04  0.19424145462E+04  0.50400001928E-02 0.  1.
       -1   -1    0    0    0  501  0.00000000000E+00  0.00000000000E+00 -0.10482324007E+04  0.10482324007E+04  0.50400001928E-02 0. -1.
    10030    2    1    2    0    0  0.00000000000E+00  0.00000000000E+00  0.89418214553E+03  0.29906469469E+04  0.28538408245E+04 0.  0.
        2    1    3    3  502    0  0.44751520552E+03  0.11313695189E+04 -0.33419188553E+03  0.12617254312E+04  0.25500000920E-02 0. -1.
       -2    1    3    3    0  502 -0.44751520552E+03 -0.11313695189E+04  0.12283740311E+04  0.17289215157E+04  0.25500000920E-02 0.  1.
</event>
<event>
 5   0  0.3564340E-06  0.3549469E+04  0.7818609E-02  0.8102166E-01
       -1   -1    0    0    0  501  0.00000000000E+00  0.00000000000E+00  0.15587248671E+04  0.15587248671E+04  0.50400001928E-02 0.  1.
        1   -1    0    0  501    0  0.00000000000E+00  0.00000000000E+00 -0.20206784768E+04  0.20206784768E+04  0.50400001928E-02 0. -1.
    10030    2    1    2    0    0  0.00000000000E+00  0.00000000000E+00 -0.46195360972E+03  0.35794033439E+04  0.35494685744E+04 0.  0.
        1    1    3    3  502    0 -0.10087720546E+04 -0.14583752773E+04 -0.15824166653E+03  0.17803145600E+04  0.50400001928E-02 0.  1.
       -1    1    3    3    0  502  0.10087720546E+04  0.14583752773E+04 -0.30371194320E+03  0.17990887838E+04  0.50400001928E-02 0. -1.
</event>
<event>
 5   0  0.3649705E-06  0.2838453E+04  0.7818609E-02  0.8291429E-01
        1   -1    0    0  501    0  0.00000000000E+00  0.00000000000E+00  0.15969051398E+04  0.15969051398E+04  0.50400001928E-02 0.  1.
       -1   -1    0    0    0  501  0.00000000000E+00  0.00000000000E+00 -0.12613167834E+04  0.12613167834E+04  0.50400001928E-02 0. -1.
    10030    2    1    2    0    0  0.00000000000E+00  0.00000000000E+00  0.33558835635E+03  0.28582219232E+04  0.28384525744E+04 0.  0.
        2    1    3    3  502    0  0.30096249773E+03  0.13721458843E+04  0.37129203395E+03  0.14530039667E+04  0.25500000920E-02 0.  1.
       -2    1    3    3    0  502 -0.30096249773E+03 -0.13721458843E+04 -0.35703677604E+02  0.14052179565E+04  0.25500000920E-02 0. -1.
</event>
<event>
 5   0  0.9646321E-06  0.2858802E+04  0.7818609E-02  0.8285242E-01
        2   -1    0    0  501    0  0.00000000000E+00  0.00000000000E+00  0.15554427752E+04  0.15554427752E+04  0.25500000920E-02 0.  1.
       -2   -1    0    0    0  501  0.00000000000E+00  0.00000000000E+00 -0.13135723719E+04  0.13135723719E+04  0.25500000920E-02 0. -1.
    10030    2    1    2    0    0  0.00000000000E+00  0.00000000000E+00  0.24187040327E+03  0.28690151471E+04  0.28588016060E+04 0.  0.
        3    1    3    3  502    0 -0.11482838936E+04  0.16891404049E+02  0.97506069506E+03  0.15065140521E+04  0.10100000352E+00 0.  1.
       -3    1    3    3    0  502  0.11482838936E+04 -0.16891404049E+02 -0.73319029179E+03  0.13625010950E+04  0.10100000352E+00 0. -1.
</event>
<event>
 5   0  0.3649705E-06  0.2908641E+04  0.7818609E-02  0.8270311E-01
        1   -1    0    0  501    0  0.00000000000E+00  0.00000000000E+00  0.14102953609E+04  0.14102953609E+04  0.50400001928E-02 0. -1.
       -1   -1    0    0    0  501  0.00000000000E+00  0.00000000000E+00 -0.14997198514E+04  0.14997198514E+04  0.50400001928E-02 0.  1.
    10030    2    1    2    0    0  0.00000000000E+00  0.00000000000E+00 -0.89424490480E+02  0.29100152123E+04  0.29086408847E+04 0.  0.
        2    1    3    3  502    0 -0.12167502549E+04 -0.77949189282E+02 -0.83786087681E+03  0.14793809881E+04  0.25500000920E-02 0.  1.
       -2    1    3    3    0  502  0.12167502549E+04  0.77949189282E+02  0.74843638633E+03  0.14306342242E+04  0.25500000920E-02 0. -1.
</event>
<event>
 5   0  0.9251510E-06  0.2896330E+04  0.7818609E-02  0.8273970E-01
       -2   -1    0    0    0  501  0.00000000000E+00  0.00000000000E+00  0.95588778077E+03  0.95588778077E+03  0.25500000920E-02 0.  1.
        2   -1    0    0  501    0  0.00000000000E+00  0.00000000000E+00 -0.21939618449E+04  0.21939618449E+04  0.25500000920E-02 0. -1.
    10030    2    1    2    0    0  0.00000000000E+00  0.00000000000E+00 -0.12380740642E+04  0.31498496257E+04  0.28963296215E+04 0.  0.
        2    1    3    3  502    0  0.56154221745E+03  0.33283974696E+03  0.78681325266E+03  0.10223439019E+04  0.25500000920E-02 0.  1.
       -2    1    3    3    0  502 -0.56154221745E+03 -0.33283974696E+03 -0.20248873168E+04  0.21275057238E+04  0.25500000920E-02 0. -1.
</event>
<event>
 5   0  0.3474078E-06  0.2839092E+04  0.7818609E-02  0.8291234E-01
        1   -1    0    0  501    0  0.00000000000E+00  0.00000000000E+00  0.27361637394E+04  0.27361637394E+04  0.50400001928E-02 0.  1.
       -1   -1    0    0    0  501  0.00000000000E+00  0.00000000000E+00 -0.73647289963E+03  0.73647289965E+03  0.50400001928E-02 0. -1.
    10030    2    1    2    0    0  0.00000000000E+00  0.00000000000E+00  0.19996908398E+04  0.34726366391E+04  0.28390917161E+04 0.  0.
        3    1    3    3  502    0  0.12344175027E+04 -0.32693063295E+03  0.24145239360E+03  0.12996035851E+04  0.10100000352E+00 0. -1.
       -3    1    3    3    0  502 -0.12344175027E+04  0.32693063295E+03  0.17582384462E+04  0.21730330540E+04  0.10100000352E+00 0.  1.
</event>
<event>
 5   0  0.3564340E-06  0.2868818E+04  0.7818609E-02  0.8282216E-01
        1   -1    0    0  501    0  0.00000000000E+00  0.00000000000E+00  0.14469571472E+04  0.14469571473E+04  0.50400001928E-02 0. -1.
       -1   -1    0    0    0  501  0.00000000000E+00  0.00000000000E+00 -0.14219698931E+04  0.14219698931E+04  0.50400001928E-02 0.  1.
    10030    2    1    2    0    0  0.00000000000E+00  0.00000000000E+00  0.24987254106E+02  0.28689270404E+04  0.28688182236E+04 0.  0.
        1    1    3    3  502    0 -0.22100657254E+02 -0.71167378066E+03  0.12577562987E+04  0.14453092804E+04  0.50400001928E-02 0. -1.
       -1    1    3    3    0  502  0.22100657254E+02  0.71167378066E+03 -0.12327690446E+04  0.14236177600E+04  0.50400001928E-02 0.  1.
</event>
<event>
 5   0  0.9505359E-06  0.2878523E+04  0.7818609E-02  0.8279296E-01
       -2   -1    0    0    0  501  0.00000000000E+00  0.00000000000E+00  0.15508006816E+04  0.15508006816E+04  0.25500000920E-02 0. -1.
        2   -1    0    0  501    0  0.00000000000E+00  0.00000000000E+00 -0.13357448935E+04  0.13357448935E+04  0.25500000920E-02 0.  1.
    10030    2    1    2    0    0  0.00000000000E+00  0.00000000000E+00  0.21505578811E+03  0.28865455751E+04  0.28785232959E+04 0.  0.
        4    1    3    3  502    0 -0.12255121099E+04  0.15756000211E+03  0.84766848531E+03  0.14984153495E+04  0.12699999809E+01 0. -1.
       -4    1    3    3    0  502  0.12255121099E+04 -0.15756000211E+03 -0.63261269720E+03  0.13881302256E+04  0.12699999809E+01 0.  1.
</event>
<event>
 5   0  0.9360689E-06  0.2850006E+04  0.7818609E-02  0.8287909E-01
       -2   -1    0    0    0  501  0.00000000000E+00  0.00000000000E+00  0.10980168256E+04  0.10980168256E+04  0.25500000920E-02 0.  1.
        2   -1    0    0  501    0  0.00000000000E+00  0.00000000000E+00 -0.18493652674E+04  0.18493652674E+04  0.25500000920E-02 0. -1.
    10030    2    1    2    0    0  0.00000000000E+00  0.00000000000E+00 -0.75134844180E+03  0.29473820929E+04  0.28500064422E+04 0.  0.
        5    1    3    3  502    0 -0.10861977347E+04  0.81681943469E+03  0.67442526466E+02  0.13607314548E+04  0.46999998093E+01 0.  1.
       -5    1    3    3    0  502  0.10861977347E+04 -0.81681943469E+03 -0.81879096827E+03  0.15866506381E+04  0.46999998093E+01 0. -1.
</event>
<event>
 5   0  0.3649705E-06  0.2933420E+04  0.7818609E-02  0.8263003E-01
        1   -1    0    0  501    0  0.00000000000E+00  0.00000000000E+00  0.11809104165E+04  0.11809104165E+04  0.50400001928E-02 0. -1.
       -1   -1    0    0    0  501  0.00000000000E+00  0.00000000000E+00 -0.18216782085E+04  0.18216782085E+04  0.50400001928E-02 0.  1.
    10030    2    1    2    0    0  0.00000000000E+00  0.00000000000E+00 -0.64076779203E+03  0.30025886250E+04  0.29334203735E+04 0.  0.
        2    1    3    3  502    0 -0.12150151801E+04  0.82104653052E+03 -0.29037575678E+03  0.14948904219E+04  0.25500000920E-02 0. -1.
       -2    1    3    3    0  502  0.12150151801E+04 -0.82104653052E+03 -0.35039203526E+03  0.15076982031E+04  0.25500000920E-02 0.  1.
</event>
<event>
 5   0  0.3649705E-06  0.2922201E+04  0.7818609E-02  0.8266302E-01
        1   -1    0    0  501    0  0.00000000000E+00  0.00000000000E+00  0.11057394726E+04  0.11057394726E+04  0.50400001928E-02 0.  1.
       -1   -1    0    0    0  501  0.00000000000E+00  0.00000000000E+00 -0.19306675169E+04  0.19306675169E+04  0.50400001928E-02 0. -1.
    10030    2    1    2    0    0  0.00000000000E+00  0.00000000000E+00 -0.82492804436E+03  0.30364069895E+04  0.29222014180E+04 0.  0.
        2    1    3    3  502    0 -0.94966637359E+03 -0.96882933827E+03  0.15124997448E+03  0.13650542343E+04  0.25500000920E-02 0.  1.
       -2    1    3    3    0  502  0.94966637359E+03  0.96882933827E+03 -0.97617801883E+03  0.16713527552E+04  0.25500000920E-02 0. -1.
</event>
<event>
 5   0  0.3564340E-06  0.2881038E+04  0.7818609E-02  0.8278542E-01
       -1   -1    0    0    0  501  0.00000000000E+00  0.00000000000E+00  0.87932864014E+03  0.87932864015E+03  0.50400001928E-02 0. -1.
        1   -1    0    0  501    0  0.00000000000E+00  0.00000000000E+00 -0.23598628239E+04  0.23598628239E+04  0.50400001928E-02 0.  1.
    10030    2    1    2    0    0  0.00000000000E+00  0.00000000000E+00 -0.14805341837E+04  0.32391914640E+04  0.28810379851E+04 0.  0.
        1    1    3    3  502    0 -0.11449983040E+04 -0.82906131296E+03 -0.10517065282E+04  0.17619450611E+04  0.50400001928E-02 0. -1.
       -1    1    3    3    0  502  0.11449983040E+04  0.82906131296E+03 -0.42882765557E+03  0.14772464030E+04  0.50400001928E-02 0.  1.
</event>
<event>
 5   0  0.3486236E-06  0.2731941E+04  0.7818609E-02  0.8324715E-01
        1   -1    0    0  501    0  0.00000000000E+00  0.00000000000E+00  0.21509543888E+04  0.21509543888E+04  0.50400001928E-02 0.  1.
       -1   -1    0    0    0  501  0.00000000000E+00  0.00000000000E+00 -0.86746374769E+03  0.86746374770E+03  0.50400001928E-02 0. -1.
    10030    2    1    2    0    0  0.00000000000E+00  0.00000000000E+00  0.12834906411E+04  0.30184181365E+04  0.27319406694E+04 0.  0.
        5    1    3    3  502    0 -0.75056455987E+03 -0.11311252049E+04  0.80952976854E+03  0.15805543090E+04  0.46999998093E+01 0.  1.
       -5    1    3    3    0  502  0.75056455987E+03  0.11311252049E+04  0.47396087259E+03  0.14378638275E+04  0.46999998093E+01 0. -1.
</event>
<event>
 5   0  0.3474078E-06  0.2893389E+04  0.7818609E-02  0.8274847E-01
        1   -1    0    0  501    0  0.00000000000E+00  0.00000000000E+00  0.16940036499E+04  0.16940036499E+04  0.50400001928E-02 0. -1.
       -1   -1    0    0    0  501  0.00000000000E+00  0.00000000000E+00 -0.12354905285E+04  0.12354905285E+04  0.50400001928E-02 0.  1.
    10030    2    1    2    0    0  0.00000000000E+00  0.00000000000E+00  0.45851312137E+03  0.29294941784E+04  0.28933893376E+04 0.  0.
        3    1    3    3  502    0  0.10353878318E+04  0.73541770757E+03  0.93076475511E+03  0.15745444441E+04  0.10100000352E+00 0. -1.
       -3    1    3    3    0  502 -0.10353878318E+04 -0.73541770757E+03 -0.47225163375E+03  0.13549497343E+04  0.10100000352E+00 0.  1.
</event>
<event>
 5   0  0.1001573E-05  0.2510444E+04  0.7818609E-02  0.8399274E-01
        2   -1    0    0  501    0  0.00000000000E+00  0.00000000000E+00  0.18568524369E+04  0.18568524369E+04  0.25500000920E-02 0.  1.
       -2   -1    0    0    0  501  0.00000000000E+00  0.00000000000E+00 -0.84852310624E+03  0.84852310625E+03  0.25500000920E-02 0. -1.
    10030    2    1    2    0    0  0.00000000000E+00  0.00000000000E+00  0.10083293306E+04  0.27053755431E+04  0.25104439429E+04 0.  0.
        1    1    3    3  502    0  0.91571968864E+03 -0.48658099879E+03 -0.25805997863E+03  0.10685965418E+04  0.50400001928E-02 0. -1.
       -1    1    3    3    0  502 -0.91571968864E+03  0.48658099879E+03  0.12663893093E+04  0.16367790013E+04  0.50400001928E-02 0.  1.
</event>
<event>
 5   0  0.3486236E-06  0.2190420E+04  0.7818609E-02  0.8522426E-01
       -1   -1    0    0    0  501  0.00000000000E+00  0.00000000000E+00  0.10194792998E+04  0.10194792999E+04  0.50400001928E-02 0. -1.
        1   -1    0    0  501    0  0.00000000000E+00  0.00000000000E+00 -0.11765657496E+04  0.11765657496E+04  0.50400001928E-02 0.  1.
    10030    2    1    2    0    0  0.00000000000E+00  0.00000000000E+00 -0.15708644976E+03  0.21960450495E+04  0.21904195275E+04 0.  0.
        5    1    3    3  502    0 -0.48178251542E+03 -0.34492583405E+03  0.84489457219E+03  0.10319676115E+04  0.46999998093E+01 0. -1.
       -5    1    3    3    0  502  0.48178251542E+03  0.34492583405E+03 -0.10019810220E+04  0.11640774379E+04  0.46999998093E+01 0.  1.
</event>
<event>
 5   0  0.3564340E-06  0.2895100E+04  0.7818609E-02  0.8274337E-01
       -1   -1    0    0    0  501  0.00000000000E+00  0.00000000000E+00  0.16288947332E+04  0.16288947332E+04  0.50400001928E-02 0. -1.
        1   -1    0    0  501    0  0.00000000000E+00  0.00000000000E+00 -0.12863944984E+04  0.12863944984E+04  0.50400001928E-02 0.  1.
    10030    2    1    2    0    0  0.00000000000E+00  0.00000000000E+00  0.34250023484E+03  0.29152892316E+04  0.28951001525E+04 0.  0.
        1    1    3    3  502    0 -0.25053551787E+03 -0.31365970257E+03  0.15717221657E+04  0.16221778635E+04  0.50400001928E-02 0. -1.
       -1    1    3    3    0  502  0.25053551787E+03  0.31365970257E+03 -0.12292219309E+04  0.12931113680E+04  0.50400001928E-02 0.  1.
</event>
<event>
 5   0  0.3564340E-06  0.2842394E+04  0.7818609E-02  0.8290226E-01
       -1   -1    0    0    0  501  0.00000000000E+00  0.00000000000E+00  0.24386436300E+04  0.24386436300E+04  0.50400001928E-02 0. -1.
        1   -1    0    0  501    0  0.00000000000E+00  0.00000000000E+00 -0.82824778734E+03  0.82824778735E+03  0.50400001928E-02 0.  1.
    10030    2    1    2    0    0  0.00000000000E+00  0.00000000000E+00  0.16103958426E+04  0.32668914173E+04  0.28423941955E+04 0.  0.
        1    1    3    3  502    0  0.11225481138E+04 -0.36826493122E+03 -0.10276121227E+03  0.11858723347E+04  0.50400001928E-02 0.  1.
       -1    1    3    3    0  502 -0.11225481138E+04  0.36826493122E+03  0.17131570549E+04  0.20810190826E+04  0.50400001928E-02 0. -1.
</event>
<event>
 5   0  0.3746518E-06  0.2894757E+04  0.7818609E-02  0.8274439E-01
       -1   -1    0    0    0  501  0.00000000000E+00  0.00000000000E+00  0.89646174986E+03  0.89646174988E+03  0.50400001928E-02 0. -1.
        1   -1    0    0  501    0  0.00000000000E+00  0.00000000000E+00 -0.23368588113E+04  0.23368588113E+04  0.50400001928E-02 0.  1.
    10030    2    1    2    0    0  0.00000000000E+00  0.00000000000E+00 -0.14403970615E+04  0.32333205612E+04  0.28947570117E+04 0.  0.
        4    1    3    3  502    0 -0.94850476265E+03  0.77933866511E+03 -0.15766018950E+04  0.19981754648E+04  0.12699999809E+01 0.  1.
       -4    1    3    3    0  502  0.94850476265E+03 -0.77933866511E+03  0.13620483356E+03  0.12351450964E+04  0.12699999809E+01 0. -1.
</event>
<event>
 5   0  0.3474078E-06  0.2485856E+04  0.7818609E-02  0.8408042E-01
        1   -1    0    0  501    0  0.00000000000E+00  0.00000000000E+00  0.15338498154E+04  0.15338498154E+04  0.50400001928E-02 0.  1.
       -1   -1    0    0    0  501  0.00000000000E+00  0.00000000000E+00 -0.10071847577E+04  0.10071847578E+04  0.50400001928E-02 0. -1.
    10030    2    1    2    0    0  0.00000000000E+00  0.00000000000E+00  0.52666505766E+03  0.25410345732E+04  0.24858561139E+04 0.  0.
        3    1    3    3  502    0 -0.28124682036E+03 -0.89566528948E+03 -0.56933713426E+03  0.10979348193E+04  0.10100000352E+00 0. -1.
       -3    1    3    3    0  502  0.28124682036E+03  0.89566528948E+03  0.10960021919E+04  0.14430997539E+04  0.10100000352E+00 0.  1.
</event>
<event>
 5   0  0.1001573E-05  0.2694473E+04  0.7818609E-02  0.8336801E-01
        2   -1    0    0  501    0  0.00000000000E+00  0.00000000000E+00  0.12608184412E+04  0.12608184412E+04  0.25500000920E-02 0.  1.
       -2   -1    0    0    0  501  0.00000000000E+00  0.00000000000E+00 -0.14395775016E+04  0.14395775016E+04  0.25500000920E-02 0. -1.
    10030    2    1    2    0    0  0.00000000000E+00  0.00000000000E+00 -0.17875906032E+03  0.27003959428E+04  0.26944727585E+04 0.  0.
        1    1    3    3  502    0  0.92361772948E+03 -0.91472486016E+03  0.26531170758E+03  0.13267183507E+04  0.50400001928E-02 0.  1.
       -1    1    3    3    0  502 -0.92361772948E+03  0.91472486016E+03 -0.44407076790E+03  0.13736775921E+04  0.50400001928E-02 0. -1.
</event>
<event>
 5   0  0.9646321E-06  0.2900571E+04  0.7818609E-02  0.8272708E-01
       -2   -1    0    0    0  501  0.00000000000E+00  0.00000000000E+00  0.98318323983E+03  0.98318323984E+03  0.25500000920E-02 0.  1.
        2   -1    0    0  501    0  0.00000000000E+00  0.00000000000E+00 -0.21393035376E+04  0.21393035376E+04  0.25500000920E-02 0. -1.
    10030    2    1    2    0    0  0.00000000000E+00  0.00000000000E+00 -0.11561202978E+04  0.31224867775E+04  0.29005705529E+04 0.  0.
        3    1    3    3  502    0 -0.31437901143E+03  0.12646321529E+04  0.10719327002E+03  0.13075240159E+04  0.10100000352E+00 0.  1.
       -3    1    3    3    0  502  0.31437901143E+03 -0.12646321529E+04 -0.12633135678E+04  0.18149627615E+04  0.10100000352E+00 0. -1.
</event>
<event>
 5   0  0.3474078E-06  0.2881044E+04  0.7818609E-02  0.8278540E-01
       -1   -1    0    0    0  501  0.00000000000E+00  0.00000000000E+00  0.10354509259E+04  0.10354509259E+04  0.50400001928E-02 0. -1.
        1   -1    0    0  501    0  0.00000000000E+00  0.00000000000E+00 -0.20040575412E+04  0.20040575412E+04  0.50400001928E-02 0.  1.
    10030    2    1    2    0    0  0.00000000000E+00  0.00000000000E+00 -0.96860661533E+03  0.30395084671E+04  0.28810437252E+04 0.  0.
        3    1    3    3  502    0  0.15382291810E+03 -0.13524081439E+04  0.13266527356E+02  0.13611925980E+04  0.10100000352E+00 0. -1.
       -3    1    3    3    0  502 -0.15382291810E+03  0.13524081439E+04 -0.98187314268E+03  0.16783158691E+04  0.10100000352E+00 0.  1.
</event>
<event>
 5   0  0.9360689E-06  0.2920900E+04  0.7818609E-02  0.8266686E-01
        2   -1    0    0  501    0  0.00000000000E+00  0.00000000000E+00  0.19176813011E+04  0.19176813011E+04  0.25500000920E-02 0.  1.
       -2   -1    0    0    0  501  0.00000000000E+00  0.00000000000E+00 -0.11122360978E+04  0.11122360978E+04  0.25500000920E-02 0. -1.
    10030    2    1    2    0    0  0.00000000000E+00  0.00000000000E+00  0.80544520334E+03  0.30299173989E+04  0.29209001128E+04 0.  0.
        5    1    3    3  502    0 -0.93959781142E+03 -0.46258083192E+03  0.14585867575E+04  0.17956398560E+04  0.46999998093E+01 0.  1.
       -5    1    3    3    0  502  0.93959781142E+03  0.46258083192E+03 -0.65314155416E+03  0.12342775430E+04  0.46999998093E+01 0. -1.
</event>
<event>
 5   0  0.3746518E-06  0.2144347E+04  0.7818609E-02  0.8541956E-01
       -1   -1    0    0    0  501  0.00000000000E+00  0.00000000000E+00  0.68097411950E+03  0.68097411952E+03  0.50400001928E-02 0. -1.
        1   -1    0    0  501    0  0.00000000000E+00  0.00000000000E+00 -0.16881058154E+04  0.16881058154E+04  0.50400001928E-02 0.  1.
    10030    2    1    2    0    0  0.00000000000E+00  0.00000000000E+00 -0.10071316959E+04  0.23690799350E+04  0.21443473332E+04 0.  0.
        4    1    3    3  502    0  0.75580911931E+03 -0.67015277795E+03 -0.90068441114E+03  0.13533610723E+04  0.12699999809E+01 0.  1.
       -4    1    3    3    0  502 -0.75580911931E+03  0.67015277795E+03 -0.10644728478E+03  0.10157188627E+04  0.12699999809E+01 0. -1.
</event>
<event>
 5   0  0.3649705E-06  0.2866957E+04  0.7818609E-02  0.8282777E-01
        1   -1    0    0  501    0  0.00000000000E+00  0.00000000000E+00  0.16947264567E+04  0.16947264567E+04  0.50400001928E-02 0. -1.
       -1   -1    0    0    0  501  0.00000000000E+00  0.00000000000E+00 -0.12125028453E+04  0.12125028453E+04  0.50400001928E-02 0.  1.
    10030    2    1    2    0    0  0.00000000000E+00  0.00000000000E+00  0.48222361143E+03  0.29072293020E+04  0.28669570284E+04 0.  0.
        2    1    3    3  502    0 -0.59905220999E+03  0.12774047625E+04  0.49811656900E+03  0.14962441625E+04  0.25500000920E-02 0.  1.
       -2    1    3    3    0  502  0.59905220999E+03 -0.12774047625E+04 -0.15892957576E+02  0.14109851394E+04  0.25500000920E-02 0. -1.
</event>
<event>
 5   0  0.3564340E-06  0.2937710E+04  0.7818609E-02  0.8261745E-01
       -1   -1    0    0    0  501  0.00000000000E+00  0.00000000000E+00  0.19810859239E+04  0.19810859239E+04  0.50400001928E-02 0.  1.
        1   -1    0    0  501    0  0.00000000000E+00  0.00000000000E+00 -0.10890666290E+04  0.10890666290E+04  0.50400001928E-02 0. -1.
    10030    2    1    2    0    0  0.00000000000E+00  0.00000000000E+00  0.89201929487E+03  0.30701525529E+04  0.29377096990E+04 0.  0.
        1    1    3    3  502    0 -0.99213276130E+03  0.98397394068E+03  0.91919423497E+03  0.16725579732E+04  0.50400001928E-02 0.  1.
       -1    1    3    3    0  502  0.99213276130E+03 -0.98397394068E+03 -0.27174940107E+02  0.13975945798E+04  0.50400001928E-02 0. -1.
</event>
<event>
 5   0  0.3486236E-06  0.2970476E+04  0.7818609E-02  0.8252212E-01
       -1   -1    0    0    0  501  0.00000000000E+00  0.00000000000E+00  0.94856506052E+03  0.94856506053E+03  0.50400001928E-02 0. -1.
        1   -1    0    0  501    0  0.00000000000E+00  0.00000000000E+00 -0.23255469852E+04  0.23255469852E+04  0.50400001928E-02 0.  1.
    10030    2    1    2    0    0  0.00000000000E+00  0.00000000000E+00 -0.13769819247E+04  0.32741120458E+04  0.29704764714E+04 0.  0.
        5    1    3    3  502    0  0.81639523141E+03 -0.12077009763E+04 -0.10019313671E+04  0.17688785646E+04  0.46999998093E+01 0. -1.
       -5    1    3    3    0  502 -0.81639523141E+03  0.12077009763E+04 -0.37505055758E+03  0.15052334811E+04  0.46999998093E+01 0.  1.
</event>
<event>
 5   0  0.9360689E-06  0.2907411E+04  0.7818609E-02  0.8270676E-01
        2   -1    0    0  501    0  0.00000000000E+00  0.00000000000E+00  0.16761820689E+04  0.16761820689E+04  0.25500000920E-02 0. -1.
       -2   -1    0    0    0  501  0.00000000000E+00  0.00000000000E+00 -0.12607575003E+04  0.12607575003E+04  0.25500000920E-02 0.  1.
    10030    2    1    2    0    0  0.00000000000E+00  0.00000000000E+00  0.41542456862E+03  0.29369395691E+04  0.29074106109E+04 0.  0.
        5    1    3    3  502    0  0.13818740235E+04 -0.44621112014E+03  0.27590229265E+03  0.14781151328E+04  0.46999998093E+01 0. -1.
       -5    1    3    3    0  502 -0.13818740235E+04  0.44621112014E+03  0.13952227598E+03  0.14588244364E+04  0.46999998093E+01 0.  1.
</event>
<event>
 5   0  0.9505359E-06  0.2892240E+04  0.7818609E-02  0.8275190E-01
       -2   -1    0    0    0  501  0.00000000000E+00  0.00000000000E+00  0.13238706573E+04  0.13238706573E+04  0.25500000920E-02 0.  1.
        2   -1    0    0  501    0  0.00000000000E+00  0.00000000000E+00 -0.15796578586E+04  0.15796578586E+04  0.25500000920E-02 0. -1.
    10030    2    1    2    0    0  0.00000000000E+00  0.00000000000E+00 -0.25578720124E+03  0.29035285159E+04  0.28922397463E+04 0.  0.
        4    1    3    3  502    0  0.96800447579E+03  0.23049337297E+03 -0.11813229801E+04  0.15445664299E+04  0.12699999809E+01 0. -1.
       -4    1    3    3    0  502 -0.96800447579E+03 -0.23049337297E+03  0.92553577890E+03  0.13589620860E+04  0.12699999809E+01 0.  1.
</event>
<event>
 5   0  0.3486236E-06  0.2919512E+04  0.7818609E-02  0.8267096E-01
        1   -1    0    0  501    0  0.00000000000E+00  0.00000000000E+00  0.11173631436E+04  0.11173631436E+04  0.50400001928E-02 0.  1.
       -1   -1    0    0    0  501  0.00000000000E+00  0.00000000000E+00 -0.19070685137E+04  0.19070685137E+04  0.50400001928E-02 0. -1.
    10030    2    1    2    0    0  0.00000000000E+00  0.00000000000E+00 -0.78970537009E+03  0.30244316572E+04  0.29195123356E+04 0.  0.
        5    1    3    3  502    0  0.34944098755E+03  0.62146538836E+03 -0.17144179200E+04  0.18567657707E+04  0.46999998093E+01 0. -1.
       -5    1    3    3    0  502 -0.34944098755E+03 -0.62146538836E+03  0.92471254991E+03  0.11676658866E+04  0.46999998093E+01 0.  1.
</event>
<event>
 5   0  0.3188375E-06  0.2907882E+04  0.7818609E-02  0.8270536E-01
        3   -1    0    0  501    0  0.00000000000E+00  0.00000000000E+00  0.11244186805E+04  0.11244186850E+04  0.10100000352E+00 0. -1.
       -3   -1    0    0    0  501  0.00000000000E+00  0.00000000000E+00 -0.18800326248E+04  0.18800326275E+04  0.10100000352E+00 0.  1.
    10030    2    1    2    0    0  0.00000000000E+00  0.00000000000E+00 -0.75561394431E+03  0.30044513125E+04  0.29078815753E+04 0.  0.
        4    1    3    3  502    0 -0.75302406861E+03  0.42953387573E+03  0.82817381861E+03  0.11989237194E+04  0.12699999809E+01 0. -1.
       -4    1    3    3    0  502  0.75302406861E+03 -0.42953387573E+03 -0.15837877629E+04  0.18055275930E+04  0.12699999809E+01 0.  1.
</event>
<event>
 5   0  0.1001573E-05  0.2861704E+04  0.7818609E-02  0.8284364E-01
        2   -1    0    0  501    0  0.00000000000E+00  0.00000000000E+00  0.25204678789E+04  0.25204678789E+04  0.25500000920E-02 0.  1.
       -2   -1    0    0    0  501  0.00000000000E+00  0.00000000000E+00 -0.81228444529E+03  0.81228444530E+03  0.25500000920E-02 0. -1.
    10030    2    1    2    0    0  0.00000000000E+00  0.00000000000E+00  0.17081834336E+04  0.33327523242E+04  0.28617035856E+04 0.  0.
        1    1    3    3  502    0  0.85550468500E+03 -0.61035470655E+03 -0.27678387395E+03  0.10867522472E+04  0.50400001928E-02 0. -1.
       -1    1    3    3    0  502 -0.85550468500E+03  0.61035470655E+03  0.19849673076E+04  0.22460000771E+04  0.50400001928E-02 0.  1.
</event>
<event>
 5   0  0.9505359E-06  0.2949564E+04  0.7818609E-02  0.8258282E-01
       -2   -1    0    0    0  501  0.00000000000E+00  0.00000000000E+00  0.12014969796E+04  0.12014969796E+04  0.25500000920E-02 0.  1.
        2   -1    0    0  501    0  0.00000000000E+00  0.00000000000E+00 -0.18102271708E+04  0.18102271708E+04  0.25500000920E-02 0. -1.
    10030    2    1    2    0    0  0.00000000000E+00  0.00000000000E+00 -0.60873019118E+03  0.30117241504E+04  0.29495643597E+04 0.  0.
        4    1    3    3  502    0 -0.12501199327E+04 -0.46758384745E+03 -0.94491838688E+03  0.16353308140E+04  0.12699999809E+01 0.  1.
       -4    1    3    3    0  502  0.12501199327E+04  0.46758384745E+03  0.33618819570E+03  0.13763933363E+04  0.12699999809E+01 0. -1.
</event>
<event>
 5   0  0.9505359E-06  0.2999351E+04  0.7818609E-02  0.8243916E-01
       -2   -1    0    0    0  501  0.00000000000E+00  0.00000000000E+00  0.81955601920E+03  0.81955601920E+03  0.25500000920E-02 0.  1.
        2   -1    0    0  501    0  0.00000000000E+00  0.00000000000E+00 -0.27442008471E+04  0.27442008471E+04  0.25500000920E-02 0. -1.
    10030    2    1    2    0    0  0.00000000000E+00  0.00000000000E+00 -0.19246448279E+04  0.35637568663E+04  0.29993508112E+04 0.  0.
        4    1    3    3  502    0 -0.46544501454E+03 -0.13749575441E+04 -0.14098681381E+04  0.20235802651E+04  0.12699999809E+01 0. -1.
       -4    1    3    3    0  502  0.46544501454E+03  0.13749575441E+04 -0.51477668984E+03  0.15401766012E+04  0.12699999809E+01 0.  1.
</event>
<event>
 5   0  0.3564340E-06  0.2839135E+04  0.7818609E-02  0.8291221E-01
       -1   -1    0    0    0  501  0.00000000000E+00  0.00000000000E+00  0.10466427894E+04  0.10466427895E+04  0.50400001928E-02 0.  1.
        1   -1    0    0  501    0  0.00000000000E+00  0.00000000000E+00 -0.19253668927E+04  0.19253668927E+04  0.50400001928E-02 0. -1.
    10030    2    1    2    0    0  0.00000000000E+00  0.00000000000E+00 -0.87872410329E+03  0.29720096822E+04  0.28391346395E+04 0.  0.
        1    1    3    3  502    0 -0.88232450373E+02  0.14149529313E+04 -0.36319251553E+03  0.14634840506E+04  0.50400001928E-02 0. -1.
       -1    1    3    3    0  502  0.88232450373E+02 -0.14149529313E+04 -0.51553158776E+03  0.15085256316E+04  0.50400001928E-02 0.  1.
</event>
<event>
 5   0  0.3474078E-06  0.2902870E+04  0.7818609E-02  0.8272024E-01
        1   -1    0    0  501    0  0.00000000000E+00  0.00000000000E+00  0.20442885733E+04  0.20442885734E+04  0.50400001928E-02 0.  1.
       -1   -1    0    0    0  501  0.00000000000E+00  0.00000000000E+00 -0.10305117666E+04  0.10305117666E+04  0.50400001928E-02 0. -1.
    10030    2    1    2    0    0  0.00000000000E+00  0.00000000000E+00  0.10137768067E+04  0.30748003400E+04  0.29028699104E+04 0.  0.
        3    1    3    3  502    0 -0.13052695712E+04  0.61716800949E+03  0.66413436827E+03  0.15892449386E+04  0.10100000352E+00 0.  1.
       -3    1    3    3    0  502  0.13052695712E+04 -0.61716800949E+03  0.34964243847E+03  0.14855554014E+04  0.10100000352E+00 0. -1.
</event>
<event>
 5   0  0.3474078E-06  0.2809774E+04  0.7818609E-02  0.8300240E-01
       -1   -1    0    0    0  501  0.00000000000E+00  0.00000000000E+00  0.15677175307E+04  0.15677175307E+04  0.50400001928E-02 0. -1.
        1   -1    0    0  501    0  0.00000000000E+00  0.00000000000E+00 -0.12589690214E+04  0.12589690215E+04  0.50400001928E-02 0.  1.
    10030    2    1    2    0    0  0.00000000000E+00  0.00000000000E+00  0.30874850926E+03  0.28266865522E+04  0.28097742298E+04 0.  0.
        3    1    3    3  502    0 -0.90468568300E+03 -0.83069356471E+03  0.84053519617E+03  0.14882900959E+04  0.10100000352E+00 0.  1.
       -3    1    3    3    0  502  0.90468568300E+03  0.83069356471E+03 -0.53178668690E+03  0.13383964562E+04  0.10100000352E+00 0. -1.
</event>
<event>
 5   0  0.9505359E-06  0.2949873E+04  0.7818609E-02  0.8258192E-01
       -2   -1    0    0    0  501  0.00000000000E+00  0.00000000000E+00  0.10363447558E+04  0.10363447558E+04  0.25500000920E-02 0. -1.
        2   -1    0    0  501    0  0.00000000000E+00  0.00000000000E+00 -0.20991447181E+04  0.20991447181E+04  0.25500000920E-02 0.  1.
    10030    2    1    2    0    0  0.00000000000E+00  0.00000000000E+00 -0.10627999622E+04  0.31354894739E+04  0.29498729602E+04 0.  0.
        4    1    3    3  502    0 -0.19823735293E+03  0.90073092660E+03  0.69203462295E+03  0.11530515090E+04  0.12699999809E+01 0. -1.
       -4    1    3    3    0  502  0.19823735293E+03 -0.90073092660E+03 -0.17548345852E+04  0.19824379649E+04  0.12699999809E+01 0.  1.
</event>
<event>
 5   0  0.3746518E-06  0.2896818E+04  0.7818609E-02  0.8273825E-01
       -1   -1    0    0    0  501  0.00000000000E+00  0.00000000000E+00  0.15331566510E+04  0.15331566510E+04  0.50400001928E-02 0.  1.
        1   -1    0    0  501    0  0.00000000000E+00  0.00000000000E+00 -0.13683458994E+04  0.13683458994E+04  0.50400001928E-02 0. -1.
    10030    2    1    2    0    0  0.00000000000E+00  0.00000000000E+00  0.16481075164E+03  0.29015025504E+04  0.28968179898E+04 0.  0.
        4    1    3    3  502    0  0.21656376596E+03  0.83098833098E+03  0.12506729618E+04  0.15171110511E+04  0.12699999809E+01 0.  1.
       -4    1    3    3    0  502 -0.21656376596E+03 -0.83098833098E+03 -0.10858622102E+04  0.13843914993E+04  0.12699999809E+01 0. -1.
</event>
<event>
 5   0  0.1001573E-05  0.2844709E+04  0.7818609E-02  0.8289521E-01
       -2   -1    0    0    0  501  0.00000000000E+00  0.00000000000E+00  0.76284683243E+03  0.76284683244E+03  0.25500000920E-02 0.  1.
        2   -1    0    0  501    0  0.00000000000E+00  0.00000000000E+00 -0.26520291936E+04  0.26520291936E+04  0.25500000920E-02 0. -1.
    10030    2    1    2    0    0  0.00000000000E+00  0.00000000000E+00 -0.18891823612E+04  0.34148760261E+04  0.28447088216E+04 0.  0.
        1    1    3    3  502    0 -0.85197760334E+03  0.10547302161E+04 -0.42858687323E+03  0.14219734081E+04  0.50400001928E-02 0.  1.
       -1    1    3    3    0  502  0.85197760334E+03 -0.10547302161E+04 -0.14605954880E+04  0.19929026180E+04  0.50400001928E-02 0. -1.
</event>
<event>
 5   0  0.3486236E-06  0.2885595E+04  0.7818609E-02  0.8277176E-01
        1   -1    0    0  501    0  0.00000000000E+00  0.00000000000E+00  0.21384902351E+04  0.21384902351E+04  0.50400001928E-02 0. -1.
       -1   -1    0    0    0  501  0.00000000000E+00  0.00000000000E+00 -0.97342746192E+03  0.97342746194E+03  0.50400001928E-02 0.  1.
    10030    2    1    2    0    0  0.00000000000E+00  0.00000000000E+00  0.11650627732E+04  0.31119176971E+04  0.28855953437E+04 0.  0.
        5    1    3    3  502    0 -0.15003879923E+03 -0.14349667398E+04  0.58399674270E+03  0.15565074594E+04  0.46999998093E+01 0.  1.
       -5    1    3    3    0  502  0.15003879923E+03  0.14349667398E+04  0.58106603051E+03  0.15554102377E+04  0.46999998093E+01 0. -1.
</event>
<event>
 5   0  0.9646321E-06  0.2883733E+04  0.7818609E-02  0.8277734E-01
        2   -1    0    0  501    0  0.00000000000E+00  0.00000000000E+00  0.15011283608E+04  0.15011283608E+04  0.25500000920E-02 0. -1.
       -2   -1    0    0    0  501  0.00000000000E+00  0.00000000000E+00 -0.13849440194E+04  0.13849440194E+04  0.25500000920E-02 0.  1.
    10030    2    1    2    0    0  0.00000000000E+00  0.00000000000E+00  0.11618434138E+03  0.28860723802E+04  0.28837328209E+04 0.  0.
        3    1    3    3  502    0  0.12633913621E+04 -0.69276371901E+03  0.42021201391E+01  0.14408667434E+04  0.10100000352E+00 0.  1.
       -3    1    3    3    0  502 -0.12633913621E+04  0.69276371901E+03  0.11198222124E+03  0.14452056367E+04  0.10100000352E+00 0. -1.
</event>
<event>
 5   0  0.1001573E-05  0.2896300E+04  0.7818609E-02  0.8273979E-01
       -2   -1    0    0    0  501  0.00000000000E+00  0.00000000000E+00  0.88169622064E+03  0.88169622064E+03  0.25500000920E-02 0.  1.
        2   -1    0    0  501    0  0.00000000000E+00  0.00000000000E+00 -0.23785272180E+04  0.23785272180E+04  0.25500000920E-02 0. -1.
    10030    2    1    2    0    0  0.00000000000E+00  0.00000000000E+00 -0.14968309974E+04  0.32602234386E+04  0.28963000251E+04 0.  0.
        1    1    3    3  502    0  0.51350189592E+03  0.13451899044E+04 -0.92250385403E+03  0.17100390162E+04  0.50400001928E-02 0.  1.
       -1    1    3    3    0  502 -0.51350189592E+03 -0.13451899044E+04 -0.57432714333E+03  0.15501844225E+04  0.50400001928E-02 0. -1.
</event>
<event>
 5   0  0.3486236E-06  0.3013961E+04  0.7818609E-02  0.8239755E-01
       -1   -1    0    0    0  501  0.00000000000E+00  0.00000000000E+00  0.26238278664E+04  0.26238278664E+04  0.50400001928E-02 0.  1.
        1   -1    0    0  501    0  0.00000000000E+00  0.00000000000E+00 -0.86552563784E+03  0.86552563785E+03  0.50400001928E-02 0. -1.
    10030    2    1    2    0    0  0.00000000000E+00  0.00000000000E+00  0.17583022286E+04  0.34893535043E+04  0.30139610400E+04 0.  0.
        5    1    3    3  502    0 -0.59276004044E+03 -0.83376828104E+03  0.21602275975E+04  0.23902174326E+04  0.46999998093E+01 0.  1.
       -5    1    3    3    0  502  0.59276004044E+03  0.83376828104E+03 -0.40192536888E+03  0.10991360717E+04  0.46999998093E+01 0. -1.
</event>
<event>
 5   0  0.3649705E-06  0.2947257E+04  0.7818609E-02  0.8258954E-01
        1   -1    0    0  501    0  0.00000000000E+00  0.00000000000E+00  0.13553687062E+04  0.13553687062E+04  0.50400001928E-02 0.  1.
       -1   -1    0    0    0  501  0.00000000000E+00  0.00000000000E+00 -0.16022070809E+04  0.16022070809E+04  0.50400001928E-02 0. -1.
    10030    2    1    2    0    0  0.00000000000E+00  0.00000000000E+00 -0.24683837465E+03  0.29575757871E+04  0.29472572595E+04 0.  0.
        2    1    3    3  502    0 -0.10456970534E+04 -0.10212031294E+04 -0.31180811593E+03  0.14945107762E+04  0.25500000920E-02 0. -1.
       -2    1    3    3    0  502  0.10456970534E+04  0.10212031294E+04  0.64969741274E+02  0.14630650110E+04  0.25500000920E-02 0.  1.
</event>
<event>
 5   0  0.9251510E-06  0.2887329E+04  0.7818609E-02  0.8276658E-01
       -2   -1    0    0    0  501  0.00000000000E+00  0.00000000000E+00  0.83638372152E+03  0.83638372152E+03  0.25500000920E-02 0. -1.
        2   -1    0    0  501    0  0.00000000000E+00  0.00000000000E+00 -0.24918787984E+04  0.24918787984E+04  0.25500000920E-02 0.  1.
    10030    2    1    2    0    0  0.00000000000E+00  0.00000000000E+00 -0.16554950769E+04  0.33282625200E+04  0.28873287745E+04 0.  0.
        2    1    3    3  502    0 -0.88323626221E+02 -0.14404088705E+04 -0.78181099436E+03  0.16412821842E+04  0.25500000920E-02 0. -1.
       -2    1    3    3    0  502  0.88323626221E+02  0.14404088705E+04 -0.87368408257E+03  0.16869803358E+04  0.25500000920E-02 0.  1.
</event>
<event>
 5   0  0.9251510E-06  0.2888291E+04  0.7818609E-02  0.8276370E-01
        2   -1    0    0  501    0  0.00000000000E+00  0.00000000000E+00  0.29142932480E+04  0.29142932480E+04  0.25500000920E-02 0. -1.
       -2   -1    0    0    0  501  0.00000000000E+00  0.00000000000E+00 -0.71562995823E+03  0.71562995823E+03  0.25500000920E-02 0.  1.
    10030    2    1    2    0    0  0.00000000000E+00  0.00000000000E+00  0.21986632898E+04  0.36299232062E+04  0.28882905362E+04 0.  0.
        2    1    3    3  502    0  0.12585303878E+04  0.51286310498E+03  0.48540357341E+03  0.14431021900E+04  0.25500000920E-02 0.  1.
       -2    1    3    3    0  502 -0.12585303878E+04 -0.51286310498E+03  0.17132597164E+04  0.21868210163E+04  0.25500000920E-02 0. -1.
</event>
<event>
 5   0  0.3474078E-06  0.2813566E+04  0.7818609E-02  0.8299069E-01
       -1   -1    0    0    0  501  0.00000000000E+00  0.00000000000E+00  0.94177728545E+03  0.94177728546E+03  0.50400001928E-02 0.  1.
        1   -1    0    0  501    0  0.00000000000E+00  0.00000000000E+00 -0.21013863109E+04  0.21013863109E+04  0.50400001928E-02 0. -1.
    10030    2    1    2    0    0  0.00000000000E+00  0.00000000000E+00 -0.11596090254E+04  0.30431635963E+04  0.28135656350E+04 0.  0.
        3    1    3    3  502    0 -0.23967700530E+02  0.11901167094E+04 -0.13907086183E+04  0.18305798818E+04  0.10100000352E+00 0.  1.
       -3    1    3    3    0  502  0.23967700530E+02 -0.11901167094E+04  0.23109959285E+03  0.12125837145E+04  0.10100000352E+00 0. -1.
</event>
<event>
 5   0  0.3649705E-06  0.2517113E+04  0.7818609E-02  0.8396914E-01
       -1   -1    0    0    0  501  0.00000000000E+00  0.00000000000E+00  0.20517943354E+04  0.20517943354E+04  0.50400001928E-02 0. -1.
        1   -1    0    0  501    0  0.00000000000E+00  0.00000000000E+00 -0.77198962156E+03  0.77198962157E+03  0.50400001928E-02 0.  1.
    10030    2    1    2    0    0  0.00000000000E+00  0.00000000000E+00  0.12798047138E+04  0.28237839570E+04  0.25171125779E+04 0.  0.
        2    1    3    3  502    0  0.51466303317E+03  0.10422087942E+04  0.98523622329E+02  0.11665265160E+04  0.25500000920E-02 0.  1.
       -2    1    3    3    0  502 -0.51466303317E+03 -0.10422087942E+04  0.11812810915E+04  0.16572574409E+04  0.25500000920E-02 0. -1.
</event>
<event>
 5   0  0.1001573E-05  0.2874279E+04  0.7818609E-02  0.8280572E-01
        2   -1    0    0  501    0  0.00000000000E+00  0.00000000000E+00  0.22704209130E+04  0.22704209130E+04  0.25500000920E-02 0. -1.
       -2   -1    0    0    0  501  0.00000000000E+00  0.00000000000E+00 -0.90968562262E+03  0.90968562263E+03  0.25500000920E-02 0.  1.
    10030    2    1    2    0    0  0.00000000000E+00  0.00000000000E+00  0.13607352903E+04  0.31801065356E+04  0.28742785264E+04 0.  0.
        1    1    3    3  502    0 -0.10340455373E+04 -0.93665001086E+03  0.29901064377E+03  0.14268744798E+04  0.50400001928E-02 0.  1.
       -1    1    3    3    0  502  0.10340455373E+04  0.93665001086E+03  0.10617246466E+04  0.17532320557E+04  0.50400001928E-02 0. -1.
</event>
<event>
 5   0  0.3746518E-06  0.2886754E+04  0.7818609E-02  0.8276830E-01
        1   -1    0    0  501    0  0.00000000000E+00  0.00000000000E+00  0.27189795338E+04  0.27189795338E+04  0.50400001928E-02 0. -1.
       -1   -1    0    0    0  501  0.00000000000E+00  0.00000000000E+00 -0.76622015360E+03  0.76622015361E+03  0.50400001928E-02 0.  1.
    10030    2    1    2    0    0  0.00000000000E+00  0.00000000000E+00  0.19527593802E+04  0.34851996874E+04  0.28867538281E+04 0.  0.
        4    1    3    3  502    0  0.68580671694E+03  0.88380671897E+03  0.20775408961E+04  0.23595810978E+04  0.12699999809E+01 0. -1.
       -4    1    3    3    0  502 -0.68580671694E+03 -0.88380671897E+03 -0.12478151591E+03  0.11256185895E+04  0.12699999809E+01 0.  1.
</event>
<event>
 5   0  0.1001573E-05  0.3452603E+04  0.7818609E-02  0.8125115E-01
        2   -1    0    0  501    0  0.00000000000E+00  0.00000000000E+00  0.17368937056E+04  0.17368937056E+04  0.25500000920E-02 0.  1.
       -2   -1    0    0    0  501  0.00000000000E+00  0.00000000000E+00 -0.17157736105E+04  0.17157736105E+04  0.25500000920E-02 0. -1.
    10030    2    1    2    0    0  0.00000000000E+00  0.00000000000E+00  0.21120095054E+02  0.34526673161E+04  0.34526027193E+04 0.  0.
        1    1    3    3  502    0  0.16035362886E+04  0.22424331664E+02  0.64954375823E+03  0.17302423453E+04  0.50400001928E-02 0.  1.
       -1    1    3    3    0  502 -0.16035362886E+04 -0.22424331664E+02 -0.62842366318E+03  0.17224249708E+04  0.50400001928E-02 0. -1.
</event>
<event>
 5   0  0.3564340E-06  0.2853616E+04  0.7818609E-02  0.8286813E-01
        1   -1    0    0  501    0  0.00000000000E+00  0.00000000000E+00  0.24006537828E+04  0.24006537828E+04  0.50400001928E-02 0. -1.
       -1   -1    0    0    0  501  0.00000000000E+00  0.00000000000E+00 -0.84801106225E+03  0.84801106226E+03  0.50400001928E-02 0.  1.
    10030    2    1    2    0    0  0.00000000000E+00  0.00000000000E+00  0.15526427206E+04  0.32486648451E+04  0.28536159268E+04 0.  0.
        1    1    3    3  502    0  0.81187461324E+03  0.19859262542E+03  0.20927818324E+04  0.22535117520E+04  0.50400001928E-02 0. -1.
       -1    1    3    3    0  502 -0.81187461324E+03 -0.19859262542E+03 -0.54013911181E+03  0.99515309306E+03  0.50400001928E-02 0.  1.
</event>
<event>
 5   0  0.9505359E-06  0.2915150E+04  0.7818609E-02  0.8268384E-01
       -2   -1    0    0    0  501  0.00000000000E+00  0.00000000000E+00  0.12035177537E+04  0.12035177537E+04  0.25500000920E-02 0. -1.
        2   -1    0    0  501    0  0.00000000000E+00  0.00000000000E+00 -0.17652630402E+04  0.17652630402E+04  0.25500000920E-02 0.  1.
    10030    2    1    2    0    0  0.00000000000E+00  0.00000000000E+00 -0.56174528648E+03  0.29687807939E+04  0.29151503624E+04 0.  0.
        4    1    3    3  502    0 -0.14038488104E+04  0.71793465508E+02  0.11167686938E+03  0.14101131587E+04  0.12699999809E+01 0.  1.
       -4    1    3    3    0  502  0.14038488104E+04 -0.71793465508E+02 -0.67342215586E+03  0.15586676353E+04  0.12699999809E+01 0. -1.
</event>
<event>
 5   0  0.3188375E-06  0.2917113E+04  0.7818609E-02  0.8267804E-01
        3   -1    0    0  501    0  0.00000000000E+00  0.00000000000E+00  0.15255186961E+04  0.15255186995E+04  0.10100000352E+00 0. -1.
       -3   -1    0    0    0  501  0.00000000000E+00  0.00000000000E+00 -0.13945337647E+04  0.13945337684E+04  0.10100000352E+00 0.  1.
    10030    2    1    2    0    0  0.00000000000E+00  0.00000000000E+00  0.13098493141E+03  0.29200524679E+04  0.29171131899E+04 0.  0.
        4    1    3    3  502    0 -0.11887690690E+04  0.68976888013E+03  0.55428020212E+03  0.14819518085E+04  0.12699999809E+01 0. -1.
       -4    1    3    3    0  502  0.11887690690E+04 -0.68976888013E+03 -0.42329527071E+03  0.14381006594E+04  0.12699999809E+01 0.  1.
</event>
<event>
 5   0  0.9646321E-06  0.2899802E+04  0.7818609E-02  0.8272936E-01
        2   -1    0    0  501    0  0.00000000000E+00  0.00000000000E+00  0.79992472885E+03  0.79992472885E+03  0.25500000920E-02 0.  1.
       -2   -1    0    0    0  501  0.00000000000E+00  0.00000000000E+00 -0.26280140360E+04  0.26280140360E+04  0.25500000920E-02 0. -1.
    10030    2    1    2    0    0  0.00000000000E+00  0.00000000000E+00 -0.18280893072E+04  0.34279387649E+04  0.28998023486E+04 0.  0.
        3    1    3    3  502    0  0.49963832944E+03 -0.11515874309E+04 -0.56352575905E+02  0.12565698127E+04  0.10100000352E+00 0.  1.
       -3    1    3    3    0  502 -0.49963832944E+03  0.11515874309E+04 -0.17717367313E+04  0.21713689522E+04  0.10100000352E+00 0. -1.
</event>
<event>
 5   0  0.9251510E-06  0.2819638E+04  0.7818609E-02  0.8297197E-01
       -2   -1    0    0    0  501  0.00000000000E+00  0.00000000000E+00  0.13780333755E+04  0.13780333755E+04  0.25500000920E-02 0.  1.
        2   -1    0    0  501    0  0.00000000000E+00  0.00000000000E+00 -0.14423378807E+04  0.14423378807E+04  0.25500000920E-02 0. -1.
    10030    2    1    2    0    0  0.00000000000E+00  0.00000000000E+00 -0.64304505188E+02  0.28203712563E+04  0.28196380891E+04 0.  0.
        2    1    3    3  502    0  0.13646681241E+04  0.32944599439E+03  0.97249025966E+02  0.14072352771E+04  0.25500000920E-02 0.  1.
       -2    1    3    3    0  502 -0.13646681241E+04 -0.32944599439E+03 -0.16155353115E+03  0.14131359791E+04  0.25500000920E-02 0. -1.
</event>
<event>
 5   0  0.1001573E-05  0.2963474E+04  0.7818609E-02  0.8254239E-01
       -2   -1    0    0    0  501  0.00000000000E+00  0.00000000000E+00  0.18428732504E+04  0.18428732504E+04  0.25500000920E-02 0.  1.
        2   -1    0    0  501    0  0.00000000000E+00  0.00000000000E+00 -0.11913703605E+04  0.11913703605E+04  0.25500000920E-02 0. -1.
    10030    2    1    2    0    0  0.00000000000E+00  0.00000000000E+00  0.65150288990E+03  0.30342436110E+04  0.29634740214E+04 0.  0.
        1    1    3    3  502    0 -0.52955858569E+03 -0.27930414212E+03 -0.10620134392E+04  0.12191454567E+04  0.50400001928E-02 0. -1.
       -1    1    3    3    0  502  0.52955858569E+03  0.27930414212E+03  0.17135163291E+04  0.18150981543E+04  0.50400001928E-02 0.  1.
</event>
<event>
 5   0  0.3746518E-06  0.2960094E+04  0.7818609E-02  0.8255219E-01
        1   -1    0    0  501    0  0.00000000000E+00  0.00000000000E+00  0.20666160892E+04  0.20666160892E+04  0.50400001928E-02 0.  1.
       -1   -1    0    0    0  501  0.00000000000E+00  0.00000000000E+00 -0.10599641081E+04  0.10599641081E+04  0.50400001928E-02 0. -1.
    10030    2    1    2    0    0  0.00000000000E+00  0.00000000000E+00  0.10066519810E+04  0.31265801973E+04  0.29600938362E+04 0.  0.
        4    1    3    3  502    0 -0.14929271695E+03  0.14533522442E+04  0.75331501347E+03  0.16437780213E+04  0.12699999809E+01 0.  1.
       -4    1    3    3    0  502  0.14929271695E+03 -0.14533522442E+04  0.25333696756E+03  0.14828021760E+04  0.12699999809E+01 0. -1.
</event>
<event>
 5   0  0.9251510E-06  0.2837053E+04  0.7818609E-02  0.8291856E-01
        2   -1    0    0  501    0  0.00000000000E+00  0.00000000000E+00  0.16415437061E+04  0.16415437061E+04  0.25500000920E-02 0.  1.
       -2   -1    0    0    0  501  0.00000000000E+00  0.00000000000E+00 -0.12258076236E+04  0.12258076236E+04  0.25500000920E-02 0. -1.
    10030    2    1    2    0    0  0.00000000000E+00  0.00000000000E+00  0.41573608248E+03  0.28673513297E+04  0.28370525476E+04 0.  0.
        2    1    3    3  502    0 -0.24664237774E+03  0.68914711034E+03 -0.10202057376E+04  0.12556177560E+04  0.25500000920E-02 0. -1.
       -2    1    3    3    0  502  0.24664237774E+03 -0.68914711034E+03  0.14359418200E+04  0.16117335738E+04  0.25500000920E-02 0.  1.
</event>
<event>
 5   0  0.3474078E-06  0.2215211E+04  0.7818609E-02  0.8512124E-01
        1   -1    0    0  501    0  0.00000000000E+00  0.00000000000E+00  0.12317874960E+04  0.12317874960E+04  0.50400001928E-02 0. -1.
       -1   -1    0    0    0  501  0.00000000000E+00  0.00000000000E+00 -0.99594262002E+03  0.99594262004E+03  0.50400001928E-02 0.  1.
    10030    2    1    2    0    0  0.00000000000E+00  0.00000000000E+00  0.23584487600E+03  0.22277301161E+04  0.22152107495E+04 0.  0.
        3    1    3    3  502    0  0.10744871384E+04 -0.16803266342E+03 -0.93101670561E+02  0.10915244009E+04  0.10100000352E+00 0.  1.
       -3    1    3    3    0  502 -0.10744871384E+04  0.16803266342E+03  0.32894654656E+03  0.11362057152E+04  0.10100000352E+00 0. -1.
</event>
<event>
 5   0  0.3746518E-06  0.2903803E+04  0.7818609E-02  0.8271747E-01
        1   -1    0    0  501    0  0.00000000000E+00  0.00000000000E+00  0.98927429116E+03  0.98927429117E+03  0.50400001928E-02 0. -1.
       -1   -1    0    0    0  501  0.00000000000E+00  0.00000000000E+00 -0.21308732064E+04  0.21308732064E+04  0.50400001928E-02 0.  1.
    10030    2    1    2    0    0  0.00000000000E+00  0.00000000000E+00 -0.11415989152E+04  0.31201474975E+04  0.29038030793E+04 0.  0.
        4    1    3    3  502    0  0.94805512336E+03  0.81222308567E+03 -0.13673116865E+04  0.18515014768E+04  0.12699999809E+01 0. -1.
       -4    1    3    3    0  502 -0.94805512336E+03 -0.81222308567E+03  0.22571277128E+03  0.12686460207E+04  0.12699999809E+01 0.  1.
</event>
<event>
 5   0  0.3649705E-06  0.2838388E+04  0.7818609E-02  0.8291448E-01
        1   -1    0    0  501    0  0.00000000000E+00  0.00000000000E+00  0.15562449897E+04  0.15562449897E+04  0.50400001928E-02 0. -1.
       -1   -1    0    0    0  501  0.00000000000E+00  0.00000000000E+00 -0.12942128636E+04  0.12942128636E+04  0.50400001928E-02 0.  1.
    10030    2    1    2    0    0  0.00000000000E+00  0.00000000000E+00  0.26203212614E+03  0.28504578533E+04  0.28383884756E+04 0.  0.
        2    1    3    3  502    0  0.12747720213E+04 -0.19289190971E+03 -0.46468521805E+03  0.13704682947E+04  0.25500000920E-02 0.  1.
       -2    1    3    3    0  502 -0.12747720213E+04  0.19289190971E+03  0.72671734419E+03  0.14799895585E+04  0.25500000920E-02 0. -1.
</event>
<event>
 5   0  0.3486236E-06  0.2926595E+04  0.7818609E-02  0.8265008E-01
       -1   -1    0    0    0  501  0.00000000000E+00  0.00000000000E+00  0.13446341746E+04  0.13446341746E+04  0.50400001928E-02 0. -1.
        1   -1    0    0  501    0  0.00000000000E+00  0.00000000000E+00 -0.15924332650E+04  0.15924332650E+04  0.50400001928E-02 0.  1.
    10030    2    1    2    0    0  0.00000000000E+00  0.00000000000E+00 -0.24779909040E+03  0.29370674395E+04  0.29265954205E+04 0.  0.
        5    1    3    3  502    0 -0.86851412759E+03 -0.43328052482E+03  0.97508473424E+03  0.13758128986E+04  0.46999998093E+01 0. -1.
       -5    1    3    3    0  502  0.86851412759E+03  0.43328052482E+03 -0.12228838246E+04  0.15612545409E+04  0.46999998093E+01 0.  1.
</event>
<event>
 5   0  0.1001573E-05  0.2970894E+04  0.7818609E-02  0.8252091E-01
        2   -1    0    0  501    0  0.00000000000E+00  0.00000000000E+00  0.16024479969E+04  0.16024479969E+04  0.25500000920E-02 0.  1.
       -2   -1    0    0    0  501  0.00000000000E+00  0.00000000000E+00 -0.13769891535E+04  0.13769891535E+04  0.25500000920E-02 0. -1.
    10030    2    1    2    0    0  0.00000000000E+00  0.00000000000E+00  0.22545884333E+03  0.29794371504E+04  0.29708944853E+04 0.  0.
        1    1    3    3  502    0  0.79981279774E+03 -0.10089477483E+04  0.85572236945E+03  0.15459420571E+04  0.50400001928E-02 0.  1.
       -1    1    3    3    0  502 -0.79981279774E+03  0.10089477483E+04 -0.63026352612E+03  0.14334950933E+04  0.50400001928E-02 0. -1.
</event>
<event>
 5   0  0.9505359E-06  0.2896039E+04  0.7818609E-02  0.8274057E-01
       -2   -1    0    0    0  501  0.00000000000E+00  0.00000000000E+00  0.13098804037E+04  0.13098804037E+04  0.25500000920E-02 0. -1.
        2   -1    0    0  501    0  0.00000000000E+00  0.00000000000E+00 -0.16007267933E+04  0.16007267933E+04  0.25500000920E-02 0.  1.
    10030    2    1    2    0    0  0.00000000000E+00  0.00000000000E+00 -0.29084638959E+03  0.29106071970E+04  0.28960391284E+04 0.  0.
        4    1    3    3  502    0 -0.46796450183E+03  0.68721231447E+03  0.10460815005E+04  0.13362408685E+04  0.12699999809E+01 0. -1.
       -4    1    3    3    0  502  0.46796450183E+03 -0.68721231447E+03 -0.13369278901E+04  0.15743663285E+04  0.12699999809E+01 0.  1.
</event>
<event>
 5   0  0.9646321E-06  0.2869416E+04  0.7818609E-02  0.8282036E-01
        2   -1    0    0  501    0  0.00000000000E+00  0.00000000000E+00  0.32452527360E+04  0.32452527360E+04  0.25500000920E-02 0.  1.
       -2   -1    0    0    0  501  0.00000000000E+00  0.00000000000E+00 -0.63427646407E+03  0.63427646407E+03  0.25500000920E-02 0. -1.
    10030    2    1    2    0    0  0.00000000000E+00  0.00000000000E+00  0.26109762720E+04  0.38795292001E+04  0.28694162685E+04 0.  0.
        3    1    3    3  502    0  0.66324270209E+03  0.41161771268E+03  0.29330209796E+04  0.30351164887E+04  0.10100000352E+00 0.  1.
       -3    1    3    3    0  502 -0.66324270209E+03 -0.41161771268E+03 -0.32204470760E+03  0.84441271139E+03  0.10100000352E+00 0. -1.
</event>
<event>
 5   0  0.3649705E-06  0.2893777E+04  0.7818609E-02  0.8274731E-01
        1   -1    0    0  501    0  0.00000000000E+00  0.00000000000E+00  0.15322475083E+04  0.15322475083E+04  0.50400001928E-02 0. -1.
       -1   -1    0    0    0  501  0.00000000000E+00  0.00000000000E+00 -0.13662851173E+04  0.13662851173E+04  0.50400001928E-02 0.  1.
    10030    2    1    2    0    0  0.00000000000E+00  0.00000000000E+00  0.16596239097E+03  0.28985326256E+04  0.28937774390E+04 0.  0.
        2    1    3    3  502    0 -0.22778811445E+03  0.30647228185E+03 -0.13149031184E+04  0.13692271161E+04  0.25500000920E-02 0.  1.
       -2    1    3    3    0  502  0.22778811445E+03 -0.30647228185E+03  0.14808655093E+04  0.15293055095E+04  0.25500000920E-02 0. -1.
</event>
<event>
 5   0  0.3649705E-06  0.2893837E+04  0.7818609E-02  0.8274714E-01
       -1   -1    0    0    0  501  0.00000000000E+00  0.00000000000E+00  0.17782026370E+04  0.17782026370E+04  0.50400001928E-02 0.  1.
        1   -1    0    0  501    0  0.00000000000E+00  0.00000000000E+00 -0.11773534056E+04  0.11773534056E+04  0.50400001928E-02 0. -1.
    10030    2    1    2    0    0  0.00000000000E+00  0.00000000000E+00  0.60084923135E+03  0.29555560426E+04  0.28938368513E+04 0.  0.
        2    1    3    3  502    0 -0.17705167770E+03  0.13429783039E+04 -0.21898349579E+03  0.13721850432E+04  0.25500000920E-02 0. -1.
       -2    1    3    3    0  502  0.17705167770E+03 -0.13429783039E+04  0.81983272714E+03  0.15833709994E+04  0.25500000920E-02 0.  1.
</event>
<event>
 5   0  0.3188375E-06  0.2873655E+04  0.7818609E-02  0.8280759E-01
       -3   -1    0    0    0  501  0.00000000000E+00  0.00000000000E+00  0.13719207486E+04  0.13719207524E+04  0.10100000352E+00 0. -1.
        3   -1    0    0  501    0  0.00000000000E+00  0.00000000000E+00 -0.15048048407E+04  0.15048048441E+04  0.10100000352E+00 0.  1.
    10030    2    1    2    0    0  0.00000000000E+00  0.00000000000E+00 -0.13288409205E+03  0.28767255964E+04  0.28736548114E+04 0.  0.
        1    1    3    3  502    0 -0.68065264131E+03  0.51934219724E+03 -0.12215679226E+04  0.14917213297E+04  0.50400001928E-02 0.  1.
       -1    1    3    3    0  502  0.68065264131E+03 -0.51934219724E+03  0.10886838305E+04  0.13850042667E+04  0.50400001928E-02 0. -1.
</event>
<event>
 5   0  0.3188375E-06  0.2683406E+04  0.7818609E-02  0.8340409E-01
       -3   -1    0    0    0  501  0.00000000000E+00  0.00000000000E+00  0.84836577078E+03  0.84836577680E+03  0.10100000352E+00 0.  1.
        3   -1    0    0  501    0  0.00000000000E+00  0.00000000000E+00 -0.21219237310E+04  0.21219237334E+04  0.10100000352E+00 0. -1.
    10030    2    1    2    0    0  0.00000000000E+00  0.00000000000E+00 -0.12735579602E+04  0.29702895102E+04  0.26834063979E+04 0.  0.
        4    1    3    3  502    0  0.98831470046E+03 -0.46510020775E+03  0.22567494937E+03  0.11153541797E+04  0.12699999809E+01 0.  1.
       -4    1    3    3    0  502 -0.98831470046E+03  0.46510020775E+03 -0.14992329096E+04  0.18549353305E+04  0.12699999809E+01 0. -1.
</event>
<event>
 5   0  0.3746518E-06  0.2911448E+04  0.7818609E-02  0.8269480E-01
       -1   -1    0    0    0  501  0.00000000000E+00  0.00000000000E+00  0.13733397346E+04  0.13733397347E+04  0.50400001928E-02 0. -1.
        1   -1    0    0  501    0  0.00000000000E+00  0.00000000000E+00 -0.15430502887E+04  0.15430502887E+04  0.50400001928E-02 0.  1.
    10030    2    1    2    0    0  0.00000000000E+00  0.00000000000E+00 -0.16971055401E+03  0.29163900233E+04  0.29114479380E+04 0.  0.
        4    1    3    3  502    0  0.92987085387E+03  0.28496190332E+03  0.10001581401E+04  0.13950559162E+04  0.12699999809E+01 0. -1.
       -4    1    3    3    0  502 -0.92987085387E+03 -0.28496190332E+03 -0.11698686941E+04  0.15213341071E+04  0.12699999809E+01 0.  1.
</event>
<event>
 5   0  0.3564340E-06  0.2884065E+04  0.7818609E-02  0.8277635E-01
        1   -1    0    0  501    0  0.00000000000E+00  0.00000000000E+00  0.16594772018E+04  0.16594772018E+04  0.50400001928E-02 0.  1.
       -1   -1    0    0    0  501  0.00000000000E+00  0.00000000000E+00 -0.12530797378E+04  0.12530797378E+04  0.50400001928E-02 0. -1.
    10030    2    1    2    0    0  0.00000000000E+00  0.00000000000E+00  0.40639746398E+03  0.29125569396E+04  0.28840646712E+04 0.  0.
        1    1    3    3  502    0  0.34520142142E+03 -0.21424612118E+03  0.16004832481E+04  0.16512456054E+04  0.50400001928E-02 0.  1.
       -1    1    3    3    0  502 -0.34520142142E+03  0.21424612118E+03 -0.11940857842E+04  0.12613113342E+04  0.50400001928E-02 0. -1.
</event>
<event>
 5   0  0.9505359E-06  0.2923658E+04  0.7818609E-02  0.8265873E-01
       -2   -1    0    0    0  501  0.00000000000E+00  0.00000000000E+00  0.91209411940E+03  0.91209411940E+03  0.25500000920E-02 0. -1.
        2   -1    0    0  501    0  0.00000000000E+00  0.00000000000E+00 -0.23428982248E+04  0.23428982248E+04  0.25500000920E-02 0.  1.
    10030    2    1    2    0    0  0.00000000000E+00  0.00000000000E+00 -0.14308041054E+04  0.32549923442E+04  0.29236577729E+04 0.  0.
        4    1    3    3  502    0  0.82666638075E+03 -0.93121549883E+03 -0.15679549444E+04  0.20022547117E+04  0.12699999809E+01 0.  1.
       -4    1    3    3    0  502 -0.82666638075E+03  0.93121549883E+03  0.13715083892E+03  0.12527376325E+04  0.12699999809E+01 0. -1.
</event>
<event>
 5   0  0.9360689E-06  0.2894932E+04  0.7818609E-02  0.8274387E-01
       -2   -1    0    0    0  501  0.00000000000E+00  0.00000000000E+00  0.12608344627E+04  0.12608344627E+04  0.25500000920E-02 0.  1.
        2   -1    0    0  501    0  0.00000000000E+00  0.00000000000E+00 -0.16617232124E+04  0.16617232124E+04  0.25500000920E-02 0. -1.
    10030    2    1    2    0    0  0.00000000000E+00  0.00000000000E+00 -0.40088874969E+03  0.29225576751E+04  0.28949320501E+04 0.  0.
        5    1    3    3  502    0 -0.14099879070E+04 -0.32658929566E+03 -0.22086954216E+03  0.14640805683E+04  0.46999998093E+01 0.  1.
       -5    1    3    3    0  502  0.14099879070E+04  0.32658929566E+03 -0.18001920754E+03  0.14584771068E+04  0.46999998093E+01 0. -1.
</event>
<event>
 5   0  0.3486236E-06  0.2886838E+04  0.7818609E-02  0.8276804E-01
        1   -1    0    0  501    0  0.00000000000E+00  0.00000000000E+00  0.18270936280E+04  0.18270936280E+04  0.50400001928E-02 0.  1.
       -1   -1    0    0    0  501  0.00000000000E+00  0.00000000000E+00 -0.11403131674E+04  0.11403131674E+04  0.50400001928E-02 0. -1.
    10030    2    1    2    0    0  0.00000000000E+00  0.00000000000E+00  0.68678046062E+03  0.29674067955E+04  0.28868383551E+04 0.  0.
        5    1    3    3  502    0 -0.94771904835E+03  0.11467832074E+03 -0.76946739542E+03  0.12261421918E+04  0.46999998093E+01 0. -1.
       -5    1    3    3    0  502  0.94771904835E+03 -0.11467832074E+03  0.14562478560E+04  0.17412646037E+04  0.46999998093E+01 0.  1.
</event>
<event>
 5   0  0.1001573E-05  0.2886328E+04  0.7818609E-02  0.8276957E-01
       -2   -1    0    0    0  501  0.00000000000E+00  0.00000000000E+00  0.19969696548E+04  0.19969696548E+04  0.25500000920E-02 0.  1.
        2   -1    0    0  501    0  0.00000000000E+00  0.00000000000E+00 -0.10429415678E+04  0.10429415679E+04  0.25500000920E-02 0. -1.
    10030    2    1    2    0    0  0.00000000000E+00  0.00000000000E+00  0.95402808696E+03  0.30399112227E+04  0.28863282299E+04 0.  0.
        1    1    3    3  502    0  0.25538142928E+03  0.54136643649E+03 -0.90603437836E+03  0.10859077253E+04  0.50400001928E-02 0. -1.
       -1    1    3    3    0  502 -0.25538142928E+03 -0.54136643649E+03  0.18600624653E+04  0.19540034974E+04  0.50400001928E-02 0.  1.
</event>
<event>
 5   0  0.9251510E-06  0.2854088E+04  0.7818609E-02  0.8286670E-01
        2   -1    0    0  501    0  0.00000000000E+00  0.00000000000E+00  0.11260958143E+04  0.11260958143E+04  0.25500000920E-02 0.  1.
       -2   -1    0    0    0  501  0.00000000000E+00  0.00000000000E+00 -0.18084206762E+04  0.18084206762E+04  0.25500000920E-02 0. -1.
    10030    2    1    2    0    0  0.00000000000E+00  0.00000000000E+00 -0.68232486190E+03  0.29345164904E+04  0.28540882634E+04 0.  0.
        2    1    3    3  502    0  0.90078245062E+03  0.84231072938E+03  0.39709556272E+03  0.12956007387E+04  0.25500000920E-02 0. -1.
       -2    1    3    3    0  502 -0.90078245062E+03 -0.84231072938E+03 -0.10794204246E+04  0.16389157517E+04  0.25500000920E-02 0.  1.
</event>
<event>
 5   0  0.9251510E-06  0.2870517E+04  0.7818609E-02  0.8281704E-01
       -2   -1    0    0    0  501  0.00000000000E+00  0.00000000000E+00  0.18861158206E+04  0.18861158207E+04  0.25500000920E-02 0.  1.
        2   -1    0    0  501    0  0.00000000000E+00  0.00000000000E+00 -0.10921741917E+04  0.10921741917E+04  0.25500000920E-02 0. -1.
    10030    2    1    2    0    0  0.00000000000E+00  0.00000000000E+00  0.79394162900E+03  0.29782900123E+04  0.28705170418E+04 0.  0.
        2    1    3    3  502    0  0.12473080740E+04 -0.10867329310E+03 -0.33107201321E+03  0.12950660191E+04  0.25500000920E-02 0. -1.
       -2    1    3    3    0  502 -0.12473080740E+04  0.10867329310E+03  0.11250136422E+04  0.16832239932E+04  0.25500000920E-02 0.  1.
</event>
<event>
 5   0  0.3746518E-06  0.2905815E+04  0.7818609E-02  0.8271149E-01
        1   -1    0    0  501    0  0.00000000000E+00  0.00000000000E+00  0.10424126932E+04  0.10424126932E+04  0.50400001928E-02 0.  1.
       -1   -1    0    0    0  501  0.00000000000E+00  0.00000000000E+00 -0.20250527783E+04  0.20250527783E+04  0.50400001928E-02 0. -1.
    10030    2    1    2    0    0  0.00000000000E+00  0.00000000000E+00 -0.98264008517E+03  0.30674654715E+04  0.29058153558E+04 0.  0.
        4    1    3    3  502    0  0.71728384865E+03  0.32109829533E+02  0.84204200185E+03  0.11065999758E+04  0.12699999809E+01 0.  1.
       -4    1    3    3    0  502 -0.71728384865E+03 -0.32109829533E+02 -0.18246820870E+04  0.19608654957E+04  0.12699999809E+01 0. -1.
</event>
<event>
 5   0  0.3564340E-06  0.2919490E+04  0.7818609E-02  0.8267102E-01
       -1   -1    0    0    0  501  0.00000000000E+00  0.00000000000E+00  0.12385058774E+04  0.12385058775E+04  0.50400001928E-02 0. -1.
        1   -1    0    0  501    0  0.00000000000E+00  0.00000000000E+00 -0.17205049617E+04  0.17205049617E+04  0.50400001928E-02 0.  1.
    10030    2    1    2    0    0  0.00000000000E+00  0.00000000000E+00 -0.48199908427E+03  0.29590108392E+04  0.29194900290E+04 0.  0.
        1    1    3    3  502    0 -0.85937517489E+03 -0.35069553197E+03 -0.13829018837E+04  0.16655121336E+04  0.50400001928E-02 0.  1.
       -1    1    3    3    0  502  0.85937517489E+03  0.35069553197E+03  0.90090279938E+03  0.12934987056E+04  0.50400001928E-02 0. -1.
</event>
<event>
 5   0  0.9360689E-06  0.2915836E+04  0.7818609E-02  0.8268181E-01
       -2   -1    0    0    0  501  0.00000000000E+00  0.00000000000E+00  0.16529184377E+04  0.16529184377E+04  0.25500000920E-02 0.  1.
        2   -1    0    0  501    0  0.00000000000E+00  0.00000000000E+00 -0.12859224819E+04  0.12859224819E+04  0.25500000920E-02 0. -1.
    10030    2    1    2    0    0  0.00000000000E+00  0.00000000000E+00  0.36699595580E+03  0.29388409196E+04  0.29158360584E+04 0.  0.
        5    1    3    3  502    0 -0.38605464767E+02  0.50986641803E+03 -0.11925754487E+04  0.12975794530E+04  0.46999998093E+01 0. -1.
       -5    1    3    3    0  502  0.38605464767E+02 -0.50986641803E+03  0.15595714045E+04  0.16412614666E+04  0.46999998093E+01 0.  1.
</event>
<event>
 5   0  0.3486236E-06  0.2890276E+04  0.7818609E-02  0.8275776E-01
       -1   -1    0    0    0  501  0.00000000000E+00  0.00000000000E+00  0.29870088091E+04  0.29870088091E+04  0.50400001928E-02 0.  1.
        1   -1    0    0  501    0  0.00000000000E+00  0.00000000000E+00 -0.69916904320E+03  0.69916904322E+03  0.50400001928E-02 0. -1.
    10030    2    1    2    0    0  0.00000000000E+00  0.00000000000E+00  0.22878397658E+04  0.36861778523E+04  0.28902761744E+04 0.  0.
        5    1    3    3  502    0  0.83610336641E+03  0.62565883978E+03  0.24179421275E+04  0.26338154919E+04  0.46999998093E+01 0.  1.
       -5    1    3    3    0  502 -0.83610336641E+03 -0.62565883978E+03 -0.13010236167E+03  0.10523623604E+04  0.46999998093E+01 0. -1.
</event>
<event>
 5   0  0.9251510E-06  0.2954903E+04  0.7818609E-02  0.8256727E-01
       -2   -1    0    0    0  501  0.00000000000E+00  0.00000000000E+00  0.12168983626E+04  0.12168983626E+04  0.25500000920E-02 0.  1.
        2   -1    0    0  501    0  0.00000000000E+00  0.00000000000E+00 -0.17937925925E+04  0.17937925925E+04  0.25500000920E-02 0. -1.
    10030    2    1    2    0    0  0.00000000000E+00  0.00000000000E+00 -0.57689422984E+03  0.30106909551E+04  0.29549032259E+04 0.  0.
        2    1    3    3  502    0  0.98520203347E+03 -0.74293498620E+03 -0.11163693787E+04  0.16639879898E+04  0.25500000920E-02 0. -1.
       -2    1    3    3    0  502 -0.98520203347E+03  0.74293498620E+03  0.53947514888E+03  0.13467029653E+04  0.25500000920E-02 0.  1.
</event>
<event>
 5   0  0.9505359E-06  0.2885767E+04  0.7818609E-02  0.8277125E-01
        2   -1    0    0  501    0  0.00000000000E+00  0.00000000000E+00  0.22845795424E+04  0.22845795424E+04  0.25500000920E-02 0.  1.
       -2   -1    0    0    0  501  0.00000000000E+00  0.00000000000E+00 -0.91128934269E+03  0.91128934269E+03  0.25500000920E-02 0. -1.
    10030    2    1    2    0    0  0.00000000000E+00  0.00000000000E+00  0.13732901997E+04  0.31958688851E+04  0.28857671351E+04 0.  0.
        4    1    3    3  502    0 -0.13627322401E+04 -0.32725995676E+03  0.30658629738E+03  0.14346201617E+04  0.12699999809E+01 0. -1.
       -4    1    3    3    0  502  0.13627322401E+04  0.32725995676E+03  0.10667039023E+04  0.17612487234E+04  0.12699999809E+01 0.  1.
</event>
<event>
 5   0  0.3746518E-06  0.2912078E+04  0.7818609E-02  0.8269293E-01
       -1   -1    0    0    0  501  0.00000000000E+00  0.00000000000E+00  0.19021260681E+04  0.19021260681E+04  0.50400001928E-02 0.  1.
        1   -1    0    0  501    0  0.00000000000E+00  0.00000000000E+00 -0.11145683109E+04  0.11145683109E+04  0.50400001928E-02 0. -1.
    10030    2    1    2    0    0  0.00000000000E+00  0.00000000000E+00  0.78755775723E+03  0.30166943790E+04  0.29120779102E+04 0.  0.
        4    1    3    3  502    0  0.16941973635E+03 -0.34338015789E+02 -0.11038999144E+04  0.11173534715E+04  0.12699999809E+01 0. -1.
       -4    1    3    3    0  502 -0.16941973635E+03  0.34338015789E+02  0.18914576716E+04  0.18993409075E+04  0.12699999809E+01 0.  1.
</event>
<event>
 5   0  0.9360689E-06  0.2895115E+04  0.7818609E-02  0.8274332E-01
        2   -1    0    0  501    0  0.00000000000E+00  0.00000000000E+00  0.26176981055E+04  0.26176981055E+04  0.25500000920E-02 0. -1.
       -2   -1    0    0    0  501  0.00000000000E+00  0.00000000000E+00 -0.80048281005E+03  0.80048281005E+03  0.25500000920E-02 0.  1.
    10030    2    1    2    0    0  0.00000000000E+00  0.00000000000E+00  0.18172152954E+04  0.34181809155E+04  0.28951147372E+04 0.  0.
        5    1    3    3  502    0  0.10887958954E+04  0.23372657042E+03  0.20005190284E+04  0.22895857888E+04  0.46999998093E+01 0. -1.
       -5    1    3    3    0  502 -0.10887958954E+04 -0.23372657042E+03 -0.18330373292E+03  0.11285951267E+04  0.46999998093E+01 0.  1.
</event>
<event>
 5   0  0.9646321E-06  0.2927835E+04  0.7818609E-02  0.8264644E-01
       -2   -1    0    0    0  501  0.00000000000E+00  0.00000000000E+00  0.11801392683E+04  0.11801392683E+04  0.25500000920E-02 0.  1.
        2   -1    0    0  501    0  0.00000000000E+00  0.00000000000E+00 -0.18159334919E+04  0.18159334919E+04  0.25500000920E-02 0. -1.
    10030    2    1    2    0    0  0.00000000000E+00  0.00000000000E+00 -0.63579422362E+03  0.29960727603E+04  0.29278349834E+04 0.  0.
        3    1    3    3  502    0  0.56193967382E+03  0.84613642217E+03  0.76086962625E+03  0.12691121465E+04  0.10100000352E+00 0.  1.
       -3    1    3    3    0  502 -0.56193967382E+03 -0.84613642217E+03 -0.13966638499E+04  0.17269606138E+04  0.10100000352E+00 0. -1.
</event>
<event>
 5   0  0.9505359E-06  0.2840015E+04  0.7818609E-02  0.8290952E-01
        2   -1    0    0  501    0  0.00000000000E+00  0.00000000000E+00  0.23578275531E+04  0.23578275531E+04  0.25500000920E-02 0. -1.
       -2   -1    0    0    0  501  0.00000000000E+00  0.00000000000E+00 -0.85520274826E+03  0.85520274826E+03  0.25500000920E-02 0.  1.
    10030    2    1    2    0    0  0.00000000000E+00  0.00000000000E+00  0.15026248049E+04  0.32130303014E+04  0.28400145094E+04 0.  0.
        4    1    3    3  502    0 -0.71370367951E+03  0.11718247113E+04  0.11652554463E+04  0.18001022094E+04  0.12699999809E+01 0. -1.
       -4    1    3    3    0  502  0.71370367951E+03 -0.11718247113E+04  0.33736935856E+03  0.14129280920E+04  0.12699999809E+01 0.  1.
</event>
<event>
 5   0  0.3649705E-06  0.2389319E+04  0.7818609E-02  0.8443513E-01
        1   -1    0    0  501    0  0.00000000000E+00  0.00000000000E+00  0.25013129321E+04  0.25013129321E+04  0.50400001928E-02 0.  1.
       -1   -1    0    0    0  501  0.00000000000E+00  0.00000000000E+00 -0.57058498435E+03  0.57058498437E+03  0.50400001928E-02 0. -1.
    10030    2    1    2    0    0  0.00000000000E+00  0.00000000000E+00  0.19307279477E+04  0.30718979164E+04  0.23893192338E+04 0.  0.
        2    1    3    3  502    0  0.41441876517E+03 -0.99957479123E+03  0.16162769597E+04  0.19450562683E+04  0.25500000920E-02 0. -1.
       -2    1    3    3    0  502 -0.41441876517E+03  0.99957479123E+03  0.31445098800E+03  0.11268416482E+04  0.25500000920E-02 0.  1.
</event>
<event>
 5   0  0.9646321E-06  0.2941602E+04  0.7818609E-02  0.8260606E-01
        2   -1    0    0  501    0  0.00000000000E+00  0.00000000000E+00  0.17632014179E+04  0.17632014179E+04  0.25500000920E-02 0. -1.
       -2   -1    0    0    0  501  0.00000000000E+00  0.00000000000E+00 -0.12268908838E+04  0.12268908838E+04  0.25500000920E-02 0.  1.
    10030    2    1    2    0    0  0.00000000000E+00  0.00000000000E+00  0.53631053407E+03  0.29900923016E+04  0.29416021117E+04 0.  0.
        3    1    3    3  502    0  0.29827063455E+03 -0.10734026821E+04  0.12442432851E+04  0.16701197718E+04  0.10100000352E+00 0. -1.
       -3    1    3    3    0  502 -0.29827063455E+03  0.10734026821E+04 -0.70793275100E+03  0.13199725299E+04  0.10100000352E+00 0.  1.
</event>
<event>
 5   0  0.3486236E-06  0.2933375E+04  0.7818609E-02  0.8263016E-01
       -1   -1    0    0    0  501  0.00000000000E+00  0.00000000000E+00  0.19036052101E+04  0.19036052101E+04  0.50400001928E-02 0. -1.
        1   -1    0    0  501    0  0.00000000000E+00  0.00000000000E+00 -0.11300520091E+04  0.11300520091E+04  0.50400001928E-02 0.  1.
    10030    2    1    2    0    0  0.00000000000E+00  0.00000000000E+00  0.77355320100E+03  0.30336572192E+04  0.29333754565E+04 0.  0.
        5    1    3    3  502    0  0.10542569363E+04 -0.10141924818E+04  0.49576790411E+03  0.15446203361E+04  0.46999998093E+01 0. -1.
       -5    1    3    3    0  502 -0.10542569363E+04  0.10141924818E+04  0.27778529689E+03  0.14890368831E+04  0.46999998093E+01 0.  1.
</event>
<event>
 5   0  0.9505359E-06  0.2231139E+04  0.7818609E-02  0.8505578E-01
        2   -1    0    0  501    0  0.00000000000E+00  0.00000000000E+00  0.33973576173E+04  0.33973576173E+04  0.25500000920E-02 0.  1.
       -2   -1    0    0    0  501  0.00000000000E+00  0.00000000000E+00 -0.36631260547E+03  0.36631260548E+03  0.25500000920E-02 0. -1.
    10030    2    1    2    0    0  0.00000000000E+00  0.00000000000E+00  0.30310450118E+04  0.37636702227E+04  0.22311386515E+04 0.  0.
        4    1    3    3  502    0 -0.10672535664E+03 -0.81392823482E+03  0.27897881000E+04  0.29080558332E+04  0.12699999809E+01 0.  1.
       -4    1    3    3    0  502  0.10672535664E+03  0.81392823482E+03  0.24125691178E+03  0.85561438953E+03  0.12699999809E+01 0. -1.
</event>
<event>
 5   0  0.3564340E-06  0.2901171E+04  0.7818609E-02  0.8272529E-01
       -1   -1    0    0    0  501  0.00000000000E+00  0.00000000000E+00  0.11456386786E+04  0.11456386787E+04  0.50400001928E-02 0. -1.
        1   -1    0    0  501    0  0.00000000000E+00  0.00000000000E+00 -0.18367032618E+04  0.18367032618E+04  0.50400001928E-02 0.  1.
    10030    2    1    2    0    0  0.00000000000E+00  0.00000000000E+00 -0.69106458316E+03  0.29823419405E+04  0.29011710035E+04 0.  0.
        1    1    3    3  502    0  0.19086080348E+03 -0.10613662152E+04  0.65180423736E+03  0.12600693842E+04  0.50400001928E-02 0. -1.
       -1    1    3    3    0  502 -0.19086080348E+03  0.10613662152E+04 -0.13428688205E+04  0.17222725563E+04  0.50400001928E-02 0.  1.
</event>
<event>
 5   0  0.9360689E-06  0.2872282E+04  0.7818609E-02  0.8281173E-01
        2   -1    0    0  501    0  0.00000000000E+00  0.00000000000E+00  0.21013130751E+04  0.21013130751E+04  0.25500000920E-02 0.  1.
       -2   -1    0    0    0  501  0.00000000000E+00  0.00000000000E+00 -0.98152948663E+03  0.98152948663E+03  0.25500000920E-02 0. -1.
    10030    2    1    2    0    0  0.00000000000E+00  0.00000000000E+00  0.11197835885E+04  0.30828425617E+04  0.28722818412E+04 0.  0.
        5    1    3    3  502    0 -0.10449252749E+04 -0.72403864915E+03 -0.15720142476E+03  0.12809508864E+04  0.46999998093E+01 0. -1.
       -5    1    3    3    0  502  0.10449252749E+04  0.72403864915E+03  0.12769850132E+04  0.18018916753E+04  0.46999998093E+01 0.  1.
</event>
<event>
 5   0  0.3486236E-06  0.2917945E+04  0.7818609E-02  0.8267558E-01
        1   -1    0    0  501    0  0.00000000000E+00  0.00000000000E+00  0.19633387181E+04  0.19633387181E+04  0.50400001928E-02 0. -1.
       -1   -1    0    0    0  501  0.00000000000E+00  0.00000000000E+00 -0.10841739953E+04  0.10841739953E+04  0.50400001928E-02 0.  1.
    10030    2    1    2    0    0  0.00000000000E+00  0.00000000000E+00  0.87916472276E+03  0.30475127134E+04  0.29179450181E+04 0.  0.
        5    1    3    3  502    0 -0.20451062419E+03 -0.24502170877E+02  0.19480693798E+04  0.19589337279E+04  0.46999998093E+01 0. -1.
       -5    1    3    3    0  502  0.20451062419E+03  0.24502170877E+02 -0.10689046571E+04  0.10885789855E+04  0.46999998093E+01 0.  1.
</event>
<event>
 5   0  0.3486236E-06  0.2910222E+04  0.7818609E-02  0.8269843E-01
       -1   -1    0    0    0  501  0.00000000000E+00  0.00000000000E+00  0.86798719630E+03  0.86798719631E+03  0.50400001928E-02 0.  1.
        1   -1    0    0  501    0  0.00000000000E+00  0.00000000000E+00 -0.24393763887E+04  0.24393763887E+04  0.50400001928E-02 0. -1.
    10030    2    1    2    0    0  0.00000000000E+00  0.00000000000E+00 -0.15713891924E+04  0.33073635850E+04  0.29102216220E+04 0.  0.
        5    1    3    3  502    0  0.54179673516E+03 -0.12475052091E+04 -0.19789692199E+03  0.13744083202E+04  0.46999998093E+01 0.  1.
       -5    1    3    3    0  502 -0.54179673516E+03  0.12475052091E+04 -0.13734922704E+04  0.19329552648E+04  0.46999998093E+01 0. -1.
</event>
<event>
 5   0  0.9360689E-06  0.2852971E+04  0.7818609E-02  0.8287009E-01
        2   -1    0    0  501    0  0.00000000000E+00  0.00000000000E+00  0.17268389972E+04  0.17268389972E+04  0.25500000920E-02 0. -1.
       -2   -1    0    0    0  501  0.00000000000E+00  0.00000000000E+00 -0.11783732643E+04  0.11783732644E+04  0.25500000920E-02 0.  1.
    10030    2    1    2    0    0  0.00000000000E+00  0.00000000000E+00  0.54846573285E+03  0.29052122615E+04  0.28529710171E+04 0.  0.
        5    1    3    3  502    0  0.20075521238E+02  0.91684834747E+03  0.13868630174E+04  0.16626560191E+04  0.46999998093E+01 0. -1.
       -5    1    3    3    0  502 -0.20075521238E+02 -0.91684834747E+03 -0.83839728458E+03  0.12425562424E+04  0.46999998093E+01 0.  1.
</event>
<event>
 5   0  0.3746518E-06  0.2882822E+04  0.7818609E-02  0.8278007E-01
       -1   -1    0    0    0  501  0.00000000000E+00  0.00000000000E+00  0.10015245380E+04  0.10015245380E+04  0.50400001928E-02 0.  1.
        1   -1    0    0  501    0  0.00000000000E+00  0.00000000000E+00 -0.20745035129E+04  0.20745035129E+04  0.50400001928E-02 0. -1.
    10030    2    1    2    0    0  0.00000000000E+00  0.00000000000E+00 -0.10729789749E+04  0.30760280509E+04  0.28828223479E+04 0.  0.
        4    1    3    3  502    0 -0.13298533454E+04  0.38260646473E+03 -0.10600698798E+03  0.13878532781E+04  0.12699999809E+01 0.  1.
       -4    1    3    3    0  502  0.13298533454E+04 -0.38260646473E+03 -0.96697198688E+03  0.16881747728E+04  0.12699999809E+01 0. -1.
</event>
<event>
 5   0  0.3746518E-06  0.3010137E+04  0.7818609E-02  0.8240842E-01
       -1   -1    0    0    0  501  0.00000000000E+00  0.00000000000E+00  0.14071380084E+04  0.14071380084E+04  0.50400001928E-02 0.  1.
        1   -1    0    0  501    0  0.00000000000E+00  0.00000000000E+00 -0.16098143938E+04  0.16098143938E+04  0.50400001928E-02 0. -1.
    10030    2    1    2    0    0  0.00000000000E+00  0.00000000000E+00 -0.20267638539E+03  0.30169524023E+04  0.30101368873E+04 0.  0.
        4    1    3    3  502    0  0.10066482376E+04  0.94129430083E+03  0.50488979329E+03  0.14677503028E+04  0.12699999809E+01 0.  1.
       -4    1    3    3    0  502 -0.10066482376E+04 -0.94129430083E+03 -0.70756617868E+03  0.15492020995E+04  0.12699999809E+01 0. -1.
</event>
<event>
 5   0  0.3486236E-06  0.2756912E+04  0.7818609E-02  0.8316772E-01
       -1   -1    0    0    0  501  0.00000000000E+00  0.00000000000E+00  0.25349731926E+04  0.25349731926E+04  0.50400001928E-02 0.  1.
        1   -1    0    0  501    0  0.00000000000E+00  0.00000000000E+00 -0.74957031564E+03  0.74957031566E+03  0.50400001928E-02 0. -1.
    10030    2    1    2    0    0  0.00000000000E+00  0.00000000000E+00  0.17854028769E+04  0.32845435082E+04  0.27569117912E+04 0.  0.
        5    1    3    3  502    0  0.10082800118E+04 -0.88915506005E+03  0.12558164953E+04  0.18396528104E+04  0.46999998093E+01 0.  1.
       -5    1    3    3    0  502 -0.10082800118E+04  0.88915506005E+03  0.52958638158E+03  0.14448906978E+04  0.46999998093E+01 0. -1.
</event>
<event>
 5   0  0.3746518E-06  0.2897176E+04  0.7818609E-02  0.8273718E-01
       -1   -1    0    0    0  501  0.00000000000E+00  0.00000000000E+00  0.11247265122E+04  0.11247265122E+04  0.50400001928E-02 0. -1.
        1   -1    0    0  501    0  0.00000000000E+00  0.00000000000E+00 -0.18657043896E+04  0.18657043896E+04  0.50400001928E-02 0.  1.
    10030    2    1    2    0    0  0.00000000000E+00  0.00000000000E+00 -0.74097787745E+03  0.29904309018E+04  0.28971759980E+04 0.  0.
        4    1    3    3  502    0  0.56542764833E+03 -0.63648924221E+03  0.83923326190E+03  0.11954668802E+04  0.12699999809E+01 0. -1.
       -4    1    3    3    0  502 -0.56542764833E+03  0.63648924221E+03 -0.15802111393E+04  0.17949640216E+04  0.12699999809E+01 0.  1.
</event>
<event>
 5   0  0.3746518E-06  0.2846321E+04  0.7818609E-02  0.8289030E-01
        1   -1    0    0  501    0  0.00000000000E+00  0.00000000000E+00  0.14191209410E+04  0.14191209410E+04  0.50400001928E-02 0. -1.
       -1   -1    0    0    0  501  0.00000000000E+00  0.00000000000E+00 -0.14272119728E+04  0.14272119728E+04  0.50400001928E-02 0.  1.
    10030    2    1    2    0    0  0.00000000000E+00  0.00000000000E+00 -0.80910318369E+01  0.28463329138E+04  0.28463214140E+04 0.  0.
        4    1    3    3  502    0  0.47501813568E+03  0.13073648308E+04 -0.30494497868E+03  0.14240217986E+04  0.12699999809E+01 0. -1.
       -4    1    3    3    0  502 -0.47501813568E+03 -0.13073648308E+04  0.29685394684E+03  0.14223111153E+04  0.12699999809E+01 0.  1.
</event>
<event>
 5   0  0.3746518E-06  0.2913598E+04  0.7818609E-02  0.8268843E-01
       -1   -1    0    0    0  501  0.00000000000E+00  0.00000000000E+00  0.14673613017E+04  0.14673613017E+04  0.50400001928E-02 0. -1.
        1   -1    0    0  501    0  0.00000000000E+00  0.00000000000E+00 -0.14463128762E+04  0.14463128762E+04  0.50400001928E-02 0.  1.
    10030    2    1    2    0    0  0.00000000000E+00  0.00000000000E+00  0.21048425543E+02  0.29136741779E+04  0.29135981498E+04 0.  0.
        4    1    3    3  502    0 -0.13712818226E+04 -0.11663648808E+03 -0.46723716739E+03  0.14533857336E+04  0.12699999809E+01 0.  1.
       -4    1    3    3    0  502  0.13712818226E+04  0.11663648808E+03  0.48828559293E+03  0.14602884443E+04  0.12699999809E+01 0. -1.
</event>
<event>
 5   0  0.3564340E-06  0.2915691E+04  0.7818609E-02  0.8268224E-01
       -1   -1    0    0    0  501  0.00000000000E+00  0.00000000000E+00  0.70710975654E+03  0.70710975656E+03  0.50400001928E-02 0.  1.
        1   -1    0    0  501    0  0.00000000000E+00  0.00000000000E+00 -0.30056347050E+04  0.30056347050E+04  0.50400001928E-02 0. -1.
    10030    2    1    2    0    0  0.00000000000E+00  0.00000000000E+00 -0.22985249484E+04  0.37127444615E+04  0.29156910841E+04 0.  0.
        1    1    3    3  502    0  0.12191683958E+04  0.68286985452E+03 -0.16783319463E+04  0.21839141323E+04  0.50400001928E-02 0.  1.
       -1    1    3    3    0  502 -0.12191683958E+04 -0.68286985452E+03 -0.62019300218E+03  0.15288303292E+04  0.50400001928E-02 0. -1.
</event>
<event>
 5   0  0.9251510E-06  0.2875984E+04  0.7818609E-02  0.8280059E-01
        2   -1    0    0  501    0  0.00000000000E+00  0.00000000000E+00  0.30437968393E+04  0.30437968393E+04  0.25500000920E-02 0.  1.
       -2   -1    0    0    0  501  0.00000000000E+00  0.00000000000E+00 -0.67935588005E+03  0.67935588005E+03  0.25500000920E-02 0. -1.
    10030    2    1    2    0    0  0.00000000000E+00  0.00000000000E+00  0.23644409592E+04  0.37231527193E+04  0.28759842005E+04 0.  0.
        2    1    3    3  502    0 -0.10184004067E+04 -0.90497772650E+02 -0.12682376004E+03  0.10302492423E+04  0.25500000920E-02 0. -1.
       -2    1    3    3    0  502  0.10184004067E+04  0.90497772650E+02  0.24912647193E+04  0.26929034770E+04  0.25500000920E-02 0.  1.
</event>
<event>
 5   0  0.3564340E-06  0.2901248E+04  0.7818609E-02  0.8272506E-01
       -1   -1    0    0    0  501  0.00000000000E+00  0.00000000000E+00  0.12104310234E+04  0.12104310234E+04  0.50400001928E-02 0. -1.
        1   -1    0    0  501    0  0.00000000000E+00  0.00000000000E+00 -0.17384799452E+04  0.17384799452E+04  0.50400001928E-02 0.  1.
    10030    2    1    2    0    0  0.00000000000E+00  0.00000000000E+00 -0.52804892182E+03  0.29489109686E+04  0.29012480481E+04 0.  0.
        1    1    3    3  502    0  0.28422440343E+03 -0.10485927285E+04 -0.12410547932E+04  0.16494081428E+04  0.50400001928E-02 0.  1.
       -1    1    3    3    0  502 -0.28422440343E+03  0.10485927285E+04  0.71300587134E+03  0.12995028258E+04  0.50400001928E-02 0. -1.
</event>
<event>
 5   0  0.3564340E-06  0.2939412E+04  0.7818609E-02  0.8261247E-01
        1   -1    0    0  501    0  0.00000000000E+00  0.00000000000E+00  0.19552490385E+04  0.19552490385E+04  0.50400001928E-02 0. -1.
       -1   -1    0    0    0  501  0.00000000000E+00  0.00000000000E+00 -0.11047368216E+04  0.11047368216E+04  0.50400001928E-02 0.  1.
    10030    2    1    2    0    0  0.00000000000E+00  0.00000000000E+00  0.85051221693E+03  0.30599858601E+04  0.29394119196E+04 0.  0.
        1    1    3    3  502    0 -0.37167740738E+03  0.16579835190E+03 -0.10449064730E+04  0.11213664548E+04  0.50400001928E-02 0.  1.
       -1    1    3    3    0  502  0.37167740738E+03 -0.16579835190E+03  0.18954186899E+04  0.19386194053E+04  0.50400001928E-02 0. -1.
</event>
<event>
 5   0  0.9360689E-06  0.2876547E+04  0.7818609E-02  0.8279890E-01
        2   -1    0    0  501    0  0.00000000000E+00  0.00000000000E+00  0.17550722153E+04  0.17550722153E+04  0.25500000920E-02 0. -1.
       -2   -1    0    0    0  501  0.00000000000E+00  0.00000000000E+00 -0.11786585735E+04  0.11786585735E+04  0.25500000920E-02 0.  1.
    10030    2    1    2    0    0  0.00000000000E+00  0.00000000000E+00  0.57641364180E+03  0.29337307887E+04  0.28765471757E+04 0.  0.
        5    1    3    3  502    0 -0.41177736919E+03  0.33728318876E+03  0.16509152235E+04  0.17346076549E+04  0.46999998093E+01 0. -1.
       -5    1    3    3    0  502  0.41177736919E+03 -0.33728318876E+03 -0.10745015817E+04  0.11991231339E+04  0.46999998093E+01 0.  1.
</event>
<event>
 5   0  0.9360689E-06  0.2916345E+04  0.7818609E-02  0.8268031E-01
       -2   -1    0    0    0  501  0.00000000000E+00  0.00000000000E+00  0.89011757055E+03  0.89011757055E+03  0.25500000920E-02 0.  1.
        2   -1    0    0  501    0  0.00000000000E+00  0.00000000000E+00 -0.23887477890E+04  0.23887477890E+04  0.25500000920E-02 0. -1.
    10030    2    1    2    0    0  0.00000000000E+00  0.00000000000E+00 -0.14986302184E+04  0.32788653596E+04  0.29163445466E+04 0.  0.
        5    1    3    3  502    0  0.17262636145E+03 -0.13427787866E+03 -0.23701947557E+04  0.23802679848E+04  0.46999998093E+01 0. -1.
       -5    1    3    3    0  502 -0.17262636145E+03  0.13427787866E+03  0.87156453726E+03  0.89859737478E+03  0.46999998093E+01 0.  1.
</event>
<event>
 5   0  0.3474078E-06  0.2892722E+04  0.7818609E-02  0.8275046E-01
       -1   -1    0    0    0  501  0.00000000000E+00  0.00000000000E+00  0.10815197289E+04  0.10815197289E+04  0.50400001928E-02 0.  1.
        1   -1    0    0  501    0  0.00000000000E+00  0.00000000000E+00 -0.19342779419E+04  0.19342779419E+04  0.50400001928E-02 0. -1.
    10030    2    1    2    0    0  0.00000000000E+00  0.00000000000E+00 -0.85275821298E+03  0.30157976708E+04  0.28927217325E+04 0.  0.
        3    1    3    3  502    0  0.51792727825E+03 -0.11356255683E+04  0.33551193195E+03  0.12924636798E+04  0.10100000352E+00 0.  1.
       -3    1    3    3    0  502 -0.51792727825E+03  0.11356255683E+04 -0.11882701449E+04  0.17233339910E+04  0.10100000352E+00 0. -1.
</event>
<event>
 5   0  0.3746518E-06  0.2919675E+04  0.7818609E-02  0.8267047E-01
        1   -1    0    0  501    0  0.00000000000E+00  0.00000000000E+00  0.17988548709E+04  0.17988548709E+04  0.50400001928E-02 0. -1.
       -1   -1    0    0    0  501  0.00000000000E+00  0.00000000000E+00 -0.11847126921E+04  0.11847126921E+04  0.50400001928E-02 0.  1.
    10030    2    1    2    0    0  0.00000000000E+00  0.00000000000E+00  0.61414217878E+03  0.29835675631E+04  0.29196754593E+04 0.  0.
        4    1    3    3  502    0 -0.14432754178E+04 -0.13355999762E+03  0.12936214944E+03  0.14552038975E+04  0.12699999809E+01 0. -1.
       -4    1    3    3    0  502  0.14432754178E+04  0.13355999762E+03  0.48478002934E+03  0.15283636656E+04  0.12699999809E+01 0.  1.
</event>
<event>
 5   0  0.3746518E-06  0.2824254E+04  0.7818609E-02  0.8295778E-01
       -1   -1    0    0    0  501  0.00000000000E+00  0.00000000000E+00  0.29563198997E+04  0.29563198997E+04  0.50400001928E-02 0. -1.
        1   -1    0    0  501    0  0.00000000000E+00  0.00000000000E+00 -0.67452186884E+03  0.67452186886E+03  0.50400001928E-02 0.  1.
    10030    2    1    2    0    0  0.00000000000E+00  0.00000000000E+00  0.22817980309E+04  0.36308417686E+04  0.28242538297E+04 0.  0.
        4    1    3    3  502    0  0.94188919374E+03 -0.16348747035E+03 -0.19526318548E+03  0.97571139726E+03  0.12699999809E+01 0.  1.
       -4    1    3    3    0  502 -0.94188919374E+03  0.16348747035E+03  0.24770612163E+04  0.26551303713E+04  0.12699999809E+01 0. -1.
</event>
<event>
 5   0  0.9505359E-06  0.2895244E+04  0.7818609E-02  0.8274294E-01
        2   -1    0    0  501    0  0.00000000000E+00  0.00000000000E+00  0.15488115343E+04  0.15488115343E+04  0.25500000920E-02 0. -1.
       -2   -1    0    0    0  501  0.00000000000E+00  0.00000000000E+00 -0.13530436519E+04  0.13530436519E+04  0.25500000920E-02 0.  1.
    10030    2    1    2    0    0  0.00000000000E+00  0.00000000000E+00  0.19576788240E+03  0.29018551862E+04  0.28952441103E+04 0.  0.
        4    1    3    3  502    0 -0.24616573979E+03 -0.10204570114E+04  0.10969940849E+04  0.15183305697E+04  0.12699999809E+01 0. -1.
       -4    1    3    3    0  502  0.24616573979E+03  0.10204570114E+04 -0.90122620249E+03  0.13835246166E+04  0.12699999809E+01 0.  1.
</event>
<event>
 5   0  0.3188375E-06  0.2794836E+04  0.7818609E-02  0.8304873E-01
       -3   -1    0    0    0  501  0.00000000000E+00  0.00000000000E+00  0.25906609379E+04  0.25906609399E+04  0.10100000352E+00 0. -1.
        3   -1    0    0  501    0  0.00000000000E+00  0.00000000000E+00 -0.75377561020E+03  0.75377561697E+03  0.10100000352E+00 0.  1.
    10030    2    1    2    0    0  0.00000000000E+00  0.00000000000E+00  0.18368853277E+04  0.33444365568E+04  0.27948359837E+04 0.  0.
        1    1    3    3  502    0 -0.29044699522E+03  0.70780399258E+02  0.25519480889E+04  0.25693984452E+04  0.50400001928E-02 0. -1.
       -1    1    3    3    0  502  0.29044699522E+03 -0.70780399258E+02 -0.71506276120E+03  0.77503811160E+03  0.50400001928E-02 0.  1.
</event>
<event>
 5   0  0.3474078E-06  0.2931461E+04  0.7818609E-02  0.8263578E-01
        1   -1    0    0  501    0  0.00000000000E+00  0.00000000000E+00  0.18196634450E+04  0.18196634450E+04  0.50400001928E-02 0.  1.
       -1   -1    0    0    0  501  0.00000000000E+00  0.00000000000E+00 -0.11806393362E+04  0.11806393362E+04  0.50400001928E-02 0. -1.
    10030    2    1    2    0    0  0.00000000000E+00  0.00000000000E+00  0.63902410878E+03  0.30003027813E+04  0.29314612342E+04 0.  0.
        3    1    3    3  502    0 -0.11732300915E+04 -0.44844488804E+03  0.10927636847E+04  0.16648435801E+04  0.10100000352E+00 0.  1.
       -3    1    3    3    0  502  0.11732300915E+04  0.44844488804E+03 -0.45373957596E+03  0.13354592012E+04  0.10100000352E+00 0. -1.
</event>
<event>
 5   0  0.9251510E-06  0.2846125E+04  0.7818609E-02  0.8289090E-01
       -2   -1    0    0    0  501  0.00000000000E+00  0.00000000000E+00  0.84671478750E+03  0.84671478750E+03  0.25500000920E-02 0.  1.
        2   -1    0    0  501    0  0.00000000000E+00  0.00000000000E+00 -0.23917222669E+04  0.23917222669E+04  0.25500000920E-02 0. -1.
    10030    2    1    2    0    0  0.00000000000E+00  0.00000000000E+00 -0.15450074794E+04  0.32384370544E+04  0.28461248117E+04 0.  0.
        2    1    3    3  502    0  0.10761671400E+04 -0.64825590210E+03 -0.11990818232E+02  0.12563897514E+04  0.25500000920E-02 0.  1.
       -2    1    3    3    0  502 -0.10761671400E+04  0.64825590210E+03 -0.15330166612E+04  0.19820473030E+04  0.25500000920E-02 0. -1.
</event>
<event>
 5   0  0.9360689E-06  0.2813939E+04  0.7818609E-02  0.8298954E-01
       -2   -1    0    0    0  501  0.00000000000E+00  0.00000000000E+00  0.88278939615E+03  0.88278939615E+03  0.25500000920E-02 0. -1.
        2   -1    0    0  501    0  0.00000000000E+00  0.00000000000E+00 -0.22423951767E+04  0.22423951767E+04  0.25500000920E-02 0.  1.
    10030    2    1    2    0    0  0.00000000000E+00  0.00000000000E+00 -0.13596057806E+04  0.31251845729E+04  0.28139386518E+04 0.  0.
        5    1    3    3  502    0 -0.11847503830E+04 -0.74008918175E+03 -0.49338225297E+03  0.14814903322E+04  0.46999998093E+01 0. -1.
       -5    1    3    3    0  502  0.11847503830E+04  0.74008918175E+03 -0.86622352759E+03  0.16436942406E+04  0.46999998093E+01 0.  1.
</event>
<event>
 5   0  0.9646321E-06  0.2938082E+04  0.7818609E-02  0.8261636E-01
        2   -1    0    0  501    0  0.00000000000E+00  0.00000000000E+00  0.16004891562E+04  0.16004891562E+04  0.25500000920E-02 0.  1.
       -2   -1    0    0    0  501  0.00000000000E+00  0.00000000000E+00 -0.13483885157E+04  0.13483885157E+04  0.25500000920E-02 0. -1.
    10030    2    1    2    0    0  0.00000000000E+00  0.00000000000E+00  0.25210064047E+03  0.29488776719E+04  0.29380818217E+04 0.  0.
        3    1    3    3  502    0 -0.19351344765E+03  0.27612191870E+03  0.15611259503E+04  0.15971239812E+04  0.10100000352E+00 0.  1.
       -3    1    3    3    0  502  0.19351344765E+03 -0.27612191870E+03 -0.13090253098E+04  0.13517536907E+04  0.10100000352E+00 0. -1.
</event>
<event>
 5   0  0.3649705E-06  0.2964165E+04  0.7818609E-02  0.8254038E-01
        1   -1    0    0  501    0  0.00000000000E+00  0.00000000000E+00  0.11743667907E+04  0.11743667907E+04  0.50400001928E-02 0. -1.
       -1   -1    0    0    0  501  0.00000000000E+00  0.00000000000E+00 -0.18704280758E+04  0.18704280758E+04  0.50400001928E-02 0.  1.
    10030    2    1    2    0    0  0.00000000000E+00  0.00000000000E+00 -0.69606128506E+03  0.30447948665E+04  0.29641650539E+04 0.  0.
        2    1    3    3  502    0 -0.13225498172E+04  0.66460034518E+03 -0.42583381134E+03  0.15401837788E+04  0.25500000920E-02 0.  1.
       -2    1    3    3    0  502  0.13225498172E+04 -0.66460034518E+03 -0.27022747372E+03  0.15046110877E+04  0.25500000920E-02 0. -1.
</event>
<event>
 5   0  0.9646321E-06  0.2931941E+04  0.7818609E-02  0.8263437E-01
        2   -1    0    0  501    0  0.00000000000E+00  0.00000000000E+00  0.12690970250E+04  0.12690970250E+04  0.25500000920E-02 0. -1.
       -2   -1    0    0    0  501  0.00000000000E+00  0.00000000000E+00 -0.16933848004E+04  0.16933848004E+04  0.25500000920E-02 0.  1.
    10030    2    1    2    0    0  0.00000000000E+00  0.00000000000E+00 -0.42428777542E+03  0.29624818254E+04  0.29319410719E+04 0.  0.
        3    1    3    3  502    0  0.13961329237E+04  0.44706347421E+03 -0.21627443676E+03  0.14818324915E+04  0.10100000352E+00 0.  1.
       -3    1    3    3    0  502 -0.13961329237E+04 -0.44706347421E+03 -0.20801333866E+03  0.14806493339E+04  0.10100000352E+00 0. -1.
</event>
<event>
 5   0  0.3486236E-06  0.2704836E+04  0.7818609E-02  0.8333437E-01
        1   -1    0    0  501    0  0.00000000000E+00  0.00000000000E+00  0.19141118202E+04  0.19141118202E+04  0.50400001928E-02 0. -1.
       -1   -1    0    0    0  501  0.00000000000E+00  0.00000000000E+00 -0.95555290751E+03  0.95555290753E+03  0.50400001928E-02 0.  1.
    10030    2    1    2    0    0  0.00000000000E+00  0.00000000000E+00  0.95855891266E+03  0.28696647277E+04  0.27048364942E+04 0.  0.
        5    1    3    3  502    0  0.81835227332E+03  0.29353349340E+03  0.15783371552E+04  0.18019524468E+04  0.46999998093E+01 0. -1.
       -5    1    3    3    0  502 -0.81835227332E+03 -0.29353349340E+03 -0.61977824251E+03  0.10677122809E+04  0.46999998093E+01 0.  1.
</event>
<event>
 5   0  0.3474078E-06  0.2984459E+04  0.7818609E-02  0.8248183E-01
        1   -1    0    0  501    0  0.00000000000E+00  0.00000000000E+00  0.13724486896E+04  0.13724486896E+04  0.50400001928E-02 0. -1.
       -1   -1    0    0    0  501  0.00000000000E+00  0.00000000000E+00 -0.16224639863E+04  0.16224639864E+04  0.50400001928E-02 0.  1.
    10030    2    1    2    0    0  0.00000000000E+00  0.00000000000E+00 -0.25001529675E+03  0.29949126760E+04  0.29844587932E+04 0.  0.
        3    1    3    3  502    0  0.45826497874E+03  0.34655138254E+03 -0.15070185777E+04  0.16128266042E+04  0.10100000352E+00 0.  1.
       -3    1    3    3    0  502 -0.45826497874E+03 -0.34655138254E+03  0.12570032809E+04  0.13820860718E+04  0.10100000352E+00 0. -1.
</event>
<event>
 5   0  0.3746518E-06  0.2870203E+04  0.7818609E-02  0.8281798E-01
       -1   -1    0    0    0  501  0.00000000000E+00  0.00000000000E+00  0.15706009300E+04  0.15706009300E+04  0.50400001928E-02 0.  1.
        1   -1    0    0  501    0  0.00000000000E+00  0.00000000000E+00 -0.13112922260E+04  0.13112922260E+04  0.50400001928E-02 0. -1.
    10030    2    1    2    0    0  0.00000000000E+00  0.00000000000E+00  0.25930870399E+03  0.28818931560E+04  0.28702033306E+04 0.  0.
        4    1    3    3  502    0  0.38452026194E+03 -0.11754166863E+04  0.86066829808E+03  0.15067221876E+04  0.12699999809E+01 0.  1.
       -4    1    3    3    0  502 -0.38452026194E+03  0.11754166863E+04 -0.60135959408E+03  0.13751709685E+04  0.12699999809E+01 0. -1.
</event>
<event>
 5   0  0.9505359E-06  0.2943176E+04  0.7818609E-02  0.8260146E-01
        2   -1    0    0  501    0  0.00000000000E+00  0.00000000000E+00  0.23075643252E+04  0.23075643252E+04  0.25500000920E-02 0. -1.
       -2   -1    0    0    0  501  0.00000000000E+00  0.00000000000E+00 -0.93846646136E+03  0.93846646136E+03  0.25500000920E-02 0.  1.
    10030    2    1    2    0    0  0.00000000000E+00  0.00000000000E+00  0.13690978638E+04  0.32460307866E+04  0.29431763295E+04 0.  0.
        4    1    3    3  502    0 -0.11566009601E+04 -0.87643093542E+02 -0.31426926193E+03  0.12017378560E+04  0.12699999809E+01 0.  1.
       -4    1    3    3    0  502  0.11566009601E+04  0.87643093542E+02  0.16833671258E+04  0.20442929305E+04  0.12699999809E+01 0. -1.
</event>
<event>
 5   0  0.3746518E-06  0.2467458E+04  0.7818609E-02  0.8414671E-01
        1   -1    0    0  501    0  0.00000000000E+00  0.00000000000E+00  0.14641031883E+04  0.14641031883E+04  0.50400001928E-02 0. -1.
       -1   -1    0    0    0  501  0.00000000000E+00  0.00000000000E+00 -0.10396035832E+04  0.10396035832E+04  0.50400001928E-02 0.  1.
    10030    2    1    2    0    0  0.00000000000E+00  0.00000000000E+00  0.42449960508E+03  0.25037067715E+04  0.24674577368E+04 0.  0.
        4    1    3    3  502    0  0.64988915026E+03  0.76330624212E+03  0.94190564207E+03  0.13755654032E+04  0.12699999809E+01 0. -1.
       -4    1    3    3    0  502 -0.64988915026E+03 -0.76330624212E+03 -0.51740603699E+03  0.11281413683E+04  0.12699999809E+01 0.  1.
</event>
<event>
 5   0  0.9360689E-06  0.2766727E+04  0.7818609E-02  0.8313673E-01
        2   -1    0    0  501    0  0.00000000000E+00  0.00000000000E+00  0.10394293021E+04  0.10394293021E+04  0.25500000920E-02 0. -1.
       -2   -1    0    0    0  501  0.00000000000E+00  0.00000000000E+00 -0.18411007324E+04  0.18411007324E+04  0.25500000920E-02 0.  1.
    10030    2    1    2    0    0  0.00000000000E+00  0.00000000000E+00 -0.80167143032E+03  0.28805300344E+04  0.27667266213E+04 0.  0.
        5    1    3    3  502    0 -0.99452829335E+02  0.13796077013E+04 -0.37841664904E+03  0.14340256361E+04  0.46999998093E+01 0. -1.
       -5    1    3    3    0  502  0.99452829335E+02 -0.13796077013E+04 -0.42325478127E+03  0.14465043984E+04  0.46999998093E+01 0.  1.
</event>
<event>
 5   0  0.3474078E-06  0.2845841E+04  0.7818609E-02  0.8289176E-01
       -1   -1    0    0    0  501  0.00000000000E+00  0.00000000000E+00  0.11378839925E+04  0.11378839925E+04  0.50400001928E-02 0. -1.
        1   -1    0    0  501    0  0.00000000000E+00  0.00000000000E+00 -0.17793579711E+04  0.17793579711E+04  0.50400001928E-02 0.  1.
    10030    2    1    2    0    0  0.00000000000E+00  0.00000000000E+00 -0.64147397857E+03  0.29172419636E+04  0.28458411426E+04 0.  0.
        3    1    3    3  502    0  0.13450731143E+04 -0.26042918917E+03 -0.71464075902E+03  0.15452367036E+04  0.10100000352E+00 0. -1.
       -3    1    3    3    0  502 -0.13450731143E+04  0.26042918917E+03  0.73166780448E+02  0.13720052600E+04  0.10100000352E+00 0.  1.
</event>
<event>
 5   0  0.9251510E-06  0.2809870E+04  0.7818609E-02  0.8300211E-01
        2   -1    0    0  501    0  0.00000000000E+00  0.00000000000E+00  0.22698821482E+04  0.22698821482E+04  0.25500000920E-02 0.  1.
       -2   -1    0    0    0  501  0.00000000000E+00  0.00000000000E+00 -0.86957917795E+03  0.86957917796E+03  0.25500000920E-02 0. -1.
    10030    2    1    2    0    0  0.00000000000E+00  0.00000000000E+00  0.14003029702E+04  0.31394613261E+04  0.28098699276E+04 0.  0.
        2    1    3    3  502    0  0.11103777008E+04 -0.27011298537E+03 -0.21299087312E+03  0.11624391491E+04  0.25500000920E-02 0. -1.
       -2    1    3    3    0  502 -0.11103777008E+04  0.27011298537E+03  0.16132938433E+04  0.19770221770E+04  0.25500000920E-02 0.  1.
</event>
<event>
 5   0  0.9505359E-06  0.2857483E+04  0.7818609E-02  0.8285641E-01
        2   -1    0    0  501    0  0.00000000000E+00  0.00000000000E+00  0.15832193225E+04  0.15832193225E+04  0.25500000920E-02 0.  1.
       -2   -1    0    0    0  501  0.00000000000E+00  0.00000000000E+00 -0.12893365183E+04  0.12893365183E+04  0.25500000920E-02 0. -1.
    10030    2    1    2    0    0  0.00000000000E+00  0.00000000000E+00  0.29388280420E+03  0.28725558408E+04  0.28574831506E+04 0.  0.
        4    1    3    3  502    0 -0.13584564843E+04  0.35477778151E+03 -0.11908550747E+03  0.14090614837E+04  0.12699999809E+01 0. -1.
       -4    1    3    3    0  502  0.13584564843E+04 -0.35477778151E+03  0.41296831167E+03  0.14634943571E+04  0.12699999809E+01 0.  1.
</event>
<event>
 5   0  0.9251510E-06  0.2897223E+04  0.7818609E-02  0.8273704E-01
       -2   -1    0    0    0  501  0.00000000000E+00  0.00000000000E+00  0.23829178474E+04  0.23829178474E+04  0.25500000920E-02 0.  1.
        2   -1    0    0  501    0  0.00000000000E+00  0.00000000000E+00 -0.88063285083E+03  0.88063285084E+03  0.25500000920E-02 0. -1.
    10030    2    1    2    0    0  0.00000000000E+00  0.00000000000E+00  0.15022849966E+04  0.32635506983E+04  0.28972233171E+04 0.  0.
        2    1    3    3  502    0 -0.83688955662E+03  0.11699224177E+04  0.94419863350E+03  0.17206433834E+04  0.25500000920E-02 0. -1.
       -2    1    3    3    0  502  0.83688955662E+03 -0.11699224177E+04  0.55808636310E+03  0.15429073148E+04  0.25500000920E-02 0.  1.
</event>
<event>
 5   0  0.3746518E-06  0.2879723E+04  0.7818609E-02  0.8278936E-01
        1   -1    0    0  501    0  0.00000000000E+00  0.00000000000E+00  0.98521453578E+03  0.98521453579E+03  0.50400001928E-02 0. -1.
       -1   -1    0    0    0  501  0.00000000000E+00  0.00000000000E+00 -0.21043138667E+04  0.21043138667E+04  0.50400001928E-02 0.  1.
    10030    2    1    2    0    0  0.00000000000E+00  0.00000000000E+00 -0.11190993309E+04  0.30895284025E+04  0.28797226320E+04 0.  0.
        4    1    3    3  502    0  0.28727508437E+03 -0.14256056025E+02 -0.20731778935E+04  0.20930356902E+04  0.12699999809E+01 0.  1.
       -4    1    3    3    0  502 -0.28727508437E+03  0.14256056025E+02  0.95407856259E+03  0.99649271233E+03  0.12699999809E+01 0. -1.
</event>
<event>
 5   0  0.9360689E-06  0.3136839E+04  0.7818609E-02  0.8205700E-01
       -2   -1    0    0    0  501  0.00000000000E+00  0.00000000000E+00  0.12052651600E+04  0.12052651600E+04  0.25500000920E-02 0. -1.
        2   -1    0    0  501    0  0.00000000000E+00  0.00000000000E+00 -0.20409951742E+04  0.20409951742E+04  0.25500000920E-02 0.  1.
    10030    2    1    2    0    0  0.00000000000E+00  0.00000000000E+00 -0.83573001424E+03  0.32462603342E+04  0.31368394126E+04 0.  0.
        5    1    3    3  502    0 -0.11175324078E+04  0.28835066981E+03 -0.15169343778E+04  0.19060789039E+04  0.46999998093E+01 0.  1.
       -5    1    3    3    0  502  0.11175324078E+04 -0.28835066981E+03  0.68120436356E+03  0.13401814303E+04  0.46999998093E+01 0. -1.
</event>
<event>
 5   0  0.3649705E-06  0.2902835E+04  0.7818609E-02  0.8272035E-01
       -1   -1    0    0    0  501  0.00000000000E+00  0.00000000000E+00  0.13274147957E+04  0.13274147957E+04  0.50400001928E-02 0. -1.
        1   -1    0    0  501    0  0.00000000000E+00  0.00000000000E+00 -0.15870036170E+04  0.15870036170E+04  0.50400001928E-02 0.  1.
    10030    2    1    2    0    0  0.00000000000E+00  0.00000000000E+00 -0.25958882131E+03  0.29144184127E+04  0.29028345334E+04 0.  0.
        2    1    3    3  502    0  0.54048646774E+03 -0.73127384322E+03  0.10059692069E+04  0.13560461278E+04  0.25500000920E-02 0. -1.
       -2    1    3    3    0  502 -0.54048646774E+03  0.73127384322E+03 -0.12655580282E+04  0.15583722849E+04  0.25500000920E-02 0.  1.
</event>
<event>
 5   0  0.3564340E-06  0.2908707E+04  0.7818609E-02  0.8270292E-01
        1   -1    0    0  501    0  0.00000000000E+00  0.00000000000E+00  0.21102594195E+04  0.21102594195E+04  0.50400001928E-02 0.  1.
       -1   -1    0    0    0  501  0.00000000000E+00  0.00000000000E+00 -0.10023145704E+04  0.10023145704E+04  0.50400001928E-02 0. -1.
    10030    2    1    2    0    0  0.00000000000E+00  0.00000000000E+00  0.11079448491E+04  0.31125739899E+04  0.29087067666E+04 0.  0.
        1    1    3    3  502    0 -0.12574513649E+03  0.14146315427E+04  0.88921860489E+03  0.16756204726E+04  0.50400001928E-02 0.  1.
       -1    1    3    3    0  502  0.12574513649E+03 -0.14146315427E+04  0.21872624416E+03  0.14369535173E+04  0.50400001928E-02 0. -1.
</event>
<event>
 5   0  0.3486236E-06  0.2934731E+04  0.7818609E-02  0.8262618E-01
        1   -1    0    0  501    0  0.00000000000E+00  0.00000000000E+00  0.15692597825E+04  0.15692597825E+04  0.50400001928E-02 0. -1.
       -1   -1    0    0    0  501  0.00000000000E+00  0.00000000000E+00 -0.13720871398E+04  0.13720871398E+04  0.50400001928E-02 0.  1.
    10030    2    1    2    0    0  0.00000000000E+00  0.00000000000E+00  0.19717264266E+03  0.29413469223E+04  0.29347307655E+04 0.  0.
        5    1    3    3  502    0 -0.13610812799E+04  0.39176718799E+03  0.48300714238E+03  0.14964430392E+04  0.46999998093E+01 0. -1.
       -5    1    3    3    0  502  0.13610812799E+04 -0.39176718799E+03 -0.28583449972E+03  0.14449038830E+04  0.46999998093E+01 0.  1.
</event>
<event>
 5   0  0.3746518E-06  0.2787134E+04  0.7818609E-02  0.8307274E-01
        1   -1    0    0  501    0  0.00000000000E+00  0.00000000000E+00  0.20070698635E+04  0.20070698636E+04  0.50400001928E-02 0. -1.
       -1   -1    0    0    0  501  0.00000000000E+00  0.00000000000E+00 -0.96759444044E+03  0.96759444045E+03  0.50400001928E-02 0.  1.
    10030    2    1    2    0    0  0.00000000000E+00  0.00000000000E+00  0.10394754231E+04  0.29746643040E+04  0.27871344722E+04 0.  0.
        4    1    3    3  502    0 -0.11433183770E+04 -0.30324563147E+03 -0.26665094790E+03  0.12125341913E+04  0.12699999809E+01 0.  1.
       -4    1    3    3    0  502  0.11433183770E+04  0.30324563147E+03  0.13061263710E+04  0.17621301127E+04  0.12699999809E+01 0. -1.
</event>
<event>
 5   0  0.1001573E-05  0.2866720E+04  0.7818609E-02  0.8282849E-01
       -2   -1    0    0    0  501  0.00000000000E+00  0.00000000000E+00  0.10678377166E+04  0.10678377166E+04  0.25500000920E-02 0.  1.
        2   -1    0    0  501    0  0.00000000000E+00  0.00000000000E+00 -0.19240011111E+04  0.19240011111E+04  0.25500000920E-02 0. -1.
    10030    2    1    2    0    0  0.00000000000E+00  0.00000000000E+00 -0.85616339453E+03  0.29918388277E+04  0.28667200444E+04 0.  0.
        1    1    3    3  502    0  0.70131738802E+03 -0.46032239710E+03 -0.16410373616E+04  0.18430264269E+04  0.50400001928E-02 0. -1.
       -1    1    3    3    0  502 -0.70131738802E+03  0.46032239710E+03  0.78487396709E+03  0.11488124008E+04  0.50400001928E-02 0.  1.
</event>
<event>
 5   0  0.3564340E-06  0.2981579E+04  0.7818609E-02  0.8249011E-01
       -1   -1    0    0    0  501  0.00000000000E+00  0.00000000000E+00  0.13390119369E+04  0.13390119370E+04  0.50400001928E-02 0. -1.
        1   -1    0    0  501    0  0.00000000000E+00  0.00000000000E+00 -0.16597705988E+04  0.16597705988E+04  0.50400001928E-02 0.  1.
    10030    2    1    2    0    0  0.00000000000E+00  0.00000000000E+00 -0.32075866186E+03  0.29987825358E+04  0.29815785379E+04 0.  0.
        1    1    3    3  502    0  0.11568985543E+02  0.88420880712E+03 -0.13675102783E+04  0.16285095693E+04  0.50400001928E-02 0.  1.
       -1    1    3    3    0  502 -0.11568985543E+02 -0.88420880712E+03  0.10467516165E+04  0.13702729665E+04  0.50400001928E-02 0. -1.
</event>
<event>
 5   0  0.9646321E-06  0.2570759E+04  0.7818609E-02  0.8378202E-01
       -2   -1    0    0    0  501  0.00000000000E+00  0.00000000000E+00  0.80569489582E+03  0.80569489583E+03  0.25500000920E-02 0.  1.
        2   -1    0    0  501    0  0.00000000000E+00  0.00000000000E+00 -0.20506531649E+04  0.20506531649E+04  0.25500000920E-02 0. -1.
    10030    2    1    2    0    0  0.00000000000E+00  0.00000000000E+00 -0.12449582691E+04  0.28563480608E+04  0.25707592560E+04 0.  0.
        3    1    3    3  502    0 -0.11288516745E+04 -0.26870069305E+03 -0.81606098689E+01  0.11604192222E+04  0.10100000352E+00 0.  1.
       -3    1    3    3    0  502  0.11288516745E+04  0.26870069305E+03 -0.12367976593E+04  0.16959288386E+04  0.10100000352E+00 0. -1.
</event>
<event>
 5   0  0.1001573E-05  0.2801262E+04  0.7818609E-02  0.8302877E-01
       -2   -1    0    0    0  501  0.00000000000E+00  0.00000000000E+00  0.10152473591E+04  0.10152473591E+04  0.25500000920E-02 0. -1.
        2   -1    0    0  501    0  0.00000000000E+00  0.00000000000E+00 -0.19323049761E+04  0.19323049761E+04  0.25500000920E-02 0.  1.
    10030    2    1    2    0    0  0.00000000000E+00  0.00000000000E+00 -0.91705761703E+03  0.29475523352E+04  0.28012622326E+04 0.  0.
        1    1    3    3  502    0  0.68741437564E+03  0.45500258354E+03 -0.16500065252E+04  0.18444748326E+04  0.50400001928E-02 0.  1.
       -1    1    3    3    0  502 -0.68741437564E+03 -0.45500258354E+03  0.73294890814E+03  0.11030775026E+04  0.50400001928E-02 0. -1.
</event>
<event>
 5   0  0.1001573E-05  0.2274775E+04  0.7818609E-02  0.8487934E-01
       -2   -1    0    0    0  501  0.00000000000E+00  0.00000000000E+00  0.10985719240E+04  0.10985719240E+04  0.25500000920E-02 0. -1.
        2   -1    0    0  501    0  0.00000000000E+00  0.00000000000E+00 -0.11775743289E+04  0.11775743289E+04  0.25500000920E-02 0.  1.
    10030    2    1    2    0    0  0.00000000000E+00  0.00000000000E+00 -0.79002404902E+02  0.22761462528E+04  0.22747747986E+04 0.  0.
        1    1    3    3  502    0  0.93680004151E+03 -0.16021953838E+03  0.58568384531E+03  0.11163736762E+04  0.50400001928E-02 0.  1.
       -1    1    3    3    0  502 -0.93680004151E+03  0.16021953838E+03 -0.66468625021E+03  0.11597725766E+04  0.50400001928E-02 0. -1.
</event>
<event>
 5   0  0.9360689E-06  0.2901952E+04  0.7818609E-02  0.8272297E-01
       -2   -1    0    0    0  501  0.00000000000E+00  0.00000000000E+00  0.79548553319E+03  0.79548553319E+03  0.25500000920E-02 0.  1.
        2   -1    0    0  501    0  0.00000000000E+00  0.00000000000E+00 -0.26465998207E+04  0.26465998207E+04  0.25500000920E-02 0. -1.
    10030    2    1    2    0    0  0.00000000000E+00  0.00000000000E+00 -0.18511142875E+04  0.34420853539E+04  0.29019523563E+04 0.  0.
        5    1    3    3  502    0 -0.11186467463E+04 -0.80002385203E+03 -0.37697983618E+03  0.14260240509E+04  0.46999998093E+01 0.  1.
       -5    1    3    3    0  502  0.11186467463E+04  0.80002385203E+03 -0.14741344514E+04  0.20160613030E+04  0.46999998093E+01 0. -1.
</event>
<event>
 5   0  0.3486236E-06  0.2896728E+04  0.7818609E-02  0.8273852E-01
        1   -1    0    0  501    0  0.00000000000E+00  0.00000000000E+00  0.14313608543E+04  0.14313608543E+04  0.50400001928E-02 0. -1.
       -1   -1    0    0    0  501  0.00000000000E+00  0.00000000000E+00 -0.14655689281E+04  0.14655689281E+04  0.50400001928E-02 0.  1.
    10030    2    1    2    0    0  0.00000000000E+00  0.00000000000E+00 -0.34208073786E+02  0.28969297824E+04  0.28967278043E+04 0.  0.
        5    1    3    3  502    0 -0.41680841472E+03  0.71248075325E+03  0.11730956729E+04  0.14344105500E+04  0.46999998093E+01 0. -1.
       -5    1    3    3    0  502  0.41680841472E+03 -0.71248075325E+03 -0.12073037467E+04  0.14625192324E+04  0.46999998093E+01 0.  1.
</event>
<event>
 5   0  0.9646321E-06  0.2868391E+04  0.7818609E-02  0.8282345E-01
       -2   -1    0    0    0  501  0.00000000000E+00  0.00000000000E+00  0.10867586288E+04  0.10867586288E+04  0.25500000920E-02 0. -1.
        2   -1    0    0  501    0  0.00000000000E+00  0.00000000000E+00 -0.18927085786E+04  0.18927085786E+04  0.25500000920E-02 0.  1.
    10030    2    1    2    0    0  0.00000000000E+00  0.00000000000E+00 -0.80594994981E+03  0.29794672073E+04  0.28683914513E+04 0.  0.
        3    1    3    3  502    0 -0.11534116953E+03  0.15842802183E+03  0.10727863019E+04  0.10905381622E+04  0.10100000352E+00 0. -1.
       -3    1    3    3    0  502  0.11534116953E+03 -0.15842802183E+03 -0.18787362518E+04  0.18889290451E+04  0.10100000352E+00 0.  1.
</event>
<event>
 5   0  0.3649705E-06  0.2908753E+04  0.7818609E-02  0.8270278E-01
        1   -1    0    0  501    0  0.00000000000E+00  0.00000000000E+00  0.15674460361E+04  0.15674460361E+04  0.50400001928E-02 0.  1.
       -1   -1    0    0    0  501  0.00000000000E+00  0.00000000000E+00 -0.13494630092E+04  0.13494630092E+04  0.50400001928E-02 0. -1.
    10030    2    1    2    0    0  0.00000000000E+00  0.00000000000E+00  0.21798302695E+03  0.29169090453E+04  0.29087526155E+04 0.  0.
        2    1    3    3  502    0 -0.23339257633E+03  0.59011258097E+03  0.14212883649E+04  0.15565235524E+04  0.25500000920E-02 0.  1.
       -2    1    3    3    0  502  0.23339257633E+03 -0.59011258097E+03 -0.12033053380E+04  0.13603854929E+04  0.25500000920E-02 0. -1.
</event>
<event>
 5   0  0.3564340E-06  0.2998314E+04  0.7818609E-02  0.8244212E-01
        1   -1    0    0  501    0  0.00000000000E+00  0.00000000000E+00  0.22030450928E+04  0.22030450928E+04  0.50400001928E-02 0.  1.
       -1   -1    0    0    0  501  0.00000000000E+00  0.00000000000E+00 -0.10201662937E+04  0.10201662938E+04  0.50400001928E-02 0. -1.
    10030    2    1    2    0    0  0.00000000000E+00  0.00000000000E+00  0.11828787991E+04  0.32232113866E+04  0.29983144247E+04 0.  0.
        1    1    3    3  502    0  0.12411811881E+04  0.60817108554E+03  0.12155640937E+04  0.18406517533E+04  0.50400001928E-02 0. -1.
       -1    1    3    3    0  502 -0.12411811881E+04 -0.60817108554E+03 -0.32685294645E+02  0.13825596333E+04  0.50400001928E-02 0.  1.
</event>
<event>
 5   0  0.3474078E-06  0.2892481E+04  0.7818609E-02  0.8275118E-01
       -1   -1    0    0    0  501  0.00000000000E+00  0.00000000000E+00  0.12372183554E+04  0.12372183554E+04  0.50400001928E-02 0.  1.
        1   -1    0    0  501    0  0.00000000000E+00  0.00000000000E+00 -0.16905760132E+04  0.16905760132E+04  0.50400001928E-02 0. -1.
    10030    2    1    2    0    0  0.00000000000E+00  0.00000000000E+00 -0.45335765783E+03  0.29277943686E+04  0.28924810629E+04 0.  0.
        3    1    3    3  502    0  0.14057096407E+04 -0.33606498348E+03 -0.17454863325E+03  0.14558250247E+04  0.10100000352E+00 0.  1.
       -3    1    3    3    0  502 -0.14057096407E+04  0.33606498348E+03 -0.27880902458E+03  0.14719693439E+04  0.10100000352E+00 0. -1.
</event>
<event>
 5   0  0.3474078E-06  0.2888018E+04  0.7818609E-02  0.8276452E-01
        1   -1    0    0  501    0  0.00000000000E+00  0.00000000000E+00  0.17279044250E+04  0.17279044250E+04  0.50400001928E-02 0. -1.
       -1   -1    0    0    0  501  0.00000000000E+00  0.00000000000E+00 -0.12067574412E+04  0.12067574412E+04  0.50400001928E-02 0.  1.
    10030    2    1    2    0    0  0.00000000000E+00  0.00000000000E+00  0.52114698383E+03  0.29346618662E+04  0.28880176748E+04 0.  0.
        3    1    3    3  502    0  0.10663121928E+04 -0.12216652432E+03  0.12422064123E+04  0.16416525616E+04  0.10100000352E+00 0. -1.
       -3    1    3    3    0  502 -0.10663121928E+04  0.12216652432E+03 -0.72105942851E+03  0.12930093046E+04  0.10100000352E+00 0.  1.
</event>
<event>
 5   0  0.9251510E-06  0.2883234E+04  0.7818609E-02  0.8277883E-01
        2   -1    0    0  501    0  0.00000000000E+00  0.00000000000E+00  0.21028258103E+04  0.21028258103E+04  0.25500000920E-02 0.  1.
       -2   -1    0    0    0  501  0.00000000000E+00  0.00000000000E+00 -0.98831781303E+03  0.98831781303E+03  0.25500000920E-02 0. -1.
    10030    2    1    2    0    0  0.00000000000E+00  0.00000000000E+00  0.11145079972E+04  0.30911436233E+04  0.28832344379E+04 0.  0.
        2    1    3    3  502    0  0.66403573775E+03  0.31472674006E+03  0.18869569748E+04  0.20249945695E+04  0.25500000920E-02 0.  1.
       -2    1    3    3    0  502 -0.66403573775E+03 -0.31472674006E+03 -0.77244897756E+03  0.10661490538E+04  0.25500000920E-02 0. -1.
</event>
<event>
 5   0  0.3486236E-06  0.2877321E+04  0.7818609E-02  0.8279657E-01
        1   -1    0    0  501    0  0.00000000000E+00  0.00000000000E+00  0.14579876850E+04  0.14579876850E+04  0.50400001928E-02 0.  1.
       -1   -1    0    0    0  501  0.00000000000E+00  0.00000000000E+00 -0.14195894932E+04  0.14195894932E+04  0.50400001928E-02 0. -1.
    10030    2    1    2    0    0  0.00000000000E+00  0.00000000000E+00  0.38398191788E+02  0.28775771783E+04  0.28773209755E+04 0.  0.
        5    1    3    3  502    0 -0.39320005839E+03  0.88940890210E+03  0.10795139621E+04  0.14529373577E+04  0.46999998093E+01 0.  1.
       -5    1    3    3    0  502  0.39320005839E+03 -0.88940890210E+03 -0.10411157703E+04  0.14246398206E+04  0.46999998093E+01 0. -1.
</event>
<event>
 5   0  0.9360689E-06  0.2922338E+04  0.7818609E-02  0.8266262E-01
       -2   -1    0    0    0  501  0.00000000000E+00  0.00000000000E+00  0.96723931398E+03  0.96723931398E+03  0.25500000920E-02 0.  1.
        2   -1    0    0  501    0  0.00000000000E+00  0.00000000000E+00 -0.22073277377E+04  0.22073277377E+04  0.25500000920E-02 0. -1.
    10030    2    1    2    0    0  0.00000000000E+00  0.00000000000E+00 -0.12400884237E+04  0.31745670516E+04  0.29223375347E+04 0.  0.
        5    1    3    3  502    0 -0.14926365289E+03 -0.61862332750E+02  0.95749668771E+03  0.97104509847E+03  0.46999998093E+01 0.  1.
       -5    1    3    3    0  502  0.14926365289E+03  0.61862332750E+02 -0.21975851114E+04  0.22035219532E+04  0.46999998093E+01 0. -1.
</event>
<event>
 5   0  0.3649705E-06  0.2856491E+04  0.7818609E-02  0.8285942E-01
       -1   -1    0    0    0  501  0.00000000000E+00  0.00000000000E+00  0.11004133115E+04  0.11004133115E+04  0.50400001928E-02 0. -1.
        1   -1    0    0  501    0  0.00000000000E+00  0.00000000000E+00 -0.18537440768E+04  0.18537440768E+04  0.50400001928E-02 0.  1.
    10030    2    1    2    0    0  0.00000000000E+00  0.00000000000E+00 -0.75333076525E+03  0.29541573883E+04  0.28564906149E+04 0.  0.
        2    1    3    3  502    0 -0.13935041703E+04  0.26673892281E+03 -0.54622585176E+03  0.15203177979E+04  0.25500000920E-02 0.  1.
       -2    1    3    3    0  502  0.13935041703E+04 -0.26673892281E+03 -0.20710491348E+03  0.14338395903E+04  0.25500000920E-02 0. -1.
</event>
<event>
 5   0  0.3188375E-06  0.2913361E+04  0.7818609E-02  0.8268913E-01
       -4   -1    0    0    0  501  0.00000000000E+00  0.00000000000E+00  0.18438771336E+04  0.18438775710E+04  0.12699999809E+01 0.  1.
        4   -1    0    0  501    0  0.00000000000E+00  0.00000000000E+00 -0.11507907255E+04  0.11507914262E+04  0.12699999809E+01 0. -1.
    10030    2    1    2    0    0  0.00000000000E+00  0.00000000000E+00  0.69308640818E+03  0.29946689972E+04  0.29133612261E+04 0.  0.
        1    1    3    3  502    0  0.10058929062E+04  0.49002197364E+03  0.13052994588E+04  0.17192291152E+04  0.50400001928E-02 0.  1.
       -1    1    3    3    0  502 -0.10058929062E+04 -0.49002197364E+03 -0.61221305065E+03  0.12754398820E+04  0.50400001928E-02 0. -1.
</event>
<event>
 5   0  0.3564340E-06  0.2986071E+04  0.7818609E-02  0.8247720E-01
        1   -1    0    0  501    0  0.00000000000E+00  0.00000000000E+00  0.17915268684E+04  0.17915268684E+04  0.50400001928E-02 0. -1.
       -1   -1    0    0    0  501  0.00000000000E+00  0.00000000000E+00 -0.12442767117E+04  0.12442767117E+04  0.50400001928E-02 0.  1.
    10030    2    1    2    0    0  0.00000000000E+00  0.00000000000E+00  0.54725015670E+03  0.30358035801E+04  0.29860711048E+04 0.  0.
        1    1    3    3  502    0 -0.44453544235E+03  0.84895070678E+03 -0.89035638357E+03  0.13080762791E+04  0.50400001928E-02 0.  1.
       -1    1    3    3    0  502  0.44453544235E+03 -0.84895070678E+03  0.14376065403E+04  0.17277273010E+04  0.50400001928E-02 0. -1.
</event>
<event>
 5   0  0.3649705E-06  0.2891028E+04  0.7818609E-02  0.8275552E-01
        1   -1    0    0  501    0  0.00000000000E+00  0.00000000000E+00  0.14181877713E+04  0.14181877713E+04  0.50400001928E-02 0.  1.
       -1   -1    0    0    0  501  0.00000000000E+00  0.00000000000E+00 -0.14733669520E+04  0.14733669520E+04  0.50400001928E-02 0. -1.
    10030    2    1    2    0    0  0.00000000000E+00  0.00000000000E+00 -0.55179180676E+02  0.28915547233E+04  0.28910281866E+04 0.  0.
        2    1    3    3  502    0  0.90652958697E+03 -0.34938911295E+03  0.10429521858E+04  0.14253483455E+04  0.25500000920E-02 0.  1.
       -2    1    3    3    0  502 -0.90652958697E+03  0.34938911295E+03 -0.10981313664E+04  0.14662063778E+04  0.25500000920E-02 0. -1.
</event>
<event>
 5   0  0.1001573E-05  0.2874561E+04  0.7818609E-02  0.8280487E-01
       -2   -1    0    0    0  501  0.00000000000E+00  0.00000000000E+00  0.16615001841E+04  0.16615001841E+04  0.25500000920E-02 0.  1.
        2   -1    0    0  501    0  0.00000000000E+00  0.00000000000E+00 -0.12433188892E+04  0.12433188892E+04  0.25500000920E-02 0. -1.
    10030    2    1    2    0    0  0.00000000000E+00  0.00000000000E+00  0.41818129487E+03  0.29048190734E+04  0.28745605323E+04 0.  0.
        1    1    3    3  502    0  0.10902015980E+04 -0.48537250827E+03  0.10185522335E+04  0.15689406134E+04  0.50400001928E-02 0.  1.
       -1    1    3    3    0  502 -0.10902015980E+04  0.48537250827E+03 -0.60037093858E+03  0.13358784600E+04  0.50400001928E-02 0. -1.
</event>
<event>
 5   0  0.1001573E-05  0.2890920E+04  0.7818609E-02  0.8275584E-01
        2   -1    0    0  501    0  0.00000000000E+00  0.00000000000E+00  0.19685392278E+04  0.19685392278E+04  0.25500000920E-02 0. -1.
       -2   -1    0    0    0  501  0.00000000000E+00  0.00000000000E+00 -0.10613730442E+04  0.10613730442E+04  0.25500000920E-02 0.  1.
    10030    2    1    2    0    0  0.00000000000E+00  0.00000000000E+00  0.90716618358E+03  0.30299122720E+04  0.28909199040E+04 0.  0.
        1    1    3    3  502    0 -0.13487812413E+04  0.21154514354E+03  0.95116378526E+03  0.16639335116E+04  0.50400001928E-02 0. -1.
       -1    1    3    3    0  502  0.13487812413E+04 -0.21154514354E+03 -0.43997601684E+02  0.13659787604E+04  0.50400001928E-02 0.  1.
</event>
<event>
 5   0  0.3188375E-06  0.2917873E+04  0.7818609E-02  0.8267579E-01
        3   -1    0    0  501    0  0.00000000000E+00  0.00000000000E+00  0.12399674137E+04  0.12399674178E+04  0.10100000352E+00 0.  1.
       -3   -1    0    0    0  501  0.00000000000E+00  0.00000000000E+00 -0.17165744813E+04  0.17165744843E+04  0.10100000352E+00 0. -1.
    10030    2    1    2    0    0  0.00000000000E+00  0.00000000000E+00 -0.47660706763E+03  0.29565419021E+04  0.29178734931E+04 0.  0.
        1    1    3    3  502    0 -0.69293219538E+03  0.29043330081E+03  0.10288655015E+04  0.12739979395E+04  0.50400001928E-02 0.  1.
       -1    1    3    3    0  502  0.69293219538E+03 -0.29043330081E+03 -0.15054725691E+04  0.16825439626E+04  0.50400001928E-02 0. -1.
</event>
<event>
 5   0  0.3746518E-06  0.2889243E+04  0.7818609E-02  0.8276085E-01
       -1   -1    0    0    0  501  0.00000000000E+00  0.00000000000E+00  0.13255061937E+04  0.13255061937E+04  0.50400001928E-02 0.  1.
        1   -1    0    0  501    0  0.00000000000E+00  0.00000000000E+00 -0.15744404739E+04  0.15744404739E+04  0.50400001928E-02 0. -1.
    10030    2    1    2    0    0  0.00000000000E+00  0.00000000000E+00 -0.24893428023E+03  0.28999466676E+04  0.28892425303E+04 0.  0.
        4    1    3    3  502    0 -0.59548237484E+03  0.13073060978E+04 -0.27761189040E+03  0.14631194301E+04  0.12699999809E+01 0.  1.
       -4    1    3    3    0  502  0.59548237484E+03 -0.13073060978E+04  0.28677610167E+02  0.14368272375E+04  0.12699999809E+01 0. -1.
</event>
<event>
 5   0  0.9360689E-06  0.2969763E+04  0.7818609E-02  0.8252418E-01
       -2   -1    0    0    0  501  0.00000000000E+00  0.00000000000E+00  0.12467054853E+04  0.12467054853E+04  0.25500000920E-02 0. -1.
        2   -1    0    0  501    0  0.00000000000E+00  0.00000000000E+00 -0.17685591662E+04  0.17685591662E+04  0.25500000920E-02 0.  1.
    10030    2    1    2    0    0  0.00000000000E+00  0.00000000000E+00 -0.52185368093E+03  0.30152646515E+04  0.29697625586E+04 0.  0.
        5    1    3    3  502    0 -0.13173480339E+04  0.67366840286E+03 -0.13405075586E+03  0.14856738049E+04  0.46999998093E+01 0. -1.
       -5    1    3    3    0  502  0.13173480339E+04 -0.67366840286E+03 -0.38780292507E+03  0.15295908466E+04  0.46999998093E+01 0.  1.
</event>
<event>
 5   0  0.3486236E-06  0.2869839E+04  0.7818609E-02  0.8281908E-01
       -1   -1    0    0    0  501  0.00000000000E+00  0.00000000000E+00  0.15098507217E+04  0.15098507217E+04  0.50400001928E-02 0.  1.
        1   -1    0    0  501    0  0.00000000000E+00  0.00000000000E+00 -0.13637069678E+04  0.13637069678E+04  0.50400001928E-02 0. -1.
    10030    2    1    2    0    0  0.00000000000E+00  0.00000000000E+00  0.14614375387E+03  0.28735576895E+04  0.28698389847E+04 0.  0.
        5    1    3    3  502    0  0.10637709467E+04 -0.79146071301E+03 -0.47623097303E+03  0.14088423322E+04  0.46999998093E+01 0. -1.
       -5    1    3    3    0  502 -0.10637709467E+04  0.79146071301E+03  0.62237472690E+03  0.14647153573E+04  0.46999998093E+01 0.  1.
</event>
<event>
 5   0  0.3649705E-06  0.2303667E+04  0.7818609E-02  0.8476477E-01
       -1   -1    0    0    0  501  0.00000000000E+00  0.00000000000E+00  0.10200844356E+04  0.10200844356E+04  0.50400001928E-02 0.  1.
        1   -1    0    0  501    0  0.00000000000E+00  0.00000000000E+00 -0.13005981434E+04  0.13005981434E+04  0.50400001928E-02 0. -1.
    10030    2    1    2    0    0  0.00000000000E+00  0.00000000000E+00 -0.28051370788E+03  0.23206825790E+04  0.23036665757E+04 0.  0.
        2    1    3    3  502    0  0.70047341125E+03  0.55631739850E+03 -0.87126682549E+03  0.12487024982E+04  0.25500000920E-02 0. -1.
       -2    1    3    3    0  502 -0.70047341125E+03 -0.55631739850E+03  0.59075311761E+03  0.10719800808E+04  0.25500000920E-02 0.  1.
</event>
<event>
 5   0  0.9360689E-06  0.2963871E+04  0.7818609E-02  0.8254124E-01
       -2   -1    0    0    0  501  0.00000000000E+00  0.00000000000E+00  0.17464385768E+04  0.17464385768E+04  0.25500000920E-02 0.  1.
        2   -1    0    0  501    0  0.00000000000E+00  0.00000000000E+00 -0.12574917554E+04  0.12574917554E+04  0.25500000920E-02 0. -1.
    10030    2    1    2    0    0  0.00000000000E+00  0.00000000000E+00  0.48894682148E+03  0.30039303322E+04  0.29638705178E+04 0.  0.
        5    1    3    3  502    0 -0.14217900850E+04  0.41770332862E+03  0.23218915334E+03  0.14999656695E+04  0.46999998093E+01 0.  1.
       -5    1    3    3    0  502  0.14217900850E+04 -0.41770332862E+03  0.25675766814E+03  0.15039646627E+04  0.46999998093E+01 0. -1.
</event>
<event>
 5   0  0.1001573E-05  0.2979170E+04  0.7818609E-02  0.8249704E-01
       -2   -1    0    0    0  501  0.00000000000E+00  0.00000000000E+00  0.11721722869E+04  0.11721722869E+04  0.25500000920E-02 0.  1.
        2   -1    0    0  501    0  0.00000000000E+00  0.00000000000E+00 -0.18929503952E+04  0.18929503952E+04  0.25500000920E-02 0. -1.
    10030    2    1    2    0    0  0.00000000000E+00  0.00000000000E+00 -0.72077810834E+03  0.30651226821E+04  0.29791703501E+04 0.  0.
        1    1    3    3  502    0 -0.14506103443E+04 -0.76256046786E+02 -0.69972067620E+03  0.16123567783E+04  0.50400001928E-02 0. -1.
       -1    1    3    3    0  502  0.14506103443E+04  0.76256046786E+02 -0.21057432141E+02  0.14527659038E+04  0.50400001928E-02 0.  1.
</event>
<event>
 5   0  0.3649705E-06  0.2972998E+04  0.7818609E-02  0.8251484E-01
        1   -1    0    0  501    0  0.00000000000E+00  0.00000000000E+00  0.22136264497E+04  0.22136264497E+04  0.50400001928E-02 0. -1.
       -1   -1    0    0    0  501  0.00000000000E+00  0.00000000000E+00 -0.99821685002E+03  0.99821685003E+03  0.50400001928E-02 0.  1.
    10030    2    1    2    0    0  0.00000000000E+00  0.00000000000E+00  0.12154095997E+04  0.32118432998E+04  0.29729979629E+04 0.  0.
        2    1    3    3  502    0  0.35068284330E+03  0.50680142021E+03  0.20691005781E+04  0.21589356957E+04  0.25500000920E-02 0. -1.
       -2    1    3    3    0  502 -0.35068284330E+03 -0.50680142021E+03 -0.85369097835E+03  0.10529076040E+04  0.25500000920E-02 0.  1.
</event>
<event>
 5   0  0.3486236E-06  0.2951883E+04  0.7818609E-02  0.8257606E-01
        1   -1    0    0  501    0  0.00000000000E+00  0.00000000000E+00  0.26284542199E+04  0.26284542199E+04  0.50400001928E-02 0.  1.
       -1   -1    0    0    0  501  0.00000000000E+00  0.00000000000E+00 -0.82877727350E+03  0.82877727351E+03  0.50400001928E-02 0. -1.
    10030    2    1    2    0    0  0.00000000000E+00  0.00000000000E+00  0.17996769464E+04  0.34572314934E+04  0.29518828716E+04 0.  0.
        5    1    3    3  502    0  0.12114086075E+04  0.36718639390E+02  0.18863729335E+04  0.22421605667E+04  0.46999998093E+01 0.  1.
       -5    1    3    3    0  502 -0.12114086075E+04 -0.36718639390E+02 -0.86695987077E+02  0.12150709267E+04  0.46999998093E+01 0. -1.
</event>
<event>
 5   0  0.3474078E-06  0.2914106E+04  0.7818609E-02  0.8268693E-01
        1   -1    0    0  501    0  0.00000000000E+00  0.00000000000E+00  0.21427872127E+04  0.21427872127E+04  0.50400001928E-02 0.  1.
       -1   -1    0    0    0  501  0.00000000000E+00  0.00000000000E+00 -0.99076696082E+03  0.99076696084E+03  0.50400001928E-02 0. -1.
    10030    2    1    2    0    0  0.00000000000E+00  0.00000000000E+00  0.11520202518E+04  0.31335541735E+04  0.29141055399E+04 0.  0.
        3    1    3    3  502    0 -0.67089022676E+03 -0.10769144960E+04 -0.19429027078E+03  0.12835837517E+04  0.10100000352E+00 0. -1.
       -3    1    3    3    0  502  0.67089022676E+03  0.10769144960E+04  0.13463105226E+04  0.18499704218E+04  0.10100000352E+00 0.  1.
</event>
<event>
 5   0  0.3474078E-06  0.2862133E+04  0.7818609E-02  0.8284234E-01
        1   -1    0    0  501    0  0.00000000000E+00  0.00000000000E+00  0.18830247175E+04  0.18830247175E+04  0.50400001928E-02 0.  1.
       -1   -1    0    0    0  501  0.00000000000E+00  0.00000000000E+00 -0.10875857002E+04  0.10875857002E+04  0.50400001928E-02 0. -1.
    10030    2    1    2    0    0  0.00000000000E+00  0.00000000000E+00  0.79543901724E+03  0.29706104177E+04  0.28621326006E+04 0.  0.
        3    1    3    3  502    0  0.74258104646E+02  0.56052309271E+03 -0.96673567342E+03  0.11199456576E+04  0.10100000352E+00 0. -1.
       -3    1    3    3    0  502 -0.74258104646E+02 -0.56052309271E+03  0.17621746907E+04  0.18506647601E+04  0.10100000352E+00 0.  1.
</event>
<event>
 5   0  0.3486236E-06  0.2860983E+04  0.7818609E-02  0.8284582E-01
       -1   -1    0    0    0  501  0.00000000000E+00  0.00000000000E+00  0.11757069948E+04  0.11757069949E+04  0.50400001928E-02 0. -1.
        1   -1    0    0  501    0  0.00000000000E+00  0.00000000000E+00 -0.17404892242E+04  0.17404892242E+04  0.50400001928E-02 0.  1.
    10030    2    1    2    0    0  0.00000000000E+00  0.00000000000E+00 -0.56478222938E+03  0.29161962191E+04  0.28609825972E+04 0.  0.
        5    1    3    3  502    0 -0.65606654225E+03 -0.90512797389E+03  0.62735996432E+03  0.12819058358E+04  0.46999998093E+01 0. -1.
       -5    1    3    3    0  502  0.65606654225E+03  0.90512797389E+03 -0.11921421937E+04  0.16342903833E+04  0.46999998093E+01 0.  1.
</event>
<event>
 5   0  0.3746518E-06  0.2890699E+04  0.7818609E-02  0.8275650E-01
       -1   -1    0    0    0  501  0.00000000000E+00  0.00000000000E+00  0.12430637910E+04  0.12430637910E+04  0.50400001928E-02 0.  1.
        1   -1    0    0  501    0  0.00000000000E+00  0.00000000000E+00 -0.16805532996E+04  0.16805532996E+04  0.50400001928E-02 0. -1.
    10030    2    1    2    0    0  0.00000000000E+00  0.00000000000E+00 -0.43748950866E+03  0.29236170906E+04  0.28906988467E+04 0.  0.
        4    1    3    3  502    0  0.70150404283E+03  0.51543448265E+03  0.94819355093E+03  0.12871881179E+04  0.12699999809E+01 0.  1.
       -4    1    3    3    0  502 -0.70150404283E+03 -0.51543448265E+03 -0.13856830596E+04  0.16364289727E+04  0.12699999809E+01 0. -1.
</event>
<event>
 5   0  0.3486236E-06  0.2673595E+04  0.7818609E-02  0.8343624E-01
        1   -1    0    0  501    0  0.00000000000E+00  0.00000000000E+00  0.10224837514E+04  0.10224837514E+04  0.50400001928E-02 0.  1.
       -1   -1    0    0    0  501  0.00000000000E+00  0.00000000000E+00 -0.17477324002E+04  0.17477324002E+04  0.50400001928E-02 0. -1.
    10030    2    1    2    0    0  0.00000000000E+00  0.00000000000E+00 -0.72524864884E+03  0.27702161516E+04  0.26735953179E+04 0.  0.
        5    1    3    3  502    0  0.75295075261E+03  0.81478590042E+03 -0.11353609943E+04  0.15874122265E+04  0.46999998093E+01 0. -1.
       -5    1    3    3    0  502 -0.75295075261E+03 -0.81478590042E+03  0.41011234549E+03  0.11828039251E+04  0.46999998093E+01 0.  1.
</event>
<event>
 5   0  0.9505359E-06  0.2733230E+04  0.7818609E-02  0.8324303E-01
        2   -1    0    0  501    0  0.00000000000E+00  0.00000000000E+00  0.84909235571E+03  0.84909235572E+03  0.25500000920E-02 0. -1.
       -2   -1    0    0    0  501  0.00000000000E+00  0.00000000000E+00 -0.21995685363E+04  0.21995685363E+04  0.25500000920E-02 0.  1.
    10030    2    1    2    0    0  0.00000000000E+00  0.00000000000E+00 -0.13504761806E+04  0.30486608920E+04  0.27332301989E+04 0.  0.
        4    1    3    3  502    0 -0.12104661412E+04 -0.16290575641E+03  0.85963393048E+01  0.12214098716E+04  0.12699999809E+01 0. -1.
       -4    1    3    3    0  502  0.12104661412E+04  0.16290575641E+03 -0.13590725199E+04  0.18272510204E+04  0.12699999809E+01 0.  1.
</event>
<event>
 5   0  0.3486236E-06  0.2942480E+04  0.7818609E-02  0.8260350E-01
       -1   -1    0    0    0  501  0.00000000000E+00  0.00000000000E+00  0.73515392761E+03  0.73515392762E+03  0.50400001928E-02 0.  1.
        1   -1    0    0  501    0  0.00000000000E+00  0.00000000000E+00 -0.29443446149E+04  0.29443446149E+04  0.50400001928E-02 0. -1.
    10030    2    1    2    0    0  0.00000000000E+00  0.00000000000E+00 -0.22091906873E+04  0.36794985425E+04  0.29424795720E+04 0.  0.
        5    1    3    3  502    0  0.31204734527E+03 -0.90613960640E+03  0.29127469287E+03  0.10016614042E+04  0.46999998093E+01 0.  1.
       -5    1    3    3    0  502 -0.31204734527E+03  0.90613960640E+03 -0.25004653801E+04  0.26778371383E+04  0.46999998093E+01 0. -1.
</event>
<event>
 5   0  0.9646321E-06  0.2871556E+04  0.7818609E-02  0.8281391E-01
        2   -1    0    0  501    0  0.00000000000E+00  0.00000000000E+00  0.12904286782E+04  0.12904286782E+04  0.25500000920E-02 0.  1.
       -2   -1    0    0    0  501  0.00000000000E+00  0.00000000000E+00 -0.15974994787E+04  0.15974994787E+04  0.25500000920E-02 0. -1.
    10030    2    1    2    0    0  0.00000000000E+00  0.00000000000E+00 -0.30707080046E+03  0.28879281569E+04  0.28715564704E+04 0.  0.
        3    1    3    3  502    0  0.29821158186E+03 -0.13311745045E+04 -0.60386440289E+03  0.14918471558E+04  0.10100000352E+00 0. -1.
       -3    1    3    3    0  502 -0.29821158186E+03  0.13311745045E+04  0.29679360243E+03  0.13960810011E+04  0.10100000352E+00 0.  1.
</event>
<event>
 5   0  0.9646321E-06  0.2922386E+04  0.7818609E-02  0.8266248E-01
       -2   -1    0    0    0  501  0.00000000000E+00  0.00000000000E+00  0.12502445384E+04  0.12502445384E+04  0.25500000920E-02 0. -1.
        2   -1    0    0  501    0  0.00000000000E+00  0.00000000000E+00 -0.17077342037E+04  0.17077342037E+04  0.25500000920E-02 0.  1.
    10030    2    1    2    0    0  0.00000000000E+00  0.00000000000E+00 -0.45748966531E+03  0.29579787422E+04  0.29223862588E+04 0.  0.
        3    1    3    3  502    0  0.11933312235E+04  0.83806223547E+03 -0.32314177669E+03  0.14935890792E+04  0.10100000352E+00 0. -1.
       -3    1    3    3    0  502 -0.11933312235E+04 -0.83806223547E+03 -0.13434788862E+03  0.14643896629E+04  0.10100000352E+00 0.  1.
</event>
<event>
 5   0  0.3188375E-06  0.2894132E+04  0.7818609E-02  0.8274625E-01
        4   -1    0    0  501    0  0.00000000000E+00  0.00000000000E+00  0.11906619270E+04  0.11906626043E+04  0.12699999809E+01 0. -1.
       -4   -1    0    0    0  501  0.00000000000E+00  0.00000000000E+00 -0.17586844089E+04  0.17586848675E+04  0.12699999809E+01 0.  1.
    10030    2    1    2    0    0  0.00000000000E+00  0.00000000000E+00 -0.56802248187E+03  0.29493474718E+04  0.28941321617E+04 0.  0.
        3    1    3    3  502    0  0.97534838942E+03 -0.74240867111E+03  0.49976875784E+03  0.13237235124E+04  0.10100000352E+00 0. -1.
       -3    1    3    3    0  502 -0.97534838942E+03  0.74240867111E+03 -0.10677912397E+04  0.16256239594E+04  0.10100000352E+00 0.  1.
</event>
<event>
 5   0  0.9360689E-06  0.2911962E+04  0.7818609E-02  0.8269327E-01
       -2   -1    0    0    0  501  0.00000000000E+00  0.00000000000E+00  0.10407488240E+04  0.10407488240E+04  0.25500000920E-02 0.  1.
        2   -1    0    0  501    0  0.00000000000E+00  0.00000000000E+00 -0.20368801927E+04  0.20368801927E+04  0.25500000920E-02 0. -1.
    10030    2    1    2    0    0  0.00000000000E+00  0.00000000000E+00 -0.99613136867E+03  0.30776290167E+04  0.29119619951E+04 0.  0.
        5    1    3    3  502    0  0.12457107840E+04 -0.34954229731E+03  0.20766860282E+03  0.13103905958E+04  0.46999998093E+01 0. -1.
       -5    1    3    3    0  502 -0.12457107840E+04  0.34954229731E+03 -0.12037999715E+04  0.17672384209E+04  0.46999998093E+01 0.  1.
</event>
<event>
 5   0  0.3486236E-06  0.2870420E+04  0.7818609E-02  0.8281733E-01
       -1   -1    0    0    0  501  0.00000000000E+00  0.00000000000E+00  0.79856938685E+03  0.79856938686E+03  0.50400001928E-02 0.  1.
        1   -1    0    0  501    0  0.00000000000E+00  0.00000000000E+00 -0.25793964681E+04  0.25793964681E+04  0.50400001928E-02 0. -1.
    10030    2    1    2    0    0  0.00000000000E+00  0.00000000000E+00 -0.17808270813E+04  0.33779658550E+04  0.28704195206E+04 0.  0.
        5    1    3    3  502    0  0.13955185661E+04 -0.22307018527E+03 -0.11847892335E+04  0.18441746104E+04  0.46999998093E+01 0.  1.
       -5    1    3    3    0  502 -0.13955185661E+04  0.22307018527E+03 -0.59603784773E+03  0.15337912445E+04  0.46999998093E+01 0. -1.
</event>
<event>
 5   0  0.3649705E-06  0.2881971E+04  0.7818609E-02  0.8278262E-01
        1   -1    0    0  501    0  0.00000000000E+00  0.00000000000E+00  0.13850077029E+04  0.13850077029E+04  0.50400001928E-02 0.  1.
       -1   -1    0    0    0  501  0.00000000000E+00  0.00000000000E+00 -0.14992261701E+04  0.14992261701E+04  0.50400001928E-02 0. -1.
    10030    2    1    2    0    0  0.00000000000E+00  0.00000000000E+00 -0.11421846718E+03  0.28842338729E+04  0.28819714044E+04 0.  0.
        2    1    3    3  502    0  0.76322490251E+03 -0.37998595464E+03  0.11054990136E+04  0.13960765189E+04  0.25500000920E-02 0.  1.
       -2    1    3    3    0  502 -0.76322490251E+03  0.37998595464E+03 -0.12197174808E+04  0.14881573541E+04  0.25500000920E-02 0. -1.
</event>
<event>
 5   0  0.9360689E-06  0.2912694E+04  0.7818609E-02  0.8269111E-01
        2   -1    0    0  501    0  0.00000000000E+00  0.00000000000E+00  0.17266898030E+04  0.17266898030E+04  0.25500000920E-02 0. -1.
       -2   -1    0    0    0  501  0.00000000000E+00  0.00000000000E+00 -0.12283312847E+04  0.12283312847E+04  0.25500000920E-02 0.  1.
    10030    2    1    2    0    0  0.00000000000E+00  0.00000000000E+00  0.49835851827E+03  0.29550210877E+04  0.29126943568E+04 0.  0.
        5    1    3    3  502    0 -0.37900031761E+03  0.58958250502E+03 -0.10459596098E+04  0.12590879105E+04  0.46999998093E+01 0.  1.
       -5    1    3    3    0  502  0.37900031761E+03 -0.58958250502E+03  0.15443181280E+04  0.16959331772E+04  0.46999998093E+01 0. -1.
</event>
<event>
 5   0  0.1001573E-05  0.2895605E+04  0.7818609E-02  0.8274186E-01
        2   -1    0    0  501    0  0.00000000000E+00  0.00000000000E+00  0.17554242846E+04  0.17554242846E+04  0.25500000920E-02 0. -1.
       -2   -1    0    0    0  501  0.00000000000E+00  0.00000000000E+00 -0.11940888109E+04  0.11940888109E+04  0.25500000920E-02 0.  1.
    10030    2    1    2    0    0  0.00000000000E+00  0.00000000000E+00  0.56133547368E+03  0.29495130955E+04  0.28956052884E+04 0.  0.
        1    1    3    3  502    0 -0.14198883344E+04  0.21984652326E+03  0.46207632577E+03  0.15092812550E+04  0.50400001928E-02 0. -1.
       -1    1    3    3    0  502  0.14198883344E+04 -0.21984652326E+03  0.99259147911E+02  0.14402318405E+04  0.50400001928E-02 0.  1.
</event>
<event>
 5   0  0.3649705E-06  0.2869201E+04  0.7818609E-02  0.8282101E-01
       -1   -1    0    0    0  501  0.00000000000E+00  0.00000000000E+00  0.15908373678E+04  0.15908373678E+04  0.50400001928E-02 0. -1.
        1   -1    0    0  501    0  0.00000000000E+00  0.00000000000E+00 -0.12937074695E+04  0.12937074695E+04  0.50400001928E-02 0.  1.
    10030    2    1    2    0    0  0.00000000000E+00  0.00000000000E+00  0.29712989831E+03  0.28845448373E+04  0.28692007148E+04 0.  0.
        2    1    3    3  502    0 -0.89046353989E+02  0.97687298972E+03  0.12010004881E+04  0.15506812257E+04  0.25500000920E-02 0. -1.
       -2    1    3    3    0  502  0.89046353989E+02 -0.97687298972E+03 -0.90387058983E+03  0.13338636116E+04  0.25500000920E-02 0.  1.
</event>
<event>
 5   0  0.1001573E-05  0.2966782E+04  0.7818609E-02  0.8253281E-01
       -2   -1    0    0    0  501  0.00000000000E+00  0.00000000000E+00  0.64866695938E+03  0.64866695939E+03  0.25500000920E-02 0. -1.
        2   -1    0    0  501    0  0.00000000000E+00  0.00000000000E+00 -0.33922624110E+04  0.33922624110E+04  0.25500000920E-02 0.  1.
    10030    2    1    2    0    0  0.00000000000E+00  0.00000000000E+00 -0.27435954516E+04  0.40409293703E+04  0.29667817874E+04 0.  0.
        1    1    3    3  502    0  0.11501466085E+04  0.18509534732E+03 -0.26226322120E+04  0.28697207579E+04  0.50400001928E-02 0.  1.
       -1    1    3    3    0  502 -0.11501466085E+04 -0.18509534732E+03 -0.12096323957E+03  0.11712086125E+04  0.50400001928E-02 0. -1.
</event>
<event>
 5   0  0.3746518E-06  0.2917349E+04  0.7818609E-02  0.8267734E-01
       -1   -1    0    0    0  501  0.00000000000E+00  0.00000000000E+00  0.27558739552E+04  0.27558739552E+04  0.50400001928E-02 0.  1.
        1   -1    0    0  501    0  0.00000000000E+00  0.00000000000E+00 -0.77207137206E+03  0.77207137208E+03  0.50400001928E-02 0. -1.
    10030    2    1    2    0    0  0.00000000000E+00  0.00000000000E+00  0.19838025831E+04  0.35279453273E+04  0.29173490610E+04 0.  0.
        4    1    3    3  502    0 -0.13092415930E+03 -0.92843177553E+03  0.23431822310E+04  0.25238128452E+04  0.12699999809E+01 0.  1.
       -4    1    3    3    0  502  0.13092415930E+03  0.92843177553E+03 -0.35937964785E+03  0.10041324820E+04  0.12699999809E+01 0. -1.
</event>
<event>
 5   0  0.9646321E-06  0.2906418E+04  0.7818609E-02  0.8270970E-01
        2   -1    0    0  501    0  0.00000000000E+00  0.00000000000E+00  0.19476079047E+04  0.19476079047E+04  0.25500000920E-02 0.  1.
       -2   -1    0    0    0  501  0.00000000000E+00  0.00000000000E+00 -0.10843130798E+04  0.10843130798E+04  0.25500000920E-02 0. -1.
    10030    2    1    2    0    0  0.00000000000E+00  0.00000000000E+00  0.86329482493E+03  0.30319209844E+04  0.29064182254E+04 0.  0.
        3    1    3    3  502    0  0.11083924324E+04 -0.87063025001E+03  0.80088921868E+03  0.16210966558E+04  0.10100000352E+00 0.  1.
       -3    1    3    3    0  502 -0.11083924324E+04  0.87063025001E+03  0.62405606247E+02  0.14108243287E+04  0.10100000352E+00 0. -1.
</event>
<event>
 5   0  0.3746518E-06  0.2927868E+04  0.7818609E-02  0.8264634E-01
       -1   -1    0    0    0  501  0.00000000000E+00  0.00000000000E+00  0.14314320090E+04  0.14314320090E+04  0.50400001928E-02 0.  1.
        1   -1    0    0  501    0  0.00000000000E+00  0.00000000000E+00 -0.14971738733E+04  0.14971738734E+04  0.50400001928E-02 0. -1.
    10030    2    1    2    0    0  0.00000000000E+00  0.00000000000E+00 -0.65741864327E+02  0.29286058824E+04  0.29278678969E+04 0.  0.
        4    1    3    3  502    0 -0.12686450997E+04 -0.49117669546E+03 -0.57373456653E+03  0.14764443440E+04  0.12699999809E+01 0.  1.
       -4    1    3    3    0  502  0.12686450997E+04  0.49117669546E+03  0.50799270220E+03  0.14521615384E+04  0.12699999809E+01 0. -1.
</event>
<event>
 5   0  0.9646321E-06  0.2970987E+04  0.7818609E-02  0.8252065E-01
        2   -1    0    0  501    0  0.00000000000E+00  0.00000000000E+00  0.15373337287E+04  0.15373337287E+04  0.25500000920E-02 0. -1.
       -2   -1    0    0    0  501  0.00000000000E+00  0.00000000000E+00 -0.14354015018E+04  0.14354015018E+04  0.25500000920E-02 0.  1.
    10030    2    1    2    0    0  0.00000000000E+00  0.00000000000E+00  0.10193222683E+03  0.29727352305E+04  0.29709871376E+04 0.  0.
        3    1    3    3  502    0 -0.91376427874E+03 -0.11712055950E+04  0.52819218614E+02  0.14864311564E+04  0.10100000352E+00 0.  1.
       -3    1    3    3    0  502  0.91376427874E+03  0.11712055950E+04  0.49113008212E+02  0.14863040740E+04  0.10100000352E+00 0. -1.
</event>
<event>
 5   0  0.9505359E-06  0.2907888E+04  0.7818609E-02  0.8270534E-01
        2   -1    0    0  501    0  0.00000000000E+00  0.00000000000E+00  0.10837360631E+04  0.10837360631E+04  0.25500000920E-02 0. -1.
       -2   -1    0    0    0  501  0.00000000000E+00  0.00000000000E+00 -0.19506161013E+04  0.19506161013E+04  0.25500000920E-02 0.  1.
    10030    2    1    2    0    0  0.00000000000E+00  0.00000000000E+00 -0.86688003826E+03  0.30343521644E+04  0.29078879031E+04 0.  0.
        4    1    3    3  502    0  0.45303294921E+03  0.16753438058E+03 -0.18644468565E+04  0.19259985243E+04  0.12699999809E+01 0.  1.
       -4    1    3    3    0  502 -0.45303294921E+03 -0.16753438058E+03  0.99756681828E+03  0.11083536401E+04  0.12699999809E+01 0. -1.
</event>
<event>
 5   0  0.9251510E-06  0.2889138E+04  0.7818609E-02  0.8276117E-01
       -2   -1    0    0    0  501  0.00000000000E+00  0.00000000000E+00  0.83692829617E+03  0.83692829618E+03  0.25500000920E-02 0.  1.
        2   -1    0    0  501    0  0.00000000000E+00  0.00000000000E+00 -0.24933794509E+04  0.24933794509E+04  0.25500000920E-02 0. -1.
    10030    2    1    2    0    0  0.00000000000E+00  0.00000000000E+00 -0.16564511547E+04  0.33303077471E+04  0.28891381522E+04 0.  0.
        2    1    3    3  502    0  0.89080110811E+03 -0.87739543380E+02  0.47873168040E+03  0.10150905691E+04  0.25500000920E-02 0.  1.
       -2    1    3    3    0  502 -0.89080110811E+03  0.87739543380E+02 -0.21351828351E+04  0.23152171780E+04  0.25500000920E-02 0. -1.
</event>
<event>
 5   0  0.9251510E-06  0.2195195E+04  0.7818609E-02  0.8520431E-01
        2   -1    0    0  501    0  0.00000000000E+00  0.00000000000E+00  0.15321292466E+04  0.15321292466E+04  0.25500000920E-02 0. -1.
       -2   -1    0    0    0  501  0.00000000000E+00  0.00000000000E+00 -0.78630478016E+03  0.78630478016E+03  0.25500000920E-02 0.  1.
    10030    2    1    2    0    0  0.00000000000E+00  0.00000000000E+00  0.74582446645E+03  0.23184340268E+04  0.21951952537E+04 0.  0.
        2    1    3    3  502    0  0.85046302546E+03  0.62566955859E+03  0.68970289346E+03  0.12611264153E+04  0.25500000920E-02 0. -1.
       -2    1    3    3    0  502 -0.85046302546E+03 -0.62566955859E+03  0.56121572992E+02  0.10573076114E+04  0.25500000920E-02 0.  1.
</event>
<event>
 5   0  0.3746518E-06  0.2893610E+04  0.7818609E-02  0.8274781E-01
        1   -1    0    0  501    0  0.00000000000E+00  0.00000000000E+00  0.16231923264E+04  0.16231923264E+04  0.50400001928E-02 0. -1.
       -1   -1    0    0    0  501  0.00000000000E+00  0.00000000000E+00 -0.12895855425E+04  0.12895855425E+04  0.50400001928E-02 0.  1.
    10030    2    1    2    0    0  0.00000000000E+00  0.00000000000E+00  0.33360678392E+03  0.29127778689E+04  0.28936104484E+04 0.  0.
        4    1    3    3  502    0  0.13227846056E+04 -0.33286341577E+03  0.65237464565E+03  0.15120024661E+04  0.12699999809E+01 0. -1.
       -4    1    3    3    0  502 -0.13227846056E+04  0.33286341577E+03 -0.31876786173E+03  0.14007754028E+04  0.12699999809E+01 0.  1.
</event>
<event>
 5   0  0.9251510E-06  0.2899321E+04  0.7818609E-02  0.8273079E-01
        2   -1    0    0  501    0  0.00000000000E+00  0.00000000000E+00  0.29753184128E+04  0.29753184128E+04  0.25500000920E-02 0. -1.
       -2   -1    0    0    0  501  0.00000000000E+00  0.00000000000E+00 -0.70631625023E+03  0.70631625023E+03  0.25500000920E-02 0.  1.
    10030    2    1    2    0    0  0.00000000000E+00  0.00000000000E+00  0.22690021626E+04  0.36816346630E+04  0.28993211237E+04 0.  0.
        2    1    3    3  502    0  0.38463567494E+03 -0.66159130662E+03 -0.42891680181E+03  0.87727833799E+03  0.25500000920E-02 0.  1.
       -2    1    3    3    0  502 -0.38463567494E+03  0.66159130662E+03  0.26979189644E+04  0.28043563250E+04  0.25500000920E-02 0. -1.
</event>
<event>
 5   0  0.9360689E-06  0.2924982E+04  0.7818609E-02  0.8265483E-01
       -2   -1    0    0    0  501  0.00000000000E+00  0.00000000000E+00  0.80942354598E+03  0.80942354598E+03  0.25500000920E-02 0. -1.
        2   -1    0    0  501    0  0.00000000000E+00  0.00000000000E+00 -0.26424733359E+04  0.26424733359E+04  0.25500000920E-02 0.  1.
    10030    2    1    2    0    0  0.00000000000E+00  0.00000000000E+00 -0.18330497899E+04  0.34518968819E+04  0.29249821454E+04 0.  0.
        5    1    3    3  502    0  0.13533466942E+04  0.32462186293E+03 -0.14468431082E+04  0.20075616300E+04  0.46999998093E+01 0. -1.
       -5    1    3    3    0  502 -0.13533466942E+04 -0.32462186293E+03 -0.38620668175E+03  0.14443352518E+04  0.46999998093E+01 0.  1.
</event>
<event>
 5   0  0.9360689E-06  0.2898550E+04  0.7818609E-02  0.8273309E-01
        2   -1    0    0  501    0  0.00000000000E+00  0.00000000000E+00  0.16617605100E+04  0.16617605100E+04  0.25500000920E-02 0. -1.
       -2   -1    0    0    0  501  0.00000000000E+00  0.00000000000E+00 -0.12639597328E+04  0.12639597328E+04  0.25500000920E-02 0.  1.
    10030    2    1    2    0    0  0.00000000000E+00  0.00000000000E+00  0.39780077715E+03  0.29257202428E+04  0.28985502378E+04 0.  0.
        5    1    3    3  502    0 -0.39718066047E+03  0.10422586024E+04 -0.73514980200E+03  0.13358603193E+04  0.46999998093E+01 0.  1.
       -5    1    3    3    0  502  0.39718066047E+03 -0.10422586024E+04  0.11329505791E+04  0.15898599235E+04  0.46999998093E+01 0. -1.
</event>
<event>
 5   0  0.9646321E-06  0.2793409E+04  0.7818609E-02  0.8305317E-01
        2   -1    0    0  501    0  0.00000000000E+00  0.00000000000E+00  0.15291328863E+04  0.15291328863E+04  0.25500000920E-02 0.  1.
       -2   -1    0    0    0  501  0.00000000000E+00  0.00000000000E+00 -0.12757450544E+04  0.12757450544E+04  0.25500000920E-02 0. -1.
    10030    2    1    2    0    0  0.00000000000E+00  0.00000000000E+00  0.25338783188E+03  0.28048779406E+04  0.27934091839E+04 0.  0.
        3    1    3    3  502    0  0.40142204608E+02 -0.95700765239E+03 -0.89399746060E+03  0.13102314731E+04  0.10100000352E+00 0.  1.
       -3    1    3    3    0  502 -0.40142204608E+02  0.95700765239E+03  0.11473852925E+04  0.14946464675E+04  0.10100000352E+00 0. -1.
</event>
<event>
 5   0  0.3486236E-06  0.2925516E+04  0.7818609E-02  0.8265326E-01
       -1   -1    0    0    0  501  0.00000000000E+00  0.00000000000E+00  0.14531027729E+04  0.14531027729E+04  0.50400001928E-02 0. -1.
        1   -1    0    0  501    0  0.00000000000E+00  0.00000000000E+00 -0.14724769077E+04  0.14724769077E+04  0.50400001928E-02 0.  1.
    10030    2    1    2    0    0  0.00000000000E+00  0.00000000000E+00 -0.19374134838E+02  0.29255796806E+04  0.29255155290E+04 0.  0.
        5    1    3    3  502    0  0.12478157448E+04  0.63030810054E+03 -0.44016805421E+03  0.14656406246E+04  0.46999998093E+01 0.  1.
       -5    1    3    3    0  502 -0.12478157448E+04 -0.63030810054E+03  0.42079391937E+03  0.14599390560E+04  0.46999998093E+01 0. -1.
</event>
<event>
 5   0  0.3564340E-06  0.2945516E+04  0.7818609E-02  0.8259462E-01
        1   -1    0    0  501    0  0.00000000000E+00  0.00000000000E+00  0.13597756158E+04  0.13597756158E+04  0.50400001928E-02 0.  1.
       -1   -1    0    0    0  501  0.00000000000E+00  0.00000000000E+00 -0.15951282134E+04  0.15951282134E+04  0.50400001928E-02 0. -1.
    10030    2    1    2    0    0  0.00000000000E+00  0.00000000000E+00 -0.23535259755E+03  0.29549038292E+04  0.29455162187E+04 0.  0.
        1    1    3    3  502    0 -0.14115437039E+04 -0.35036499815E+03 -0.35037502850E+03  0.14959859359E+04  0.50400001928E-02 0.  1.
       -1    1    3    3    0  502  0.14115437039E+04  0.35036499815E+03  0.11502243095E+03  0.14589178933E+04  0.50400001928E-02 0. -1.
</event>
<event>
 5   0  0.9646321E-06  0.2191023E+04  0.7818609E-02  0.8522174E-01
       -2   -1    0    0    0  501  0.00000000000E+00  0.00000000000E+00  0.41872748484E+03  0.41872748484E+03  0.25500000920E-02 0. -1.
        2   -1    0    0  501    0  0.00000000000E+00  0.00000000000E+00 -0.28661739914E+04  0.28661739914E+04  0.25500000920E-02 0.  1.
    10030    2    1    2    0    0  0.00000000000E+00  0.00000000000E+00 -0.24474465066E+04  0.32849014763E+04  0.21910233468E+04 0.  0.
        3    1    3    3  502    0 -0.47870041942E+03  0.98321482558E+03 -0.13218108398E+04  0.17155318101E+04  0.10100000352E+00 0. -1.
       -3    1    3    3    0  502  0.47870041942E+03 -0.98321482558E+03 -0.11256356667E+04  0.15693696662E+04  0.10100000352E+00 0.  1.
</event>
<event>
 5   0  0.3649705E-06  0.2898751E+04  0.7818609E-02  0.8273249E-01
        1   -1    0    0  501    0  0.00000000000E+00  0.00000000000E+00  0.15590283655E+04  0.15590283655E+04  0.50400001928E-02 0. -1.
       -1   -1    0    0    0  501  0.00000000000E+00  0.00000000000E+00 -0.13474345813E+04  0.13474345813E+04  0.50400001928E-02 0.  1.
    10030    2    1    2    0    0  0.00000000000E+00  0.00000000000E+00  0.21159378417E+03  0.29064629469E+04  0.28987505812E+04 0.  0.
        2    1    3    3  502    0 -0.36651204798E+03  0.10674333135E+04 -0.80598703582E+03  0.13868525740E+04  0.25500000920E-02 0.  1.
       -2    1    3    3    0  502  0.36651204798E+03 -0.10674333135E+04  0.10175808200E+04  0.15196103729E+04  0.25500000920E-02 0. -1.
</event>
<event>
 5   0  0.9505359E-06  0.2860106E+04  0.7818609E-02  0.8284847E-01
        2   -1    0    0  501    0  0.00000000000E+00  0.00000000000E+00  0.20693734441E+04  0.20693734441E+04  0.25500000920E-02 0.  1.
       -2   -1    0    0    0  501  0.00000000000E+00  0.00000000000E+00 -0.98824671063E+03  0.98824671063E+03  0.25500000920E-02 0. -1.
    10030    2    1    2    0    0  0.00000000000E+00  0.00000000000E+00  0.10811267335E+04  0.30576201547E+04  0.28601059415E+04 0.  0.
        4    1    3    3  502    0  0.72028742520E+03  0.14147973886E+03  0.18525986976E+04  0.19927252793E+04  0.12699999809E+01 0.  1.
       -4    1    3    3    0  502 -0.72028742520E+03 -0.14147973886E+03 -0.77147196414E+03  0.10648948755E+04  0.12699999809E+01 0. -1.
</event>
<event>
 5   0  0.3746518E-06  0.2984812E+04  0.7818609E-02  0.8248081E-01
       -1   -1    0    0    0  501  0.00000000000E+00  0.00000000000E+00  0.16107639018E+04  0.16107639018E+04  0.50400001928E-02 0.  1.
        1   -1    0    0  501    0  0.00000000000E+00  0.00000000000E+00 -0.13827449408E+04  0.13827449409E+04  0.50400001928E-02 0. -1.
    10030    2    1    2    0    0  0.00000000000E+00  0.00000000000E+00  0.22801896098E+03  0.29935088427E+04  0.29848119781E+04 0.  0.
        4    1    3    3  502    0  0.12398245734E+04 -0.76170126673E+03 -0.21849873641E+03  0.14714268936E+04  0.12699999809E+01 0.  1.
       -4    1    3    3    0  502 -0.12398245734E+04  0.76170126673E+03  0.44651769739E+03  0.15220819490E+04  0.12699999809E+01 0. -1.
</event>
<event>
 5   0  0.9505359E-06  0.2850945E+04  0.7818609E-02  0.8287624E-01
       -2   -1    0    0    0  501  0.00000000000E+00  0.00000000000E+00  0.12995812998E+04  0.12995812998E+04  0.25500000920E-02 0.  1.
        2   -1    0    0  501    0  0.00000000000E+00  0.00000000000E+00 -0.15635584777E+04  0.15635584777E+04  0.25500000920E-02 0. -1.
    10030    2    1    2    0    0  0.00000000000E+00  0.00000000000E+00 -0.26397717799E+03  0.28631397775E+04  0.28509446566E+04 0.  0.
        4    1    3    3  502    0 -0.70889874407E+03  0.12249241889E+04  0.39013218751E+02  0.14158037795E+04  0.12699999809E+01 0.  1.
       -4    1    3    3    0  502  0.70889874407E+03 -0.12249241889E+04 -0.30299039674E+03  0.14473359980E+04  0.12699999809E+01 0. -1.
</event>
<event>
 5   0  0.1001573E-05  0.2966795E+04  0.7818609E-02  0.8253277E-01
        2   -1    0    0  501    0  0.00000000000E+00  0.00000000000E+00  0.20322951737E+04  0.20322951737E+04  0.25500000920E-02 0.  1.
       -2   -1    0    0    0  501  0.00000000000E+00  0.00000000000E+00 -0.10827502242E+04  0.10827502242E+04  0.25500000920E-02 0. -1.
    10030    2    1    2    0    0  0.00000000000E+00  0.00000000000E+00  0.94954494949E+03  0.31150453978E+04  0.29667949406E+04 0.  0.
        1    1    3    3  502    0 -0.30746033333E+03 -0.10212994932E+03  0.19946943688E+04  0.20208334934E+04  0.50400001928E-02 0.  1.
       -1    1    3    3    0  502  0.30746033333E+03  0.10212994932E+03 -0.10451494193E+04  0.10942119044E+04  0.50400001928E-02 0. -1.
</event>
<event>
 5   0  0.9251510E-06  0.2913612E+04  0.7818609E-02  0.8268839E-01
        2   -1    0    0  501    0  0.00000000000E+00  0.00000000000E+00  0.28588064296E+04  0.28588064296E+04  0.25500000920E-02 0. -1.
       -2   -1    0    0    0  501  0.00000000000E+00  0.00000000000E+00 -0.74236686982E+03  0.74236686982E+03  0.25500000920E-02 0.  1.
    10030    2    1    2    0    0  0.00000000000E+00  0.00000000000E+00  0.21164395598E+04  0.36011732994E+04  0.29136116286E+04 0.  0.
        2    1    3    3  502    0 -0.59123722214E+03 -0.22809185633E+02  0.27036099778E+04  0.27675961815E+04  0.25500000920E-02 0. -1.
       -2    1    3    3    0  502  0.59123722214E+03  0.22809185633E+02 -0.58717041799E+03  0.83357711794E+03  0.25500000920E-02 0.  1.
</event>
<event>
 5   0  0.3474078E-06  0.2902531E+04  0.7818609E-02  0.8272125E-01
       -1   -1    0    0    0  501  0.00000000000E+00  0.00000000000E+00  0.19469745258E+04  0.19469745258E+04  0.50400001928E-02 0.  1.
        1   -1    0    0  501    0  0.00000000000E+00  0.00000000000E+00 -0.10817663455E+04  0.10817663455E+04  0.50400001928E-02 0. -1.
    10030    2    1    2    0    0  0.00000000000E+00  0.00000000000E+00  0.86520818026E+03  0.30287408713E+04  0.29025309766E+04 0.  0.
        3    1    3    3  502    0 -0.12384831668E+04  0.73280028241E+03  0.62875302469E+03  0.15704035101E+04  0.10100000352E+00 0.  1.
       -3    1    3    3    0  502  0.12384831668E+04 -0.73280028241E+03  0.23645515557E+03  0.14583373612E+04  0.10100000352E+00 0. -1.
</event>
<event>
 5   0  0.3564340E-06  0.2906501E+04  0.7818609E-02  0.8270946E-01
        1   -1    0    0  501    0  0.00000000000E+00  0.00000000000E+00  0.68075671156E+03  0.68075671158E+03  0.50400001928E-02 0. -1.
       -1   -1    0    0    0  501  0.00000000000E+00  0.00000000000E+00 -0.31023364541E+04  0.31023364541E+04  0.50400001928E-02 0.  1.
    10030    2    1    2    0    0  0.00000000000E+00  0.00000000000E+00 -0.24215797425E+04  0.37830931657E+04  0.29065005506E+04 0.  0.
        1    1    3    3  502    0 -0.62656690739E+03  0.96219218379E+03 -0.23702613605E+04  0.26337309667E+04  0.50400001928E-02 0.  1.
       -1    1    3    3    0  502  0.62656690739E+03 -0.96219218379E+03 -0.51318382024E+02  0.11493621989E+04  0.50400001928E-02 0. -1.
</event>
<event>
 5   0  0.3649705E-06  0.2821177E+04  0.7818609E-02  0.8296724E-01
        1   -1    0    0  501    0  0.00000000000E+00  0.00000000000E+00  0.18369960604E+04  0.18369960605E+04  0.50400001928E-02 0. -1.
       -1   -1    0    0    0  501  0.00000000000E+00  0.00000000000E+00 -0.10831597743E+04  0.10831597743E+04  0.50400001928E-02 0.  1.
    10030    2    1    2    0    0  0.00000000000E+00  0.00000000000E+00  0.75383628616E+03  0.29201558348E+04  0.28211772282E+04 0.  0.
        2    1    3    3  502    0  0.66631056573E+03 -0.17934238234E+03  0.16503774150E+04  0.17888205813E+04  0.25500000920E-02 0. -1.
       -2    1    3    3    0  502 -0.66631056573E+03  0.17934238234E+03 -0.89654112882E+03  0.11313352535E+04  0.25500000920E-02 0.  1.
</event>
<event>
 5   0  0.9251510E-06  0.2904323E+04  0.7818609E-02  0.8271593E-01
       -2   -1    0    0    0  501  0.00000000000E+00  0.00000000000E+00  0.11513026142E+04  0.11513026142E+04  0.25500000920E-02 0.  1.
        2   -1    0    0  501    0  0.00000000000E+00  0.00000000000E+00 -0.18316404633E+04  0.18316404633E+04  0.25500000920E-02 0. -1.
    10030    2    1    2    0    0  0.00000000000E+00  0.00000000000E+00 -0.68033784914E+03  0.29829430775E+04  0.29043226086E+04 0.  0.
        2    1    3    3  502    0 -0.41427789653E+03 -0.13918139328E+04 -0.33965064266E+03  0.14913533311E+04  0.25500000920E-02 0. -1.
       -2    1    3    3    0  502  0.41427789653E+03  0.13918139328E+04 -0.34068720648E+03  0.14915897464E+04  0.25500000920E-02 0.  1.
</event>
<event>
 5   0  0.9360689E-06  0.2874869E+04  0.7818609E-02  0.8280394E-01
        2   -1    0    0  501    0  0.00000000000E+00  0.00000000000E+00  0.26000811199E+04  0.26000811199E+04  0.25500000920E-02 0. -1.
       -2   -1    0    0    0  501  0.00000000000E+00  0.00000000000E+00 -0.79467427237E+03  0.79467427237E+03  0.25500000920E-02 0.  1.
    10030    2    1    2    0    0  0.00000000000E+00  0.00000000000E+00  0.18054068476E+04  0.33947553923E+04  0.28748687428E+04 0.  0.
        5    1    3    3  502    0 -0.97486377061E+03  0.10268932990E+04  0.11951278979E+04  0.18528955721E+04  0.46999998093E+01 0. -1.
       -5    1    3    3    0  502  0.97486377061E+03 -0.10268932990E+04  0.61027894970E+03  0.15418598202E+04  0.46999998093E+01 0.  1.
</event>
<event>
 5   0  0.3564340E-06  0.2901862E+04  0.7818609E-02  0.8272324E-01
       -1   -1    0    0    0  501  0.00000000000E+00  0.00000000000E+00  0.10666345768E+04  0.10666345768E+04  0.50400001928E-02 0. -1.
        1   -1    0    0  501    0  0.00000000000E+00  0.00000000000E+00 -0.19736855147E+04  0.19736855147E+04  0.50400001928E-02 0.  1.
    10030    2    1    2    0    0  0.00000000000E+00  0.00000000000E+00 -0.90705093790E+03  0.30403200915E+04  0.29018623081E+04 0.  0.
        1    1    3    3  502    0  0.45341759333E+03  0.13729523926E+04 -0.32686290670E+03  0.14823714602E+04  0.50400001928E-02 0.  1.
       -1    1    3    3    0  502 -0.45341759333E+03 -0.13729523926E+04 -0.58018803121E+03  0.15579486313E+04  0.50400001928E-02 0. -1.
</event>
<event>
 5   0  0.1001573E-05  0.2836011E+04  0.7818609E-02  0.8292175E-01
       -2   -1    0    0    0  501  0.00000000000E+00  0.00000000000E+00  0.15198746082E+04  0.15198746082E+04  0.25500000920E-02 0. -1.
        2   -1    0    0  501    0  0.00000000000E+00  0.00000000000E+00 -0.13229644733E+04  0.13229644733E+04  0.25500000920E-02 0.  1.
    10030    2    1    2    0    0  0.00000000000E+00  0.00000000000E+00  0.19691013488E+03  0.28428390815E+04  0.28360113614E+04 0.  0.
        1    1    3    3  502    0 -0.37342704836E+03  0.13031048307E+04  0.51564227213E+03  0.14503161425E+04  0.50400001928E-02 0. -1.
       -1    1    3    3    0  502  0.37342704836E+03 -0.13031048307E+04 -0.31873213725E+03  0.13925229390E+04  0.50400001928E-02 0.  1.
</event>
<event>
 5   0  0.3564340E-06  0.2886075E+04  0.7818609E-02  0.8277033E-01
        1   -1    0    0  501    0  0.00000000000E+00  0.00000000000E+00  0.15241984100E+04  0.15241984100E+04  0.50400001928E-02 0. -1.
       -1   -1    0    0    0  501  0.00000000000E+00  0.00000000000E+00 -0.13661985328E+04  0.13661985328E+04  0.50400001928E-02 0.  1.
    10030    2    1    2    0    0  0.00000000000E+00  0.00000000000E+00  0.15799987717E+03  0.28903969428E+04  0.28860752807E+04 0.  0.
        1    1    3    3  502    0 -0.30012016499E+03  0.99007503529E+03  0.10865068106E+04  0.15002725547E+04  0.50400001928E-02 0. -1.
       -1    1    3    3    0  502  0.30012016499E+03 -0.99007503529E+03 -0.92850693345E+03  0.13901243881E+04  0.50400001928E-02 0.  1.
</event>
<event>
 5   0  0.9360689E-06  0.3267819E+04  0.7818609E-02  0.8171132E-01
       -2   -1    0    0    0  501  0.00000000000E+00  0.00000000000E+00  0.10506172627E+04  0.10506172627E+04  0.25500000920E-02 0. -1.
        2   -1    0    0  501    0  0.00000000000E+00  0.00000000000E+00 -0.25410402370E+04  0.25410402370E+04  0.25500000920E-02 0.  1.
    10030    2    1    2    0    0  0.00000000000E+00  0.00000000000E+00 -0.14904229743E+04  0.35916574998E+04  0.32678192963E+04 0.  0.
        5    1    3    3  502    0 -0.88198827619E+03  0.10048393928E+04  0.28702529446E+03  0.13674835042E+04  0.46999998093E+01 0. -1.
       -5    1    3    3    0  502  0.88198827619E+03 -0.10048393928E+04 -0.17774482687E+04  0.22241739956E+04  0.46999998093E+01 0.  1.
</event>
<event>
 5   0  0.9505359E-06  0.2902017E+04  0.7818609E-02  0.8272278E-01
       -2   -1    0    0    0  501  0.00000000000E+00  0.00000000000E+00  0.14536047080E+04  0.14536047080E+04  0.25500000920E-02 0. -1.
        2   -1    0    0  501    0  0.00000000000E+00  0.00000000000E+00 -0.14484164739E+04  0.14484164739E+04  0.25500000920E-02 0.  1.
    10030    2    1    2    0    0  0.00000000000E+00  0.00000000000E+00  0.51882340932E+01  0.29020211820E+04  0.29020165442E+04 0.  0.
        4    1    3    3  502    0  0.12871198359E+04  0.64616448408E+03 -0.17409057393E+03  0.14506947141E+04  0.12699999809E+01 0.  1.
       -4    1    3    3    0  502 -0.12871198359E+04 -0.64616448408E+03  0.17927880802E+03  0.14513264679E+04  0.12699999809E+01 0. -1.
</event>
<event>
 5   0  0.9360689E-06  0.2776653E+04  0.7818609E-02  0.8310554E-01
        2   -1    0    0  501    0  0.00000000000E+00  0.00000000000E+00  0.22345415733E+04  0.22345415733E+04  0.25500000920E-02 0.  1.
       -2   -1    0    0    0  501  0.00000000000E+00  0.00000000000E+00 -0.86257056560E+03  0.86257056560E+03  0.25500000920E-02 0. -1.
    10030    2    1    2    0    0  0.00000000000E+00  0.00000000000E+00  0.13719710077E+04  0.30971121389E+04  0.27766525088E+04 0.  0.
        5    1    3    3  502    0  0.39580018810E+03  0.18968219922E+03 -0.78314009055E+03  0.89775699219E+03  0.46999998093E+01 0. -1.
       -5    1    3    3    0  502 -0.39580018810E+03 -0.18968219922E+03  0.21551110982E+04  0.21993551467E+04  0.46999998093E+01 0.  1.
</event>
<event>
 5   0  0.9360689E-06  0.2857481E+04  0.7818609E-02  0.8285642E-01
       -2   -1    0    0    0  501  0.00000000000E+00  0.00000000000E+00  0.15910284699E+04  0.15910284699E+04  0.25500000920E-02 0. -1.
        2   -1    0    0  501    0  0.00000000000E+00  0.00000000000E+00 -0.12830064608E+04  0.12830064608E+04  0.25500000920E-02 0.  1.
    10030    2    1    2    0    0  0.00000000000E+00  0.00000000000E+00  0.30802200917E+03  0.28740349307E+04  0.28574812729E+04 0.  0.
        5    1    3    3  502    0 -0.11574959573E+03 -0.12309318788E+04  0.87418025168E+03  0.15142009317E+04  0.46999998093E+01 0. -1.
       -5    1    3    3    0  502  0.11574959573E+03  0.12309318788E+04 -0.56615824251E+03  0.13598339990E+04  0.46999998093E+01 0.  1.
</event>
<event>
 5   0  0.3188375E-06  0.2869875E+04  0.7818609E-02  0.8281897E-01
       -4   -1    0    0    0  501  0.00000000000E+00  0.00000000000E+00  0.18313262960E+04  0.18313267363E+04  0.12699999809E+01 0.  1.
        4   -1    0    0  501    0  0.00000000000E+00  0.00000000000E+00 -0.11243455375E+04  0.11243462547E+04  0.12699999809E+01 0. -1.
    10030    2    1    2    0    0  0.00000000000E+00  0.00000000000E+00  0.70698075853E+03  0.29556729911E+04  0.28698747424E+04 0.  0.
        3    1    3    3  502    0 -0.37729998794E+03 -0.39004056634E+03  0.17215702404E+04  0.18050736902E+04  0.10100000352E+00 0.  1.
       -3    1    3    3    0  502  0.37729998794E+03  0.39004056634E+03 -0.10145894818E+04  0.11505993009E+04  0.10100000352E+00 0. -1.
</event>
<event>
 5   0  0.1001573E-05  0.2861334E+04  0.7818609E-02  0.8284476E-01
        2   -1    0    0  501    0  0.00000000000E+00  0.00000000000E+00  0.14398706307E+04  0.14398706307E+04  0.25500000920E-02 0.  1.
       -2   -1    0    0    0  501  0.00000000000E+00  0.00000000000E+00 -0.14215217162E+04  0.14215217162E+04  0.25500000920E-02 0. -1.
    10030    2    1    2    0    0  0.00000000000E+00  0.00000000000E+00  0.18348914512E+02  0.28613923469E+04  0.28613335143E+04 0.  0.
        1    1    3    3  502    0  0.10534863167E+04 -0.29437842237E+03 -0.91296992534E+03  0.14247828465E+04  0.50400001928E-02 0. -1.
       -1    1    3    3    0  502 -0.10534863167E+04  0.29437842237E+03  0.93131883985E+03  0.14366095004E+04  0.50400001928E-02 0.  1.
</event>
<event>
 5   0  0.3649705E-06  0.2878640E+04  0.7818609E-02  0.8279261E-01
        1   -1    0    0  501    0  0.00000000000E+00  0.00000000000E+00  0.18326619973E+04  0.18326619973E+04  0.50400001928E-02 0. -1.
       -1   -1    0    0    0  501  0.00000000000E+00  0.00000000000E+00 -0.11304001909E+04  0.11304001910E+04  0.50400001928E-02 0.  1.
    10030    2    1    2    0    0  0.00000000000E+00  0.00000000000E+00  0.70226180636E+03  0.29630621883E+04  0.28786395896E+04 0.  0.
        2    1    3    3  502    0  0.13344360439E+04  0.62582108790E+02  0.90257120572E+03  0.16122254361E+04  0.25500000920E-02 0.  1.
       -2    1    3    3    0  502 -0.13344360439E+04 -0.62582108790E+02 -0.20030939937E+03  0.13508367521E+04  0.25500000920E-02 0. -1.
</event>
<event>
 5   0  0.9505359E-06  0.2899057E+04  0.7818609E-02  0.8273158E-01
       -2   -1    0    0    0  501  0.00000000000E+00  0.00000000000E+00  0.94129083665E+03  0.94129083665E+03  0.25500000920E-02 0. -1.
        2   -1    0    0  501    0  0.00000000000E+00  0.00000000000E+00 -0.22321822225E+04  0.22321822225E+04  0.25500000920E-02 0.  1.
    10030    2    1    2    0    0  0.00000000000E+00  0.00000000000E+00 -0.12908913858E+04  0.31734730591E+04  0.28990568616E+04 0.  0.
        4    1    3    3  502    0  0.11320581789E+04  0.89982401535E+03 -0.53657226751E+03  0.15424494774E+04  0.12699999809E+01 0.  1.
       -4    1    3    3    0  502 -0.11320581789E+04 -0.89982401535E+03 -0.75431911830E+03  0.16310235817E+04  0.12699999809E+01 0. -1.
</event>
<event>
 5   0  0.3474078E-06  0.2844127E+04  0.7818609E-02  0.8289698E-01
        1   -1    0    0  501    0  0.00000000000E+00  0.00000000000E+00  0.14778595091E+04  0.14778595091E+04  0.50400001928E-02 0. -1.
       -1   -1    0    0    0  501  0.00000000000E+00  0.00000000000E+00 -0.13683745115E+04  0.13683745115E+04  0.50400001928E-02 0.  1.
    10030    2    1    2    0    0  0.00000000000E+00  0.00000000000E+00  0.10948499754E+03  0.28462340206E+04  0.28441274823E+04 0.  0.
        3    1    3    3  502    0 -0.78343474811E+03  0.10575439864E+04 -0.48426202022E+03  0.14023833292E+04  0.10100000352E+00 0. -1.
       -3    1    3    3    0  502  0.78343474811E+03 -0.10575439864E+04  0.59374701776E+03  0.14438506914E+04  0.10100000352E+00 0.  1.
</event>
<event>
 5   0  0.9646321E-06  0.2881861E+04  0.7818609E-02  0.8278295E-01
        2   -1    0    0  501    0  0.00000000000E+00  0.00000000000E+00  0.14895047777E+04  0.14895047777E+04  0.25500000920E-02 0. -1.
       -2   -1    0    0    0  501  0.00000000000E+00  0.00000000000E+00 -0.13939398480E+04  0.13939398480E+04  0.25500000920E-02 0.  1.
    10030    2    1    2    0    0  0.00000000000E+00  0.00000000000E+00  0.95564929751E+02  0.28834446257E+04  0.28818605542E+04 0.  0.
        3    1    3    3  502    0  0.41065914994E+03 -0.22885425142E+03  0.14106122319E+04  0.14868900715E+04  0.10100000352E+00 0. -1.
       -3    1    3    3    0  502 -0.41065914994E+03  0.22885425142E+03 -0.13150473021E+04  0.13965545542E+04  0.10100000352E+00 0.  1.
</event>
<event>
 5   0  0.3746518E-06  0.2876148E+04  0.7818609E-02  0.8280010E-01
        1   -1    0    0  501    0  0.00000000000E+00  0.00000000000E+00  0.18153743903E+04  0.18153743903E+04  0.50400001928E-02 0.  1.
       -1   -1    0    0    0  501  0.00000000000E+00  0.00000000000E+00 -0.11391899679E+04  0.11391899679E+04  0.50400001928E-02 0. -1.
    10030    2    1    2    0    0  0.00000000000E+00  0.00000000000E+00  0.67618442243E+03  0.29545643582E+04  0.28761476273E+04 0.  0.
        4    1    3    3  502    0 -0.77092373552E+03 -0.11607749412E+04  0.70321619342E+03  0.15608448026E+04  0.12699999809E+01 0.  1.
       -4    1    3    3    0  502  0.77092373552E+03  0.11607749412E+04 -0.27031770992E+02  0.13937195556E+04  0.12699999809E+01 0. -1.
</event>
<event>
 5   0  0.1001573E-05  0.2491931E+04  0.7818609E-02  0.8405866E-01
       -2   -1    0    0    0  501  0.00000000000E+00  0.00000000000E+00  0.87594009860E+03  0.87594009861E+03  0.25500000920E-02 0. -1.
        2   -1    0    0  501    0  0.00000000000E+00  0.00000000000E+00 -0.17723019594E+04  0.17723019594E+04  0.25500000920E-02 0.  1.
    10030    2    1    2    0    0  0.00000000000E+00  0.00000000000E+00 -0.89636186084E+03  0.26482420581E+04  0.24919312616E+04 0.  0.
        1    1    3    3  502    0 -0.15021041259E+03 -0.82897143752E+03 -0.14237348967E+04  0.16543209690E+04  0.50400001928E-02 0.  1.
       -1    1    3    3    0  502  0.15021041259E+03  0.82897143752E+03  0.52737303588E+03  0.99392108906E+03  0.50400001928E-02 0. -1.
</event>
<event>
 5   0  0.3486236E-06  0.2961971E+04  0.7818609E-02  0.8254674E-01
        1   -1    0    0  501    0  0.00000000000E+00  0.00000000000E+00  0.24351756676E+04  0.24351756676E+04  0.50400001928E-02 0. -1.
       -1   -1    0    0    0  501  0.00000000000E+00  0.00000000000E+00 -0.90068182358E+03  0.90068182360E+03  0.50400001928E-02 0.  1.
    10030    2    1    2    0    0  0.00000000000E+00  0.00000000000E+00  0.15344938440E+04  0.33358574912E+04  0.29619712767E+04 0.  0.
        5    1    3    3  502    0  0.71341364455E+03 -0.37371456686E+03  0.21669798276E+04  0.23118056296E+04  0.46999998093E+01 0. -1.
       -5    1    3    3    0  502 -0.71341364455E+03  0.37371456686E+03 -0.63248598363E+03  0.10240518616E+04  0.46999998093E+01 0.  1.
</event>
<event>
 5   0  0.3746518E-06  0.2810714E+04  0.7818609E-02  0.8299950E-01
       -1   -1    0    0    0  501  0.00000000000E+00  0.00000000000E+00  0.16613651976E+04  0.16613651976E+04  0.50400001928E-02 0.  1.
        1   -1    0    0  501    0  0.00000000000E+00  0.00000000000E+00 -0.11887982442E+04  0.11887982443E+04  0.50400001928E-02 0. -1.
    10030    2    1    2    0    0  0.00000000000E+00  0.00000000000E+00  0.47256695332E+03  0.28501634418E+04  0.28107138096E+04 0.  0.
        4    1    3    3  502    0  0.91652136535E+03 -0.71881936078E+03 -0.56108228441E+03  0.12928757208E+04  0.12699999809E+01 0. -1.
       -4    1    3    3    0  502 -0.91652136535E+03  0.71881936078E+03  0.10336492377E+04  0.15572877210E+04  0.12699999809E+01 0.  1.
</event>
<event>
 5   0  0.9646321E-06  0.2840891E+04  0.7818609E-02  0.8290685E-01
        2   -1    0    0  501    0  0.00000000000E+00  0.00000000000E+00  0.16932845067E+04  0.16932845067E+04  0.25500000920E-02 0. -1.
       -2   -1    0    0    0  501  0.00000000000E+00  0.00000000000E+00 -0.11915687947E+04  0.11915687947E+04  0.25500000920E-02 0.  1.
    10030    2    1    2    0    0  0.00000000000E+00  0.00000000000E+00  0.50171571207E+03  0.28848533014E+04  0.28408906904E+04 0.  0.
        3    1    3    3  502    0  0.38345908809E+03 -0.40681864182E+03 -0.10751528382E+04  0.12118151325E+04  0.10100000352E+00 0.  1.
       -3    1    3    3    0  502 -0.38345908809E+03  0.40681864182E+03  0.15768685503E+04  0.16730381689E+04  0.10100000352E+00 0. -1.
</event>
<event>
 5   0  0.3486236E-06  0.2797492E+04  0.7818609E-02  0.8304048E-01
       -1   -1    0    0    0  501  0.00000000000E+00  0.00000000000E+00  0.11840163216E+04  0.11840163216E+04  0.50400001928E-02 0. -1.
        1   -1    0    0  501    0  0.00000000000E+00  0.00000000000E+00 -0.16524179165E+04  0.16524179165E+04  0.50400001928E-02 0.  1.
    10030    2    1    2    0    0  0.00000000000E+00  0.00000000000E+00 -0.46840159490E+03  0.28364342380E+04  0.27974915786E+04 0.  0.
        5    1    3    3  502    0  0.18118361525E+03 -0.84577720866E+03  0.88032857221E+03  0.12341665504E+04  0.46999998093E+01 0. -1.
       -5    1    3    3    0  502 -0.18118361525E+03  0.84577720866E+03 -0.13487301671E+04  0.16022676876E+04  0.46999998093E+01 0.  1.
</event>
<event>
 5   0  0.3474078E-06  0.2891369E+04  0.7818609E-02  0.8275450E-01
       -1   -1    0    0    0  501  0.00000000000E+00  0.00000000000E+00  0.12632215540E+04  0.12632215540E+04  0.50400001928E-02 0.  1.
        1   -1    0    0  501    0  0.00000000000E+00  0.00000000000E+00 -0.16545025178E+04  0.16545025178E+04  0.50400001928E-02 0. -1.
    10030    2    1    2    0    0  0.00000000000E+00  0.00000000000E+00 -0.39128096380E+03  0.29177240719E+04  0.28913687013E+04 0.  0.
        3    1    3    3  502    0 -0.35007719949E+03 -0.93373668675E+03 -0.12518833240E+04  0.16005093292E+04  0.10100000352E+00 0. -1.
       -3    1    3    3    0  502  0.35007719949E+03  0.93373668675E+03  0.86060236018E+03  0.13172147427E+04  0.10100000352E+00 0.  1.
</event>
<event>
 5   0  0.3649705E-06  0.2924850E+04  0.7818609E-02  0.8265522E-01
        1   -1    0    0  501    0  0.00000000000E+00  0.00000000000E+00  0.23320650263E+04  0.23320650263E+04  0.50400001928E-02 0. -1.
       -1   -1    0    0    0  501  0.00000000000E+00  0.00000000000E+00 -0.91707831584E+03  0.91707831585E+03  0.50400001928E-02 0.  1.
    10030    2    1    2    0    0  0.00000000000E+00  0.00000000000E+00  0.14149867104E+04  0.32491433421E+04  0.29248495802E+04 0.  0.
        2    1    3    3  502    0  0.41275098011E+03  0.85826420131E+03  0.19403675659E+04  0.21614826165E+04  0.25500000920E-02 0. -1.
       -2    1    3    3    0  502 -0.41275098011E+03 -0.85826420131E+03 -0.52538085542E+03  0.10876607256E+04  0.25500000920E-02 0.  1.
</event>
<event>
 5   0  0.9251510E-06  0.2891180E+04  0.7818609E-02  0.8275507E-01
       -2   -1    0    0    0  501  0.00000000000E+00  0.00000000000E+00  0.71199129687E+03  0.71199129688E+03  0.25500000920E-02 0.  1.
        2   -1    0    0  501    0  0.00000000000E+00  0.00000000000E+00 -0.29350504427E+04  0.29350504427E+04  0.25500000920E-02 0. -1.
    10030    2    1    2    0    0  0.00000000000E+00  0.00000000000E+00 -0.22230591458E+04  0.36470417395E+04  0.28911799467E+04 0.  0.
        2    1    3    3  502    0 -0.59743742326E+03 -0.12257070003E+04 -0.50598555535E+03  0.14544107080E+04  0.25500000920E-02 0.  1.
       -2    1    3    3    0  502  0.59743742326E+03  0.12257070003E+04 -0.17170735904E+04  0.21926310315E+04  0.25500000920E-02 0. -1.
</event>
<event>
 5   0  0.3649705E-06  0.2868072E+04  0.7818609E-02  0.8282441E-01
        1   -1    0    0  501    0  0.00000000000E+00  0.00000000000E+00  0.11505968376E+04  0.11505968376E+04  0.50400001928E-02 0. -1.
       -1   -1    0    0    0  501  0.00000000000E+00  0.00000000000E+00 -0.17872977594E+04  0.17872977594E+04  0.50400001928E-02 0.  1.
    10030    2    1    2    0    0  0.00000000000E+00  0.00000000000E+00 -0.63670092177E+03  0.29378945970E+04  0.28680719306E+04 0.  0.
        2    1    3    3  502    0  0.30837297742E+03 -0.97547682419E+03  0.71100661133E+03  0.12458648920E+04  0.25500000920E-02 0. -1.
       -2    1    3    3    0  502 -0.30837297742E+03  0.97547682419E+03 -0.13477075331E+04  0.16920297050E+04  0.25500000920E-02 0.  1.
</event>
<event>
 5   0  0.3649705E-06  0.2925739E+04  0.7818609E-02  0.8265260E-01
        1   -1    0    0  501    0  0.00000000000E+00  0.00000000000E+00  0.20783448858E+04  0.20783448858E+04  0.50400001928E-02 0. -1.
       -1   -1    0    0    0  501  0.00000000000E+00  0.00000000000E+00 -0.10296591709E+04  0.10296591709E+04  0.50400001928E-02 0.  1.
    10030    2    1    2    0    0  0.00000000000E+00  0.00000000000E+00  0.10486857150E+04  0.31080040567E+04  0.29257387935E+04 0.  0.
        2    1    3    3  502    0  0.14169815454E+04  0.31876909542E+03  0.70997586438E+03  0.16166373013E+04  0.25500000920E-02 0. -1.
       -2    1    3    3    0  502 -0.14169815454E+04 -0.31876909542E+03  0.33870985058E+03  0.14913667554E+04  0.25500000920E-02 0.  1.
</event>
<event>
 5   0  0.3474078E-06  0.2303728E+04  0.7818609E-02  0.8476453E-01
        1   -1    0    0  501    0  0.00000000000E+00  0.00000000000E+00  0.12135109189E+04  0.12135109189E+04  0.50400001928E-02 0.  1.
       -1   -1    0    0    0  501  0.00000000000E+00  0.00000000000E+00 -0.10933483044E+04  0.10933483044E+04  0.50400001928E-02 0. -1.
    10030    2    1    2    0    0  0.00000000000E+00  0.00000000000E+00  0.12016261445E+03  0.23068592233E+04  0.23037275061E+04 0.  0.
        3    1    3    3  502    0  0.10646729544E+04  0.32237675471E+03  0.35937693772E+03  0.11690197028E+04  0.10100000352E+00 0.  1.
       -3    1    3    3    0  502 -0.10646729544E+04 -0.32237675471E+03 -0.23921432328E+03  0.11378395206E+04  0.10100000352E+00 0. -1.
</event>
<event>
 5   0  0.1001573E-05  0.2874482E+04  0.7818609E-02  0.8280511E-01
       -2   -1    0    0    0  501  0.00000000000E+00  0.00000000000E+00  0.11126345154E+04  0.11126345154E+04  0.25500000920E-02 0. -1.
        2   -1    0    0  501    0  0.00000000000E+00  0.00000000000E+00 -0.18565499384E+04  0.18565499384E+04  0.25500000920E-02 0.  1.
    10030    2    1    2    0    0  0.00000000000E+00  0.00000000000E+00 -0.74391542300E+03  0.29691844537E+04  0.28744818948E+04 0.  0.
        1    1    3    3  502    0  0.62760926654E+03 -0.70214768911E+03 -0.14934329804E+04  0.17655726651E+04  0.50400001928E-02 0.  1.
       -1    1    3    3    0  502 -0.62760926654E+03  0.70214768911E+03  0.74951755743E+03  0.12036117886E+04  0.50400001928E-02 0. -1.
</event>
<event>
 5   0  0.9505359E-06  0.2203099E+04  0.7818609E-02  0.8517139E-01
        2   -1    0    0  501    0  0.00000000000E+00  0.00000000000E+00  0.26703589502E+04  0.26703589502E+04  0.25500000920E-02 0. -1.
       -2   -1    0    0    0  501  0.00000000000E+00  0.00000000000E+00 -0.45440023980E+03  0.45440023980E+03  0.25500000920E-02 0.  1.
    10030    2    1    2    0    0  0.00000000000E+00  0.00000000000E+00  0.22159587104E+04  0.31247591900E+04  0.22030994052E+04 0.  0.
        4    1    3    3  502    0  0.10543463976E+04 -0.26183705067E+03  0.13664345686E+04  0.17456660650E+04  0.12699999809E+01 0. -1.
       -4    1    3    3    0  502 -0.10543463976E+04  0.26183705067E+03  0.84952414174E+03  0.13790931250E+04  0.12699999809E+01 0.  1.
</event>
<event>
 5   0  0.3564340E-06  0.2919436E+04  0.7818609E-02  0.8267118E-01
       -1   -1    0    0    0  501  0.00000000000E+00  0.00000000000E+00  0.13733245254E+04  0.13733245254E+04  0.50400001928E-02 0.  1.
        1   -1    0    0  501    0  0.00000000000E+00  0.00000000000E+00 -0.15515459959E+04  0.15515459959E+04  0.50400001928E-02 0. -1.
    10030    2    1    2    0    0  0.00000000000E+00  0.00000000000E+00 -0.17822147049E+03  0.29248705213E+04  0.29194356773E+04 0.  0.
        1    1    3    3  502    0  0.64058948213E+03 -0.18814872559E+03  0.12113895062E+04  0.13831917305E+04  0.50400001928E-02 0.  1.
       -1    1    3    3    0  502 -0.64058948213E+03  0.18814872559E+03 -0.13896109767E+04  0.15416787908E+04  0.50400001928E-02 0. -1.
</event>
<event>
 5   0  0.1001573E-05  0.3056658E+04  0.7818609E-02  0.8227735E-01
       -2   -1    0    0    0  501  0.00000000000E+00  0.00000000000E+00  0.10871686077E+04  0.10871686077E+04  0.25500000920E-02 0.  1.
        2   -1    0    0  501    0  0.00000000000E+00  0.00000000000E+00 -0.21485065719E+04  0.21485065719E+04  0.25500000920E-02 0. -1.
    10030    2    1    2    0    0  0.00000000000E+00  0.00000000000E+00 -0.10613379641E+04  0.32356751796E+04  0.30566575853E+04 0.  0.
        1    1    3    3  502    0  0.10433596210E+04  0.41527019956E+03 -0.16280814400E+04  0.19778012571E+04  0.50400001928E-02 0. -1.
       -1    1    3    3    0  502 -0.10433596210E+04 -0.41527019956E+03  0.56674347591E+03  0.12578739225E+04  0.50400001928E-02 0.  1.
</event>
<event>
 5   0  0.9505359E-06  0.2856684E+04  0.7818609E-02  0.8285883E-01
       -2   -1    0    0    0  501  0.00000000000E+00  0.00000000000E+00  0.10675971983E+04  0.10675971983E+04  0.25500000920E-02 0.  1.
        2   -1    0    0  501    0  0.00000000000E+00  0.00000000000E+00 -0.19109832147E+04  0.19109832147E+04  0.25500000920E-02 0. -1.
    10030    2    1    2    0    0  0.00000000000E+00  0.00000000000E+00 -0.84338601649E+03  0.29785804130E+04  0.28566836199E+04 0.  0.
        4    1    3    3  502    0  0.63729785446E+03 -0.50365525727E+03  0.80331933189E+03  0.11424275624E+04  0.12699999809E+01 0.  1.
       -4    1    3    3    0  502 -0.63729785446E+03  0.50365525727E+03 -0.16467053484E+04  0.18361528506E+04  0.12699999809E+01 0. -1.
</event>
<event>
 5   0  0.9360689E-06  0.2757638E+04  0.7818609E-02  0.8316542E-01
       -2   -1    0    0    0  501  0.00000000000E+00  0.00000000000E+00  0.12255755887E+04  0.12255755887E+04  0.25500000920E-02 0.  1.
        2   -1    0    0  501    0  0.00000000000E+00  0.00000000000E+00 -0.15512235268E+04  0.15512235268E+04  0.25500000920E-02 0. -1.
    10030    2    1    2    0    0  0.00000000000E+00  0.00000000000E+00 -0.32564793808E+03  0.27767991155E+04  0.27576378929E+04 0.  0.
        5    1    3    3  502    0  0.74158167026E+03  0.98690148106E+03 -0.78125893907E+03  0.14609262565E+04  0.46999998093E+01 0. -1.
       -5    1    3    3    0  502 -0.74158167026E+03 -0.98690148106E+03  0.45561100100E+03  0.13158728591E+04  0.46999998093E+01 0.  1.
</event>
<event>
 5   0  0.1001573E-05  0.2675906E+04  0.7818609E-02  0.8342865E-01
       -2   -1    0    0    0  501  0.00000000000E+00  0.00000000000E+00  0.69385633303E+03  0.69385633304E+03  0.25500000920E-02 0. -1.
        2   -1    0    0  501    0  0.00000000000E+00  0.00000000000E+00 -0.25799554794E+04  0.25799554794E+04  0.25500000920E-02 0.  1.
    10030    2    1    2    0    0  0.00000000000E+00  0.00000000000E+00 -0.18860991464E+04  0.32738118124E+04  0.26759061630E+04 0.  0.
        1    1    3    3  502    0  0.12790725395E+04  0.25848441417E+03 -0.13044881176E+04  0.18451368520E+04  0.50400001928E-02 0.  1.
       -1    1    3    3    0  502 -0.12790725395E+04 -0.25848441417E+03 -0.58161102879E+03  0.14286749604E+04  0.50400001928E-02 0. -1.
</event>
<event>
 5   0  0.9360689E-06  0.2965998E+04  0.7818609E-02  0.8253507E-01
        2   -1    0    0  501    0  0.00000000000E+00  0.00000000000E+00  0.19497270508E+04  0.19497270508E+04  0.25500000920E-02 0.  1.
       -2   -1    0    0    0  501  0.00000000000E+00  0.00000000000E+00 -0.11279971684E+04  0.11279971684E+04  0.25500000920E-02 0. -1.
    10030    2    1    2    0    0  0.00000000000E+00  0.00000000000E+00  0.82172988240E+03  0.30777242193E+04  0.29659983767E+04 0.  0.
        5    1    3    3  502    0 -0.14600611559E+03  0.10283994729E+04  0.15091977445E+04  0.18321089443E+04  0.46999998093E+01 0. -1.
       -5    1    3    3    0  502  0.14600611559E+03 -0.10283994729E+04 -0.68746786214E+03  0.12456152750E+04  0.46999998093E+01 0.  1.
</event>
<event>
 5   0  0.1001573E-05  0.2916700E+04  0.7818609E-02  0.8267926E-01
        2   -1    0    0  501    0  0.00000000000E+00  0.00000000000E+00  0.18994449966E+04  0.18994449966E+04  0.25500000920E-02 0.  1.
       -2   -1    0    0    0  501  0.00000000000E+00  0.00000000000E+00 -0.11196871380E+04  0.11196871380E+04  0.25500000920E-02 0. -1.
    10030    2    1    2    0    0  0.00000000000E+00  0.00000000000E+00  0.77975785860E+03  0.30191321345E+04  0.29166995950E+04 0.  0.
        1    1    3    3  502    0 -0.12222859234E+04  0.45228357025E+03  0.10672621787E+04  0.16845153204E+04  0.50400001928E-02 0.  1.
       -1    1    3    3    0  502  0.12222859234E+04 -0.45228357025E+03 -0.28750432012E+03  0.13346168141E+04  0.50400001928E-02 0. -1.
</event>
<event>
 5   0  0.3746518E-06  0.2755230E+04  0.7818609E-02  0.8317304E-01
        1   -1    0    0  501    0  0.00000000000E+00  0.00000000000E+00  0.19290129608E+04  0.19290129608E+04  0.50400001928E-02 0. -1.
       -1   -1    0    0    0  501  0.00000000000E+00  0.00000000000E+00 -0.98383100390E+03  0.98383100391E+03  0.50400001928E-02 0.  1.
    10030    2    1    2    0    0  0.00000000000E+00  0.00000000000E+00  0.94518195691E+03  0.29128439647E+04  0.27552297601E+04 0.  0.
        4    1    3    3  502    0  0.10963511470E+04 -0.62489993957E+02 -0.40681735585E+03  0.11710648193E+04  0.12699999809E+01 0.  1.
       -4    1    3    3    0  502 -0.10963511470E+04  0.62489993957E+02  0.13519993128E+04  0.17417791455E+04  0.12699999809E+01 0. -1.
</event>
<event>
 5   0  0.3474078E-06  0.2806477E+04  0.7818609E-02  0.8301260E-01
       -1   -1    0    0    0  501  0.00000000000E+00  0.00000000000E+00  0.11713919151E+04  0.11713919151E+04  0.50400001928E-02 0.  1.
        1   -1    0    0  501    0  0.00000000000E+00  0.00000000000E+00 -0.16809731778E+04  0.16809731778E+04  0.50400001928E-02 0. -1.
    10030    2    1    2    0    0  0.00000000000E+00  0.00000000000E+00 -0.50958126272E+03  0.28523650930E+04  0.28064770728E+04 0.  0.
        3    1    3    3  502    0  0.71964724092E+03 -0.55487587350E+03  0.83194404449E+03  0.12320350197E+04  0.10100000352E+00 0.  1.
       -3    1    3    3    0  502 -0.71964724092E+03  0.55487587350E+03 -0.13415253072E+04  0.16203300733E+04  0.10100000352E+00 0. -1.
</event>
<event>
 5   0  0.1001573E-05  0.2921381E+04  0.7818609E-02  0.8266544E-01
       -2   -1    0    0    0  501  0.00000000000E+00  0.00000000000E+00  0.16302401447E+04  0.16302401447E+04  0.25500000920E-02 0.  1.
        2   -1    0    0  501    0  0.00000000000E+00  0.00000000000E+00 -0.13087748771E+04  0.13087748771E+04  0.25500000920E-02 0. -1.
    10030    2    1    2    0    0  0.00000000000E+00  0.00000000000E+00  0.32146526762E+03  0.29390150217E+04  0.29213814163E+04 0.  0.
        1    1    3    3  502    0 -0.13798634135E+04  0.80574095608E+01 -0.32125144026E+03  0.14167887809E+04  0.50400001928E-02 0. -1.
       -1    1    3    3    0  502  0.13798634135E+04 -0.80574095608E+01  0.64271670788E+03  0.15222262409E+04  0.50400001928E-02 0.  1.
</event>
<event>
 5   0  0.3649705E-06  0.2875566E+04  0.7818609E-02  0.8280185E-01
       -1   -1    0    0    0  501  0.00000000000E+00  0.00000000000E+00  0.17642350799E+04  0.17642350799E+04  0.50400001928E-02 0. -1.
        1   -1    0    0  501    0  0.00000000000E+00  0.00000000000E+00 -0.11717372570E+04  0.11717372571E+04  0.50400001928E-02 0.  1.
    10030    2    1    2    0    0  0.00000000000E+00  0.00000000000E+00  0.59249782290E+03  0.29359723370E+04  0.28755660127E+04 0.  0.
        2    1    3    3  502    0  0.90067789745E+02  0.29965540046E+03  0.17290508041E+04  0.17571346701E+04  0.25500000920E-02 0. -1.
       -2    1    3    3    0  502 -0.90067789745E+02 -0.29965540046E+03 -0.11365529812E+04  0.11788376669E+04  0.25500000920E-02 0.  1.
</event>
<event>
 5   0  0.9251510E-06  0.2903171E+04  0.7818609E-02  0.8271935E-01
       -2   -1    0    0    0  501  0.00000000000E+00  0.00000000000E+00  0.16911345950E+04  0.16911345950E+04  0.25500000920E-02 0.  1.
        2   -1    0    0  501    0  0.00000000000E+00  0.00000000000E+00 -0.12459681923E+04  0.12459681923E+04  0.25500000920E-02 0. -1.
    10030    2    1    2    0    0  0.00000000000E+00  0.00000000000E+00  0.44516640275E+03  0.29371027873E+04  0.29031706214E+04 0.  0.
        2    1    3    3  502    0  0.13515168016E+04  0.33260891158E+03 -0.19439128341E+03  0.14053520285E+04  0.25500000920E-02 0. -1.
       -2    1    3    3    0  502 -0.13515168016E+04 -0.33260891158E+03  0.63955768617E+03  0.15317507588E+04  0.25500000920E-02 0.  1.
</event>
<event>
 5   0  0.3746518E-06  0.2928374E+04  0.7818609E-02  0.8264485E-01
        1   -1    0    0  501    0  0.00000000000E+00  0.00000000000E+00  0.15821239230E+04  0.15821239230E+04  0.50400001928E-02 0.  1.
       -1   -1    0    0    0  501  0.00000000000E+00  0.00000000000E+00 -0.13550412310E+04  0.13550412310E+04  0.50400001928E-02 0. -1.
    10030    2    1    2    0    0  0.00000000000E+00  0.00000000000E+00  0.22708269194E+03  0.29371651540E+04  0.29283737113E+04 0.  0.
        4    1    3    3  502    0 -0.15066326155E+03 -0.11126699662E+04  0.10561006712E+04  0.15414551932E+04  0.12699999809E+01 0.  1.
       -4    1    3    3    0  502  0.15066326155E+03  0.11126699662E+04 -0.82901797923E+03  0.13957099608E+04  0.12699999809E+01 0. -1.
</event>
<event>
 5   0  0.9360689E-06  0.2938546E+04  0.7818609E-02  0.8261501E-01
        2   -1    0    0  501    0  0.00000000000E+00  0.00000000000E+00  0.17728796544E+04  0.17728796544E+04  0.25500000920E-02 0. -1.
       -2   -1    0    0    0  501  0.00000000000E+00  0.00000000000E+00 -0.12176588792E+04  0.12176588792E+04  0.25500000920E-02 0.  1.
    10030    2    1    2    0    0  0.00000000000E+00  0.00000000000E+00  0.55522077526E+03  0.29905385336E+04  0.29385456627E+04 0.  0.
        5    1    3    3  502    0 -0.83870710405E+02 -0.56143309394E+03 -0.11015422191E+04  0.12392169970E+04  0.46999998093E+01 0.  1.
       -5    1    3    3    0  502  0.83870710405E+02  0.56143309394E+03  0.16567629944E+04  0.17513215366E+04  0.46999998093E+01 0. -1.
</event>
<event>
 5   0  0.3564340E-06  0.2927068E+04  0.7818609E-02  0.8264869E-01
        1   -1    0    0  501    0  0.00000000000E+00  0.00000000000E+00  0.13585395825E+04  0.13585395825E+04  0.50400001928E-02 0.  1.
       -1   -1    0    0    0  501  0.00000000000E+00  0.00000000000E+00 -0.15766432012E+04  0.15766432012E+04  0.50400001928E-02 0. -1.
    10030    2    1    2    0    0  0.00000000000E+00  0.00000000000E+00 -0.21810361870E+03  0.29351827837E+04  0.29270682919E+04 0.  0.
        1    1    3    3  502    0  0.72337348907E+03  0.11611151674E+04  0.41246163347E+03  0.14288394716E+04  0.50400001928E-02 0.  1.
       -1    1    3    3    0  502 -0.72337348907E+03 -0.11611151674E+04 -0.63056525217E+03  0.15063433121E+04  0.50400001928E-02 0. -1.
</event>
<event>
 5   0  0.1001573E-05  0.2908109E+04  0.7818609E-02  0.8270469E-01
        2   -1    0    0  501    0  0.00000000000E+00  0.00000000000E+00  0.15300378783E+04  0.15300378783E+04  0.25500000920E-02 0.  1.
       -2   -1    0    0    0  501  0.00000000000E+00  0.00000000000E+00 -0.13818449258E+04  0.13818449258E+04  0.25500000920E-02 0. -1.
    10030    2    1    2    0    0  0.00000000000E+00  0.00000000000E+00  0.14819295253E+03  0.29118828040E+04  0.29081094053E+04 0.  0.
        1    1    3    3  502    0  0.10319561525E+04 -0.10186273801E+04  0.18258759939E+03  0.14614627849E+04  0.50400001928E-02 0. -1.
       -1    1    3    3    0  502 -0.10319561525E+04  0.10186273801E+04 -0.34394646864E+02  0.14504200191E+04  0.50400001928E-02 0.  1.
</event>
<event>
 5   0  0.3649705E-06  0.2103952E+04  0.7818609E-02  0.8559504E-01
        1   -1    0    0  501    0  0.00000000000E+00  0.00000000000E+00  0.13876831864E+04  0.13876831864E+04  0.50400001928E-02 0. -1.
       -1   -1    0    0    0  501  0.00000000000E+00  0.00000000000E+00 -0.79748289063E+03  0.79748289064E+03  0.50400001928E-02 0.  1.
    10030    2    1    2    0    0  0.00000000000E+00  0.00000000000E+00  0.59020029581E+03  0.21851660771E+04  0.21039520896E+04 0.  0.
        2    1    3    3  502    0 -0.76584185475E+03 -0.59024593878E+03  0.72552411984E+03  0.12088379805E+04  0.25500000920E-02 0.  1.
       -2    1    3    3    0  502  0.76584185475E+03  0.59024593878E+03 -0.13532382403E+03  0.97632809654E+03  0.25500000920E-02 0. -1.
</event>
<event>
 5   0  0.3649705E-06  0.2956096E+04  0.7818609E-02  0.8256380E-01
       -1   -1    0    0    0  501  0.00000000000E+00  0.00000000000E+00  0.10318466889E+04  0.10318466889E+04  0.50400001928E-02 0. -1.
        1   -1    0    0  501    0  0.00000000000E+00  0.00000000000E+00 -0.21172005497E+04  0.21172005497E+04  0.50400001928E-02 0.  1.
    10030    2    1    2    0    0  0.00000000000E+00  0.00000000000E+00 -0.10853538608E+04  0.31490472386E+04  0.29560963292E+04 0.  0.
        2    1    3    3  502    0 -0.87107337319E+03 -0.48215619228E+03  0.62104845972E+03  0.11734328292E+04  0.25500000920E-02 0. -1.
       -2    1    3    3    0  502  0.87107337319E+03  0.48215619228E+03 -0.17064023205E+04  0.19756144094E+04  0.25500000920E-02 0.  1.
</event>
<event>
 5   0  0.3474078E-06  0.2849370E+04  0.7818609E-02  0.8288103E-01
        1   -1    0    0  501    0  0.00000000000E+00  0.00000000000E+00  0.18170744286E+04  0.18170744286E+04  0.50400001928E-02 0. -1.
       -1   -1    0    0    0  501  0.00000000000E+00  0.00000000000E+00 -0.11170304700E+04  0.11170304700E+04  0.50400001928E-02 0.  1.
    10030    2    1    2    0    0  0.00000000000E+00  0.00000000000E+00  0.70004395854E+03  0.29341048986E+04  0.28493701080E+04 0.  0.
        3    1    3    3  502    0 -0.78993362261E+03 -0.51269676340E+03 -0.75082263921E+03  0.12044034810E+04  0.10100000352E+00 0.  1.
       -3    1    3    3    0  502  0.78993362261E+03  0.51269676340E+03  0.14508665978E+04  0.17297014176E+04  0.10100000352E+00 0. -1.
</event>
<event>
 5   0  0.3486236E-06  0.2915992E+04  0.7818609E-02  0.8268135E-01
       -1   -1    0    0    0  501  0.00000000000E+00  0.00000000000E+00  0.14617834666E+04  0.14617834666E+04  0.50400001928E-02 0. -1.
        1   -1    0    0  501    0  0.00000000000E+00  0.00000000000E+00 -0.14542183392E+04  0.14542183392E+04  0.50400001928E-02 0.  1.
    10030    2    1    2    0    0  0.00000000000E+00  0.00000000000E+00  0.75651273570E+01  0.29160018058E+04  0.29159919925E+04 0.  0.
        5    1    3    3  502    0 -0.23509053240E+03  0.74532534080E+03  0.12346208998E+04  0.14611941275E+04  0.46999998093E+01 0. -1.
       -5    1    3    3    0  502  0.23509053240E+03 -0.74532534080E+03 -0.12270557725E+04  0.14548076783E+04  0.46999998093E+01 0.  1.
</event>
<event>
 5   0  0.3746518E-06  0.2817652E+04  0.7818609E-02  0.8297809E-01
       -1   -1    0    0    0  501  0.00000000000E+00  0.00000000000E+00  0.83353631370E+03  0.83353631372E+03  0.50400001928E-02 0. -1.
        1   -1    0    0  501    0  0.00000000000E+00  0.00000000000E+00 -0.23811691873E+04  0.23811691873E+04  0.50400001928E-02 0.  1.
    10030    2    1    2    0    0  0.00000000000E+00  0.00000000000E+00 -0.15476328736E+04  0.32147055010E+04  0.28176522047E+04 0.  0.
        4    1    3    3  502    0 -0.56970692553E+03  0.12725710603E+03 -0.22366959170E+04  0.23116164452E+04  0.12699999809E+01 0.  1.
       -4    1    3    3    0  502  0.56970692553E+03 -0.12725710603E+03  0.68906304337E+03  0.90308905578E+03  0.12699999809E+01 0. -1.
</event>
<event>
 5   0  0.9505359E-06  0.2660306E+04  0.7818609E-02  0.8348000E-01
        2   -1    0    0  501    0  0.00000000000E+00  0.00000000000E+00  0.18507205792E+04  0.18507205792E+04  0.25500000920E-02 0. -1.
       -2   -1    0    0    0  501  0.00000000000E+00  0.00000000000E+00 -0.95601004210E+03  0.95601004211E+03  0.25500000920E-02 0.  1.
    10030    2    1    2    0    0  0.00000000000E+00  0.00000000000E+00  0.89471053705E+03  0.28067306213E+04  0.26603063424E+04 0.  0.
        4    1    3    3  502    0  0.99718210235E+02 -0.69858635137E+03  0.16369521248E+04  0.17825769222E+04  0.12699999809E+01 0. -1.
       -4    1    3    3    0  502 -0.99718210235E+02  0.69858635137E+03 -0.74224158776E+03  0.10241536991E+04  0.12699999809E+01 0.  1.
</event>
<event>
 5   0  0.1001573E-05  0.2925794E+04  0.7818609E-02  0.8265244E-01
       -2   -1    0    0    0  501  0.00000000000E+00  0.00000000000E+00  0.11233128401E+04  0.11233128401E+04  0.25500000920E-02 0. -1.
        2   -1    0    0  501    0  0.00000000000E+00  0.00000000000E+00 -0.19051389371E+04  0.19051389371E+04  0.25500000920E-02 0.  1.
    10030    2    1    2    0    0  0.00000000000E+00  0.00000000000E+00 -0.78182609697E+03  0.30284517772E+04  0.29257935883E+04 0.  0.
        1    1    3    3  502    0  0.13125583143E+04 -0.49663728665E+03 -0.81845435891E+03  0.16246000925E+04  0.50400001928E-02 0.  1.
       -1    1    3    3    0  502 -0.13125583143E+04  0.49663728665E+03  0.36628261947E+02  0.14038516847E+04  0.50400001928E-02 0. -1.
</event>
<event>
 5   0  0.9360689E-06  0.2901757E+04  0.7818609E-02  0.8272355E-01
       -2   -1    0    0    0  501  0.00000000000E+00  0.00000000000E+00  0.15379348230E+04  0.15379348230E+04  0.25500000920E-02 0. -1.
        2   -1    0    0  501    0  0.00000000000E+00  0.00000000000E+00 -0.13687496351E+04  0.13687496351E+04  0.25500000920E-02 0.  1.
    10030    2    1    2    0    0  0.00000000000E+00  0.00000000000E+00  0.16918518792E+03  0.29066844581E+04  0.29017565217E+04 0.  0.
        5    1    3    3  502    0 -0.46230651579E+03 -0.87325572964E+03 -0.97962530578E+03  0.13913988334E+04  0.46999998093E+01 0.  1.
       -5    1    3    3    0  502  0.46230651579E+03  0.87325572964E+03  0.11488104937E+04  0.15152856247E+04  0.46999998093E+01 0. -1.
</event>
<event>
 5   0  0.9251510E-06  0.2883790E+04  0.7818609E-02  0.8277717E-01
        2   -1    0    0  501    0  0.00000000000E+00  0.00000000000E+00  0.27308436131E+04  0.27308436131E+04  0.25500000920E-02 0.  1.
       -2   -1    0    0    0  501  0.00000000000E+00  0.00000000000E+00 -0.76132585039E+03  0.76132585039E+03  0.25500000920E-02 0. -1.
    10030    2    1    2    0    0  0.00000000000E+00  0.00000000000E+00  0.19695177627E+04  0.34921694635E+04  0.28837904473E+04 0.  0.
        2    1    3    3  502    0 -0.77865424548E+03 -0.14901519730E+03  0.24432323830E+04  0.25686362997E+04  0.25500000920E-02 0.  1.
       -2    1    3    3    0  502  0.77865424548E+03  0.14901519730E+03 -0.47371462030E+03  0.92353316374E+03  0.25500000920E-02 0. -1.
</event>
<event>
 5   0  0.3649705E-06  0.2859721E+04  0.7818609E-02  0.8284964E-01
        1   -1    0    0  501    0  0.00000000000E+00  0.00000000000E+00  0.19416405636E+04  0.19416405636E+04  0.50400001928E-02 0. -1.
       -1   -1    0    0    0  501  0.00000000000E+00  0.00000000000E+00 -0.10529757770E+04  0.10529757770E+04  0.50400001928E-02 0.  1.
    10030    2    1    2    0    0  0.00000000000E+00  0.00000000000E+00  0.88866478663E+03  0.29946163406E+04  0.28597206025E+04 0.  0.
        2    1    3    3  502    0  0.70066331259E+03 -0.94124468338E+03 -0.41129653352E+03  0.12433967469E+04  0.25500000920E-02 0.  1.
       -2    1    3    3    0  502 -0.70066331259E+03  0.94124468338E+03  0.12999613201E+04  0.17512195937E+04  0.25500000920E-02 0. -1.
</event>
<event>
 5   0  0.3564340E-06  0.2964616E+04  0.7818609E-02  0.8253908E-01
        1   -1    0    0  501    0  0.00000000000E+00  0.00000000000E+00  0.18844860663E+04  0.18844860663E+04  0.50400001928E-02 0.  1.
       -1   -1    0    0    0  501  0.00000000000E+00  0.00000000000E+00 -0.11659611815E+04  0.11659611815E+04  0.50400001928E-02 0. -1.
    10030    2    1    2    0    0  0.00000000000E+00  0.00000000000E+00  0.71852488479E+03  0.30504472478E+04  0.29646164004E+04 0.  0.
        1    1    3    3  502    0 -0.51880873312E+03 -0.72038810311E+03 -0.86216703710E+03  0.12375190991E+04  0.50400001928E-02 0. -1.
       -1    1    3    3    0  502  0.51880873312E+03  0.72038810311E+03  0.15806919219E+04  0.18129281488E+04  0.50400001928E-02 0.  1.
</event>
<event>
 5   0  0.9360689E-06  0.2878981E+04  0.7818609E-02  0.8279159E-01
       -2   -1    0    0    0  501  0.00000000000E+00  0.00000000000E+00  0.81199395174E+03  0.81199395175E+03  0.25500000920E-02 0.  1.
        2   -1    0    0  501    0  0.00000000000E+00  0.00000000000E+00 -0.25519070396E+04  0.25519070396E+04  0.25500000920E-02 0. -1.
    10030    2    1    2    0    0  0.00000000000E+00  0.00000000000E+00 -0.17399130879E+04  0.33639009914E+04  0.28789811264E+04 0.  0.
        5    1    3    3  502    0 -0.31286758660E+03  0.13843499212E+04 -0.58904543804E+03  0.15366546291E+04  0.46999998093E+01 0. -1.
       -5    1    3    3    0  502  0.31286758660E+03 -0.13843499212E+04 -0.11508676498E+04  0.18272463623E+04  0.46999998093E+01 0.  1.
</event>
<event>
 5   0  0.1001573E-05  0.2150130E+04  0.7818609E-02  0.8539477E-01
       -2   -1    0    0    0  501  0.00000000000E+00  0.00000000000E+00  0.11436830044E+04  0.11436830044E+04  0.25500000920E-02 0.  1.
        2   -1    0    0  501    0  0.00000000000E+00  0.00000000000E+00 -0.10105638414E+04  0.10105638414E+04  0.25500000920E-02 0. -1.
    10030    2    1    2    0    0  0.00000000000E+00  0.00000000000E+00  0.13311916307E+03  0.21542468458E+04  0.21501299405E+04 0.  0.
        1    1    3    3  502    0  0.28269510378E+03  0.90678154517E+03  0.57110636627E+03  0.11083013011E+04  0.50400001928E-02 0.  1.
       -1    1    3    3    0  502 -0.28269510378E+03 -0.90678154517E+03 -0.43798720320E+03  0.10459455447E+04  0.50400001928E-02 0. -1.
</event>
<event>
 5   0  0.3486236E-06  0.2859818E+04  0.7818609E-02  0.8284934E-01
       -1   -1    0    0    0  501  0.00000000000E+00  0.00000000000E+00  0.15078671879E+04  0.15078671879E+04  0.50400001928E-02 0. -1.
        1   -1    0    0  501    0  0.00000000000E+00  0.00000000000E+00 -0.13559813902E+04  0.13559813902E+04  0.50400001928E-02 0.  1.
    10030    2    1    2    0    0  0.00000000000E+00  0.00000000000E+00  0.15188579771E+03  0.28638485781E+04  0.28598180681E+04 0.  0.
        5    1    3    3  502    0  0.12981618719E+04  0.59865232823E+03  0.44134949279E+02  0.14302373368E+04  0.46999998093E+01 0.  1.
       -5    1    3    3    0  502 -0.12981618719E+04 -0.59865232823E+03  0.10775084843E+03  0.14336112413E+04  0.46999998093E+01 0. -1.
</event>
<event>
 5   0  0.3474078E-06  0.3102173E+04  0.7818609E-02  0.8215142E-01
        1   -1    0    0  501    0  0.00000000000E+00  0.00000000000E+00  0.18086900995E+04  0.18086900995E+04  0.50400001928E-02 0.  1.
       -1   -1    0    0    0  501  0.00000000000E+00  0.00000000000E+00 -0.13301718760E+04  0.13301718760E+04  0.50400001928E-02 0. -1.
    10030    2    1    2    0    0  0.00000000000E+00  0.00000000000E+00  0.47851822355E+03  0.31388619755E+04  0.31021725953E+04 0.  0.
        3    1    3    3  502    0 -0.41685377192E+03  0.10389969914E+04 -0.84702417417E+03  0.14038275454E+04  0.10100000352E+00 0. -1.
       -3    1    3    3    0  502  0.41685377192E+03 -0.10389969914E+04  0.13255423977E+04  0.17350344301E+04  0.10100000352E+00 0.  1.
</event>
<event>
 5   0  0.9360689E-06  0.3150068E+04  0.7818609E-02  0.8202130E-01
        2   -1    0    0  501    0  0.00000000000E+00  0.00000000000E+00  0.19932871039E+04  0.19932871039E+04  0.25500000920E-02 0.  1.
       -2   -1    0    0    0  501  0.00000000000E+00  0.00000000000E+00 -0.12445431688E+04  0.12445431688E+04  0.25500000920E-02 0. -1.
    10030    2    1    2    0    0  0.00000000000E+00  0.00000000000E+00  0.74874393505E+03  0.32378302727E+04  0.31500678397E+04 0.  0.
        5    1    3    3  502    0 -0.12463092964E+03 -0.10131577134E+04  0.16072426749E+04  0.19040148442E+04  0.46999998093E+01 0.  1.
       -5    1    3    3    0  502  0.12463092964E+03  0.10131577134E+04 -0.85849873986E+03  0.13338154285E+04  0.46999998093E+01 0. -1.
</event>
<event>
 5   0  0.3474078E-06  0.2797562E+04  0.7818609E-02  0.8304026E-01
       -1   -1    0    0    0  501  0.00000000000E+00  0.00000000000E+00  0.10067938289E+04  0.10067938289E+04  0.50400001928E-02 0.  1.
        1   -1    0    0  501    0  0.00000000000E+00  0.00000000000E+00 -0.19433851044E+04  0.19433851044E+04  0.50400001928E-02 0. -1.
    10030    2    1    2    0    0  0.00000000000E+00  0.00000000000E+00 -0.93659127547E+03  0.29501789334E+04  0.27975618888E+04 0.  0.
        3    1    3    3  502    0 -0.87863173454E+03  0.10660162337E+04 -0.69982667837E+03  0.15485934668E+04  0.10100000352E+00 0. -1.
       -3    1    3    3    0  502  0.87863173454E+03 -0.10660162337E+04 -0.23676459710E+03  0.14015854666E+04  0.10100000352E+00 0.  1.
</event>
<event>
 5   0  0.9360689E-06  0.2884510E+04  0.7818609E-02  0.8277501E-01
       -2   -1    0    0    0  501  0.00000000000E+00  0.00000000000E+00  0.82824854611E+03  0.82824854612E+03  0.25500000920E-02 0.  1.
        2   -1    0    0  501    0  0.00000000000E+00  0.00000000000E+00 -0.25114442113E+04  0.25114442113E+04  0.25500000920E-02 0. -1.
    10030    2    1    2    0    0  0.00000000000E+00  0.00000000000E+00 -0.16831956651E+04  0.33396927574E+04  0.28845103686E+04 0.  0.
        5    1    3    3  502    0 -0.41452326715E+03 -0.13383654556E+04 -0.44552401186E+03  0.14702262979E+04  0.46999998093E+01 0.  1.
       -5    1    3    3    0  502  0.41452326715E+03  0.13383654556E+04 -0.12376716533E+04  0.18694664595E+04  0.46999998093E+01 0. -1.
</event>
<event>
 5   0  0.3649705E-06  0.2883809E+04  0.7818609E-02  0.8277711E-01
       -1   -1    0    0    0  501  0.00000000000E+00  0.00000000000E+00  0.68830698910E+03  0.68830698912E+03  0.50400001928E-02 0. -1.
        1   -1    0    0  501    0  0.00000000000E+00  0.00000000000E+00 -0.30205824655E+04  0.30205824655E+04  0.50400001928E-02 0.  1.
    10030    2    1    2    0    0  0.00000000000E+00  0.00000000000E+00 -0.23322754764E+04  0.37088894546E+04  0.28838086082E+04 0.  0.
        2    1    3    3  502    0 -0.59296753139E+03  0.82056851146E+02 -0.28532174886E+04  0.29153376918E+04  0.25500000920E-02 0.  1.
       -2    1    3    3    0  502  0.59296753139E+03 -0.82056851146E+02  0.52094201222E+03  0.79355176278E+03  0.25500000920E-02 0. -1.
</event>
<event>
 5   0  0.1001573E-05  0.2883783E+04  0.7818609E-02  0.8277719E-01
       -2   -1    0    0    0  501  0.00000000000E+00  0.00000000000E+00  0.14332952417E+04  0.14332952417E+04  0.25500000920E-02 0. -1.
        2   -1    0    0  501    0  0.00000000000E+00  0.00000000000E+00 -0.14505388304E+04  0.14505388304E+04  0.25500000920E-02 0.  1.
    10030    2    1    2    0    0  0.00000000000E+00  0.00000000000E+00 -0.17243588679E+02  0.28838340722E+04  0.28837825186E+04 0.  0.
        1    1    3    3  502    0 -0.15524410785E+03  0.44115739103E+03  0.13553416737E+04  0.14337613571E+04  0.50400001928E-02 0. -1.
       -1    1    3    3    0  502  0.15524410785E+03 -0.44115739103E+03 -0.13725852623E+04  0.14500727151E+04  0.50400001928E-02 0.  1.
</event>
<event>
 5   0  0.3649705E-06  0.2897347E+04  0.7818609E-02  0.8273667E-01
       -1   -1    0    0    0  501  0.00000000000E+00  0.00000000000E+00  0.93870793995E+03  0.93870793997E+03  0.50400001928E-02 0. -1.
        1   -1    0    0  501    0  0.00000000000E+00  0.00000000000E+00 -0.22356841009E+04  0.22356841010E+04  0.50400001928E-02 0.  1.
    10030    2    1    2    0    0  0.00000000000E+00  0.00000000000E+00 -0.12969761610E+04  0.31743920409E+04  0.28973466598E+04 0.  0.
        2    1    3    3  502    0 -0.66465420473E+03 -0.99780805195E+03 -0.15394290944E+04  0.19512119457E+04  0.25500000920E-02 0.  1.
       -2    1    3    3    0  502  0.66465420473E+03  0.99780805195E+03  0.24245293341E+03  0.12231800952E+04  0.25500000920E-02 0. -1.
</event>
<event>
 5   0  0.9505359E-06  0.2823507E+04  0.7818609E-02  0.8296007E-01
       -2   -1    0    0    0  501  0.00000000000E+00  0.00000000000E+00  0.92346596842E+03  0.92346596842E+03  0.25500000920E-02 0. -1.
        2   -1    0    0  501    0  0.00000000000E+00  0.00000000000E+00 -0.21582255417E+04  0.21582255417E+04  0.25500000920E-02 0.  1.
    10030    2    1    2    0    0  0.00000000000E+00  0.00000000000E+00 -0.12347595733E+04  0.30816915101E+04  0.28235069257E+04 0.  0.
        4    1    3    3  502    0  0.13745216111E+03  0.22196084553E+03 -0.21316482211E+04  0.21475766494E+04  0.12699999809E+01 0.  1.
       -4    1    3    3    0  502 -0.13745216111E+03 -0.22196084553E+03  0.89688864783E+03  0.93411486074E+03  0.12699999809E+01 0. -1.
</event>
<event>
 5   0  0.3746518E-06  0.2981011E+04  0.7818609E-02  0.8249174E-01
        1   -1    0    0  501    0  0.00000000000E+00  0.00000000000E+00  0.14246800871E+04  0.14246800871E+04  0.50400001928E-02 0.  1.
       -1   -1    0    0    0  501  0.00000000000E+00  0.00000000000E+00 -0.15593726358E+04  0.15593726358E+04  0.50400001928E-02 0. -1.
    10030    2    1    2    0    0  0.00000000000E+00  0.00000000000E+00 -0.13469254865E+03  0.29840527229E+04  0.29810113335E+04 0.  0.
        4    1    3    3  502    0 -0.56055649896E+03 -0.48779303346E+03  0.12260400337E+04  0.14336461938E+04  0.12699999809E+01 0.  1.
       -4    1    3    3    0  502  0.56055649896E+03  0.48779303346E+03 -0.13607325823E+04  0.15504065291E+04  0.12699999809E+01 0. -1.
</event>
<event>
 5   0  0.3649705E-06  0.2856814E+04  0.7818609E-02  0.8285844E-01
       -1   -1    0    0    0  501  0.00000000000E+00  0.00000000000E+00  0.73669971163E+03  0.73669971165E+03  0.50400001928E-02 0.  1.
        1   -1    0    0  501    0  0.00000000000E+00  0.00000000000E+00 -0.27695770981E+04  0.27695770981E+04  0.50400001928E-02 0. -1.
    10030    2    1    2    0    0  0.00000000000E+00  0.00000000000E+00 -0.20328773865E+04  0.35062768098E+04  0.28568140644E+04 0.  0.
        2    1    3    3  502    0  0.27975636306E+03  0.10889706216E+04  0.64891476508E+02  0.11262022647E+04  0.25500000920E-02 0.  1.
       -2    1    3    3    0  502 -0.27975636306E+03 -0.10889706216E+04 -0.20977688630E+04  0.23800745451E+04  0.25500000920E-02 0. -1.
</event>
<event>
 5   0  0.3486236E-06  0.2885253E+04  0.7818609E-02  0.8277279E-01
       -1   -1    0    0    0  501  0.00000000000E+00  0.00000000000E+00  0.12359719171E+04  0.12359719171E+04  0.50400001928E-02 0. -1.
        1   -1    0    0  501    0  0.00000000000E+00  0.00000000000E+00 -0.16838342309E+04  0.16838342309E+04  0.50400001928E-02 0.  1.
    10030    2    1    2    0    0  0.00000000000E+00  0.00000000000E+00 -0.44786231381E+03  0.29198061479E+04  0.28852534186E+04 0.  0.
        5    1    3    3  502    0 -0.10542641025E+04 -0.90292417613E+03  0.17371844033E+03  0.13989085217E+04  0.46999998093E+01 0. -1.
       -5    1    3    3    0  502  0.10542641025E+04  0.90292417613E+03 -0.62158075414E+03  0.15208976262E+04  0.46999998093E+01 0.  1.
</event>
<event>
 5   0  0.3649705E-06  0.2939079E+04  0.7818609E-02  0.8261344E-01
       -1   -1    0    0    0  501  0.00000000000E+00  0.00000000000E+00  0.12030516690E+04  0.12030516690E+04  0.50400001928E-02 0. -1.
        1   -1    0    0  501    0  0.00000000000E+00  0.00000000000E+00 -0.17950566624E+04  0.17950566624E+04  0.50400001928E-02 0.  1.
    10030    2    1    2    0    0  0.00000000000E+00  0.00000000000E+00 -0.59200499337E+03  0.29981083314E+04  0.29390787085E+04 0.  0.
        2    1    3    3  502    0  0.48793924472E+03  0.11793161330E+04  0.44710267194E+03  0.13523209854E+04  0.25500000920E-02 0. -1.
       -2    1    3    3    0  502 -0.48793924472E+03 -0.11793161330E+04 -0.10391076653E+04  0.16457873460E+04  0.25500000920E-02 0.  1.
</event>
<event>
 5   0  0.3474078E-06  0.2874937E+04  0.7818609E-02  0.8280374E-01
       -1   -1    0    0    0  501  0.00000000000E+00  0.00000000000E+00  0.80383968871E+03  0.80383968872E+03  0.50400001928E-02 0.  1.
        1   -1    0    0  501    0  0.00000000000E+00  0.00000000000E+00 -0.25705566794E+04  0.25705566794E+04  0.50400001928E-02 0. -1.
    10030    2    1    2    0    0  0.00000000000E+00  0.00000000000E+00 -0.17667169907E+04  0.33743963681E+04  0.28749368557E+04 0.  0.
        3    1    3    3  502    0 -0.33126408916E+02 -0.13465551743E+04 -0.29414277796E+03  0.13787052551E+04  0.10100000352E+00 0.  1.
       -3    1    3    3    0  502  0.33126408916E+02  0.13465551743E+04 -0.14725742127E+04  0.19956911130E+04  0.10100000352E+00 0. -1.
</event>
<event>
 5   0  0.3486236E-06  0.2921016E+04  0.7818609E-02  0.8266652E-01
       -1   -1    0    0    0  501  0.00000000000E+00  0.00000000000E+00  0.13186157784E+04  0.13186157784E+04  0.50400001928E-02 0. -1.
        1   -1    0    0  501    0  0.00000000000E+00  0.00000000000E+00 -0.16176685093E+04  0.16176685093E+04  0.50400001928E-02 0.  1.
    10030    2    1    2    0    0  0.00000000000E+00  0.00000000000E+00 -0.29905273090E+03  0.29362842877E+04  0.29210157279E+04 0.  0.
        5    1    3    3  502    0  0.11890714322E+04 -0.83222489126E+03  0.14334878325E+02  0.14514533128E+04  0.46999998093E+01 0.  1.
       -5    1    3    3    0  502 -0.11890714322E+04  0.83222489126E+03 -0.31338760922E+03  0.14848309749E+04  0.46999998093E+01 0. -1.
</event>
<event>
 5   0  0.3486236E-06  0.2914716E+04  0.7818609E-02  0.8268512E-01
       -1   -1    0    0    0  501  0.00000000000E+00  0.00000000000E+00  0.12460859708E+04  0.12460859708E+04  0.50400001928E-02 0. -1.
        1   -1    0    0  501    0  0.00000000000E+00  0.00000000000E+00 -0.17044510644E+04  0.17044510644E+04  0.50400001928E-02 0.  1.
    10030    2    1    2    0    0  0.00000000000E+00  0.00000000000E+00 -0.45836509358E+03  0.29505370352E+04  0.29147161503E+04 0.  0.
        5    1    3    3  502    0 -0.10514626961E+04 -0.55480806705E+03 -0.10824440675E+04  0.16078224534E+04  0.46999998093E+01 0.  1.
       -5    1    3    3    0  502  0.10514626961E+04  0.55480806705E+03  0.62407897388E+03  0.13427145818E+04  0.46999998093E+01 0. -1.
</event>
<event>
 5   0  0.3486236E-06  0.2918888E+04  0.7818609E-02  0.8267280E-01
        1   -1    0    0  501    0  0.00000000000E+00  0.00000000000E+00  0.11425246950E+04  0.11425246950E+04  0.50400001928E-02 0.  1.
       -1   -1    0    0    0  501  0.00000000000E+00  0.00000000000E+00 -0.18642717362E+04  0.18642717362E+04  0.50400001928E-02 0. -1.
    10030    2    1    2    0    0  0.00000000000E+00  0.00000000000E+00 -0.72174704121E+03  0.30067964312E+04  0.29188877997E+04 0.  0.
        5    1    3    3  502    0  0.14800334549E+03  0.40033453707E+03  0.10767883765E+04  0.11583039453E+04  0.46999998093E+01 0.  1.
       -5    1    3    3    0  502 -0.14800334549E+03 -0.40033453707E+03 -0.17985354177E+04  0.18484924859E+04  0.46999998093E+01 0. -1.
</event>
<event>
 5   0  0.9505359E-06  0.2924177E+04  0.7818609E-02  0.8265720E-01
        2   -1    0    0  501    0  0.00000000000E+00  0.00000000000E+00  0.98340454751E+03  0.98340454752E+03  0.25500000920E-02 0. -1.
       -2   -1    0    0    0  501  0.00000000000E+00  0.00000000000E+00 -0.21737776414E+04  0.21737776414E+04  0.25500000920E-02 0.  1.
    10030    2    1    2    0    0  0.00000000000E+00  0.00000000000E+00 -0.11903730939E+04  0.31571821889E+04  0.29241770246E+04 0.  0.
        4    1    3    3  502    0 -0.10193445221E+04  0.44797496066E+03  0.42792645779E+03  0.11928400925E+04  0.12699999809E+01 0. -1.
       -4    1    3    3    0  502  0.10193445221E+04 -0.44797496066E+03 -0.16182995517E+04  0.19643420965E+04  0.12699999809E+01 0.  1.
</event>
<event>
 5   0  0.3746518E-06  0.2942512E+04  0.7818609E-02  0.8260340E-01
        1   -1    0    0  501    0  0.00000000000E+00  0.00000000000E+00  0.16574389110E+04  0.16574389110E+04  0.50400001928E-02 0.  1.
       -1   -1    0    0    0  501  0.00000000000E+00  0.00000000000E+00 -0.13059871026E+04  0.13059871026E+04  0.50400001928E-02 0. -1.
    10030    2    1    2    0    0  0.00000000000E+00  0.00000000000E+00  0.35145180840E+03  0.29634260136E+04  0.29425117441E+04 0.  0.
        4    1    3    3  502    0 -0.85843561153E+03  0.27664930286E+03 -0.99492383982E+03  0.13428781016E+04  0.12699999809E+01 0. -1.
       -4    1    3    3    0  502  0.85843561153E+03 -0.27664930286E+03  0.13463756482E+04  0.16205479119E+04  0.12699999809E+01 0.  1.
</event>
<event>
 5   0  0.9646321E-06  0.2890424E+04  0.7818609E-02  0.8275732E-01
       -2   -1    0    0    0  501  0.00000000000E+00  0.00000000000E+00  0.10907794848E+04  0.10907794848E+04  0.25500000920E-02 0.  1.
        2   -1    0    0  501    0  0.00000000000E+00  0.00000000000E+00 -0.19148118123E+04  0.19148118123E+04  0.25500000920E-02 0. -1.
    10030    2    1    2    0    0  0.00000000000E+00  0.00000000000E+00 -0.82403232748E+03  0.30055912971E+04  0.28904238043E+04 0.  0.
        3    1    3    3  502    0 -0.95305537669E+03  0.47561526782E+03 -0.14277228361E+04  0.17812683518E+04  0.10100000352E+00 0. -1.
       -3    1    3    3    0  502  0.95305537669E+03 -0.47561526782E+03  0.60369050866E+03  0.12243229453E+04  0.10100000352E+00 0.  1.
</event>
<event>
 5   0  0.1001573E-05  0.2925638E+04  0.7818609E-02  0.8265290E-01
       -2   -1    0    0    0  501  0.00000000000E+00  0.00000000000E+00  0.11380976342E+04  0.11380976342E+04  0.25500000920E-02 0.  1.
        2   -1    0    0  501    0  0.00000000000E+00  0.00000000000E+00 -0.18801901415E+04  0.18801901415E+04  0.25500000920E-02 0. -1.
    10030    2    1    2    0    0  0.00000000000E+00  0.00000000000E+00 -0.74209250726E+03  0.30182877757E+04  0.29256383590E+04 0.  0.
        1    1    3    3  502    0  0.35193123974E+03 -0.40884025261E+03  0.10317318012E+04  0.11642493115E+04  0.50400001928E-02 0.  1.
       -1    1    3    3    0  502 -0.35193123974E+03  0.40884025261E+03 -0.17738243084E+04  0.18540384642E+04  0.50400001928E-02 0. -1.
</event>
<event>
 5   0  0.3746518E-06  0.2873641E+04  0.7818609E-02  0.8280763E-01
       -1   -1    0    0    0  501  0.00000000000E+00  0.00000000000E+00  0.10561437491E+04  0.10561437491E+04  0.50400001928E-02 0.  1.
        1   -1    0    0  501    0  0.00000000000E+00  0.00000000000E+00 -0.19547085649E+04  0.19547085649E+04  0.50400001928E-02 0. -1.
    10030    2    1    2    0    0  0.00000000000E+00  0.00000000000E+00 -0.89856481581E+03  0.30108523141E+04  0.28736410578E+04 0.  0.
        4    1    3    3  502    0  0.13225432535E+04 -0.42431130258E+03 -0.63900613326E+02  0.13904120397E+04  0.12699999809E+01 0.  1.
       -4    1    3    3    0  502 -0.13225432535E+04  0.42431130258E+03 -0.83466420248E+03  0.16204402743E+04  0.12699999809E+01 0. -1.
</event>
<event>
 5   0  0.1001573E-05  0.2891270E+04  0.7818609E-02  0.8275480E-01
        2   -1    0    0  501    0  0.00000000000E+00  0.00000000000E+00  0.13465560303E+04  0.13465560303E+04  0.25500000920E-02 0.  1.
       -2   -1    0    0    0  501  0.00000000000E+00  0.00000000000E+00 -0.15520045241E+04  0.15520045241E+04  0.25500000920E-02 0. -1.
    10030    2    1    2    0    0  0.00000000000E+00  0.00000000000E+00 -0.20544849383E+03  0.28985605545E+04  0.28912703444E+04 0.  0.
        1    1    3    3  502    0  0.32258168708E+03  0.14060833478E+04 -0.90449321215E+01  0.14426403352E+04  0.50400001928E-02 0. -1.
       -1    1    3    3    0  502 -0.32258168708E+03 -0.14060833478E+04 -0.19640356171E+03  0.14559202193E+04  0.50400001928E-02 0.  1.
</event>
<event>
 5   0  0.9646321E-06  0.2942607E+04  0.7818609E-02  0.8260312E-01
       -2   -1    0    0    0  501  0.00000000000E+00  0.00000000000E+00  0.13960622109E+04  0.13960622109E+04  0.25500000920E-02 0.  1.
        2   -1    0    0  501    0  0.00000000000E+00  0.00000000000E+00 -0.15506004367E+04  0.15506004367E+04  0.25500000920E-02 0. -1.
    10030    2    1    2    0    0  0.00000000000E+00  0.00000000000E+00 -0.15453822585E+03  0.29466626476E+04  0.29426074654E+04 0.  0.
        3    1    3    3  502    0  0.11788496583E+04  0.56855987883E+03  0.59580880149E+03  0.14380316376E+04  0.10100000352E+00 0.  1.
       -3    1    3    3    0  502 -0.11788496583E+04 -0.56855987883E+03 -0.75034702734E+03  0.15086310100E+04  0.10100000352E+00 0. -1.
</event>
<event>
 5   0  0.3649705E-06  0.2910834E+04  0.7818609E-02  0.8269661E-01
        1   -1    0    0  501    0  0.00000000000E+00  0.00000000000E+00  0.10692949726E+04  0.10692949726E+04  0.50400001928E-02 0.  1.
       -1   -1    0    0    0  501  0.00000000000E+00  0.00000000000E+00 -0.19809670430E+04  0.19809670430E+04  0.50400001928E-02 0. -1.
    10030    2    1    2    0    0  0.00000000000E+00  0.00000000000E+00 -0.91167207047E+03  0.30502620156E+04  0.29108336263E+04 0.  0.
        2    1    3    3  502    0  0.11764080964E+04  0.18696365130E+02 -0.13535825984E+04  0.17934523729E+04  0.25500000920E-02 0. -1.
       -2    1    3    3    0  502 -0.11764080964E+04 -0.18696365130E+02  0.44191052793E+03  0.12568096427E+04  0.25500000920E-02 0.  1.
</event>
<event>
 5   0  0.9646321E-06  0.2821979E+04  0.7818609E-02  0.8296477E-01
        2   -1    0    0  501    0  0.00000000000E+00  0.00000000000E+00  0.18275086253E+04  0.18275086253E+04  0.25500000920E-02 0.  1.
       -2   -1    0    0    0  501  0.00000000000E+00  0.00000000000E+00 -0.10894022759E+04  0.10894022759E+04  0.25500000920E-02 0. -1.
    10030    2    1    2    0    0  0.00000000000E+00  0.00000000000E+00  0.73810634946E+03  0.29169109012E+04  0.28219794866E+04 0.  0.
        3    1    3    3  502    0  0.13212621556E+04  0.14552039078E+03 -0.12013510369E+03  0.13346693678E+04  0.10100000352E+00 0. -1.
       -3    1    3    3    0  502 -0.13212621556E+04 -0.14552039078E+03  0.85824145315E+03  0.15822415334E+04  0.10100000352E+00 0.  1.
</event>
<event>
 5   0  0.3746518E-06  0.2907530E+04  0.7818609E-02  0.8270641E-01
       -1   -1    0    0    0  501  0.00000000000E+00  0.00000000000E+00  0.18471020564E+04  0.18471020564E+04  0.50400001928E-02 0. -1.
        1   -1    0    0  501    0  0.00000000000E+00  0.00000000000E+00 -0.11441882811E+04  0.11441882811E+04  0.50400001928E-02 0.  1.
    10030    2    1    2    0    0  0.00000000000E+00  0.00000000000E+00  0.70291377536E+03  0.29912903375E+04  0.29075298980E+04 0.  0.
        4    1    3    3  502    0  0.97008201173E+03 -0.57769111854E+03 -0.59070037858E+03  0.12742506379E+04  0.12699999809E+01 0.  1.
       -4    1    3    3    0  502 -0.97008201173E+03  0.57769111854E+03  0.12936141539E+04  0.17170396996E+04  0.12699999809E+01 0. -1.
</event>
<event>
 5   0  0.3649705E-06  0.2830852E+04  0.7818609E-02  0.8293754E-01
       -1   -1    0    0    0  501  0.00000000000E+00  0.00000000000E+00  0.16594158490E+04  0.16594158490E+04  0.50400001928E-02 0.  1.
        1   -1    0    0  501    0  0.00000000000E+00  0.00000000000E+00 -0.12073109163E+04  0.12073109164E+04  0.50400001928E-02 0. -1.
    10030    2    1    2    0    0  0.00000000000E+00  0.00000000000E+00  0.45210493264E+03  0.28667267654E+04  0.28308520762E+04 0.  0.
        2    1    3    3  502    0  0.12509028501E+03  0.87925167028E+03 -0.89004880606E+03  0.12573455994E+04  0.25500000920E-02 0. -1.
       -2    1    3    3    0  502 -0.12509028501E+03 -0.87925167028E+03  0.13421537387E+04  0.16093811660E+04  0.25500000920E-02 0.  1.
</event>
<event>
 5   0  0.3564340E-06  0.2880619E+04  0.7818609E-02  0.8278667E-01
        1   -1    0    0  501    0  0.00000000000E+00  0.00000000000E+00  0.18269754178E+04  0.18269754178E+04  0.50400001928E-02 0.  1.
       -1   -1    0    0    0  501  0.00000000000E+00  0.00000000000E+00 -0.11354789436E+04  0.11354789436E+04  0.50400001928E-02 0. -1.
    10030    2    1    2    0    0  0.00000000000E+00  0.00000000000E+00  0.69149647412E+03  0.29624543614E+04  0.28806194594E+04 0.  0.
        1    1    3    3  502    0 -0.32885418799E+03 -0.10399929033E+04  0.13130878228E+04  0.17070237099E+04  0.50400001928E-02 0.  1.
       -1    1    3    3    0  502  0.32885418799E+03  0.10399929033E+04 -0.62159134864E+03  0.12554306515E+04  0.50400001928E-02 0. -1.
</event>
<event>
 5   0  0.1001573E-05  0.2173101E+04  0.7818609E-02  0.8529708E-01
       -2   -1    0    0    0  501  0.00000000000E+00  0.00000000000E+00  0.10501112973E+04  0.10501112973E+04  0.25500000920E-02 0.  1.
        2   -1    0    0  501    0  0.00000000000E+00  0.00000000000E+00 -0.11242540086E+04  0.11242540086E+04  0.25500000920E-02 0. -1.
    10030    2    1    2    0    0  0.00000000000E+00  0.00000000000E+00 -0.74142711248E+02  0.21743653059E+04  0.21731008587E+04 0.  0.
        1    1    3    3  502    0 -0.41282166621E+03 -0.74163809803E+03  0.64166178430E+03  0.10640388348E+04  0.50400001928E-02 0.  1.
       -1    1    3    3    0  502  0.41282166621E+03  0.74163809803E+03 -0.71580449555E+03  0.11103264711E+04  0.50400001928E-02 0. -1.
</event>
<event>
 5   0  0.3564340E-06  0.2882929E+04  0.7818609E-02  0.8277975E-01
       -1   -1    0    0    0  501  0.00000000000E+00  0.00000000000E+00  0.11391828058E+04  0.11391828058E+04  0.50400001928E-02 0.  1.
        1   -1    0    0  501    0  0.00000000000E+00  0.00000000000E+00 -0.18239559417E+04  0.18239559417E+04  0.50400001928E-02 0. -1.
    10030    2    1    2    0    0  0.00000000000E+00  0.00000000000E+00 -0.68477313591E+03  0.29631387475E+04  0.28829285439E+04 0.  0.
        1    1    3    3  502    0 -0.19085431771E+03  0.22048689225E+03  0.11085476494E+04  0.11462625054E+04  0.50400001928E-02 0.  1.
       -1    1    3    3    0  502  0.19085431771E+03 -0.22048689225E+03 -0.17933207853E+04  0.18168762421E+04  0.50400001928E-02 0. -1.
</event>
<event>
 5   0  0.3746518E-06  0.2916107E+04  0.7818609E-02  0.8268101E-01
       -1   -1    0    0    0  501  0.00000000000E+00  0.00000000000E+00  0.11766965298E+04  0.11766965298E+04  0.50400001928E-02 0. -1.
        1   -1    0    0  501    0  0.00000000000E+00  0.00000000000E+00 -0.18066853284E+04  0.18066853285E+04  0.50400001928E-02 0.  1.
    10030    2    1    2    0    0  0.00000000000E+00  0.00000000000E+00 -0.62998879865E+03  0.29833818583E+04  0.29161072384E+04 0.  0.
        4    1    3    3  502    0 -0.10164047322E+03 -0.85982174127E+02  0.11704648610E+04  0.11780124463E+04  0.12699999809E+01 0. -1.
       -4    1    3    3    0  502  0.10164047322E+03  0.85982174127E+02 -0.18004536596E+04  0.18053694119E+04  0.12699999809E+01 0.  1.
</event>
<event>
 5   0  0.9251510E-06  0.3031602E+04  0.7818609E-02  0.8234764E-01
       -2   -1    0    0    0  501  0.00000000000E+00  0.00000000000E+00  0.10731351471E+04  0.10731351471E+04  0.25500000920E-02 0. -1.
        2   -1    0    0  501    0  0.00000000000E+00  0.00000000000E+00 -0.21410657583E+04  0.21410657583E+04  0.25500000920E-02 0.  1.
    10030    2    1    2    0    0  0.00000000000E+00  0.00000000000E+00 -0.10679306111E+04  0.32142009054E+04  0.30316021622E+04 0.  0.
        2    1    3    3  502    0  0.19083527272E+03  0.12980411090E+04 -0.13388509835E+04  0.18745268144E+04  0.25500000920E-02 0.  1.
       -2    1    3    3    0  502 -0.19083527272E+03 -0.12980411090E+04  0.27092037234E+03  0.13396740910E+04  0.25500000920E-02 0. -1.
</event>
<event>
 5   0  0.9251510E-06  0.2303912E+04  0.7818609E-02  0.8476380E-01
        2   -1    0    0  501    0  0.00000000000E+00  0.00000000000E+00  0.17701718243E+04  0.17701718243E+04  0.25500000920E-02 0. -1.
       -2   -1    0    0    0  501  0.00000000000E+00  0.00000000000E+00 -0.74964591669E+03  0.74964591669E+03  0.25500000920E-02 0.  1.
    10030    2    1    2    0    0  0.00000000000E+00  0.00000000000E+00  0.10205259076E+04  0.25198177410E+04  0.23039115260E+04 0.  0.
        2    1    3    3  502    0 -0.10216618074E+04  0.49160905935E+03  0.28737681393E+03  0.11696400084E+04  0.25500000920E-02 0.  1.
       -2    1    3    3    0  502  0.10216618074E+04 -0.49160905935E+03  0.73314909367E+03  0.13501777326E+04  0.25500000920E-02 0. -1.
</event>
<event>
 5   0  0.9360689E-06  0.2883004E+04  0.7818609E-02  0.8277952E-01
       -2   -1    0    0    0  501  0.00000000000E+00  0.00000000000E+00  0.12035022291E+04  0.12035022291E+04  0.25500000920E-02 0. -1.
        2   -1    0    0  501    0  0.00000000000E+00  0.00000000000E+00 -0.17265673727E+04  0.17265673727E+04  0.25500000920E-02 0.  1.
    10030    2    1    2    0    0  0.00000000000E+00  0.00000000000E+00 -0.52306514351E+03  0.29300696018E+04  0.28830037681E+04 0.  0.
        5    1    3    3  502    0  0.12211306463E+04  0.71152847554E+03 -0.54984090049E+03  0.15165025330E+04  0.46999998093E+01 0.  1.
       -5    1    3    3    0  502 -0.12211306463E+04 -0.71152847554E+03  0.26775756975E+02  0.14135670688E+04  0.46999998093E+01 0. -1.
</event>
<event>
 5   0  0.1001573E-05  0.2455192E+04  0.7818609E-02  0.8419125E-01
        2   -1    0    0  501    0  0.00000000000E+00  0.00000000000E+00  0.16940031875E+04  0.16940031875E+04  0.25500000920E-02 0.  1.
       -2   -1    0    0    0  501  0.00000000000E+00  0.00000000000E+00 -0.88960410989E+03  0.88960410989E+03  0.25500000920E-02 0. -1.
    10030    2    1    2    0    0  0.00000000000E+00  0.00000000000E+00  0.80439907759E+03  0.25836072974E+04  0.24551922106E+04 0.  0.
        1    1    3    3  502    0 -0.21965699865E+03  0.18371818503E+03  0.16583654658E+04  0.16829074801E+04  0.50400001928E-02 0.  1.
       -1    1    3    3    0  502  0.21965699865E+03 -0.18371818503E+03 -0.85396638820E+03  0.90069981723E+03  0.50400001928E-02 0. -1.
</event>
<event>
 5   0  0.3474078E-06  0.2866190E+04  0.7818609E-02  0.8283009E-01
       -1   -1    0    0    0  501  0.00000000000E+00  0.00000000000E+00  0.11337954342E+04  0.11337954342E+04  0.50400001928E-02 0.  1.
        1   -1    0    0  501    0  0.00000000000E+00  0.00000000000E+00 -0.18114033589E+04  0.18114033589E+04  0.50400001928E-02 0. -1.
    10030    2    1    2    0    0  0.00000000000E+00  0.00000000000E+00 -0.67760792474E+03  0.29451987931E+04  0.28661897060E+04 0.  0.
        3    1    3    3  502    0  0.13032516766E+03 -0.94600296589E+03  0.75922825344E+03  0.12199728734E+04  0.10100000352E+00 0.  1.
       -3    1    3    3    0  502 -0.13032516766E+03  0.94600296589E+03 -0.14368361782E+04  0.17252259197E+04  0.10100000352E+00 0. -1.
</event>
<event>
 5   0  0.9505359E-06  0.2957606E+04  0.7818609E-02  0.8255941E-01
        2   -1    0    0  501    0  0.00000000000E+00  0.00000000000E+00  0.19732861210E+04  0.19732861210E+04  0.25500000920E-02 0. -1.
       -2   -1    0    0    0  501  0.00000000000E+00  0.00000000000E+00 -0.11082320835E+04  0.11082320835E+04  0.25500000920E-02 0.  1.
    10030    2    1    2    0    0  0.00000000000E+00  0.00000000000E+00  0.86505403751E+03  0.30815182045E+04  0.29576064574E+04 0.  0.
        4    1    3    3  502    0  0.47916747686E+03 -0.12216061497E+04  0.11429551579E+04  0.17401928519E+04  0.12699999809E+01 0. -1.
       -4    1    3    3    0  502 -0.47916747686E+03  0.12216061497E+04 -0.27790112036E+03  0.13413253526E+04  0.12699999809E+01 0.  1.
</event>
<event>
 5   0  0.9360689E-06  0.2996892E+04  0.7818609E-02  0.8244619E-01
        2   -1    0    0  501    0  0.00000000000E+00  0.00000000000E+00  0.15219768493E+04  0.15219768493E+04  0.25500000920E-02 0. -1.
       -2   -1    0    0    0  501  0.00000000000E+00  0.00000000000E+00 -0.14752792002E+04  0.14752792002E+04  0.25500000920E-02 0.  1.
    10030    2    1    2    0    0  0.00000000000E+00  0.00000000000E+00  0.46697649106E+02  0.29972560494E+04  0.29968922496E+04 0.  0.
        5    1    3    3  502    0  0.24357195592E+03  0.14596775101E+04  0.25860698598E+03  0.15022933783E+04  0.46999998093E+01 0. -1.
       -5    1    3    3    0  502 -0.24357195592E+03 -0.14596775101E+04 -0.21190933688E+03  0.14949626712E+04  0.46999998093E+01 0.  1.
</event>
<event>
 5   0  0.9646321E-06  0.2874480E+04  0.7818609E-02  0.8280511E-01
       -2   -1    0    0    0  501  0.00000000000E+00  0.00000000000E+00  0.78550319741E+03  0.78550319741E+03  0.25500000920E-02 0.  1.
        2   -1    0    0  501    0  0.00000000000E+00  0.00000000000E+00 -0.26297266179E+04  0.26297266179E+04  0.25500000920E-02 0. -1.
    10030    2    1    2    0    0  0.00000000000E+00  0.00000000000E+00 -0.18442234205E+04  0.34152298154E+04  0.28744798950E+04 0.  0.
        3    1    3    3  502    0  0.11935021066E+04 -0.50938286375E+03 -0.18802939224E+03  0.13112106021E+04  0.10100000352E+00 0.  1.
       -3    1    3    3    0  502 -0.11935021066E+04  0.50938286375E+03 -0.16561940283E+04  0.21040192133E+04  0.10100000352E+00 0. -1.
</event>
<event>
 5   0  0.3564340E-06  0.2938358E+04  0.7818609E-02  0.8261555E-01
        1   -1    0    0  501    0  0.00000000000E+00  0.00000000000E+00  0.17185207048E+04  0.17185207048E+04  0.50400001928E-02 0.  1.
       -1   -1    0    0    0  501  0.00000000000E+00  0.00000000000E+00 -0.12560147691E+04  0.12560147692E+04  0.50400001928E-02 0. -1.
    10030    2    1    2    0    0  0.00000000000E+00  0.00000000000E+00  0.46250593564E+03  0.29745354739E+04  0.29383583078E+04 0.  0.
        1    1    3    3  502    0 -0.80622677904E+03 -0.40475314049E+03  0.14051249833E+04  0.16697912871E+04  0.50400001928E-02 0.  1.
       -1    1    3    3    0  502  0.80622677904E+03  0.40475314049E+03 -0.94261904763E+03  0.13047441868E+04  0.50400001928E-02 0. -1.
</event>
<event>
 5   0  0.3649705E-06  0.2927336E+04  0.7818609E-02  0.8264790E-01
        1   -1    0    0  501    0  0.00000000000E+00  0.00000000000E+00  0.19564834832E+04  0.19564834832E+04  0.50400001928E-02 0. -1.
       -1   -1    0    0    0  501  0.00000000000E+00  0.00000000000E+00 -0.10949870564E+04  0.10949870564E+04  0.50400001928E-02 0.  1.
    10030    2    1    2    0    0  0.00000000000E+00  0.00000000000E+00  0.86149642678E+03  0.30514705397E+04  0.29273360520E+04 0.  0.
        2    1    3    3  502    0 -0.10659624607E+04 -0.65140881659E+03  0.12257930300E+04  0.17501936940E+04  0.25500000920E-02 0. -1.
       -2    1    3    3    0  502  0.10659624607E+04  0.65140881659E+03 -0.36429660326E+03  0.13012768457E+04  0.25500000920E-02 0.  1.
</event>
<event>
 5   0  0.3649705E-06  0.2902175E+04  0.7818609E-02  0.8272231E-01
        1   -1    0    0  501    0  0.00000000000E+00  0.00000000000E+00  0.19213547705E+04  0.19213547705E+04  0.50400001928E-02 0.  1.
       -1   -1    0    0    0  501  0.00000000000E+00  0.00000000000E+00 -0.10959217162E+04  0.10959217162E+04  0.50400001928E-02 0. -1.
    10030    2    1    2    0    0  0.00000000000E+00  0.00000000000E+00  0.82543305432E+03  0.30172764867E+04  0.29021746450E+04 0.  0.
        2    1    3    3  502    0 -0.12490077669E+04  0.43249692687E+03  0.10352817444E+04  0.16789527343E+04  0.25500000920E-02 0.  1.
       -2    1    3    3    0  502  0.12490077669E+04 -0.43249692687E+03 -0.20984869010E+03  0.13383237524E+04  0.25500000920E-02 0. -1.
</event>
<event>
 5   0  0.9251510E-06  0.2840928E+04  0.7818609E-02  0.8290673E-01
       -2   -1    0    0    0  501  0.00000000000E+00  0.00000000000E+00  0.11869080881E+04  0.11869080881E+04  0.25500000920E-02 0.  1.
        2   -1    0    0  501    0  0.00000000000E+00  0.00000000000E+00 -0.16999784384E+04  0.16999784384E+04  0.25500000920E-02 0. -1.
    10030    2    1    2    0    0  0.00000000000E+00  0.00000000000E+00 -0.51307035023E+03  0.28868865265E+04  0.28409281287E+04 0.  0.
        2    1    3    3  502    0  0.11294891312E+04  0.16038103471E+03  0.60347165580E+03  0.12905990133E+04  0.25500000920E-02 0.  1.
       -2    1    3    3    0  502 -0.11294891312E+04 -0.16038103471E+03 -0.11165420060E+04  0.15962875132E+04  0.25500000920E-02 0. -1.
</event>
<event>
 5   0  0.9505359E-06  0.2902144E+04  0.7818609E-02  0.8272240E-01
        2   -1    0    0  501    0  0.00000000000E+00  0.00000000000E+00  0.18456187404E+04  0.18456187404E+04  0.25500000920E-02 0.  1.
       -2   -1    0    0    0  501  0.00000000000E+00  0.00000000000E+00 -0.11408697184E+04  0.11408697184E+04  0.25500000920E-02 0. -1.
    10030    2    1    2    0    0  0.00000000000E+00  0.00000000000E+00  0.70474902199E+03  0.29864884588E+04  0.29021444021E+04 0.  0.
        4    1    3    3  502    0 -0.11537741805E+04  0.63118862660E+03 -0.27864733559E+03  0.13443362274E+04  0.12699999809E+01 0.  1.
       -4    1    3    3    0  502  0.11537741805E+04 -0.63118862660E+03  0.98339635758E+03  0.16421522313E+04  0.12699999809E+01 0. -1.
</event>
<event>
 5   0  0.9360689E-06  0.2903712E+04  0.7818609E-02  0.8271774E-01
       -2   -1    0    0    0  501  0.00000000000E+00  0.00000000000E+00  0.99987753325E+03  0.99987753325E+03  0.25500000920E-02 0. -1.
        2   -1    0    0  501    0  0.00000000000E+00  0.00000000000E+00 -0.21081436577E+04  0.21081436577E+04  0.25500000920E-02 0.  1.
    10030    2    1    2    0    0  0.00000000000E+00  0.00000000000E+00 -0.11082661245E+04  0.31080211910E+04  0.29037117489E+04 0.  0.
        5    1    3    3  502    0  0.13553168289E+04 -0.35388142951E+03 -0.14550216482E+03  0.14082999477E+04  0.46999998093E+01 0.  1.
       -5    1    3    3    0  502 -0.13553168289E+04  0.35388142951E+03 -0.96276395964E+03  0.16997212432E+04  0.46999998093E+01 0. -1.
</event>
<event>
 5   0  0.3564340E-06  0.2950795E+04  0.7818609E-02  0.8257923E-01
       -1   -1    0    0    0  501  0.00000000000E+00  0.00000000000E+00  0.12486235772E+04  0.12486235772E+04  0.50400001928E-02 0. -1.
        1   -1    0    0  501    0  0.00000000000E+00  0.00000000000E+00 -0.17433582221E+04  0.17433582221E+04  0.50400001928E-02 0.  1.
    10030    2    1    2    0    0  0.00000000000E+00  0.00000000000E+00 -0.49473464492E+03  0.29919817993E+04  0.29507952689E+04 0.  0.
        1    1    3    3  502    0 -0.80449937508E+03  0.72823791558E+03 -0.12609440157E+04  0.16635893475E+04  0.50400001928E-02 0.  1.
       -1    1    3    3    0  502  0.80449937508E+03 -0.72823791558E+03  0.76620937082E+03  0.13283924519E+04  0.50400001928E-02 0. -1.
</event>
<event>
 5   0  0.3746518E-06  0.2140893E+04  0.7818609E-02  0.8543440E-01
        1   -1    0    0  501    0  0.00000000000E+00  0.00000000000E+00  0.65835005332E+03  0.65835005334E+03  0.50400001928E-02 0. -1.
       -1   -1    0    0    0  501  0.00000000000E+00  0.00000000000E+00 -0.17404964063E+04  0.17404964063E+04  0.50400001928E-02 0.  1.
    10030    2    1    2    0    0  0.00000000000E+00  0.00000000000E+00 -0.10821463530E+04  0.23988464597E+04  0.21408931799E+04 0.  0.
        4    1    3    3  502    0  0.75022480650E+03 -0.17208996047E+02 -0.13964111286E+04  0.15852757056E+04  0.12699999809E+01 0.  1.
       -4    1    3    3    0  502 -0.75022480650E+03  0.17208996047E+02  0.31426477557E+03  0.81357075408E+03  0.12699999809E+01 0. -1.
</event>
<event>
 5   0  0.9251510E-06  0.2901677E+04  0.7818609E-02  0.8272379E-01
       -2   -1    0    0    0  501  0.00000000000E+00  0.00000000000E+00  0.93571848927E+03  0.93571848927E+03  0.25500000920E-02 0.  1.
        2   -1    0    0  501    0  0.00000000000E+00  0.00000000000E+00 -0.22495355771E+04  0.22495355771E+04  0.25500000920E-02 0. -1.
    10030    2    1    2    0    0  0.00000000000E+00  0.00000000000E+00 -0.13138170878E+04  0.31852540663E+04  0.29016767785E+04 0.  0.
        2    1    3    3  502    0  0.59303646163E+03  0.71556298960E+03  0.56606643471E+03  0.10881883318E+04  0.25500000920E-02 0.  1.
       -2    1    3    3    0  502 -0.59303646163E+03 -0.71556298960E+03 -0.18798835225E+04  0.20970657346E+04  0.25500000920E-02 0. -1.
</event>
<event>
 5   0  0.1001573E-05  0.2882710E+04  0.7818609E-02  0.8278040E-01
        2   -1    0    0  501    0  0.00000000000E+00  0.00000000000E+00  0.18331230298E+04  0.18331230298E+04  0.25500000920E-02 0.  1.
       -2   -1    0    0    0  501  0.00000000000E+00  0.00000000000E+00 -0.11333140574E+04  0.11333140574E+04  0.25500000920E-02 0. -1.
    10030    2    1    2    0    0  0.00000000000E+00  0.00000000000E+00  0.69980897242E+03  0.29664370872E+04  0.28827099046E+04 0.  0.
        1    1    3    3  502    0 -0.13889784849E+04 -0.35925470057E+03  0.20739415250E+03  0.14495990845E+04  0.50400001928E-02 0.  1.
       -1    1    3    3    0  502  0.13889784849E+04  0.35925470057E+03  0.49241481993E+03  0.15168380026E+04  0.50400001928E-02 0. -1.
</event>
<event>
 5   0  0.9505359E-06  0.2855949E+04  0.7818609E-02  0.8286106E-01
       -2   -1    0    0    0  501  0.00000000000E+00  0.00000000000E+00  0.23240615446E+04  0.23240615446E+04  0.25500000920E-02 0.  1.
        2   -1    0    0  501    0  0.00000000000E+00  0.00000000000E+00 -0.87739109656E+03  0.87739109656E+03  0.25500000920E-02 0. -1.
    10030    2    1    2    0    0  0.00000000000E+00  0.00000000000E+00  0.14466704480E+04  0.32014526412E+04  0.28559488140E+04 0.  0.
        4    1    3    3  502    0  0.11904035195E+03  0.39571196123E+03  0.22555719425E+04  0.22931125054E+04  0.12699999809E+01 0.  1.
       -4    1    3    3    0  502 -0.11904035195E+03 -0.39571196123E+03 -0.80890149445E+03  0.90834013579E+03  0.12699999809E+01 0. -1.
</event>
<event>
 5   0  0.3649705E-06  0.2898855E+04  0.7818609E-02  0.8273218E-01
       -1   -1    0    0    0  501  0.00000000000E+00  0.00000000000E+00  0.17280176423E+04  0.17280176423E+04  0.50400001928E-02 0.  1.
        1   -1    0    0  501    0  0.00000000000E+00  0.00000000000E+00 -0.12157517887E+04  0.12157517887E+04  0.50400001928E-02 0. -1.
    10030    2    1    2    0    0  0.00000000000E+00  0.00000000000E+00  0.51226585365E+03  0.29437694310E+04  0.28988553186E+04 0.  0.
        2    1    3    3  502    0 -0.11513987321E+04 -0.23382335044E+03 -0.60581020430E+03  0.13218919786E+04  0.25500000920E-02 0. -1.
       -2    1    3    3    0  502  0.11513987321E+04  0.23382335044E+03  0.11180760579E+04  0.16218774525E+04  0.25500000920E-02 0.  1.
</event>
<event>
 5   0  0.9360689E-06  0.2849684E+04  0.7818609E-02  0.8288007E-01
       -2   -1    0    0    0  501  0.00000000000E+00  0.00000000000E+00  0.13687801251E+04  0.13687801251E+04  0.25500000920E-02 0. -1.
        2   -1    0    0  501    0  0.00000000000E+00  0.00000000000E+00 -0.14832001316E+04  0.14832001316E+04  0.25500000920E-02 0.  1.
    10030    2    1    2    0    0  0.00000000000E+00  0.00000000000E+00 -0.11442000648E+03  0.28519802567E+04  0.28496840959E+04 0.  0.
        5    1    3    3  502    0  0.61849501459E+03 -0.23781692327E+03  0.12051785489E+04  0.13753437377E+04  0.46999998093E+01 0. -1.
       -5    1    3    3    0  502 -0.61849501459E+03  0.23781692327E+03 -0.13195985553E+04  0.14766365190E+04  0.46999998093E+01 0.  1.
</event>
<event>
 5   0  0.3746518E-06  0.2742617E+04  0.7818609E-02  0.8321308E-01
        1   -1    0    0  501    0  0.00000000000E+00  0.00000000000E+00  0.16690871489E+04  0.16690871489E+04  0.50400001928E-02 0. -1.
       -1   -1    0    0    0  501  0.00000000000E+00  0.00000000000E+00 -0.11266556853E+04  0.11266556854E+04  0.50400001928E-02 0.  1.
    10030    2    1    2    0    0  0.00000000000E+00  0.00000000000E+00  0.54243146358E+03  0.27957428343E+04  0.27426166525E+04 0.  0.
        4    1    3    3  502    0  0.13361628472E+03  0.59423602567E+03 -0.98120673434E+03  0.11548757657E+04  0.12699999809E+01 0.  1.
       -4    1    3    3    0  502 -0.13361628472E+03 -0.59423602567E+03  0.15236381979E+04  0.16408670686E+04  0.12699999809E+01 0. -1.
</event>
<event>
 5   0  0.3564340E-06  0.2900957E+04  0.7818609E-02  0.8272593E-01
        1   -1    0    0  501    0  0.00000000000E+00  0.00000000000E+00  0.72902430346E+03  0.72902430348E+03  0.50400001928E-02 0. -1.
       -1   -1    0    0    0  501  0.00000000000E+00  0.00000000000E+00 -0.28858960752E+04  0.28858960752E+04  0.50400001928E-02 0.  1.
    10030    2    1    2    0    0  0.00000000000E+00  0.00000000000E+00 -0.21568717717E+04  0.36149203787E+04  0.29009573428E+04 0.  0.
        1    1    3    3  502    0  0.42679509124E+03 -0.56461027276E+03  0.49923831040E+03  0.86612799320E+03  0.50400001928E-02 0. -1.
       -1    1    3    3    0  502 -0.42679509124E+03  0.56461027276E+03 -0.26561100821E+04  0.27487923855E+04  0.50400001928E-02 0.  1.
</event>
<event>
 5   0  0.3564340E-06  0.2901282E+04  0.7818609E-02  0.8272496E-01
       -1   -1    0    0    0  501  0.00000000000E+00  0.00000000000E+00  0.13054811760E+04  0.13054811760E+04  0.50400001928E-02 0. -1.
        1   -1    0    0  501    0  0.00000000000E+00  0.00000000000E+00 -0.16119415196E+04  0.16119415196E+04  0.50400001928E-02 0.  1.
    10030    2    1    2    0    0  0.00000000000E+00  0.00000000000E+00 -0.30646034362E+03  0.29174226956E+04  0.29012819998E+04 0.  0.
        1    1    3    3  502    0  0.65406597441E+03 -0.51913065864E+03  0.10395647442E+04  0.13334143381E+04  0.50400001928E-02 0. -1.
       -1    1    3    3    0  502 -0.65406597441E+03  0.51913065864E+03 -0.13460250878E+04  0.15840083575E+04  0.50400001928E-02 0.  1.
</event>
<event>
 5   0  0.3649705E-06  0.3039533E+04  0.7818609E-02  0.8232531E-01
       -1   -1    0    0    0  501  0.00000000000E+00  0.00000000000E+00  0.13692070302E+04  0.13692070302E+04  0.50400001928E-02 0. -1.
        1   -1    0    0  501    0  0.00000000000E+00  0.00000000000E+00 -0.16868815375E+04  0.16868815375E+04  0.50400001928E-02 0.  1.
    10030    2    1    2    0    0  0.00000000000E+00  0.00000000000E+00 -0.31767450730E+03  0.30560885677E+04  0.30395328985E+04 0.  0.
        2    1    3    3  502    0 -0.56096036706E+03 -0.80069454912E+03 -0.13287478249E+04  0.16496542294E+04  0.25500000920E-02 0.  1.
       -2    1    3    3    0  502  0.56096036706E+03  0.80069454912E+03  0.10110733176E+04  0.14064343383E+04  0.25500000920E-02 0. -1.
</event>
<event>
 5   0  0.3474078E-06  0.2874082E+04  0.7818609E-02  0.8280631E-01
        1   -1    0    0  501    0  0.00000000000E+00  0.00000000000E+00  0.15074646803E+04  0.15074646803E+04  0.50400001928E-02 0. -1.
       -1   -1    0    0    0  501  0.00000000000E+00  0.00000000000E+00 -0.13699068621E+04  0.13699068621E+04  0.50400001928E-02 0.  1.
    10030    2    1    2    0    0  0.00000000000E+00  0.00000000000E+00  0.13755781826E+03  0.28773715424E+04  0.28740815646E+04 0.  0.
        3    1    3    3  502    0 -0.11012537581E+04 -0.49438201224E+03 -0.71180122465E+03  0.14013687621E+04  0.10100000352E+00 0.  1.
       -3    1    3    3    0  502  0.11012537581E+04  0.49438201224E+03  0.84935904291E+03  0.14760027804E+04  0.10100000352E+00 0. -1.
</event>
<event>
 5   0  0.9646321E-06  0.2825516E+04  0.7818609E-02  0.8295390E-01
       -2   -1    0    0    0  501  0.00000000000E+00  0.00000000000E+00  0.10270119254E+04  0.10270119254E+04  0.25500000920E-02 0. -1.
        2   -1    0    0  501    0  0.00000000000E+00  0.00000000000E+00 -0.19433898220E+04  0.19433898220E+04  0.25500000920E-02 0.  1.
    10030    2    1    2    0    0  0.00000000000E+00  0.00000000000E+00 -0.91637789659E+03  0.29704017474E+04  0.28255155444E+04 0.  0.
        3    1    3    3  502    0  0.11990066708E+04  0.44582259495E+02 -0.12422758333E+04  0.17270940422E+04  0.10100000352E+00 0.  1.
       -3    1    3    3    0  502 -0.11990066708E+04 -0.44582259495E+02  0.32589793672E+03  0.12433077052E+04  0.10100000352E+00 0. -1.
</event>
<event>
 5   0  0.3474078E-06  0.2886860E+04  0.7818609E-02  0.8276798E-01
        1   -1    0    0  501    0  0.00000000000E+00  0.00000000000E+00  0.22643545130E+04  0.22643545130E+04  0.50400001928E-02 0. -1.
       -1   -1    0    0    0  501  0.00000000000E+00  0.00000000000E+00 -0.92012546239E+03  0.92012546240E+03  0.50400001928E-02 0.  1.
    10030    2    1    2    0    0  0.00000000000E+00  0.00000000000E+00  0.13442290506E+04  0.31844799754E+04  0.28868600543E+04 0.  0.
        3    1    3    3  502    0  0.63207943412E+03 -0.87924373558E+03  0.17249178659E+04  0.20366481316E+04  0.10100000352E+00 0. -1.
       -3    1    3    3    0  502 -0.63207943412E+03  0.87924373558E+03 -0.38068881523E+03  0.11478318439E+04  0.10100000352E+00 0.  1.
</event>
<event>
 5   0  0.9505359E-06  0.2909453E+04  0.7818609E-02  0.8270070E-01
        2   -1    0    0  501    0  0.00000000000E+00  0.00000000000E+00  0.18441096716E+04  0.18441096716E+04  0.25500000920E-02 0. -1.
       -2   -1    0    0    0  501  0.00000000000E+00  0.00000000000E+00 -0.11475617678E+04  0.11475617678E+04  0.25500000920E-02 0.  1.
    10030    2    1    2    0    0  0.00000000000E+00  0.00000000000E+00  0.69654790378E+03  0.29916714395E+04  0.29094533884E+04 0.  0.
        4    1    3    3  502    0 -0.12857947652E+04 -0.13021175451E+03 -0.33843433522E+03  0.13359501081E+04  0.12699999809E+01 0.  1.
       -4    1    3    3    0  502  0.12857947652E+04  0.13021175451E+03  0.10349822390E+04  0.16557213314E+04  0.12699999809E+01 0. -1.
</event>
<event>
 5   0  0.9646321E-06  0.2863220E+04  0.7818609E-02  0.8283905E-01
        2   -1    0    0  501    0  0.00000000000E+00  0.00000000000E+00  0.17126826322E+04  0.17126826322E+04  0.25500000920E-02 0. -1.
       -2   -1    0    0    0  501  0.00000000000E+00  0.00000000000E+00 -0.11966648487E+04  0.11966648487E+04  0.25500000920E-02 0.  1.
    10030    2    1    2    0    0  0.00000000000E+00  0.00000000000E+00  0.51601778349E+03  0.29093474809E+04  0.28632199377E+04 0.  0.
        3    1    3    3  502    0  0.63141705750E+03  0.99928031103E+03  0.10786452283E+04  0.16002262900E+04  0.10100000352E+00 0. -1.
       -3    1    3    3    0  502 -0.63141705750E+03 -0.99928031103E+03 -0.56262744482E+03  0.13091211909E+04  0.10100000352E+00 0.  1.
</event>
<event>
 5   0  0.9251510E-06  0.2874625E+04  0.7818609E-02  0.8280467E-01
        2   -1    0    0  501    0  0.00000000000E+00  0.00000000000E+00  0.95474559816E+03  0.95474559816E+03  0.25500000920E-02 0.  1.
       -2   -1    0    0    0  501  0.00000000000E+00  0.00000000000E+00 -0.21637884464E+04  0.21637884464E+04  0.25500000920E-02 0. -1.
    10030    2    1    2    0    0  0.00000000000E+00  0.00000000000E+00 -0.12090428482E+04  0.31185340445E+04  0.28746251891E+04 0.  0.
        2    1    3    3  502    0 -0.69471361354E+03  0.92120992979E+03  0.32529774442E+03  0.11987799473E+04  0.25500000920E-02 0.  1.
       -2    1    3    3    0  502  0.69471361354E+03 -0.92120992979E+03 -0.15343405926E+04  0.19197540972E+04  0.25500000920E-02 0. -1.
</event>
<event>
 5   0  0.3486236E-06  0.2871985E+04  0.7818609E-02  0.8281262E-01
       -1   -1    0    0    0  501  0.00000000000E+00  0.00000000000E+00  0.16550484672E+04  0.16550484672E+04  0.50400001928E-02 0. -1.
        1   -1    0    0  501    0  0.00000000000E+00  0.00000000000E+00 -0.12459300670E+04  0.12459300670E+04  0.50400001928E-02 0.  1.
    10030    2    1    2    0    0  0.00000000000E+00  0.00000000000E+00  0.40911840025E+03  0.29009785342E+04  0.28719851306E+04 0.  0.
        5    1    3    3  502    0 -0.22801199712E+02  0.72195432132E+03  0.14581824762E+04  0.16272849046E+04  0.46999998093E+01 0. -1.
       -5    1    3    3    0  502  0.22801199712E+02 -0.72195432132E+03 -0.10490640759E+04  0.12736936296E+04  0.46999998093E+01 0.  1.
</event>
<event>
 5   0  0.3564340E-06  0.2909911E+04  0.7818609E-02  0.8269935E-01
        1   -1    0    0  501    0  0.00000000000E+00  0.00000000000E+00  0.11827922047E+04  0.11827922047E+04  0.50400001928E-02 0.  1.
       -1   -1    0    0    0  501  0.00000000000E+00  0.00000000000E+00 -0.17897445438E+04  0.17897445438E+04  0.50400001928E-02 0. -1.
    10030    2    1    2    0    0  0.00000000000E+00  0.00000000000E+00 -0.60695233908E+03  0.29725367485E+04  0.29099112666E+04 0.  0.
        1    1    3    3  502    0 -0.12885051282E+04 -0.21136468901E+03 -0.95914286936E+03  0.16201467653E+04  0.50400001928E-02 0. -1.
       -1    1    3    3    0  502  0.12885051282E+04  0.21136468901E+03  0.35219053028E+03  0.13523899832E+04  0.50400001928E-02 0.  1.
</event>
<event>
 5   0  0.9505359E-06  0.3076101E+04  0.7818609E-02  0.8222328E-01
        2   -1    0    0  501    0  0.00000000000E+00  0.00000000000E+00  0.24895875161E+04  0.24895875161E+04  0.25500000920E-02 0.  1.
       -2   -1    0    0    0  501  0.00000000000E+00  0.00000000000E+00 -0.95019710822E+03  0.95019710822E+03  0.25500000920E-02 0. -1.
    10030    2    1    2    0    0  0.00000000000E+00  0.00000000000E+00  0.15393904078E+04  0.34397846243E+04  0.30761006865E+04 0.  0.
        4    1    3    3  502    0  0.90988965112E+03 -0.71817451216E+03 -0.36072493036E+03  0.12140007807E+04  0.12699999809E+01 0. -1.
       -4    1    3    3    0  502 -0.90988965112E+03  0.71817451216E+03  0.19001153382E+04  0.22257838436E+04  0.12699999809E+01 0.  1.
</event>
<event>
 5   0  0.9505359E-06  0.2908565E+04  0.7818609E-02  0.8270334E-01
       -2   -1    0    0    0  501  0.00000000000E+00  0.00000000000E+00  0.16290737356E+04  0.16290737356E+04  0.25500000920E-02 0.  1.
        2   -1    0    0  501    0  0.00000000000E+00  0.00000000000E+00 -0.12982459090E+04  0.12982459090E+04  0.25500000920E-02 0. -1.
    10030    2    1    2    0    0  0.00000000000E+00  0.00000000000E+00  0.33082782664E+03  0.29273196446E+04  0.29085654971E+04 0.  0.
        4    1    3    3  502    0  0.11458247573E+04  0.68315371024E+03 -0.41739097620E+03  0.13977947654E+04  0.12699999809E+01 0. -1.
       -4    1    3    3    0  502 -0.11458247573E+04 -0.68315371024E+03  0.74821880284E+03  0.15295248792E+04  0.12699999809E+01 0.  1.
</event>
<event>
 5   0  0.9360689E-06  0.2881971E+04  0.7818609E-02  0.8278262E-01
        2   -1    0    0  501    0  0.00000000000E+00  0.00000000000E+00  0.13649015368E+04  0.13649015368E+04  0.25500000920E-02 0.  1.
       -2   -1    0    0    0  501  0.00000000000E+00  0.00000000000E+00 -0.15213105447E+04  0.15213105447E+04  0.25500000920E-02 0. -1.
    10030    2    1    2    0    0  0.00000000000E+00  0.00000000000E+00 -0.15640900789E+03  0.28862120815E+04  0.28819709232E+04 0.  0.
        5    1    3    3  502    0  0.93378974842E+03 -0.28363468738E+02 -0.11769285178E+04  0.15026478652E+04  0.46999998093E+01 0. -1.
       -5    1    3    3    0  502 -0.93378974842E+03  0.28363468738E+02  0.10205195100E+04  0.13835642164E+04  0.46999998093E+01 0.  1.
</event>
<event>
 5   0  0.9646321E-06  0.2960088E+04  0.7818609E-02  0.8255221E-01
        2   -1    0    0  501    0  0.00000000000E+00  0.00000000000E+00  0.23972938788E+04  0.23972938788E+04  0.25500000920E-02 0. -1.
       -2   -1    0    0    0  501  0.00000000000E+00  0.00000000000E+00 -0.91375127869E+03  0.91375127869E+03  0.25500000920E-02 0.  1.
    10030    2    1    2    0    0  0.00000000000E+00  0.00000000000E+00  0.14835426001E+04  0.33110451575E+04  0.29600880711E+04 0.  0.
        3    1    3    3  502    0  0.39182657016E+03  0.85679987693E+03 -0.53500669068E+03  0.10834510877E+04  0.10100000352E+00 0.  1.
       -3    1    3    3    0  502 -0.39182657016E+03 -0.85679987693E+03  0.20185492908E+04  0.22275940698E+04  0.10100000352E+00 0. -1.
</event>
<event>
 5   0  0.9505359E-06  0.2659701E+04  0.7818609E-02  0.8348200E-01
        2   -1    0    0  501    0  0.00000000000E+00  0.00000000000E+00  0.27677350045E+04  0.27677350045E+04  0.25500000920E-02 0.  1.
       -2   -1    0    0    0  501  0.00000000000E+00  0.00000000000E+00 -0.63897077618E+03  0.63897077618E+03  0.25500000920E-02 0. -1.
    10030    2    1    2    0    0  0.00000000000E+00  0.00000000000E+00  0.21287642283E+04  0.34067057807E+04  0.26597005727E+04 0.  0.
        4    1    3    3  502    0 -0.51381899634E+03 -0.52863233097E+03 -0.35329286050E+03  0.81748367600E+03  0.12699999809E+01 0. -1.
       -4    1    3    3    0  502  0.51381899634E+03  0.52863233097E+03  0.24820570888E+04  0.25892221047E+04  0.12699999809E+01 0.  1.
</event>
<event>
 5   0  0.3486236E-06  0.2554717E+04  0.7818609E-02  0.8383747E-01
        1   -1    0    0  501    0  0.00000000000E+00  0.00000000000E+00  0.10789079523E+04  0.10789079523E+04  0.50400001928E-02 0. -1.
       -1   -1    0    0    0  501  0.00000000000E+00  0.00000000000E+00 -0.15123114930E+04  0.15123114930E+04  0.50400001928E-02 0.  1.
    10030    2    1    2    0    0  0.00000000000E+00  0.00000000000E+00 -0.43340354065E+03  0.25912194453E+04  0.25547171242E+04 0.  0.
        5    1    3    3  502    0 -0.23804356123E+03  0.11193794187E+04 -0.79221338995E+03  0.13918689469E+04  0.46999998093E+01 0.  1.
       -5    1    3    3    0  502  0.23804356123E+03 -0.11193794187E+04  0.35880984930E+03  0.11993504984E+04  0.46999998093E+01 0. -1.
</event>
<event>
 5   0  0.3649705E-06  0.2936430E+04  0.7818609E-02  0.8262120E-01
        1   -1    0    0  501    0  0.00000000000E+00  0.00000000000E+00  0.71109942773E+03  0.71109942775E+03  0.50400001928E-02 0. -1.
       -1   -1    0    0    0  501  0.00000000000E+00  0.00000000000E+00 -0.30314404570E+04  0.30314404570E+04  0.50400001928E-02 0.  1.
    10030    2    1    2    0    0  0.00000000000E+00  0.00000000000E+00 -0.23203410293E+04  0.37425398848E+04  0.29364301962E+04 0.  0.
        2    1    3    3  502    0 -0.90970931505E+03 -0.11089161928E+04 -0.15599504027E+04  0.21191298732E+04  0.25500000920E-02 0.  1.
       -2    1    3    3    0  502  0.90970931505E+03  0.11089161928E+04 -0.76039062659E+03  0.16234100116E+04  0.25500000920E-02 0. -1.
</event>
<event>
 5   0  0.9505359E-06  0.2807658E+04  0.7818609E-02  0.8300895E-01
       -2   -1    0    0    0  501  0.00000000000E+00  0.00000000000E+00  0.23107096447E+04  0.23107096447E+04  0.25500000920E-02 0.  1.
        2   -1    0    0  501    0  0.00000000000E+00  0.00000000000E+00 -0.85287030129E+03  0.85287030130E+03  0.25500000920E-02 0. -1.
    10030    2    1    2    0    0  0.00000000000E+00  0.00000000000E+00  0.14578393434E+04  0.31635799460E+04  0.28076578359E+04 0.  0.
        4    1    3    3  502    0 -0.11063946812E+04  0.68953828307E+02 -0.24158715845E+03  0.11345614963E+04  0.12699999809E+01 0. -1.
       -4    1    3    3    0  502  0.11063946812E+04 -0.68953828307E+02  0.16994265019E+04  0.20290184497E+04  0.12699999809E+01 0.  1.
</event>
<event>
 5   0  0.9646321E-06  0.2746913E+04  0.7818609E-02  0.8319942E-01
        2   -1    0    0  501    0  0.00000000000E+00  0.00000000000E+00  0.14555399615E+04  0.14555399616E+04  0.25500000920E-02 0. -1.
       -2   -1    0    0    0  501  0.00000000000E+00  0.00000000000E+00 -0.12960020924E+04  0.12960020924E+04  0.25500000920E-02 0.  1.
    10030    2    1    2    0    0  0.00000000000E+00  0.00000000000E+00  0.15953786919E+03  0.27515420539E+04  0.27469130570E+04 0.  0.
        3    1    3    3  502    0 -0.52478321132E+03 -0.12315449776E+04 -0.22780285344E+03  0.13579376278E+04  0.10100000352E+00 0.  1.
       -3    1    3    3    0  502  0.52478321132E+03  0.12315449776E+04  0.38734072263E+03  0.13936044261E+04  0.10100000352E+00 0. -1.
</event>
<event>
 5   0  0.3188375E-06  0.2782116E+04  0.7818609E-02  0.8308842E-01
        3   -1    0    0  501    0  0.00000000000E+00  0.00000000000E+00  0.21445153278E+04  0.21445153301E+04  0.10100000352E+00 0.  1.
       -3   -1    0    0    0  501  0.00000000000E+00  0.00000000000E+00 -0.90232136016E+03  0.90232136581E+03  0.10100000352E+00 0. -1.
    10030    2    1    2    0    0  0.00000000000E+00  0.00000000000E+00  0.12421939676E+04  0.30468366959E+04  0.27821157414E+04 0.  0.
        4    1    3    3  502    0  0.10128137482E+04 -0.65132645855E+03 -0.14160512303E+03  0.12124650378E+04  0.12699999809E+01 0. -1.
       -4    1    3    3    0  502 -0.10128137482E+04  0.65132645855E+03  0.13837990906E+04  0.18343716582E+04  0.12699999809E+01 0.  1.
</event>
<event>
 5   0  0.9251510E-06  0.2793119E+04  0.7818609E-02  0.8305408E-01
        2   -1    0    0  501    0  0.00000000000E+00  0.00000000000E+00  0.13350873039E+04  0.13350873039E+04  0.25500000920E-02 0. -1.
       -2   -1    0    0    0  501  0.00000000000E+00  0.00000000000E+00 -0.14608618468E+04  0.14608618468E+04  0.25500000920E-02 0.  1.
    10030    2    1    2    0    0  0.00000000000E+00  0.00000000000E+00 -0.12577454289E+03  0.27959491507E+04  0.27931187619E+04 0.  0.
        2    1    3    3  502    0 -0.83936334360E+03  0.17880274374E+03 -0.11657645338E+04  0.14475870240E+04  0.25500000920E-02 0.  1.
       -2    1    3    3    0  502  0.83936334360E+03 -0.17880274374E+03  0.10399899909E+04  0.13483621268E+04  0.25500000920E-02 0. -1.
</event>
<event>
 5   0  0.9505359E-06  0.2824666E+04  0.7818609E-02  0.8295651E-01
       -2   -1    0    0    0  501  0.00000000000E+00  0.00000000000E+00  0.10204341531E+04  0.10204341531E+04  0.25500000920E-02 0. -1.
        2   -1    0    0  501    0  0.00000000000E+00  0.00000000000E+00 -0.19547407002E+04  0.19547407002E+04  0.25500000920E-02 0.  1.
    10030    2    1    2    0    0  0.00000000000E+00  0.00000000000E+00 -0.93430654707E+03  0.29751748533E+04  0.28246657650E+04 0.  0.
        4    1    3    3  502    0  0.68907202753E+03  0.47395517510E+03  0.73156927062E+03  0.11111475949E+04  0.12699999809E+01 0. -1.
       -4    1    3    3    0  502 -0.68907202753E+03 -0.47395517510E+03 -0.16658758177E+04  0.18640272584E+04  0.12699999809E+01 0.  1.
</event>
<event>
 5   0  0.3564340E-06  0.2921909E+04  0.7818609E-02  0.8266389E-01
       -1   -1    0    0    0  501  0.00000000000E+00  0.00000000000E+00  0.17745092156E+04  0.17745092156E+04  0.50400001928E-02 0.  1.
        1   -1    0    0  501    0  0.00000000000E+00  0.00000000000E+00 -0.12028048024E+04  0.12028048024E+04  0.50400001928E-02 0. -1.
    10030    2    1    2    0    0  0.00000000000E+00  0.00000000000E+00  0.57170441315E+03  0.29773140180E+04  0.29219091063E+04 0.  0.
        1    1    3    3  502    0 -0.57965662313E+03  0.81469136516E+03 -0.79955237888E+03  0.12802374107E+04  0.50400001928E-02 0. -1.
       -1    1    3    3    0  502  0.57965662313E+03 -0.81469136516E+03  0.13712567920E+04  0.16970766073E+04  0.50400001928E-02 0.  1.
</event>
<event>
 5   0  0.9251510E-06  0.2861669E+04  0.7818609E-02  0.8284374E-01
        2   -1    0    0  501    0  0.00000000000E+00  0.00000000000E+00  0.16924545328E+04  0.16924545328E+04  0.25500000920E-02 0. -1.
       -2   -1    0    0    0  501  0.00000000000E+00  0.00000000000E+00 -0.12096559643E+04  0.12096559643E+04  0.25500000920E-02 0.  1.
    10030    2    1    2    0    0  0.00000000000E+00  0.00000000000E+00  0.48279856848E+03  0.29021104971E+04  0.28616692470E+04 0.  0.
        2    1    3    3  502    0  0.85433563003E+03 -0.89667824957E+03  0.96802080532E+03  0.15719368726E+04  0.25500000920E-02 0. -1.
       -2    1    3    3    0  502 -0.85433563003E+03  0.89667824957E+03 -0.48522223684E+03  0.13301736244E+04  0.25500000920E-02 0.  1.
</event>
<event>
 5   0  0.3486236E-06  0.2946103E+04  0.7818609E-02  0.8259291E-01
        1   -1    0    0  501    0  0.00000000000E+00  0.00000000000E+00  0.84569898537E+03  0.84569898539E+03  0.50400001928E-02 0. -1.
       -1   -1    0    0    0  501  0.00000000000E+00  0.00000000000E+00 -0.25657833787E+04  0.25657833787E+04  0.50400001928E-02 0.  1.
    10030    2    1    2    0    0  0.00000000000E+00  0.00000000000E+00 -0.17200843933E+04  0.34114823641E+04  0.29461027817E+04 0.  0.
        5    1    3    3  502    0  0.18487006982E+03 -0.67922092214E+03 -0.23584054113E+04  0.24612224966E+04  0.46999998093E+01 0.  1.
       -5    1    3    3    0  502 -0.18487006982E+03  0.67922092214E+03  0.63832101797E+03  0.95025986749E+03  0.46999998093E+01 0. -1.
</event>
<event>
 5   0  0.3474078E-06  0.2863094E+04  0.7818609E-02  0.8283944E-01
       -1   -1    0    0    0  501  0.00000000000E+00  0.00000000000E+00  0.22523986576E+04  0.22523986576E+04  0.50400001928E-02 0. -1.
        1   -1    0    0  501    0  0.00000000000E+00  0.00000000000E+00 -0.90984171711E+03  0.90984171712E+03  0.50400001928E-02 0.  1.
    10030    2    1    2    0    0  0.00000000000E+00  0.00000000000E+00  0.13425569405E+04  0.31622403747E+04  0.28630936151E+04 0.  0.
        3    1    3    3  502    0 -0.69211781551E+03 -0.10162670451E+04  0.14810243686E+04  0.19249049245E+04  0.10100000352E+00 0. -1.
       -3    1    3    3    0  502  0.69211781551E+03  0.10162670451E+04 -0.13846742820E+03  0.12373354502E+04  0.10100000352E+00 0.  1.
</event>
<event>
 5   0  0.9360689E-06  0.2470904E+04  0.7818609E-02  0.8413425E-01
        2   -1    0    0  501    0  0.00000000000E+00  0.00000000000E+00  0.18148306966E+04  0.18148306966E+04  0.25500000920E-02 0.  1.
       -2   -1    0    0    0  501  0.00000000000E+00  0.00000000000E+00 -0.84103776705E+03  0.84103776706E+03  0.25500000920E-02 0. -1.
    10030    2    1    2    0    0  0.00000000000E+00  0.00000000000E+00  0.97379292952E+03  0.26558684636E+04  0.24709036053E+04 0.  0.
        5    1    3    3  502    0 -0.34646595941E+03 -0.16100100679E+03  0.17497320096E+04  0.17909618032E+04  0.46999998093E+01 0.  1.
       -5    1    3    3    0  502  0.34646595941E+03  0.16100100679E+03 -0.77593908008E+03  0.86490666040E+03  0.46999998093E+01 0. -1.
</event>
<event>
 5   0  0.3486236E-06  0.2136442E+04  0.7818609E-02  0.8545358E-01
        1   -1    0    0  501    0  0.00000000000E+00  0.00000000000E+00  0.15353908855E+04  0.15353908855E+04  0.50400001928E-02 0. -1.
       -1   -1    0    0    0  501  0.00000000000E+00  0.00000000000E+00 -0.74319556191E+03  0.74319556192E+03  0.50400001928E-02 0.  1.
    10030    2    1    2    0    0  0.00000000000E+00  0.00000000000E+00  0.79219532356E+03  0.22785864474E+04  0.21364416134E+04 0.  0.
        5    1    3    3  502    0  0.35663115573E+03  0.69721285153E+03  0.11709193943E+04  0.14086752144E+04  0.46999998093E+01 0. -1.
       -5    1    3    3    0  502 -0.35663115573E+03 -0.69721285153E+03 -0.37872407077E+03  0.86991123303E+03  0.46999998093E+01 0.  1.
</event>
<event>
 5   0  0.9646321E-06  0.2740541E+04  0.7818609E-02  0.8321969E-01
       -2   -1    0    0    0  501  0.00000000000E+00  0.00000000000E+00  0.10135688131E+04  0.10135688131E+04  0.25500000920E-02 0. -1.
        2   -1    0    0  501    0  0.00000000000E+00  0.00000000000E+00 -0.18525053868E+04  0.18525053868E+04  0.25500000920E-02 0.  1.
    10030    2    1    2    0    0  0.00000000000E+00  0.00000000000E+00 -0.83893657369E+03  0.28660741999E+04  0.27405413233E+04 0.  0.
        3    1    3    3  502    0 -0.51034584159E+03 -0.86393971124E+03 -0.13953777519E+04  0.17186982817E+04  0.10100000352E+00 0.  1.
       -3    1    3    3    0  502  0.51034584159E+03  0.86393971124E+03  0.55644117823E+03  0.11473759182E+04  0.10100000352E+00 0. -1.
</event>
<event>
 5   0  0.3564340E-06  0.2886401E+04  0.7818609E-02  0.8276935E-01
        1   -1    0    0  501    0  0.00000000000E+00  0.00000000000E+00  0.15518776498E+04  0.15518776498E+04  0.50400001928E-02 0. -1.
       -1   -1    0    0    0  501  0.00000000000E+00  0.00000000000E+00 -0.13421343560E+04  0.13421343560E+04  0.50400001928E-02 0.  1.
    10030    2    1    2    0    0  0.00000000000E+00  0.00000000000E+00  0.20974329380E+03  0.28940120058E+04  0.28864014344E+04 0.  0.
        1    1    3    3  502    0 -0.93425190263E+03  0.80982580662E+03 -0.64152646411E+03  0.13929108582E+04  0.50400001928E-02 0. -1.
       -1    1    3    3    0  502  0.93425190263E+03 -0.80982580662E+03  0.85126975791E+03  0.15011011476E+04  0.50400001928E-02 0.  1.
</event>
<event>
 5   0  0.3486236E-06  0.2912574E+04  0.7818609E-02  0.8269146E-01
        1   -1    0    0  501    0  0.00000000000E+00  0.00000000000E+00  0.15415991718E+04  0.15415991718E+04  0.50400001928E-02 0. -1.
       -1   -1    0    0    0  501  0.00000000000E+00  0.00000000000E+00 -0.13756957209E+04  0.13756957209E+04  0.50400001928E-02 0.  1.
    10030    2    1    2    0    0  0.00000000000E+00  0.00000000000E+00  0.16590345090E+03  0.29172948927E+04  0.29125736962E+04 0.  0.
        5    1    3    3  502    0 -0.66111294232E+03  0.88903536405E+02  0.13795674358E+04  0.15323845997E+04  0.46999998093E+01 0. -1.
       -5    1    3    3    0  502  0.66111294232E+03 -0.88903536405E+02 -0.12136639849E+04  0.13849102930E+04  0.46999998093E+01 0.  1.
</event>
<event>
 5   0  0.9646321E-06  0.2874041E+04  0.7818609E-02  0.8280643E-01
       -2   -1    0    0    0  501  0.00000000000E+00  0.00000000000E+00  0.11316047497E+04  0.11316047497E+04  0.25500000920E-02 0.  1.
        2   -1    0    0  501    0  0.00000000000E+00  0.00000000000E+00 -0.18248672508E+04  0.18248672508E+04  0.25500000920E-02 0. -1.
    10030    2    1    2    0    0  0.00000000000E+00  0.00000000000E+00 -0.69326250109E+03  0.29564720005E+04  0.28740413697E+04 0.  0.
        3    1    3    3  502    0 -0.15381829632E+03 -0.84361610435E+03  0.83955903328E+03  0.12000864887E+04  0.10100000352E+00 0.  1.
       -3    1    3    3    0  502  0.15381829632E+03  0.84361610435E+03 -0.15328215344E+04  0.17563855118E+04  0.10100000352E+00 0. -1.
</event>
<event>
 5   0  0.9360689E-06  0.2092502E+04  0.7818609E-02  0.8564553E-01
       -2   -1    0    0    0  501  0.00000000000E+00  0.00000000000E+00  0.92594315968E+03  0.92594315969E+03  0.25500000920E-02 0.  1.
        2   -1    0    0  501    0  0.00000000000E+00  0.00000000000E+00 -0.11821908354E+04  0.11821908354E+04  0.25500000920E-02 0. -1.
    10030    2    1    2    0    0  0.00000000000E+00  0.00000000000E+00 -0.25624767576E+03  0.21081339951E+04  0.20925023465E+04 0.  0.
        5    1    3    3  502    0 -0.29310112222E+03  0.20633541993E+03  0.86214151063E+03  0.93369837084E+03  0.46999998093E+01 0.  1.
       -5    1    3    3    0  502  0.29310112222E+03 -0.20633541993E+03 -0.11183891864E+04  0.11744356243E+04  0.46999998093E+01 0. -1.
</event>
<event>
 5   0  0.9360689E-06  0.2876015E+04  0.7818609E-02  0.8280050E-01
        2   -1    0    0  501    0  0.00000000000E+00  0.00000000000E+00  0.19183495490E+04  0.19183495490E+04  0.25500000920E-02 0. -1.
       -2   -1    0    0    0  501  0.00000000000E+00  0.00000000000E+00 -0.10779398435E+04  0.10779398435E+04  0.25500000920E-02 0.  1.
    10030    2    1    2    0    0  0.00000000000E+00  0.00000000000E+00  0.84040970547E+03  0.29962893925E+04  0.28760148905E+04 0.  0.
        5    1    3    3  502    0  0.19631352440E+03 -0.13202350865E+04  0.97763556249E+03  0.16544948071E+04  0.46999998093E+01 0. -1.
       -5    1    3    3    0  502 -0.19631352440E+03  0.13202350865E+04 -0.13722585701E+03  0.13417945854E+04  0.46999998093E+01 0.  1.
</event>
<event>
 5   0  0.3746518E-06  0.2877057E+04  0.7818609E-02  0.8279736E-01
        1   -1    0    0  501    0  0.00000000000E+00  0.00000000000E+00  0.17647357949E+04  0.17647357949E+04  0.50400001928E-02 0. -1.
       -1   -1    0    0    0  501  0.00000000000E+00  0.00000000000E+00 -0.11726201768E+04  0.11726201768E+04  0.50400001928E-02 0.  1.
    10030    2    1    2    0    0  0.00000000000E+00  0.00000000000E+00  0.59211561814E+03  0.29373559717E+04  0.28770573855E+04 0.  0.
        4    1    3    3  502    0  0.10138376380E+04  0.28808605719E+03  0.12956083576E+04  0.16701685429E+04  0.12699999809E+01 0. -1.
       -4    1    3    3    0  502 -0.10138376380E+04 -0.28808605719E+03 -0.70349273942E+03  0.12671874288E+04  0.12699999809E+01 0.  1.
</event>
<event>
 5   0  0.3486236E-06  0.2899292E+04  0.7818609E-02  0.8273088E-01
        1   -1    0    0  501    0  0.00000000000E+00  0.00000000000E+00  0.19384996382E+04  0.19384996382E+04  0.50400001928E-02 0. -1.
       -1   -1    0    0    0  501  0.00000000000E+00  0.00000000000E+00 -0.10840724783E+04  0.10840724783E+04  0.50400001928E-02 0.  1.
    10030    2    1    2    0    0  0.00000000000E+00  0.00000000000E+00  0.85442715987E+03  0.30225721165E+04  0.28992924012E+04 0.  0.
        5    1    3    3  502    0  0.56246833675E+03 -0.62073386343E+03  0.16606396630E+04  0.18599535852E+04  0.46999998093E+01 0. -1.
       -5    1    3    3    0  502 -0.56246833675E+03  0.62073386343E+03 -0.80621250309E+03  0.11626185312E+04  0.46999998093E+01 0.  1.
</event>
<event>
 5   0  0.3746518E-06  0.2371161E+04  0.7818609E-02  0.8450380E-01
       -1   -1    0    0    0  501  0.00000000000E+00  0.00000000000E+00  0.84565435034E+03  0.84565435036E+03  0.50400001928E-02 0. -1.
        1   -1    0    0  501    0  0.00000000000E+00  0.00000000000E+00 -0.16621465628E+04  0.16621465628E+04  0.50400001928E-02 0.  1.
    10030    2    1    2    0    0  0.00000000000E+00  0.00000000000E+00 -0.81649221243E+03  0.25078009131E+04  0.23711612950E+04 0.  0.
        4    1    3    3  502    0  0.63479132787E+03 -0.59920018866E+03 -0.12567222319E+04  0.15301481226E+04  0.12699999809E+01 0.  1.
       -4    1    3    3    0  502 -0.63479132787E+03  0.59920018866E+03  0.44023001943E+03  0.97765279058E+03  0.12699999809E+01 0. -1.
</event>
<event>
 5   0  0.3474078E-06  0.2702761E+04  0.7818609E-02  0.8334110E-01
        1   -1    0    0  501    0  0.00000000000E+00  0.00000000000E+00  0.11188728752E+04  0.11188728752E+04  0.50400001928E-02 0.  1.
       -1   -1    0    0    0  501  0.00000000000E+00  0.00000000000E+00 -0.16322041723E+04  0.16322041724E+04  0.50400001928E-02 0. -1.
    10030    2    1    2    0    0  0.00000000000E+00  0.00000000000E+00 -0.51333129717E+03  0.27510770475E+04  0.27027607924E+04 0.  0.
        3    1    3    3  502    0  0.41389496199E+02 -0.23950991499E+02  0.11180114008E+04  0.11190336201E+04  0.10100000352E+00 0.  1.
       -3    1    3    3    0  502 -0.41389496199E+02  0.23950991499E+02 -0.16313426980E+04  0.16320434274E+04  0.10100000352E+00 0. -1.
</event>
<event>
 5   0  0.3564340E-06  0.2902371E+04  0.7818609E-02  0.8272172E-01
       -1   -1    0    0    0  501  0.00000000000E+00  0.00000000000E+00  0.11043284203E+04  0.11043284203E+04  0.50400001928E-02 0. -1.
        1   -1    0    0  501    0  0.00000000000E+00  0.00000000000E+00 -0.19069866511E+04  0.19069866511E+04  0.50400001928E-02 0.  1.
    10030    2    1    2    0    0  0.00000000000E+00  0.00000000000E+00 -0.80265823085E+03  0.30113150714E+04  0.29023711381E+04 0.  0.
        1    1    3    3  502    0 -0.10230020865E+04 -0.91632613488E+03 -0.88770312827E+03  0.16352992688E+04  0.50400001928E-02 0. -1.
       -1    1    3    3    0  502  0.10230020865E+04  0.91632613488E+03  0.85044897415E+02  0.13760158026E+04  0.50400001928E-02 0.  1.
</event>
<event>
 5   0  0.9646321E-06  0.2928443E+04  0.7818609E-02  0.8264465E-01
        2   -1    0    0  501    0  0.00000000000E+00  0.00000000000E+00  0.15124131945E+04  0.15124131945E+04  0.25500000920E-02 0. -1.
       -2   -1    0    0    0  501  0.00000000000E+00  0.00000000000E+00 -0.14175652658E+04  0.14175652658E+04  0.25500000920E-02 0.  1.
    10030    2    1    2    0    0  0.00000000000E+00  0.00000000000E+00  0.94847928665E+02  0.29299784603E+04  0.29284428709E+04 0.  0.
        3    1    3    3  502    0 -0.10294266835E+04  0.13661414801E+03 -0.98537779360E+03  0.14315558419E+04  0.10100000352E+00 0.  1.
       -3    1    3    3    0  502  0.10294266835E+04 -0.13661414801E+03  0.10802257223E+04  0.14984226184E+04  0.10100000352E+00 0. -1.
</event>
<event>
 5   0  0.9360689E-06  0.2953919E+04  0.7818609E-02  0.8257013E-01
        2   -1    0    0  501    0  0.00000000000E+00  0.00000000000E+00  0.18611055438E+04  0.18611055438E+04  0.25500000920E-02 0.  1.
       -2   -1    0    0    0  501  0.00000000000E+00  0.00000000000E+00 -0.11721044186E+04  0.11721044186E+04  0.25500000920E-02 0. -1.
    10030    2    1    2    0    0  0.00000000000E+00  0.00000000000E+00  0.68900112517E+03  0.30332099624E+04  0.29539194515E+04 0.  0.
        5    1    3    3  502    0 -0.47480733903E+03 -0.11834425551E+04 -0.42076212037E+03  0.13427736751E+04  0.46999998093E+01 0. -1.
       -5    1    3    3    0  502  0.47480733903E+03  0.11834425551E+04  0.11097632455E+04  0.16904362874E+04  0.46999998093E+01 0.  1.
</event>
<event>
 5   0  0.9360689E-06  0.2887435E+04  0.7818609E-02  0.8276626E-01
       -2   -1    0    0    0  501  0.00000000000E+00  0.00000000000E+00  0.19587252621E+04  0.19587252621E+04  0.25500000920E-02 0.  1.
        2   -1    0    0  501    0  0.00000000000E+00  0.00000000000E+00 -0.10641207344E+04  0.10641207344E+04  0.25500000920E-02 0. -1.
    10030    2    1    2    0    0  0.00000000000E+00  0.00000000000E+00  0.89460452775E+03  0.30228459965E+04  0.28874349616E+04 0.  0.
        5    1    3    3  502    0  0.68217173228E+03  0.33055406521E+03  0.17336114526E+04  0.18921033325E+04  0.46999998093E+01 0.  1.
       -5    1    3    3    0  502 -0.68217173228E+03 -0.33055406521E+03 -0.83900692481E+03  0.11307426640E+04  0.46999998093E+01 0. -1.
</event>
<event>
 5   0  0.3564340E-06  0.2829913E+04  0.7818609E-02  0.8294041E-01
       -1   -1    0    0    0  501  0.00000000000E+00  0.00000000000E+00  0.21067705192E+04  0.21067705193E+04  0.50400001928E-02 0. -1.
        1   -1    0    0  501    0  0.00000000000E+00  0.00000000000E+00 -0.95031821775E+03  0.95031821776E+03  0.50400001928E-02 0.  1.
    10030    2    1    2    0    0  0.00000000000E+00  0.00000000000E+00  0.11564523015E+04  0.30570887370E+04  0.28299133592E+04 0.  0.
        1    1    3    3  502    0 -0.30983973156E+03 -0.91678569346E+03 -0.53692357238E+03  0.11066994125E+04  0.50400001928E-02 0.  1.
       -1    1    3    3    0  502  0.30983973156E+03  0.91678569346E+03  0.16933758739E+04  0.19503893245E+04  0.50400001928E-02 0. -1.
</event>
<event>
 5   0  0.1001573E-05  0.2924587E+04  0.7818609E-02  0.8265600E-01
        2   -1    0    0  501    0  0.00000000000E+00  0.00000000000E+00  0.18200119493E+04  0.18200119493E+04  0.25500000920E-02 0.  1.
       -2   -1    0    0    0  501  0.00000000000E+00  0.00000000000E+00 -0.11748835963E+04  0.11748835963E+04  0.25500000920E-02 0. -1.
    10030    2    1    2    0    0  0.00000000000E+00  0.00000000000E+00  0.64512835300E+03  0.29948955456E+04  0.29245869345E+04 0.  0.
        1    1    3    3  502    0  0.40232787445E+03 -0.96211205243E+03 -0.72715222300E+03  0.12713290980E+04  0.50400001928E-02 0. -1.
       -1    1    3    3    0  502 -0.40232787445E+03  0.96211205243E+03  0.13722805760E+04  0.17235664476E+04  0.50400001928E-02 0.  1.
</event>
<event>
 5   0  0.1001573E-05  0.2893263E+04  0.7818609E-02  0.8274885E-01
       -2   -1    0    0    0  501  0.00000000000E+00  0.00000000000E+00  0.19088177100E+04  0.19088177100E+04  0.25500000920E-02 0.  1.
        2   -1    0    0  501    0  0.00000000000E+00  0.00000000000E+00 -0.10963557400E+04  0.10963557400E+04  0.25500000920E-02 0. -1.
    10030    2    1    2    0    0  0.00000000000E+00  0.00000000000E+00  0.81246197002E+03  0.30051734500E+04  0.28932633845E+04 0.  0.
        1    1    3    3  502    0 -0.57937278980E+03 -0.16274545080E+03  0.17726313123E+04  0.18719991134E+04  0.50400001928E-02 0.  1.
       -1    1    3    3    0  502  0.57937278980E+03  0.16274545080E+03 -0.96016934225E+03  0.11331743366E+04  0.50400001928E-02 0. -1.
</event>
<event>
 5   0  0.3474078E-06  0.2894964E+04  0.7818609E-02  0.8274378E-01
       -1   -1    0    0    0  501  0.00000000000E+00  0.00000000000E+00  0.94418237668E+03  0.94418237669E+03  0.50400001928E-02 0.  1.
        1   -1    0    0  501    0  0.00000000000E+00  0.00000000000E+00 -0.22190665759E+04  0.22190665759E+04  0.50400001928E-02 0. -1.
    10030    2    1    2    0    0  0.00000000000E+00  0.00000000000E+00 -0.12748841992E+04  0.31632489526E+04  0.28949635947E+04 0.  0.
        3    1    3    3  502    0  0.11662852376E+03  0.11010075158E+04  0.38137454895E+03  0.11710108108E+04  0.10100000352E+00 0.  1.
       -3    1    3    3    0  502 -0.11662852376E+03 -0.11010075158E+04 -0.16562587482E+04  0.19922381417E+04  0.10100000352E+00 0. -1.
</event>
<event>
 5   0  0.9505359E-06  0.2884561E+04  0.7818609E-02  0.8277486E-01
       -2   -1    0    0    0  501  0.00000000000E+00  0.00000000000E+00  0.12384452672E+04  0.12384452672E+04  0.25500000920E-02 0.  1.
        2   -1    0    0  501    0  0.00000000000E+00  0.00000000000E+00 -0.16796646500E+04  0.16796646500E+04  0.25500000920E-02 0. -1.
    10030    2    1    2    0    0  0.00000000000E+00  0.00000000000E+00 -0.44121938285E+03  0.29181099172E+04  0.28845607890E+04 0.  0.
        4    1    3    3  502    0 -0.94267785437E+03 -0.10321406807E+04 -0.58000945209E+03  0.15133963457E+04  0.12699999809E+01 0.  1.
       -4    1    3    3    0  502  0.94267785437E+03  0.10321406807E+04  0.13879006924E+03  0.14047135715E+04  0.12699999809E+01 0. -1.
</event>
<event>
 5   0  0.3649705E-06  0.2911247E+04  0.7818609E-02  0.8269539E-01
       -1   -1    0    0    0  501  0.00000000000E+00  0.00000000000E+00  0.96631322556E+03  0.96631322557E+03  0.50400001928E-02 0. -1.
        1   -1    0    0  501    0  0.00000000000E+00  0.00000000000E+00 -0.21927053411E+04  0.21927053411E+04  0.50400001928E-02 0.  1.
    10030    2    1    2    0    0  0.00000000000E+00  0.00000000000E+00 -0.12263921155E+04  0.31590185667E+04  0.29112472728E+04 0.  0.
        2    1    3    3  502    0 -0.11770493799E+04  0.27467933205E+03  0.26697740978E+03  0.12378089172E+04  0.25500000920E-02 0. -1.
       -2    1    3    3    0  502  0.11770493799E+04 -0.27467933205E+03 -0.14933695253E+04  0.19212096495E+04  0.25500000920E-02 0.  1.
</event>
<event>
 5   0  0.9251510E-06  0.2897418E+04  0.7818609E-02  0.8273646E-01
       -2   -1    0    0    0  501  0.00000000000E+00  0.00000000000E+00  0.21214906595E+04  0.21214906595E+04  0.25500000920E-02 0. -1.
        2   -1    0    0  501    0  0.00000000000E+00  0.00000000000E+00 -0.98928451534E+03  0.98928451534E+03  0.25500000920E-02 0.  1.
    10030    2    1    2    0    0  0.00000000000E+00  0.00000000000E+00  0.11322061442E+04  0.31107751748E+04  0.28974180636E+04 0.  0.
        2    1    3    3  502    0 -0.81626603872E+03 -0.64302636142E+03  0.16498834784E+04  0.19498432346E+04  0.25500000920E-02 0. -1.
       -2    1    3    3    0  502  0.81626603872E+03  0.64302636142E+03 -0.51767733421E+03  0.11609319402E+04  0.25500000920E-02 0.  1.
</event>
<event>
 5   0  0.3564340E-06  0.2537609E+04  0.7818609E-02  0.8389708E-01
       -1   -1    0    0    0  501  0.00000000000E+00  0.00000000000E+00  0.93412444628E+03  0.93412444629E+03  0.50400001928E-02 0. -1.
        1   -1    0    0  501    0  0.00000000000E+00  0.00000000000E+00 -0.17233939876E+04  0.17233939876E+04  0.50400001928E-02 0.  1.
    10030    2    1    2    0    0  0.00000000000E+00  0.00000000000E+00 -0.78926954132E+03  0.26575184339E+04  0.25376086810E+04 0.  0.
        1    1    3    3  502    0 -0.32491157050E+03 -0.11907274839E+04 -0.86690754548E+02  0.12373014008E+04  0.50400001928E-02 0. -1.
       -1    1    3    3    0  502  0.32491157050E+03  0.11907274839E+04 -0.70257878677E+03  0.14202170331E+04  0.50400001928E-02 0.  1.
</event>
<event>
 5   0  0.9251510E-06  0.2918666E+04  0.7818609E-02  0.8267345E-01
       -2   -1    0    0    0  501  0.00000000000E+00  0.00000000000E+00  0.94194251480E+03  0.94194251480E+03  0.25500000920E-02 0. -1.
        2   -1    0    0  501    0  0.00000000000E+00  0.00000000000E+00 -0.22609165190E+04  0.22609165190E+04  0.25500000920E-02 0.  1.
    10030    2    1    2    0    0  0.00000000000E+00  0.00000000000E+00 -0.13189740042E+04  0.32028590338E+04  0.29186664021E+04 0.  0.
        2    1    3    3  502    0 -0.66521119614E+03 -0.61412313747E+03 -0.19154853019E+04  0.21186639906E+04  0.25500000920E-02 0.  1.
       -2    1    3    3    0  502  0.66521119614E+03  0.61412313747E+03  0.59651129766E+03  0.10841950432E+04  0.25500000920E-02 0. -1.
</event>
<event>
 5   0  0.9360689E-06  0.2914208E+04  0.7818609E-02  0.8268663E-01
        2   -1    0    0  501    0  0.00000000000E+00  0.00000000000E+00  0.14554590257E+04  0.14554590257E+04  0.25500000920E-02 0.  1.
       -2   -1    0    0    0  501  0.00000000000E+00  0.00000000000E+00 -0.14587503882E+04  0.14587503882E+04  0.25500000920E-02 0. -1.
    10030    2    1    2    0    0  0.00000000000E+00  0.00000000000E+00 -0.32913624670E+01  0.29142094139E+04  0.29142075552E+04 0.  0.
        5    1    3    3  502    0 -0.34609638988E+03 -0.10768477665E+03 -0.14129405290E+04  0.14586986497E+04  0.46999998093E+01 0. -1.
       -5    1    3    3    0  502  0.34609638988E+03  0.10768477665E+03  0.14096491665E+04  0.14555107642E+04  0.46999998093E+01 0.  1.
</event>
<event>
 5   0  0.9360689E-06  0.2738556E+04  0.7818609E-02  0.8322602E-01
        2   -1    0    0  501    0  0.00000000000E+00  0.00000000000E+00  0.15456165030E+04  0.15456165030E+04  0.25500000920E-02 0. -1.
       -2   -1    0    0    0  501  0.00000000000E+00  0.00000000000E+00 -0.12130579512E+04  0.12130579512E+04  0.25500000920E-02 0.  1.
    10030    2    1    2    0    0  0.00000000000E+00  0.00000000000E+00  0.33255855174E+03  0.27586744542E+04  0.27385561075E+04 0.  0.
        5    1    3    3  502    0 -0.56604706767E+03  0.17212005699E+03 -0.10776469039E+04  0.12293817700E+04  0.46999998093E+01 0.  1.
       -5    1    3    3    0  502  0.56604706767E+03 -0.17212005699E+03  0.14102054557E+04  0.15292926842E+04  0.46999998093E+01 0. -1.
</event>
<event>
 5   0  0.9360689E-06  0.2942736E+04  0.7818609E-02  0.8260275E-01
        2   -1    0    0  501    0  0.00000000000E+00  0.00000000000E+00  0.19213106109E+04  0.19213106109E+04  0.25500000920E-02 0.  1.
       -2   -1    0    0    0  501  0.00000000000E+00  0.00000000000E+00 -0.11267949543E+04  0.11267949544E+04  0.25500000920E-02 0. -1.
    10030    2    1    2    0    0  0.00000000000E+00  0.00000000000E+00  0.79451565656E+03  0.30481055653E+04  0.29427355315E+04 0.  0.
        5    1    3    3  502    0  0.50154143111E+03 -0.10919251331E+04 -0.48229814376E+03  0.12947887445E+04  0.46999998093E+01 0. -1.
       -5    1    3    3    0  502 -0.50154143111E+03  0.10919251331E+04  0.12768138003E+04  0.17533168208E+04  0.46999998093E+01 0.  1.
</event>
<event>
 5   0  0.3564340E-06  0.2794222E+04  0.7818609E-02  0.8305064E-01
        1   -1    0    0  501    0  0.00000000000E+00  0.00000000000E+00  0.16585649601E+04  0.16585649601E+04  0.50400001928E-02 0. -1.
       -1   -1    0    0    0  501  0.00000000000E+00  0.00000000000E+00 -0.11768726439E+04  0.11768726439E+04  0.50400001928E-02 0.  1.
    10030    2    1    2    0    0  0.00000000000E+00  0.00000000000E+00  0.48169231620E+03  0.28354376041E+04  0.27942224176E+04 0.  0.
        1    1    3    3  502    0 -0.13455672121E+04 -0.19823024056E+03 -0.83355601940E+02  0.13626424722E+04  0.50400001928E-02 0.  1.
       -1    1    3    3    0  502  0.13455672121E+04  0.19823024056E+03  0.56504791814E+03  0.14727951319E+04  0.50400001928E-02 0. -1.
</event>
<event>
 5   0  0.3474078E-06  0.2916824E+04  0.7818609E-02  0.8267889E-01
        1   -1    0    0  501    0  0.00000000000E+00  0.00000000000E+00  0.18862364164E+04  0.18862364164E+04  0.50400001928E-02 0. -1.
       -1   -1    0    0    0  501  0.00000000000E+00  0.00000000000E+00 -0.11276242267E+04  0.11276242267E+04  0.50400001928E-02 0.  1.
    10030    2    1    2    0    0  0.00000000000E+00  0.00000000000E+00  0.75861218972E+03  0.30138606431E+04  0.29168242185E+04 0.  0.
        3    1    3    3  502    0  0.70520776298E+02 -0.83019114734E+02  0.18820273027E+04  0.18851769497E+04  0.10100000352E+00 0. -1.
       -3    1    3    3    0  502 -0.70520776298E+02  0.83019114734E+02 -0.11234151130E+04  0.11286836933E+04  0.10100000352E+00 0.  1.
</event>
<event>
 5   0  0.3474078E-06  0.2965495E+04  0.7818609E-02  0.8253653E-01
        1   -1    0    0  501    0  0.00000000000E+00  0.00000000000E+00  0.28224312674E+04  0.28224312674E+04  0.50400001928E-02 0. -1.
       -1   -1    0    0    0  501  0.00000000000E+00  0.00000000000E+00 -0.77895278553E+03  0.77895278555E+03  0.50400001928E-02 0.  1.
    10030    2    1    2    0    0  0.00000000000E+00  0.00000000000E+00  0.20434784818E+04  0.36013840529E+04  0.29654953702E+04 0.  0.
        3    1    3    3  502    0  0.91923024935E+03  0.78634394404E+03 -0.19572430446E+02  0.12098364104E+04  0.10100000352E+00 0.  1.
       -3    1    3    3    0  502 -0.91923024935E+03 -0.78634394404E+03  0.20630509123E+04  0.23915476425E+04  0.10100000352E+00 0. -1.
</event>
<event>
 5   0  0.1001573E-05  0.2890157E+04  0.7818609E-02  0.8275812E-01
        2   -1    0    0  501    0  0.00000000000E+00  0.00000000000E+00  0.14153223935E+04  0.14153223935E+04  0.25500000920E-02 0. -1.
       -2   -1    0    0    0  501  0.00000000000E+00  0.00000000000E+00 -0.14754602533E+04  0.14754602533E+04  0.25500000920E-02 0.  1.
    10030    2    1    2    0    0  0.00000000000E+00  0.00000000000E+00 -0.60137859875E+02  0.28907826468E+04  0.28901570457E+04 0.  0.
        1    1    3    3  502    0 -0.10037765745E+04  0.96978662928E+03 -0.40458077261E+03  0.14531824110E+04  0.50400001928E-02 0.  1.
       -1    1    3    3    0  502  0.10037765745E+04 -0.96978662928E+03  0.34444291274E+03  0.14376002358E+04  0.50400001928E-02 0. -1.
</event>
<event>
 5   0  0.3486236E-06  0.2834038E+04  0.7818609E-02  0.8292778E-01
        1   -1    0    0  501    0  0.00000000000E+00  0.00000000000E+00  0.13770049790E+04  0.13770049790E+04  0.50400001928E-02 0.  1.
       -1   -1    0    0    0  501  0.00000000000E+00  0.00000000000E+00 -0.14581962839E+04  0.14581962839E+04  0.50400001928E-02 0. -1.
    10030    2    1    2    0    0  0.00000000000E+00  0.00000000000E+00 -0.81191304913E+02  0.28352012629E+04  0.28340384918E+04 0.  0.
        5    1    3    3  502    0  0.81307942004E+03  0.63270688612E+03 -0.10138798579E+04  0.14454724498E+04  0.46999998093E+01 0. -1.
       -5    1    3    3    0  502 -0.81307942004E+03 -0.63270688612E+03  0.93268855295E+03  0.13897288131E+04  0.46999998093E+01 0.  1.
</event>
<event>
 5   0  0.1001573E-05  0.2890239E+04  0.7818609E-02  0.8275787E-01
        2   -1    0    0  501    0  0.00000000000E+00  0.00000000000E+00  0.23895926709E+04  0.23895926709E+04  0.25500000920E-02 0.  1.
       -2   -1    0    0    0  501  0.00000000000E+00  0.00000000000E+00 -0.87394435979E+03  0.87394435980E+03  0.25500000920E-02 0. -1.
    10030    2    1    2    0    0  0.00000000000E+00  0.00000000000E+00  0.15156483111E+04  0.32635370307E+04  0.28902394620E+04 0.  0.
        1    1    3    3  502    0 -0.17420036328E+03  0.15881176615E+03 -0.85208912052E+03  0.88409434620E+03  0.50400001928E-02 0. -1.
       -1    1    3    3    0  502  0.17420036328E+03 -0.15881176615E+03  0.23677374316E+04  0.23794426845E+04  0.50400001928E-02 0.  1.
</event>
<event>
 5   0  0.9646321E-06  0.3013251E+04  0.7818609E-02  0.8239957E-01
        2   -1    0    0  501    0  0.00000000000E+00  0.00000000000E+00  0.20418350710E+04  0.20418350710E+04  0.25500000920E-02 0. -1.
       -2   -1    0    0    0  501  0.00000000000E+00  0.00000000000E+00 -0.11117061827E+04  0.11117061827E+04  0.25500000920E-02 0.  1.
    10030    2    1    2    0    0  0.00000000000E+00  0.00000000000E+00  0.93012888832E+03  0.31535412537E+04  0.30132511827E+04 0.  0.
        3    1    3    3  502    0  0.11185118271E+04  0.10085377448E+04  0.50826043641E+03  0.15895111738E+04  0.10100000352E+00 0.  1.
       -3    1    3    3    0  502 -0.11185118271E+04 -0.10085377448E+04  0.42186845191E+03  0.15640300800E+04  0.10100000352E+00 0. -1.
</event>
<event>
 5   0  0.9251510E-06  0.2760562E+04  0.7818609E-02  0.8315618E-01
        2   -1    0    0  501    0  0.00000000000E+00  0.00000000000E+00  0.19908324529E+04  0.19908324529E+04  0.25500000920E-02 0.  1.
       -2   -1    0    0    0  501  0.00000000000E+00  0.00000000000E+00 -0.95697443119E+03  0.95697443119E+03  0.25500000920E-02 0. -1.
    10030    2    1    2    0    0  0.00000000000E+00  0.00000000000E+00  0.10338580217E+04  0.29478068841E+04  0.27605620835E+04 0.  0.
        2    1    3    3  502    0  0.97744480740E+03  0.57281758102E+03 -0.32500309594E+03  0.11786201021E+04  0.25500000920E-02 0. -1.
       -2    1    3    3    0  502 -0.97744480740E+03 -0.57281758102E+03  0.13588611177E+04  0.17691867821E+04  0.25500000920E-02 0.  1.
</event>
<event>
 5   0  0.3649705E-06  0.2872448E+04  0.7818609E-02  0.8281123E-01
        1   -1    0    0  501    0  0.00000000000E+00  0.00000000000E+00  0.20073756232E+04  0.20073756232E+04  0.50400001928E-02 0. -1.
       -1   -1    0    0    0  501  0.00000000000E+00  0.00000000000E+00 -0.10275798403E+04  0.10275798403E+04  0.50400001928E-02 0.  1.
    10030    2    1    2    0    0  0.00000000000E+00  0.00000000000E+00  0.97979578286E+03  0.30349554635E+04  0.28724475433E+04 0.  0.
        2    1    3    3  502    0  0.13140612947E+03 -0.81554142281E+03 -0.75145975654E+03  0.11167216076E+04  0.25500000920E-02 0.  1.
       -2    1    3    3    0  502 -0.13140612947E+03  0.81554142281E+03  0.17312555394E+04  0.19182338559E+04  0.25500000920E-02 0. -1.
</event>
<event>
 5   0  0.9360689E-06  0.2882437E+04  0.7818609E-02  0.8278122E-01
        2   -1    0    0  501    0  0.00000000000E+00  0.00000000000E+00  0.13443502354E+04  0.13443502354E+04  0.25500000920E-02 0.  1.
       -2   -1    0    0    0  501  0.00000000000E+00  0.00000000000E+00 -0.15450664766E+04  0.15450664766E+04  0.25500000920E-02 0. -1.
    10030    2    1    2    0    0  0.00000000000E+00  0.00000000000E+00 -0.20071624124E+03  0.28894167120E+04  0.28824368035E+04 0.  0.
        5    1    3    3  502    0 -0.62721126256E+03 -0.12479230782E+04 -0.45672202656E+03  0.14694635336E+04  0.46999998093E+01 0. -1.
       -5    1    3    3    0  502  0.62721126256E+03  0.12479230782E+04  0.25600578532E+03  0.14199531785E+04  0.46999998093E+01 0.  1.
</event>
<event>
 5   0  0.3188375E-06  0.2852750E+04  0.7818609E-02  0.8287076E-01
        3   -1    0    0  501    0  0.00000000000E+00  0.00000000000E+00  0.27750471843E+04  0.27750471861E+04  0.10100000352E+00 0.  1.
       -3   -1    0    0    0  501  0.00000000000E+00  0.00000000000E+00 -0.73315719913E+03  0.73315720608E+03  0.10100000352E+00 0. -1.
    10030    2    1    2    0    0  0.00000000000E+00  0.00000000000E+00  0.20418899852E+04  0.35082043922E+04  0.28527501373E+04 0.  0.
        3    1    3    3  502    0 -0.95942114586E+03 -0.31003229292E+03  0.22616872540E+04  0.24762548744E+04  0.10100000352E+00 0.  1.
       -3    1    3    3    0  502  0.95942114586E+03  0.31003229292E+03 -0.21979726883E+03  0.10319495178E+04  0.10100000352E+00 0. -1.
</event>
<event>
 5   0  0.9360689E-06  0.2881120E+04  0.7818609E-02  0.8278517E-01
        2   -1    0    0  501    0  0.00000000000E+00  0.00000000000E+00  0.14436426011E+04  0.14436426011E+04  0.25500000920E-02 0. -1.
       -2   -1    0    0    0  501  0.00000000000E+00  0.00000000000E+00 -0.14374842981E+04  0.14374842981E+04  0.25500000920E-02 0.  1.
    10030    2    1    2    0    0  0.00000000000E+00  0.00000000000E+00  0.61583030121E+01  0.28811268992E+04  0.28811203176E+04 0.  0.
        5    1    3    3  502    0  0.42043619970E+03 -0.45108480888E+03  0.13049835728E+04  0.14433462225E+04  0.46999998093E+01 0. -1.
       -5    1    3    3    0  502 -0.42043619970E+03  0.45108480888E+03 -0.12988252698E+04  0.14377806767E+04  0.46999998093E+01 0.  1.
</event>
<event>
 5   0  0.1001573E-05  0.2867379E+04  0.7818609E-02  0.8282650E-01
        2   -1    0    0  501    0  0.00000000000E+00  0.00000000000E+00  0.18065808017E+04  0.18065808017E+04  0.25500000920E-02 0. -1.
       -2   -1    0    0    0  501  0.00000000000E+00  0.00000000000E+00 -0.11377654520E+04  0.11377654520E+04  0.25500000920E-02 0.  1.
    10030    2    1    2    0    0  0.00000000000E+00  0.00000000000E+00  0.66881534975E+03  0.29443462537E+04  0.28673787489E+04 0.  0.
        1    1    3    3  502    0 -0.63015376864E+03  0.10951947014E+04 -0.36121274066E+03  0.13141612725E+04  0.50400001928E-02 0.  1.
       -1    1    3    3    0  502  0.63015376864E+03 -0.10951947014E+04  0.10300280904E+04  0.16301849812E+04  0.50400001928E-02 0. -1.
</event>
<event>
 5   0  0.9505359E-06  0.2519007E+04  0.7818609E-02  0.8396245E-01
        2   -1    0    0  501    0  0.00000000000E+00  0.00000000000E+00  0.21942070717E+04  0.21942070717E+04  0.25500000920E-02 0.  1.
       -2   -1    0    0    0  501  0.00000000000E+00  0.00000000000E+00 -0.72297162989E+03  0.72297162989E+03  0.25500000920E-02 0. -1.
    10030    2    1    2    0    0  0.00000000000E+00  0.00000000000E+00  0.14712354418E+04  0.29171787016E+04  0.25190073148E+04 0.  0.
        4    1    3    3  502    0  0.24362069238E+03  0.10237066749E+04  0.15371316737E+04  0.18628209235E+04  0.12699999809E+01 0.  1.
       -4    1    3    3    0  502 -0.24362069238E+03 -0.10237066749E+04 -0.65896231815E+02  0.10543577781E+04  0.12699999809E+01 0. -1.
</event>
<event>
 5   0  0.3649705E-06  0.2821567E+04  0.7818609E-02  0.8296604E-01
        1   -1    0    0  501    0  0.00000000000E+00  0.00000000000E+00  0.14067383785E+04  0.14067383785E+04  0.50400001928E-02 0. -1.
       -1   -1    0    0    0  501  0.00000000000E+00  0.00000000000E+00 -0.14148404857E+04  0.14148404857E+04  0.50400001928E-02 0.  1.
    10030    2    1    2    0    0  0.00000000000E+00  0.00000000000E+00 -0.81021071483E+01  0.28215788642E+04  0.28215672317E+04 0.  0.
        2    1    3    3  502    0 -0.70531547884E+03 -0.12084264420E+04 -0.18445695347E+03  0.14113074640E+04  0.25500000920E-02 0. -1.
       -2    1    3    3    0  502  0.70531547884E+03  0.12084264420E+04  0.17635484632E+03  0.14102714002E+04  0.25500000920E-02 0.  1.
</event>
<event>
 5   0  0.3649705E-06  0.2712881E+04  0.7818609E-02  0.8330838E-01
        1   -1    0    0  501    0  0.00000000000E+00  0.00000000000E+00  0.14058954152E+04  0.14058954152E+04  0.50400001928E-02 0.  1.
       -1   -1    0    0    0  501  0.00000000000E+00  0.00000000000E+00 -0.13087247724E+04  0.13087247724E+04  0.50400001928E-02 0. -1.
    10030    2    1    2    0    0  0.00000000000E+00  0.00000000000E+00  0.97170642726E+02  0.27146201876E+04  0.27128805040E+04 0.  0.
        2    1    3    3  502    0  0.10821806274E+04 -0.59537770848E+03 -0.51243510053E+03  0.13372281998E+04  0.25500000920E-02 0. -1.
       -2    1    3    3    0  502 -0.10821806274E+04  0.59537770848E+03  0.60960574326E+03  0.13773919879E+04  0.25500000920E-02 0.  1.
</event>
<event>
 5   0  0.9360689E-06  0.2904142E+04  0.7818609E-02  0.8271646E-01
        2   -1    0    0  501    0  0.00000000000E+00  0.00000000000E+00  0.13075999917E+04  0.13075999917E+04  0.25500000920E-02 0. -1.
       -2   -1    0    0    0  501  0.00000000000E+00  0.00000000000E+00 -0.16125038780E+04  0.16125038780E+04  0.25500000920E-02 0.  1.
    10030    2    1    2    0    0  0.00000000000E+00  0.00000000000E+00 -0.30490388628E+03  0.29201038697E+04  0.29041419094E+04 0.  0.
        5    1    3    3  502    0 -0.43549082568E+03  0.62261032348E+03 -0.13966665759E+04  0.15899671344E+04  0.46999998093E+01 0.  1.
       -5    1    3    3    0  502  0.43549082568E+03 -0.62261032348E+03  0.10917626897E+04  0.13301367353E+04  0.46999998093E+01 0. -1.
</event>
<event>
 5   0  0.9646321E-06  0.2957909E+04  0.7818609E-02  0.8255853E-01
       -2   -1    0    0    0  501  0.00000000000E+00  0.00000000000E+00  0.10104065761E+04  0.10104065761E+04  0.25500000920E-02 0. -1.
        2   -1    0    0  501    0  0.00000000000E+00  0.00000000000E+00 -0.21647790012E+04  0.21647790012E+04  0.25500000920E-02 0.  1.
    10030    2    1    2    0    0  0.00000000000E+00  0.00000000000E+00 -0.11543724252E+04  0.31751855773E+04  0.29579093553E+04 0.  0.
        3    1    3    3  502    0  0.10582610613E+04 -0.20529548958E+03  0.50973462865E+03  0.11924311778E+04  0.10100000352E+00 0. -1.
       -3    1    3    3    0  502 -0.10582610613E+04  0.20529548958E+03 -0.16641070538E+04  0.19827543995E+04  0.10100000352E+00 0.  1.
</event>
<event>
 5   0  0.3649705E-06  0.2886941E+04  0.7818609E-02  0.8276774E-01
        1   -1    0    0  501    0  0.00000000000E+00  0.00000000000E+00  0.12058448071E+04  0.12058448071E+04  0.50400001928E-02 0. -1.
       -1   -1    0    0    0  501  0.00000000000E+00  0.00000000000E+00 -0.17279227213E+04  0.17279227213E+04  0.50400001928E-02 0.  1.
    10030    2    1    2    0    0  0.00000000000E+00  0.00000000000E+00 -0.52207791417E+03  0.29337675283E+04  0.28869406925E+04 0.  0.
        2    1    3    3  502    0 -0.70819262049E+03 -0.57042683596E+02 -0.15379292714E+04  0.16941124813E+04  0.25500000920E-02 0.  1.
       -2    1    3    3    0  502  0.70819262049E+03  0.57042683596E+02  0.10158513573E+04  0.12396550470E+04  0.25500000920E-02 0. -1.
</event>
<event>
 5   0  0.9251510E-06  0.2817248E+04  0.7818609E-02  0.8297933E-01
        2   -1    0    0  501    0  0.00000000000E+00  0.00000000000E+00  0.21221064556E+04  0.21221064556E+04  0.25500000920E-02 0.  1.
       -2   -1    0    0    0  501  0.00000000000E+00  0.00000000000E+00 -0.93502458581E+03  0.93502458581E+03  0.25500000920E-02 0. -1.
    10030    2    1    2    0    0  0.00000000000E+00  0.00000000000E+00  0.11870818698E+04  0.30571310414E+04  0.28172480968E+04 0.  0.
        2    1    3    3  502    0  0.12032269366E+04 -0.72566122713E+03  0.70141595317E+03  0.15704533157E+04  0.25500000920E-02 0. -1.
       -2    1    3    3    0  502 -0.12032269366E+04  0.72566122713E+03  0.48566591664E+03  0.14866777257E+04  0.25500000920E-02 0.  1.
</event>
<event>
 5   0  0.3746518E-06  0.2728245E+04  0.7818609E-02  0.8325898E-01
        1   -1    0    0  501    0  0.00000000000E+00  0.00000000000E+00  0.17525541801E+04  0.17525541801E+04  0.50400001928E-02 0.  1.
       -1   -1    0    0    0  501  0.00000000000E+00  0.00000000000E+00 -0.10617816670E+04  0.10617816671E+04  0.50400001928E-02 0. -1.
    10030    2    1    2    0    0  0.00000000000E+00  0.00000000000E+00  0.69077251302E+03  0.28143358471E+04  0.27282447829E+04 0.  0.
        4    1    3    3  502    0 -0.96030567837E+03  0.34847862893E+03 -0.58713301071E+03  0.11782831306E+04  0.12699999809E+01 0. -1.
       -4    1    3    3    0  502  0.96030567837E+03 -0.34847862893E+03  0.12779055237E+04  0.16360527165E+04  0.12699999809E+01 0.  1.
</event>
<event>
 5   0  0.3474078E-06  0.2891135E+04  0.7818609E-02  0.8275520E-01
       -1   -1    0    0    0  501  0.00000000000E+00  0.00000000000E+00  0.13679634857E+04  0.13679634857E+04  0.50400001928E-02 0. -1.
        1   -1    0    0  501    0  0.00000000000E+00  0.00000000000E+00 -0.15275737616E+04  0.15275737616E+04  0.50400001928E-02 0.  1.
    10030    2    1    2    0    0  0.00000000000E+00  0.00000000000E+00 -0.15961027584E+03  0.28955372473E+04  0.28911348136E+04 0.  0.
        3    1    3    3  502    0 -0.15604664772E+03 -0.42595962973E+02  0.13588710799E+04  0.13684646851E+04  0.10100000352E+00 0. -1.
       -3    1    3    3    0  502  0.15604664772E+03  0.42595962973E+02 -0.15184813558E+04  0.15270725622E+04  0.10100000352E+00 0.  1.
</event>
<event>
 5   0  0.1001573E-05  0.3085537E+04  0.7818609E-02  0.8219718E-01
        2   -1    0    0  501    0  0.00000000000E+00  0.00000000000E+00  0.20792585691E+04  0.20792585691E+04  0.25500000920E-02 0. -1.
       -2   -1    0    0    0  501  0.00000000000E+00  0.00000000000E+00 -0.11447037011E+04  0.11447037011E+04  0.25500000920E-02 0.  1.
    10030    2    1    2    0    0  0.00000000000E+00  0.00000000000E+00  0.93455486799E+03  0.32239622701E+04  0.30855372171E+04 0.  0.
        1    1    3    3  502    0  0.13780172954E+03 -0.61255311096E+03 -0.10051724149E+04  0.11851507137E+04  0.50400001928E-02 0.  1.
       -1    1    3    3    0  502 -0.13780172954E+03  0.61255311096E+03  0.19397272829E+04  0.20388115564E+04  0.50400001928E-02 0. -1.
</event>
<event>
 5   0  0.3649705E-06  0.2949812E+04  0.7818609E-02  0.8258209E-01
       -1   -1    0    0    0  501  0.00000000000E+00  0.00000000000E+00  0.10420912082E+04  0.10420912082E+04  0.50400001928E-02 0. -1.
        1   -1    0    0  501    0  0.00000000000E+00  0.00000000000E+00 -0.20874833160E+04  0.20874833160E+04  0.50400001928E-02 0.  1.
    10030    2    1    2    0    0  0.00000000000E+00  0.00000000000E+00 -0.10453921078E+04  0.31295745242E+04  0.29498122048E+04 0.  0.
        2    1    3    3  502    0  0.10785133456E+04  0.53772926429E+03  0.37941778153E+03  0.12634483176E+04  0.25500000920E-02 0. -1.
       -2    1    3    3    0  502 -0.10785133456E+04 -0.53772926429E+03 -0.14248098894E+04  0.18661262066E+04  0.25500000920E-02 0.  1.
</event>
<event>
 5   0  0.1001573E-05  0.2911188E+04  0.7818609E-02  0.8269556E-01
       -2   -1    0    0    0  501  0.00000000000E+00  0.00000000000E+00  0.13998203113E+04  0.13998203113E+04  0.25500000920E-02 0.  1.
        2   -1    0    0  501    0  0.00000000000E+00  0.00000000000E+00 -0.15135898868E+04  0.15135898868E+04  0.25500000920E-02 0. -1.
    10030    2    1    2    0    0  0.00000000000E+00  0.00000000000E+00 -0.11376957550E+03  0.29134101981E+04  0.29111879819E+04 0.  0.
        1    1    3    3  502    0  0.10043128158E+04 -0.10673402719E+03 -0.11058821684E+04  0.14976687734E+04  0.50400001928E-02 0. -1.
       -1    1    3    3    0  502 -0.10043128158E+04  0.10673402719E+03  0.99211259288E+03  0.14157414247E+04  0.50400001928E-02 0.  1.
</event>
<event>
 5   0  0.9646321E-06  0.2729588E+04  0.7818609E-02  0.8325468E-01
       -2   -1    0    0    0  501  0.00000000000E+00  0.00000000000E+00  0.15386725667E+04  0.15386725667E+04  0.25500000920E-02 0. -1.
        2   -1    0    0  501    0  0.00000000000E+00  0.00000000000E+00 -0.12105650762E+04  0.12105650762E+04  0.25500000920E-02 0.  1.
    10030    2    1    2    0    0  0.00000000000E+00  0.00000000000E+00  0.32810749043E+03  0.27492376429E+04  0.27295884473E+04 0.  0.
        3    1    3    3  502    0  0.14878780380E+03  0.32612798322E+02  0.15300845836E+04  0.15376476347E+04  0.10100000352E+00 0. -1.
       -3    1    3    3    0  502 -0.14878780380E+03 -0.32612798322E+02 -0.12019770932E+04  0.12115900082E+04  0.10100000352E+00 0.  1.
</event>
<event>
 5   0  0.3564340E-06  0.2893771E+04  0.7818609E-02  0.8274733E-01
        1   -1    0    0  501    0  0.00000000000E+00  0.00000000000E+00  0.10803512766E+04  0.10803512766E+04  0.50400001928E-02 0.  1.
       -1   -1    0    0    0  501  0.00000000000E+00  0.00000000000E+00 -0.19377752517E+04  0.19377752517E+04  0.50400001928E-02 0. -1.
    10030    2    1    2    0    0  0.00000000000E+00  0.00000000000E+00 -0.85742397518E+03  0.30181265283E+04  0.28937712189E+04 0.  0.
        1    1    3    3  502    0  0.39386668643E+02  0.10486653856E+04 -0.14676243019E+04  0.18042093815E+04  0.50400001928E-02 0. -1.
       -1    1    3    3    0  502 -0.39386668643E+02 -0.10486653856E+04  0.61020032668E+03  0.12139171468E+04  0.50400001928E-02 0.  1.
</event>
<event>
 5   0  0.3564340E-06  0.2890593E+04  0.7818609E-02  0.8275682E-01
        1   -1    0    0  501    0  0.00000000000E+00  0.00000000000E+00  0.19015584897E+04  0.19015584897E+04  0.50400001928E-02 0. -1.
       -1   -1    0    0    0  501  0.00000000000E+00  0.00000000000E+00 -0.10985101269E+04  0.10985101269E+04  0.50400001928E-02 0.  1.
    10030    2    1    2    0    0  0.00000000000E+00  0.00000000000E+00  0.80304836281E+03  0.30000686166E+04  0.28905925053E+04 0.  0.
        1    1    3    3  502    0 -0.93352418379E+03  0.10244794211E+04  0.82674297922E+03  0.16138554581E+04  0.50400001928E-02 0. -1.
       -1    1    3    3    0  502  0.93352418379E+03 -0.10244794211E+04 -0.23694616408E+02  0.13862131585E+04  0.50400001928E-02 0.  1.
</event>
<event>
 5   0  0.1001573E-05  0.2500808E+04  0.7818609E-02  0.8402698E-01
       -2   -1    0    0    0  501  0.00000000000E+00  0.00000000000E+00  0.16745521025E+04  0.16745521025E+04  0.25500000920E-02 0. -1.
        2   -1    0    0  501    0  0.00000000000E+00  0.00000000000E+00 -0.93368832696E+03  0.93368832696E+03  0.25500000920E-02 0.  1.
    10030    2    1    2    0    0  0.00000000000E+00  0.00000000000E+00  0.74086377555E+03  0.26082404295E+04  0.25008076703E+04 0.  0.
        1    1    3    3  502    0  0.70960828458E+03  0.99393479317E+03  0.90461027038E+02  0.12245952344E+04  0.50400001928E-02 0. -1.
       -1    1    3    3    0  502 -0.70960828458E+03 -0.99393479317E+03  0.65040274851E+03  0.13836451951E+04  0.50400001928E-02 0.  1.
</event>
<event>
 5   0  0.3649705E-06  0.2841648E+04  0.7818609E-02  0.8290454E-01
        1   -1    0    0  501    0  0.00000000000E+00  0.00000000000E+00  0.95857016325E+03  0.95857016327E+03  0.50400001928E-02 0.  1.
       -1   -1    0    0    0  501  0.00000000000E+00  0.00000000000E+00 -0.21059910502E+04  0.21059910502E+04  0.50400001928E-02 0. -1.
    10030    2    1    2    0    0  0.00000000000E+00  0.00000000000E+00 -0.11474208869E+04  0.30645612134E+04  0.28416475396E+04 0.  0.
        2    1    3    3  502    0 -0.10310635642E+04 -0.21436955922E+02 -0.16277153899E+04  0.19269169694E+04  0.25500000920E-02 0. -1.
       -2    1    3    3    0  502  0.10310635642E+04  0.21436955922E+02  0.48029450297E+03  0.11376442441E+04  0.25500000920E-02 0.  1.
</event>
<event>
 5   0  0.3564340E-06  0.2859147E+04  0.7818609E-02  0.8285137E-01
        1   -1    0    0  501    0  0.00000000000E+00  0.00000000000E+00  0.13613358307E+04  0.13613358307E+04  0.50400001928E-02 0.  1.
       -1   -1    0    0    0  501  0.00000000000E+00  0.00000000000E+00 -0.15012312647E+04  0.15012312647E+04  0.50400001928E-02 0. -1.
    10030    2    1    2    0    0  0.00000000000E+00  0.00000000000E+00 -0.13989543397E+03  0.28625670954E+04  0.28591466635E+04 0.  0.
        1    1    3    3  502    0  0.90544857185E+03  0.43276329249E+03 -0.10892809826E+04  0.14810989982E+04  0.50400001928E-02 0. -1.
       -1    1    3    3    0  502 -0.90544857185E+03 -0.43276329249E+03  0.94938554858E+03  0.13814680972E+04  0.50400001928E-02 0.  1.
</event>
<event>
 5   0  0.9646321E-06  0.2976356E+04  0.7818609E-02  0.8250515E-01
        2   -1    0    0  501    0  0.00000000000E+00  0.00000000000E+00  0.13124173705E+04  0.13124173705E+04  0.25500000920E-02 0. -1.
       -2   -1    0    0    0  501  0.00000000000E+00  0.00000000000E+00 -0.16874771134E+04  0.16874771134E+04  0.25500000920E-02 0.  1.
    10030    2    1    2    0    0  0.00000000000E+00  0.00000000000E+00 -0.37505974289E+03  0.29998944839E+04  0.29763563469E+04 0.  0.
        3    1    3    3  502    0  0.70048976080E+03  0.12480623934E+04  0.22352949570E+03  0.14485548275E+04  0.10100000352E+00 0.  1.
       -3    1    3    3    0  502 -0.70048976080E+03 -0.12480623934E+04 -0.59858923859E+03  0.15513396564E+04  0.10100000352E+00 0. -1.
</event>
<event>
 5   0  0.3746518E-06  0.2794224E+04  0.7818609E-02  0.8305064E-01
        1   -1    0    0  501    0  0.00000000000E+00  0.00000000000E+00  0.91724664228E+03  0.91724664229E+03  0.50400001928E-02 0.  1.
       -1   -1    0    0    0  501  0.00000000000E+00  0.00000000000E+00 -0.21280229816E+04  0.21280229816E+04  0.50400001928E-02 0. -1.
    10030    2    1    2    0    0  0.00000000000E+00  0.00000000000E+00 -0.12107763393E+04  0.30452696239E+04  0.27942239958E+04 0.  0.
        4    1    3    3  502    0 -0.34239223741E+03 -0.10215931482E+04  0.36392133096E+03  0.11372446318E+04  0.12699999809E+01 0.  1.
       -4    1    3    3    0  502  0.34239223741E+03  0.10215931482E+04 -0.15746976703E+04  0.19080249921E+04  0.12699999809E+01 0. -1.
</event>
<event>
 5   0  0.3564340E-06  0.2203258E+04  0.7818609E-02  0.8517073E-01
        1   -1    0    0  501    0  0.00000000000E+00  0.00000000000E+00  0.21806465742E+04  0.21806465742E+04  0.50400001928E-02 0. -1.
       -1   -1    0    0    0  501  0.00000000000E+00  0.00000000000E+00 -0.55652573702E+03  0.55652573704E+03  0.50400001928E-02 0.  1.
    10030    2    1    2    0    0  0.00000000000E+00  0.00000000000E+00  0.16241208371E+04  0.27371723112E+04  0.22032575355E+04 0.  0.
        1    1    3    3  502    0  0.31394635167E+03  0.87658028532E+03  0.15434863348E+04  0.18025829729E+04  0.50400001928E-02 0. -1.
       -1    1    3    3    0  502 -0.31394635167E+03 -0.87658028532E+03  0.80634502340E+02  0.93458933834E+03  0.50400001928E-02 0.  1.
</event>
<event>
 5   0  0.3564340E-06  0.2907012E+04  0.7818609E-02  0.8270794E-01
        1   -1    0    0  501    0  0.00000000000E+00  0.00000000000E+00  0.23000555064E+04  0.23000555064E+04  0.50400001928E-02 0. -1.
       -1   -1    0    0    0  501  0.00000000000E+00  0.00000000000E+00 -0.91853425198E+03  0.91853425199E+03  0.50400001928E-02 0.  1.
    10030    2    1    2    0    0  0.00000000000E+00  0.00000000000E+00  0.13815212544E+04  0.32185897584E+04  0.29070120496E+04 0.  0.
        1    1    3    3  502    0  0.32186723404E+03 -0.13748345695E+04  0.30896575556E+03  0.14454163580E+04  0.50400001928E-02 0.  1.
       -1    1    3    3    0  502 -0.32186723404E+03  0.13748345695E+04  0.10725554989E+04  0.17731734004E+04  0.50400001928E-02 0. -1.
</event>
<event>
 5   0  0.9251510E-06  0.2890904E+04  0.7818609E-02  0.8275589E-01
       -2   -1    0    0    0  501  0.00000000000E+00  0.00000000000E+00  0.10858612551E+04  0.10858612551E+04  0.25500000920E-02 0.  1.
        2   -1    0    0  501    0  0.00000000000E+00  0.00000000000E+00 -0.19241231423E+04  0.19241231423E+04  0.25500000920E-02 0. -1.
    10030    2    1    2    0    0  0.00000000000E+00  0.00000000000E+00 -0.83826188718E+03  0.30099843974E+04  0.28909035060E+04 0.  0.
        2    1    3    3  502    0 -0.99290308420E+02  0.13458814911E+04  0.11995620848E+03  0.13548597881E+04  0.25500000920E-02 0.  1.
       -2    1    3    3    0  502  0.99290308420E+02 -0.13458814911E+04 -0.95821809566E+03  0.16551246093E+04  0.25500000920E-02 0. -1.
</event>
<event>
 5   0  0.9505359E-06  0.2865661E+04  0.7818609E-02  0.8283168E-01
       -2   -1    0    0    0  501  0.00000000000E+00  0.00000000000E+00  0.99826213361E+03  0.99826213361E+03  0.25500000920E-02 0.  1.
        2   -1    0    0  501    0  0.00000000000E+00  0.00000000000E+00 -0.20565775453E+04  0.20565775453E+04  0.25500000920E-02 0. -1.
    10030    2    1    2    0    0  0.00000000000E+00  0.00000000000E+00 -0.10583154117E+04  0.30548396789E+04  0.28656611721E+04 0.  0.
        4    1    3    3  502    0  0.37881748954E+03  0.63005331173E+02 -0.20006955092E+04  0.20372178321E+04  0.12699999809E+01 0. -1.
       -4    1    3    3    0  502 -0.37881748954E+03 -0.63005331173E+02  0.94238009746E+03  0.10176218468E+04  0.12699999809E+01 0.  1.
</event>
<event>
 5   0  0.9646321E-06  0.2569379E+04  0.7818609E-02  0.8378677E-01
       -2   -1    0    0    0  501  0.00000000000E+00  0.00000000000E+00  0.11905304019E+04  0.11905304019E+04  0.25500000920E-02 0. -1.
        2   -1    0    0  501    0  0.00000000000E+00  0.00000000000E+00 -0.13862958054E+04  0.13862958054E+04  0.25500000920E-02 0.  1.
    10030    2    1    2    0    0  0.00000000000E+00  0.00000000000E+00 -0.19576540349E+03  0.25768262073E+04  0.25693791486E+04 0.  0.
        3    1    3    3  502    0  0.85720684756E+03  0.95021391214E+03  0.15214864930E+02  0.12798209096E+04  0.10100000352E+00 0.  1.
       -3    1    3    3    0  502 -0.85720684756E+03 -0.95021391214E+03 -0.21098026842E+03  0.12970052977E+04  0.10100000352E+00 0. -1.
</event>
<event>
 5   0  0.3474078E-06  0.2952602E+04  0.7818609E-02  0.8257397E-01
       -1   -1    0    0    0  501  0.00000000000E+00  0.00000000000E+00  0.11106579655E+04  0.11106579655E+04  0.50400001928E-02 0.  1.
        1   -1    0    0  501    0  0.00000000000E+00  0.00000000000E+00 -0.19623179309E+04  0.19623179309E+04  0.50400001928E-02 0. -1.
    10030    2    1    2    0    0  0.00000000000E+00  0.00000000000E+00 -0.85165996534E+03  0.30729758964E+04  0.29526015924E+04 0.  0.
        3    1    3    3  502    0 -0.30389704261E+03 -0.12339395655E+04 -0.12077957233E+04  0.17532058588E+04  0.10100000352E+00 0. -1.
       -3    1    3    3    0  502  0.30389704261E+03  0.12339395655E+04  0.35613575799E+03  0.13197700376E+04  0.10100000352E+00 0.  1.
</event>
<event>
 5   0  0.9360689E-06  0.2880738E+04  0.7818609E-02  0.8278632E-01
        2   -1    0    0  501    0  0.00000000000E+00  0.00000000000E+00  0.24513919675E+04  0.24513919675E+04  0.25500000920E-02 0.  1.
       -2   -1    0    0    0  501  0.00000000000E+00  0.00000000000E+00 -0.84632018570E+03  0.84632018570E+03  0.25500000920E-02 0. -1.
    10030    2    1    2    0    0  0.00000000000E+00  0.00000000000E+00  0.16050717818E+04  0.32977121532E+04  0.28807377563E+04 0.  0.
        5    1    3    3  502    0  0.82018055206E+03 -0.25921572754E+03  0.21250771399E+04  0.22925670921E+04  0.46999998093E+01 0.  1.
       -5    1    3    3    0  502 -0.82018055206E+03  0.25921572754E+03 -0.52000535809E+03  0.10051450611E+04  0.46999998093E+01 0. -1.
</event>
<event>
 5   0  0.9251510E-06  0.2909666E+04  0.7818609E-02  0.8270007E-01
        2   -1    0    0  501    0  0.00000000000E+00  0.00000000000E+00  0.23028577367E+04  0.23028577367E+04  0.25500000920E-02 0.  1.
       -2   -1    0    0    0  501  0.00000000000E+00  0.00000000000E+00 -0.91909229356E+03  0.91909229357E+03  0.25500000920E-02 0. -1.
    10030    2    1    2    0    0  0.00000000000E+00  0.00000000000E+00  0.13837654431E+04  0.32219500302E+04  0.29096658220E+04 0.  0.
        2    1    3    3  502    0 -0.12955524644E+04  0.56435036491E+03  0.30894738968E+03  0.14465116702E+04  0.25500000920E-02 0. -1.
       -2    1    3    3    0  502  0.12955524644E+04 -0.56435036491E+03  0.10748180534E+04  0.17754383600E+04  0.25500000920E-02 0.  1.
</event>
<event>
 5   0  0.3474078E-06  0.2881920E+04  0.7818609E-02  0.8278277E-01
        1   -1    0    0  501    0  0.00000000000E+00  0.00000000000E+00  0.20085981089E+04  0.20085981089E+04  0.50400001928E-02 0. -1.
       -1   -1    0    0    0  501  0.00000000000E+00  0.00000000000E+00 -0.10337387903E+04  0.10337387903E+04  0.50400001928E-02 0.  1.
    10030    2    1    2    0    0  0.00000000000E+00  0.00000000000E+00  0.97485931860E+03  0.30423368991E+04  0.28819200400E+04 0.  0.
        3    1    3    3  502    0  0.46752389995E+03  0.12482445970E+04 -0.90465284094E+02  0.13359929449E+04  0.10100000352E+00 0.  1.
       -3    1    3    3    0  502 -0.46752389995E+03 -0.12482445970E+04  0.10653246027E+04  0.17063439543E+04  0.10100000352E+00 0. -1.
</event>
<event>
 5   0  0.9360689E-06  0.3086452E+04  0.7818609E-02  0.8219466E-01
       -2   -1    0    0    0  501  0.00000000000E+00  0.00000000000E+00  0.18522115441E+04  0.18522115441E+04  0.25500000920E-02 0.  1.
        2   -1    0    0  501    0  0.00000000000E+00  0.00000000000E+00 -0.12857854693E+04  0.12857854693E+04  0.25500000920E-02 0. -1.
    10030    2    1    2    0    0  0.00000000000E+00  0.00000000000E+00  0.56642607478E+03  0.31379970134E+04  0.30864521312E+04 0.  0.
        5    1    3    3  502    0 -0.43459662945E+03  0.11619965840E+04  0.12163724636E+04  0.17374390210E+04  0.46999998093E+01 0.  1.
       -5    1    3    3    0  502  0.43459662945E+03 -0.11619965840E+04 -0.64994638882E+03  0.14005579924E+04  0.46999998093E+01 0. -1.
</event>
<event>
 5   0  0.3486236E-06  0.2901613E+04  0.7818609E-02  0.8272398E-01
        1   -1    0    0  501    0  0.00000000000E+00  0.00000000000E+00  0.17946377008E+04  0.17946377008E+04  0.50400001928E-02 0. -1.
       -1   -1    0    0    0  501  0.00000000000E+00  0.00000000000E+00 -0.11728491256E+04  0.11728491256E+04  0.50400001928E-02 0.  1.
    10030    2    1    2    0    0  0.00000000000E+00  0.00000000000E+00  0.62178857525E+03  0.29674868265E+04  0.29016128330E+04 0.  0.
        5    1    3    3  502    0  0.23573427126E+03 -0.78212616740E+03 -0.91529372648E+03  0.12268156683E+04  0.46999998093E+01 0.  1.
       -5    1    3    3    0  502 -0.23573427126E+03  0.78212616740E+03  0.15370823017E+04  0.17406711581E+04  0.46999998093E+01 0. -1.
</event>
<event>
 5   0  0.9360689E-06  0.2734248E+04  0.7818609E-02  0.8323977E-01
        2   -1    0    0  501    0  0.00000000000E+00  0.00000000000E+00  0.10831639534E+04  0.10831639535E+04  0.25500000920E-02 0. -1.
       -2   -1    0    0    0  501  0.00000000000E+00  0.00000000000E+00 -0.17255270370E+04  0.17255270370E+04  0.25500000920E-02 0.  1.
    10030    2    1    2    0    0  0.00000000000E+00  0.00000000000E+00 -0.64236308358E+03  0.28086909905E+04  0.27342484797E+04 0.  0.
        5    1    3    3  502    0  0.30970036556E+03 -0.61780090803E+03 -0.15328790534E+04  0.16814673832E+04  0.46999998093E+01 0.  1.
       -5    1    3    3    0  502 -0.30970036556E+03  0.61780090803E+03  0.89051596980E+03  0.11272236073E+04  0.46999998093E+01 0. -1.
</event>
<event>
 5   0  0.1001573E-05  0.2701593E+04  0.7818609E-02  0.8334488E-01
        2   -1    0    0  501    0  0.00000000000E+00  0.00000000000E+00  0.13513478686E+04  0.13513478686E+04  0.25500000920E-02 0.  1.
       -2   -1    0    0    0  501  0.00000000000E+00  0.00000000000E+00 -0.13502452199E+04  0.13502452199E+04  0.25500000920E-02 0. -1.
    10030    2    1    2    0    0  0.00000000000E+00  0.00000000000E+00  0.11026486719E+01  0.27015930884E+04  0.27015928634E+04 0.  0.
        1    1    3    3  502    0  0.54321055215E+03  0.59185646251E+02 -0.12347909802E+04  0.13502923423E+04  0.50400001928E-02 0. -1.
       -1    1    3    3    0  502 -0.54321055215E+03 -0.59185646251E+02  0.12358936289E+04  0.13513007462E+04  0.50400001928E-02 0.  1.
</event>
<event>
 5   0  0.9505359E-06  0.2879568E+04  0.7818609E-02  0.8278983E-01
        2   -1    0    0  501    0  0.00000000000E+00  0.00000000000E+00  0.12896419074E+04  0.12896419074E+04  0.25500000920E-02 0.  1.
       -2   -1    0    0    0  501  0.00000000000E+00  0.00000000000E+00 -0.16074060909E+04  0.16074060909E+04  0.25500000920E-02 0. -1.
    10030    2    1    2    0    0  0.00000000000E+00  0.00000000000E+00 -0.31776418353E+03  0.28970479983E+04  0.28795682017E+04 0.  0.
        4    1    3    3  502    0 -0.46728407558E+03  0.13334442742E+03 -0.15224104134E+04  0.15980832968E+04  0.12699999809E+01 0. -1.
       -4    1    3    3    0  502  0.46728407558E+03 -0.13334442742E+03  0.12046462299E+04  0.12989647015E+04  0.12699999809E+01 0.  1.
</event>
<event>
 5   0  0.3474078E-06  0.2902574E+04  0.7818609E-02  0.8272112E-01
       -1   -1    0    0    0  501  0.00000000000E+00  0.00000000000E+00  0.14004315073E+04  0.14004315073E+04  0.50400001928E-02 0. -1.
        1   -1    0    0  501    0  0.00000000000E+00  0.00000000000E+00 -0.15039896311E+04  0.15039896311E+04  0.50400001928E-02 0.  1.
    10030    2    1    2    0    0  0.00000000000E+00  0.00000000000E+00 -0.10355812374E+03  0.29044211384E+04  0.29025743512E+04 0.  0.
        3    1    3    3  502    0  0.11989384189E+04 -0.61326338548E+03 -0.59313080880E+03  0.14715126499E+04  0.10100000352E+00 0.  1.
       -3    1    3    3    0  502 -0.11989384189E+04  0.61326338548E+03  0.48957268506E+03  0.14329084885E+04  0.10100000352E+00 0. -1.
</event>
<event>
 5   0  0.3746518E-06  0.2904730E+04  0.7818609E-02  0.8271471E-01
       -1   -1    0    0    0  501  0.00000000000E+00  0.00000000000E+00  0.10043005067E+04  0.10043005067E+04  0.50400001928E-02 0. -1.
        1   -1    0    0  501    0  0.00000000000E+00  0.00000000000E+00 -0.21003319994E+04  0.21003319994E+04  0.50400001928E-02 0.  1.
    10030    2    1    2    0    0  0.00000000000E+00  0.00000000000E+00 -0.10960314927E+04  0.31046325061E+04  0.29047302740E+04 0.  0.
        4    1    3    3  502    0 -0.62392211172E+02  0.11416710229E+03 -0.20940904593E+04  0.20981285423E+04  0.12699999809E+01 0.  1.
       -4    1    3    3    0  502  0.62392211172E+02 -0.11416710229E+03  0.99805896666E+03  0.10065039638E+04  0.12699999809E+01 0. -1.
</event>
<event>
 5   0  0.1001573E-05  0.2876090E+04  0.7818609E-02  0.8280027E-01
       -2   -1    0    0    0  501  0.00000000000E+00  0.00000000000E+00  0.13200587429E+04  0.13200587429E+04  0.25500000920E-02 0.  1.
        2   -1    0    0  501    0  0.00000000000E+00  0.00000000000E+00 -0.15665768584E+04  0.15665768584E+04  0.25500000920E-02 0. -1.
    10030    2    1    2    0    0  0.00000000000E+00  0.00000000000E+00 -0.24651811545E+03  0.28866356013E+04  0.28760900392E+04 0.  0.
        1    1    3    3  502    0  0.61072518602E+03 -0.12941540053E+04 -0.26574308833E+03  0.14554859090E+04  0.50400001928E-02 0. -1.
       -1    1    3    3    0  502 -0.61072518602E+03  0.12941540053E+04  0.19224972887E+02  0.14311496923E+04  0.50400001928E-02 0.  1.
</event>
<event>
 5   0  0.3564340E-06  0.2915431E+04  0.7818609E-02  0.8268301E-01
       -1   -1    0    0    0  501  0.00000000000E+00  0.00000000000E+00  0.16551459682E+04  0.16551459682E+04  0.50400001928E-02 0. -1.
        1   -1    0    0  501    0  0.00000000000E+00  0.00000000000E+00 -0.12838352994E+04  0.12838352995E+04  0.50400001928E-02 0.  1.
    10030    2    1    2    0    0  0.00000000000E+00  0.00000000000E+00  0.37131066873E+03  0.29389812676E+04  0.29154312338E+04 0.  0.
        1    1    3    3  502    0  0.89152223749E+03  0.66122083604E+03 -0.76691673031E+03  0.13491427520E+04  0.50400001928E-02 0.  1.
       -1    1    3    3    0  502 -0.89152223749E+03 -0.66122083604E+03  0.11382273990E+04  0.15898385157E+04  0.50400001928E-02 0. -1.
</event>
<event>
 5   0  0.9505359E-06  0.2901079E+04  0.7818609E-02  0.8272557E-01
        2   -1    0    0  501    0  0.00000000000E+00  0.00000000000E+00  0.19777597289E+04  0.19777597289E+04  0.25500000920E-02 0.  1.
       -2   -1    0    0    0  501  0.00000000000E+00  0.00000000000E+00 -0.10638627071E+04  0.10638627071E+04  0.25500000920E-02 0. -1.
    10030    2    1    2    0    0  0.00000000000E+00  0.00000000000E+00  0.91389702183E+03  0.30416224360E+04  0.29010789849E+04 0.  0.
        4    1    3    3  502    0  0.12272797435E+04 -0.76754301297E+03  0.55488340248E+03  0.15502370944E+04  0.12699999809E+01 0.  1.
       -4    1    3    3    0  502 -0.12272797435E+04  0.76754301297E+03  0.35901361935E+03  0.14913853417E+04  0.12699999809E+01 0. -1.
</event>
<event>
 5   0  0.9360689E-06  0.2940378E+04  0.7818609E-02  0.8260964E-01
        2   -1    0    0  501    0  0.00000000000E+00  0.00000000000E+00  0.16277937457E+04  0.16277937457E+04  0.25500000920E-02 0. -1.
       -2   -1    0    0    0  501  0.00000000000E+00  0.00000000000E+00 -0.13278439787E+04  0.13278439787E+04  0.25500000920E-02 0.  1.
    10030    2    1    2    0    0  0.00000000000E+00  0.00000000000E+00  0.29994976708E+03  0.29556377244E+04  0.29403782912E+04 0.  0.
        5    1    3    3  502    0  0.38965964024E+03 -0.12543276829E+03  0.15693460524E+04  0.16218622434E+04  0.46999998093E+01 0. -1.
       -5    1    3    3    0  502 -0.38965964024E+03  0.12543276829E+03 -0.12693962853E+04  0.13337754810E+04  0.46999998093E+01 0.  1.
</event>
<event>
 5   0  0.9360689E-06  0.2883931E+04  0.7818609E-02  0.8277675E-01
        2   -1    0    0  501    0  0.00000000000E+00  0.00000000000E+00  0.28669785244E+04  0.28669785244E+04  0.25500000920E-02 0. -1.
       -2   -1    0    0    0  501  0.00000000000E+00  0.00000000000E+00 -0.72524567956E+03  0.72524567957E+03  0.25500000920E-02 0.  1.
    10030    2    1    2    0    0  0.00000000000E+00  0.00000000000E+00  0.21417328448E+04  0.35922242040E+04  0.28839305042E+04 0.  0.
        5    1    3    3  502    0  0.44078695517E+01  0.38944185001E+03 -0.65848117233E+03  0.76505158529E+03  0.46999998093E+01 0.  1.
       -5    1    3    3    0  502 -0.44078695517E+01 -0.38944185001E+03  0.28002140172E+04  0.28271726187E+04  0.46999998093E+01 0. -1.
</event>
<event>
 5   0  0.3746518E-06  0.2851015E+04  0.7818609E-02  0.8287603E-01
       -1   -1    0    0    0  501  0.00000000000E+00  0.00000000000E+00  0.17717911473E+04  0.17717911473E+04  0.50400001928E-02 0. -1.
        1   -1    0    0  501    0  0.00000000000E+00  0.00000000000E+00 -0.11469026271E+04  0.11469026271E+04  0.50400001928E-02 0.  1.
    10030    2    1    2    0    0  0.00000000000E+00  0.00000000000E+00  0.62488852019E+03  0.29186937744E+04  0.28510152027E+04 0.  0.
        4    1    3    3  502    0 -0.12328205614E+04  0.58435606215E+02 -0.41779707614E+03  0.13030031721E+04  0.12699999809E+01 0.  1.
       -4    1    3    3    0  502  0.12328205614E+04 -0.58435606215E+02  0.10426855963E+04  0.16156906023E+04  0.12699999809E+01 0. -1.
</event>
<event>
 5   0  0.3746518E-06  0.2845584E+04  0.7818609E-02  0.8289254E-01
       -1   -1    0    0    0  501  0.00000000000E+00  0.00000000000E+00  0.84630608061E+03  0.84630608062E+03  0.50400001928E-02 0. -1.
        1   -1    0    0  501    0  0.00000000000E+00  0.00000000000E+00 -0.23919688131E+04  0.23919688131E+04  0.50400001928E-02 0.  1.
    10030    2    1    2    0    0  0.00000000000E+00  0.00000000000E+00 -0.15456627325E+04  0.32382748937E+04  0.28455844751E+04 0.  0.
        4    1    3    3  502    0  0.46177525193E+03  0.11922037159E+04 -0.62378415386E+02  0.12800307665E+04  0.12699999809E+01 0. -1.
       -4    1    3    3    0  502 -0.46177525193E+03 -0.11922037159E+04 -0.14832843171E+04  0.19582441272E+04  0.12699999809E+01 0.  1.
</event>
<event>
 5   0  0.3564340E-06  0.2898126E+04  0.7818609E-02  0.8273435E-01
        1   -1    0    0  501    0  0.00000000000E+00  0.00000000000E+00  0.16455915390E+04  0.16455915390E+04  0.50400001928E-02 0. -1.
       -1   -1    0    0    0  501  0.00000000000E+00  0.00000000000E+00 -0.12760056861E+04  0.12760056861E+04  0.50400001928E-02 0.  1.
    10030    2    1    2    0    0  0.00000000000E+00  0.00000000000E+00  0.36958585288E+03  0.29215972251E+04  0.28981264022E+04 0.  0.
        1    1    3    3  502    0 -0.23024858709E+03  0.10348104520E+04  0.11806887908E+04  0.15867807360E+04  0.50400001928E-02 0. -1.
       -1    1    3    3    0  502  0.23024858709E+03 -0.10348104520E+04 -0.81110293795E+03  0.13348164891E+04  0.50400001928E-02 0.  1.
</event>
<event>
 5   0  0.9360689E-06  0.2899746E+04  0.7818609E-02  0.8272953E-01
       -2   -1    0    0    0  501  0.00000000000E+00  0.00000000000E+00  0.20017859355E+04  0.20017859355E+04  0.25500000920E-02 0. -1.
        2   -1    0    0  501    0  0.00000000000E+00  0.00000000000E+00 -0.10501279296E+04  0.10501279296E+04  0.25500000920E-02 0.  1.
    10030    2    1    2    0    0  0.00000000000E+00  0.00000000000E+00  0.95165800592E+03  0.30519138651E+04  0.28997457268E+04 0.  0.
        5    1    3    3  502    0  0.12767714760E+04  0.40809803156E+02  0.11975994574E+04  0.17510218137E+04  0.46999998093E+01 0. -1.
       -5    1    3    3    0  502 -0.12767714760E+04 -0.40809803156E+02 -0.24594145144E+03  0.13008920514E+04  0.46999998093E+01 0.  1.
</event>
<event>
 5   0  0.9505359E-06  0.2930408E+04  0.7818609E-02  0.8263887E-01
       -2   -1    0    0    0  501  0.00000000000E+00  0.00000000000E+00  0.17786678306E+04  0.17786678306E+04  0.25500000920E-02 0.  1.
        2   -1    0    0  501    0  0.00000000000E+00  0.00000000000E+00 -0.12069832822E+04  0.12069832822E+04  0.25500000920E-02 0. -1.
    10030    2    1    2    0    0  0.00000000000E+00  0.00000000000E+00  0.57168454841E+03  0.29856511128E+04  0.29304077096E+04 0.  0.
        4    1    3    3  502    0  0.73397697579E+03 -0.11788543670E+04  0.76198617363E+03  0.15839963262E+04  0.12699999809E+01 0.  1.
       -4    1    3    3    0  502 -0.73397697579E+03  0.11788543670E+04 -0.19030162522E+03  0.14016547867E+04  0.12699999809E+01 0. -1.
</event>
<event>
 5   0  0.1001573E-05  0.2896824E+04  0.7818609E-02  0.8273823E-01
       -2   -1    0    0    0  501  0.00000000000E+00  0.00000000000E+00  0.10626677004E+04  0.10626677004E+04  0.25500000920E-02 0. -1.
        2   -1    0    0  501    0  0.00000000000E+00  0.00000000000E+00 -0.19741800369E+04  0.19741800369E+04  0.25500000920E-02 0.  1.
    10030    2    1    2    0    0  0.00000000000E+00  0.00000000000E+00 -0.91151233658E+03  0.30368477373E+04  0.28968240264E+04 0.  0.
        1    1    3    3  502    0 -0.84392856251E+03  0.47249647414E+03  0.67451884312E+03  0.11791708979E+04  0.50400001928E-02 0. -1.
       -1    1    3    3    0  502  0.84392856251E+03 -0.47249647414E+03 -0.15860311797E+04  0.18576768394E+04  0.50400001928E-02 0.  1.
</event>
<event>
 5   0  0.1001573E-05  0.2830342E+04  0.7818609E-02  0.8293910E-01
       -2   -1    0    0    0  501  0.00000000000E+00  0.00000000000E+00  0.15269006518E+04  0.15269006518E+04  0.25500000920E-02 0. -1.
        2   -1    0    0  501    0  0.00000000000E+00  0.00000000000E+00 -0.13116173479E+04  0.13116173479E+04  0.25500000920E-02 0.  1.
    10030    2    1    2    0    0  0.00000000000E+00  0.00000000000E+00  0.21528330387E+03  0.28385179997E+04  0.28303422997E+04 0.  0.
        1    1    3    3  502    0  0.13194859589E+04 -0.35077374599E+03  0.48103953502E+03  0.14475788237E+04  0.50400001928E-02 0. -1.
       -1    1    3    3    0  502 -0.13194859589E+04  0.35077374599E+03 -0.26575623115E+03  0.13909391759E+04  0.50400001928E-02 0.  1.
</event>
<event>
 5   0  0.3649705E-06  0.2912483E+04  0.7818609E-02  0.8269173E-01
       -1   -1    0    0    0  501  0.00000000000E+00  0.00000000000E+00  0.10827284642E+04  0.10827284643E+04  0.50400001928E-02 0.  1.
        1   -1    0    0  501    0  0.00000000000E+00  0.00000000000E+00 -0.19586064446E+04  0.19586064446E+04  0.50400001928E-02 0. -1.
    10030    2    1    2    0    0  0.00000000000E+00  0.00000000000E+00 -0.87587798037E+03  0.30413349089E+04  0.29124827539E+04 0.  0.
        2    1    3    3  502    0  0.77121953873E+02 -0.71884163309E+03 -0.17579682121E+04  0.19008243801E+04  0.25500000920E-02 0. -1.
       -2    1    3    3    0  502 -0.77121953873E+02  0.71884163309E+03  0.88209023176E+03  0.11405105288E+04  0.25500000920E-02 0.  1.
</event>
<event>
 5   0  0.3486236E-06  0.2916395E+04  0.7818609E-02  0.8268016E-01
       -1   -1    0    0    0  501  0.00000000000E+00  0.00000000000E+00  0.14963074958E+04  0.14963074958E+04  0.50400001928E-02 0. -1.
        1   -1    0    0  501    0  0.00000000000E+00  0.00000000000E+00 -0.14210584593E+04  0.14210584593E+04  0.50400001928E-02 0.  1.
    10030    2    1    2    0    0  0.00000000000E+00  0.00000000000E+00  0.75249036563E+02  0.29173659551E+04  0.29163953261E+04 0.  0.
        5    1    3    3  502    0  0.76998263082E+03  0.11407654600E+04 -0.44430262079E+03  0.14462523968E+04  0.46999998093E+01 0.  1.
       -5    1    3    3    0  502 -0.76998263082E+03 -0.11407654600E+04  0.51955165736E+03  0.14711135582E+04  0.46999998093E+01 0. -1.
</event>
<event>
 5   0  0.9360689E-06  0.2476547E+04  0.7818609E-02  0.8411389E-01
       -2   -1    0    0    0  501  0.00000000000E+00  0.00000000000E+00  0.77402443793E+03  0.77402443794E+03  0.25500000920E-02 0.  1.
        2   -1    0    0  501    0  0.00000000000E+00  0.00000000000E+00 -0.19809727286E+04  0.19809727286E+04  0.25500000920E-02 0. -1.
    10030    2    1    2    0    0  0.00000000000E+00  0.00000000000E+00 -0.12069482907E+04  0.27549971665E+04  0.24765470339E+04 0.  0.
        5    1    3    3  502    0 -0.99773742500E+03 -0.42357178202E+03  0.62507601758E+02  0.10857358399E+04  0.46999998093E+01 0.  1.
       -5    1    3    3    0  502  0.99773742500E+03  0.42357178202E+03 -0.12694558924E+04  0.16692613266E+04  0.46999998093E+01 0. -1.
</event>
<event>
 5   0  0.3746518E-06  0.2897708E+04  0.7818609E-02  0.8273560E-01
       -1   -1    0    0    0  501  0.00000000000E+00  0.00000000000E+00  0.91272678681E+03  0.91272678682E+03  0.50400001928E-02 0. -1.
        1   -1    0    0  501    0  0.00000000000E+00  0.00000000000E+00 -0.22998977943E+04  0.22998977943E+04  0.50400001928E-02 0.  1.
    10030    2    1    2    0    0  0.00000000000E+00  0.00000000000E+00 -0.13871710075E+04  0.32126245811E+04  0.28977082833E+04 0.  0.
        4    1    3    3  502    0  0.95878598610E+03 -0.88111949982E+03  0.10695037100E+02  0.13022127848E+04  0.12699999809E+01 0. -1.
       -4    1    3    3    0  502 -0.95878598610E+03  0.88111949982E+03 -0.13978660446E+04  0.19104117963E+04  0.12699999809E+01 0.  1.
</event>
<event>
 5   0  0.9251510E-06  0.2825323E+04  0.7818609E-02  0.8295449E-01
       -2   -1    0    0    0  501  0.00000000000E+00  0.00000000000E+00  0.80935124023E+03  0.80935124024E+03  0.25500000920E-02 0. -1.
        2   -1    0    0  501    0  0.00000000000E+00  0.00000000000E+00 -0.24656938496E+04  0.24656938497E+04  0.25500000920E-02 0.  1.
    10030    2    1    2    0    0  0.00000000000E+00  0.00000000000E+00 -0.16563426094E+04  0.32750450899E+04  0.28253229021E+04 0.  0.
        2    1    3    3  502    0  0.31273204011E+03  0.26405877357E+03 -0.23954537484E+04  0.24301701639E+04  0.25500000920E-02 0.  1.
       -2    1    3    3    0  502 -0.31273204011E+03 -0.26405877357E+03  0.73911113897E+03  0.84487492599E+03  0.25500000920E-02 0. -1.
</event>
<event>
 5   0  0.3564340E-06  0.2930907E+04  0.7818609E-02  0.8263741E-01
       -1   -1    0    0    0  501  0.00000000000E+00  0.00000000000E+00  0.18628108169E+04  0.18628108169E+04  0.50400001928E-02 0. -1.
        1   -1    0    0  501    0  0.00000000000E+00  0.00000000000E+00 -0.11528565177E+04  0.11528565177E+04  0.50400001928E-02 0.  1.
    10030    2    1    2    0    0  0.00000000000E+00  0.00000000000E+00  0.70995429922E+03  0.30156673347E+04  0.29309067482E+04 0.  0.
        1    1    3    3  502    0 -0.86813075225E+03  0.82341870298E+03  0.12255454076E+04  0.17127845485E+04  0.50400001928E-02 0. -1.
       -1    1    3    3    0  502  0.86813075225E+03 -0.82341870298E+03 -0.51559110840E+03  0.13028827862E+04  0.50400001928E-02 0.  1.
</event>
<event>
 5   0  0.9646321E-06  0.2970538E+04  0.7818609E-02  0.8252194E-01
        2   -1    0    0  501    0  0.00000000000E+00  0.00000000000E+00  0.17033686305E+04  0.17033686305E+04  0.25500000920E-02 0.  1.
       -2   -1    0    0    0  501  0.00000000000E+00  0.00000000000E+00 -0.12950947101E+04  0.12950947101E+04  0.25500000920E-02 0. -1.
    10030    2    1    2    0    0  0.00000000000E+00  0.00000000000E+00  0.40827392035E+03  0.29984633406E+04  0.29705377982E+04 0.  0.
        3    1    3    3  502    0 -0.49003818607E+03 -0.63508405098E+03 -0.10576360979E+04  0.13274273244E+04  0.10100000352E+00 0. -1.
       -3    1    3    3    0  502  0.49003818607E+03  0.63508405098E+03  0.14659100183E+04  0.16710360162E+04  0.10100000352E+00 0.  1.
</event>
<event>
 5   0  0.9360689E-06  0.2149380E+04  0.7818609E-02  0.8539798E-01
       -2   -1    0    0    0  501  0.00000000000E+00  0.00000000000E+00  0.10436484469E+04  0.10436484469E+04  0.25500000920E-02 0. -1.
        2   -1    0    0  501    0  0.00000000000E+00  0.00000000000E+00 -0.11066552754E+04  0.11066552754E+04  0.25500000920E-02 0.  1.
    10030    2    1    2    0    0  0.00000000000E+00  0.00000000000E+00 -0.63006828545E+02  0.21503037223E+04  0.21493804311E+04 0.  0.
        5    1    3    3  502    0  0.99048183434E+03  0.12860307578E+03  0.36533302686E+03  0.10635240128E+04  0.46999998093E+01 0. -1.
       -5    1    3    3    0  502 -0.99048183434E+03 -0.12860307578E+03 -0.42833985540E+03  0.10867797095E+04  0.46999998093E+01 0.  1.
</event>
<event>
 5   0  0.3564340E-06  0.2913324E+04  0.7818609E-02  0.8268924E-01
       -1   -1    0    0    0  501  0.00000000000E+00  0.00000000000E+00  0.15811748801E+04  0.15811748801E+04  0.50400001928E-02 0. -1.
        1   -1    0    0  501    0  0.00000000000E+00  0.00000000000E+00 -0.13419537133E+04  0.13419537133E+04  0.50400001928E-02 0.  1.
    10030    2    1    2    0    0  0.00000000000E+00  0.00000000000E+00  0.23922116679E+03  0.29231285934E+04  0.29133235329E+04 0.  0.
        1    1    3    3  502    0 -0.13280670314E+04 -0.14990906503E+02 -0.48063080393E+03  0.14124421181E+04  0.50400001928E-02 0.  1.
       -1    1    3    3    0  502  0.13280670314E+04  0.14990906503E+02  0.71985197072E+03  0.15106864754E+04  0.50400001928E-02 0. -1.
</event>
<event>
 5   0  0.3746518E-06  0.2915986E+04  0.7818609E-02  0.8268137E-01
       -1   -1    0    0    0  501  0.00000000000E+00  0.00000000000E+00  0.15253779277E+04  0.15253779277E+04  0.50400001928E-02 0.  1.
        1   -1    0    0  501    0  0.00000000000E+00  0.00000000000E+00 -0.13935850096E+04  0.13935850096E+04  0.50400001928E-02 0. -1.
    10030    2    1    2    0    0  0.00000000000E+00  0.00000000000E+00  0.13179291808E+03  0.29189629373E+04  0.29159861550E+04 0.  0.
        4    1    3    3  502    0  0.94270385129E+03  0.10217040595E+04  0.50585903227E+03  0.14793460413E+04  0.12699999809E+01 0.  1.
       -4    1    3    3    0  502 -0.94270385129E+03 -0.10217040595E+04 -0.37406611418E+03  0.14396168960E+04  0.12699999809E+01 0. -1.
</event>
<event>
 5   0  0.3486236E-06  0.2900020E+04  0.7818609E-02  0.8272871E-01
       -1   -1    0    0    0  501  0.00000000000E+00  0.00000000000E+00  0.13427625463E+04  0.13427625463E+04  0.50400001928E-02 0.  1.
        1   -1    0    0  501    0  0.00000000000E+00  0.00000000000E+00 -0.15658235025E+04  0.15658235025E+04  0.50400001928E-02 0. -1.
    10030    2    1    2    0    0  0.00000000000E+00  0.00000000000E+00 -0.22306095627E+03  0.29085860488E+04  0.29000201056E+04 0.  0.
        5    1    3    3  502    0 -0.13421139762E+04  0.54740103522E+03 -0.15151356311E+03  0.14573593477E+04  0.46999998093E+01 0.  1.
       -5    1    3    3    0  502  0.13421139762E+04 -0.54740103522E+03 -0.71547393165E+02  0.14512267011E+04  0.46999998093E+01 0. -1.
</event>
<event>
 5   0  0.3486236E-06  0.2923649E+04  0.7818609E-02  0.8265876E-01
       -1   -1    0    0    0  501  0.00000000000E+00  0.00000000000E+00  0.14502642191E+04  0.14502642191E+04  0.50400001928E-02 0. -1.
        1   -1    0    0  501    0  0.00000000000E+00  0.00000000000E+00 -0.14734771579E+04  0.14734771579E+04  0.50400001928E-02 0.  1.
    10030    2    1    2    0    0  0.00000000000E+00  0.00000000000E+00 -0.23212938855E+02  0.29237413770E+04  0.29236492264E+04 0.  0.
        5    1    3    3  502    0  0.51499369742E+03  0.24111626453E+03  0.13351183997E+04  0.14511784151E+04  0.46999998093E+01 0. -1.
       -5    1    3    3    0  502 -0.51499369742E+03 -0.24111626453E+03 -0.13583313385E+04  0.14725629618E+04  0.46999998093E+01 0.  1.
</event>
<event>
 5   0  0.9360689E-06  0.3016182E+04  0.7818609E-02  0.8239125E-01
        2   -1    0    0  501    0  0.00000000000E+00  0.00000000000E+00  0.21852497684E+04  0.21852497684E+04  0.25500000920E-02 0.  1.
       -2   -1    0    0    0  501  0.00000000000E+00  0.00000000000E+00 -0.10407684355E+04  0.10407684355E+04  0.25500000920E-02 0. -1.
    10030    2    1    2    0    0  0.00000000000E+00  0.00000000000E+00  0.11444813329E+04  0.32260182039E+04  0.30161823437E+04 0.  0.
        5    1    3    3  502    0  0.14234051640E+04 -0.38291775618E+03  0.91317795642E+03  0.17339620351E+04  0.46999998093E+01 0.  1.
       -5    1    3    3    0  502 -0.14234051640E+04  0.38291775618E+03  0.23130337645E+03  0.14920561688E+04  0.46999998093E+01 0. -1.
</event>
<event>
 5   0  0.9360689E-06  0.2872538E+04  0.7818609E-02  0.8281095E-01
       -2   -1    0    0    0  501  0.00000000000E+00  0.00000000000E+00  0.13932240526E+04  0.13932240526E+04  0.25500000920E-02 0.  1.
        2   -1    0    0  501    0  0.00000000000E+00  0.00000000000E+00 -0.14806439882E+04  0.14806439882E+04  0.25500000920E-02 0. -1.
    10030    2    1    2    0    0  0.00000000000E+00  0.00000000000E+00 -0.87419935610E+02  0.28738680408E+04  0.28725381234E+04 0.  0.
        5    1    3    3  502    0  0.28631619153E+03  0.67540974547E+03  0.11916456737E+04  0.13993558473E+04  0.46999998093E+01 0.  1.
       -5    1    3    3    0  502 -0.28631619153E+03 -0.67540974547E+03 -0.12790656093E+04  0.14745121935E+04  0.46999998093E+01 0. -1.
</event>
<event>
 5   0  0.9646321E-06  0.2564881E+04  0.7818609E-02  0.8380229E-01
        2   -1    0    0  501    0  0.00000000000E+00  0.00000000000E+00  0.11362966545E+04  0.11362966545E+04  0.25500000920E-02 0.  1.
       -2   -1    0    0    0  501  0.00000000000E+00  0.00000000000E+00 -0.14473805082E+04  0.14473805082E+04  0.25500000920E-02 0. -1.
    10030    2    1    2    0    0  0.00000000000E+00  0.00000000000E+00 -0.31108385362E+03  0.25836771627E+04  0.25648809947E+04 0.  0.
        3    1    3    3  502    0 -0.73186909149E+03 -0.10481827402E+04 -0.25794414351E+03  0.13041681698E+04  0.10100000352E+00 0. -1.
       -3    1    3    3    0  502  0.73186909149E+03  0.10481827402E+04 -0.53139710107E+02  0.12795089929E+04  0.10100000352E+00 0.  1.
</event>
<event>
 5   0  0.9360689E-06  0.2821424E+04  0.7818609E-02  0.8296648E-01
       -2   -1    0    0    0  501  0.00000000000E+00  0.00000000000E+00  0.11564968598E+04  0.11564968598E+04  0.25500000920E-02 0. -1.
        2   -1    0    0  501    0  0.00000000000E+00  0.00000000000E+00 -0.17208079401E+04  0.17208079401E+04  0.25500000920E-02 0.  1.
    10030    2    1    2    0    0  0.00000000000E+00  0.00000000000E+00 -0.56431108028E+03  0.28773047999E+04  0.28214244481E+04 0.  0.
        5    1    3    3  502    0  0.29834073492E+03 -0.72222942410E+03  0.91561240494E+03  0.12037402964E+04  0.46999998093E+01 0. -1.
       -5    1    3    3    0  502 -0.29834073492E+03  0.72222942410E+03 -0.14799234852E+04  0.16735645035E+04  0.46999998093E+01 0.  1.
</event>
<event>
 5   0  0.3649705E-06  0.2867206E+04  0.7818609E-02  0.8282702E-01
        1   -1    0    0  501    0  0.00000000000E+00  0.00000000000E+00  0.99555972192E+03  0.99555972194E+03  0.50400001928E-02 0.  1.
       -1   -1    0    0    0  501  0.00000000000E+00  0.00000000000E+00 -0.20643841927E+04  0.20643841927E+04  0.50400001928E-02 0. -1.
    10030    2    1    2    0    0  0.00000000000E+00  0.00000000000E+00 -0.10688244707E+04  0.30599439146E+04  0.28672061334E+04 0.  0.
        2    1    3    3  502    0 -0.10920764364E+04 -0.33174591449E+03  0.39138713085E+03  0.12065944559E+04  0.25500000920E-02 0.  1.
       -2    1    3    3    0  502  0.10920764364E+04  0.33174591449E+03 -0.14602116016E+04  0.18533494587E+04  0.25500000920E-02 0. -1.
</event>
<event>
 5   0  0.9646321E-06  0.2875865E+04  0.7818609E-02  0.8280095E-01
       -2   -1    0    0    0  501  0.00000000000E+00  0.00000000000E+00  0.78792257395E+03  0.78792257396E+03  0.25500000920E-02 0.  1.
        2   -1    0    0  501    0  0.00000000000E+00  0.00000000000E+00 -0.26241789369E+04  0.26241789369E+04  0.25500000920E-02 0. -1.
    10030    2    1    2    0    0  0.00000000000E+00  0.00000000000E+00 -0.18362563629E+04  0.34121015109E+04  0.28758649638E+04 0.  0.
        3    1    3    3  502    0 -0.12467515402E+04  0.64495486406E+03 -0.54804814140E+03  0.15068885013E+04  0.10100000352E+00 0.  1.
       -3    1    3    3    0  502  0.12467515402E+04 -0.64495486406E+03 -0.12882082215E+04  0.19052130096E+04  0.10100000352E+00 0. -1.
</event>
<event>
 5   0  0.9251510E-06  0.3017844E+04  0.7818609E-02  0.8238654E-01
       -2   -1    0    0    0  501  0.00000000000E+00  0.00000000000E+00  0.11587092471E+04  0.11587092471E+04  0.25500000920E-02 0.  1.
        2   -1    0    0  501    0  0.00000000000E+00  0.00000000000E+00 -0.19649839121E+04  0.19649839121E+04  0.25500000920E-02 0. -1.
    10030    2    1    2    0    0  0.00000000000E+00  0.00000000000E+00 -0.80627466493E+03  0.31236931592E+04  0.30178436204E+04 0.  0.
        2    1    3    3  502    0 -0.93878067612E+03 -0.97564482445E+03 -0.10925724000E+04  0.17398006870E+04  0.25500000920E-02 0.  1.
       -2    1    3    3    0  502  0.93878067612E+03  0.97564482445E+03  0.28629773508E+03  0.13838924721E+04  0.25500000920E-02 0. -1.
</event>
<event>
 5   0  0.9646321E-06  0.2876678E+04  0.7818609E-02  0.8279850E-01
        2   -1    0    0  501    0  0.00000000000E+00  0.00000000000E+00  0.17796367409E+04  0.17796367409E+04  0.25500000920E-02 0. -1.
       -2   -1    0    0    0  501  0.00000000000E+00  0.00000000000E+00 -0.11624953806E+04  0.11624953806E+04  0.25500000920E-02 0.  1.
    10030    2    1    2    0    0  0.00000000000E+00  0.00000000000E+00  0.61714136031E+03  0.29421321214E+04  0.28766782860E+04 0.  0.
        3    1    3    3  502    0  0.63836072111E+03 -0.28002921385E+03 -0.97818898450E+03  0.12011554731E+04  0.10100000352E+00 0.  1.
       -3    1    3    3    0  502 -0.63836072111E+03  0.28002921385E+03  0.15953303448E+04  0.17409766484E+04  0.10100000352E+00 0. -1.
</event>
<event>
 5   0  0.3649705E-06  0.2913441E+04  0.7818609E-02  0.8268889E-01
       -1   -1    0    0    0  501  0.00000000000E+00  0.00000000000E+00  0.11902330476E+04  0.11902330476E+04  0.50400001928E-02 0. -1.
        1   -1    0    0  501    0  0.00000000000E+00  0.00000000000E+00 -0.17828736786E+04  0.17828736786E+04  0.50400001928E-02 0.  1.
    10030    2    1    2    0    0  0.00000000000E+00  0.00000000000E+00 -0.59264063094E+03  0.29731067262E+04  0.29134413823E+04 0.  0.
        2    1    3    3  502    0  0.12544870270E+04  0.73803755402E+03 -0.35753240474E+03  0.14987550008E+04  0.25500000920E-02 0.  1.
       -2    1    3    3    0  502 -0.12544870270E+04 -0.73803755402E+03 -0.23510822620E+03  0.14743517254E+04  0.25500000920E-02 0. -1.
</event>
<event>
 5   0  0.9251510E-06  0.2800819E+04  0.7818609E-02  0.8303014E-01
       -2   -1    0    0    0  501  0.00000000000E+00  0.00000000000E+00  0.77257689844E+03  0.77257689844E+03  0.25500000920E-02 0.  1.
        2   -1    0    0  501    0  0.00000000000E+00  0.00000000000E+00 -0.25384480174E+04  0.25384480174E+04  0.25500000920E-02 0. -1.
    10030    2    1    2    0    0  0.00000000000E+00  0.00000000000E+00 -0.17658711189E+04  0.33110249158E+04  0.28008186633E+04 0.  0.
        2    1    3    3  502    0 -0.56918412268E+03 -0.82548996570E+03 -0.20386427188E+04  0.22718865253E+04  0.25500000920E-02 0. -1.
       -2    1    3    3    0  502  0.56918412268E+03  0.82548996570E+03  0.27277159983E+03  0.10391383905E+04  0.25500000920E-02 0.  1.
</event>
<event>
 5   0  0.3746518E-06  0.2921480E+04  0.7818609E-02  0.8266515E-01
       -1   -1    0    0    0  501  0.00000000000E+00  0.00000000000E+00  0.16862564145E+04  0.16862564146E+04  0.50400001928E-02 0.  1.
        1   -1    0    0  501    0  0.00000000000E+00  0.00000000000E+00 -0.12653838351E+04  0.12653838351E+04  0.50400001928E-02 0. -1.
    10030    2    1    2    0    0  0.00000000000E+00  0.00000000000E+00  0.42087257942E+03  0.29516402497E+04  0.29214801789E+04 0.  0.
        4    1    3    3  502    0 -0.41370183938E+03 -0.77314935149E+03 -0.96989271499E+03  0.13075177334E+04  0.12699999809E+01 0. -1.
       -4    1    3    3    0  502  0.41370183938E+03  0.77314935149E+03  0.13907652944E+04  0.16441225163E+04  0.12699999809E+01 0.  1.
</event>
<event>
 5   0  0.3746518E-06  0.2919917E+04  0.7818609E-02  0.8266976E-01
        1   -1    0    0  501    0  0.00000000000E+00  0.00000000000E+00  0.15655610659E+04  0.15655610660E+04  0.50400001928E-02 0.  1.
       -1   -1    0    0    0  501  0.00000000000E+00  0.00000000000E+00 -0.13614796458E+04  0.13614796458E+04  0.50400001928E-02 0. -1.
    10030    2    1    2    0    0  0.00000000000E+00  0.00000000000E+00  0.20408142016E+03  0.29270407117E+04  0.29199174821E+04 0.  0.
        4    1    3    3  502    0  0.26803359023E+03 -0.90507800765E+03 -0.10144401087E+04  0.13856762076E+04  0.12699999809E+01 0. -1.
       -4    1    3    3    0  502 -0.26803359023E+03  0.90507800765E+03  0.12185215288E+04  0.15413645041E+04  0.12699999809E+01 0.  1.
</event>
<event>
 5   0  0.9505359E-06  0.2885842E+04  0.7818609E-02  0.8277103E-01
       -2   -1    0    0    0  501  0.00000000000E+00  0.00000000000E+00  0.15119231628E+04  0.15119231628E+04  0.25500000920E-02 0. -1.
        2   -1    0    0  501    0  0.00000000000E+00  0.00000000000E+00 -0.13770676183E+04  0.13770676183E+04  0.25500000920E-02 0.  1.
    10030    2    1    2    0    0  0.00000000000E+00  0.00000000000E+00  0.13485554453E+03  0.28889907811E+04  0.28858415957E+04 0.  0.
        4    1    3    3  502    0 -0.11520735012E+03  0.12379633170E+04  0.80047878798E+03  0.14787135662E+04  0.12699999809E+01 0.  1.
       -4    1    3    3    0  502  0.11520735012E+03 -0.12379633170E+04 -0.66562324344E+03  0.14102772149E+04  0.12699999809E+01 0. -1.
</event>
<event>
 5   0  0.3474078E-06  0.2837572E+04  0.7818609E-02  0.8291698E-01
       -1   -1    0    0    0  501  0.00000000000E+00  0.00000000000E+00  0.11712514331E+04  0.11712514331E+04  0.50400001928E-02 0. -1.
        1   -1    0    0  501    0  0.00000000000E+00  0.00000000000E+00 -0.17186355292E+04  0.17186355292E+04  0.50400001928E-02 0.  1.
    10030    2    1    2    0    0  0.00000000000E+00  0.00000000000E+00 -0.54738409614E+03  0.28898869623E+04  0.28375724319E+04 0.  0.
        3    1    3    3  502    0 -0.61166867764E+02 -0.86577732652E+03  0.86933777291E+03  0.12284380076E+04  0.10100000352E+00 0. -1.
       -3    1    3    3    0  502  0.61166867764E+02  0.86577732652E+03 -0.14167218691E+04  0.16614489548E+04  0.10100000352E+00 0.  1.
</event>
<event>
 5   0  0.3649705E-06  0.2546625E+04  0.7818609E-02  0.8386561E-01
        1   -1    0    0  501    0  0.00000000000E+00  0.00000000000E+00  0.20503759882E+04  0.20503759882E+04  0.50400001928E-02 0.  1.
       -1   -1    0    0    0  501  0.00000000000E+00  0.00000000000E+00 -0.79074479535E+03  0.79074479537E+03  0.50400001928E-02 0. -1.
    10030    2    1    2    0    0  0.00000000000E+00  0.00000000000E+00  0.12596311928E+04  0.28411207835E+04  0.25466245433E+04 0.  0.
        2    1    3    3  502    0  0.15641772653E+03 -0.53828437661E+03  0.19053155321E+04  0.19860623988E+04  0.25500000920E-02 0.  1.
       -2    1    3    3    0  502 -0.15641772653E+03  0.53828437661E+03 -0.64568433927E+03  0.85505838471E+03  0.25500000920E-02 0. -1.
</event>
<event>
 5   0  0.9646321E-06  0.2977691E+04  0.7818609E-02  0.8250130E-01
       -2   -1    0    0    0  501  0.00000000000E+00  0.00000000000E+00  0.14271697157E+04  0.14271697157E+04  0.25500000920E-02 0.  1.
        2   -1    0    0  501    0  0.00000000000E+00  0.00000000000E+00 -0.15531862826E+04  0.15531862826E+04  0.25500000920E-02 0. -1.
    10030    2    1    2    0    0  0.00000000000E+00  0.00000000000E+00 -0.12601656692E+03  0.29803559983E+04  0.29776906659E+04 0.  0.
        3    1    3    3  502    0  0.42509800299E+03 -0.13072698486E+04  0.50934064810E+03  0.14659777199E+04  0.10100000352E+00 0.  1.
       -3    1    3    3    0  502 -0.42509800299E+03  0.13072698486E+04 -0.63535721502E+03  0.15143782784E+04  0.10100000352E+00 0. -1.
</event>
<event>
 5   0  0.9646321E-06  0.2835064E+04  0.7818609E-02  0.8292464E-01
       -2   -1    0    0    0  501  0.00000000000E+00  0.00000000000E+00  0.15098230461E+04  0.15098230461E+04  0.25500000920E-02 0.  1.
        2   -1    0    0  501    0  0.00000000000E+00  0.00000000000E+00 -0.13308826924E+04  0.13308826924E+04  0.25500000920E-02 0. -1.
    10030    2    1    2    0    0  0.00000000000E+00  0.00000000000E+00  0.17894035377E+03  0.28407057385E+04  0.28350642748E+04 0.  0.
        3    1    3    3  502    0 -0.81663972254E+03 -0.84793418970E+03  0.88066446564E+03  0.14701913949E+04  0.10100000352E+00 0.  1.
       -3    1    3    3    0  502  0.81663972254E+03  0.84793418970E+03 -0.70172411187E+03  0.13705143435E+04  0.10100000352E+00 0. -1.
</event>
<event>
 5   0  0.9251510E-06  0.2833634E+04  0.7818609E-02  0.8292902E-01
       -2   -1    0    0    0  501  0.00000000000E+00  0.00000000000E+00  0.10288421923E+04  0.10288421923E+04  0.25500000920E-02 0. -1.
        2   -1    0    0  501    0  0.00000000000E+00  0.00000000000E+00 -0.19510960862E+04  0.19510960862E+04  0.25500000920E-02 0.  1.
    10030    2    1    2    0    0  0.00000000000E+00  0.00000000000E+00 -0.92225389385E+03  0.29799382785E+04  0.28336336918E+04 0.  0.
        2    1    3    3  502    0 -0.12907907976E+04 -0.55017963019E+03 -0.25469765240E+03  0.14260818359E+04  0.25500000920E-02 0. -1.
       -2    1    3    3    0  502  0.12907907976E+04  0.55017963019E+03 -0.66755624145E+03  0.15538564426E+04  0.25500000920E-02 0.  1.
</event>
<event>
 5   0  0.3564340E-06  0.2217126E+04  0.7818609E-02  0.8511333E-01
        1   -1    0    0  501    0  0.00000000000E+00  0.00000000000E+00  0.13277401148E+04  0.13277401148E+04  0.50400001928E-02 0.  1.
       -1   -1    0    0    0  501  0.00000000000E+00  0.00000000000E+00 -0.92556671749E+03  0.92556671750E+03  0.50400001928E-02 0. -1.
    10030    2    1    2    0    0  0.00000000000E+00  0.00000000000E+00  0.40217339727E+03  0.22533068323E+04  0.22171261216E+04 0.  0.
        1    1    3    3  502    0  0.42111109338E+02 -0.10034812838E+04  0.67796011727E+03  0.12117664598E+04  0.50400001928E-02 0.  1.
       -1    1    3    3    0  502 -0.42111109338E+02  0.10034812838E+04 -0.27578672000E+03  0.10415403725E+04  0.50400001928E-02 0. -1.
</event>
<event>
 5   0  0.9505359E-06  0.2870646E+04  0.7818609E-02  0.8281665E-01
       -2   -1    0    0    0  501  0.00000000000E+00  0.00000000000E+00  0.13865748175E+04  0.13865748175E+04  0.25500000920E-02 0.  1.
        2   -1    0    0  501    0  0.00000000000E+00  0.00000000000E+00 -0.14857851012E+04  0.14857851012E+04  0.25500000920E-02 0. -1.
    10030    2    1    2    0    0  0.00000000000E+00  0.00000000000E+00 -0.99210283682E+02  0.28723599186E+04  0.28706460635E+04 0.  0.
        4    1    3    3  502    0  0.46368319539E+03  0.89433675882E+03 -0.10726196968E+04  0.14715145159E+04  0.12699999809E+01 0. -1.
       -4    1    3    3    0  502 -0.46368319539E+03 -0.89433675882E+03  0.97340941308E+03  0.14008454027E+04  0.12699999809E+01 0.  1.
</event>
<event>
 5   0  0.3474078E-06  0.2926186E+04  0.7818609E-02  0.8265129E-01
        1   -1    0    0  501    0  0.00000000000E+00  0.00000000000E+00  0.95520670691E+03  0.95520670692E+03  0.50400001928E-02 0.  1.
       -1   -1    0    0    0  501  0.00000000000E+00  0.00000000000E+00 -0.22410232622E+04  0.22410232622E+04  0.50400001928E-02 0. -1.
    10030    2    1    2    0    0  0.00000000000E+00  0.00000000000E+00 -0.12858165553E+04  0.31962299691E+04  0.29261855378E+04 0.  0.
        3    1    3    3  502    0 -0.54432618316E+03  0.11160947094E+03 -0.21212886375E+04  0.21928550252E+04  0.10100000352E+00 0. -1.
       -3    1    3    3    0  502  0.54432618316E+03 -0.11160947094E+03  0.83547208224E+03  0.10033749439E+04  0.10100000352E+00 0.  1.
</event>
<event>
 5   0  0.9646321E-06  0.2931715E+04  0.7818609E-02  0.8263503E-01
       -2   -1    0    0    0  501  0.00000000000E+00  0.00000000000E+00  0.16829958726E+04  0.16829958726E+04  0.25500000920E-02 0.  1.
        2   -1    0    0  501    0  0.00000000000E+00  0.00000000000E+00 -0.12767343261E+04  0.12767343261E+04  0.25500000920E-02 0. -1.
    10030    2    1    2    0    0  0.00000000000E+00  0.00000000000E+00  0.40626154642E+03  0.29597301987E+04  0.29317152667E+04 0.  0.
        3    1    3    3  502    0 -0.88375126588E+03 -0.77116070287E+03 -0.68449413698E+03  0.13580270113E+04  0.10100000352E+00 0. -1.
       -3    1    3    3    0  502  0.88375126588E+03  0.77116070287E+03  0.10907556834E+04  0.16017031874E+04  0.10100000352E+00 0.  1.
</event>
<event>
 5   0  0.9646321E-06  0.2624132E+04  0.7818609E-02  0.8360050E-01
       -2   -1    0    0    0  501  0.00000000000E+00  0.00000000000E+00  0.12995231270E+04  0.12995231270E+04  0.25500000920E-02 0.  1.
        2   -1    0    0  501    0  0.00000000000E+00  0.00000000000E+00 -0.13247295686E+04  0.13247295686E+04  0.25500000920E-02 0. -1.
    10030    2    1    2    0    0  0.00000000000E+00  0.00000000000E+00 -0.25206441566E+02  0.26242526955E+04  0.26241316364E+04 0.  0.
        3    1    3    3  502    0  0.31022638013E+03 -0.47108247582E+03 -0.11972918214E+04  0.13235055050E+04  0.10100000352E+00 0. -1.
       -3    1    3    3    0  502 -0.31022638013E+03  0.47108247582E+03  0.11720853798E+04  0.13007471906E+04  0.10100000352E+00 0.  1.
</event>
<event>
 5   0  0.3564340E-06  0.2118575E+04  0.7818609E-02  0.8553105E-01
        1   -1    0    0  501    0  0.00000000000E+00  0.00000000000E+00  0.15677445031E+04  0.15677445031E+04  0.50400001928E-02 0.  1.
       -1   -1    0    0    0  501  0.00000000000E+00  0.00000000000E+00 -0.71573548066E+03  0.71573548067E+03  0.50400001928E-02 0. -1.
    10030    2    1    2    0    0  0.00000000000E+00  0.00000000000E+00  0.85200902247E+03  0.22834799838E+04  0.21185753378E+04 0.  0.
        1    1    3    3  502    0 -0.45061381277E+03  0.64480685627E+03  0.11906325619E+04  0.14270369959E+04  0.50400001928E-02 0.  1.
       -1    1    3    3    0  502  0.45061381277E+03 -0.64480685627E+03 -0.33862353939E+03  0.85644298795E+03  0.50400001928E-02 0. -1.
</event>
<event>
 5   0  0.3564340E-06  0.2889006E+04  0.7818609E-02  0.8276156E-01
       -1   -1    0    0    0  501  0.00000000000E+00  0.00000000000E+00  0.16305140595E+04  0.16305140595E+04  0.50400001928E-02 0.  1.
        1   -1    0    0  501    0  0.00000000000E+00  0.00000000000E+00 -0.12797127543E+04  0.12797127544E+04  0.50400001928E-02 0. -1.
    10030    2    1    2    0    0  0.00000000000E+00  0.00000000000E+00  0.35080130515E+03  0.29102268139E+04  0.28890064992E+04 0.  0.
        1    1    3    3  502    0 -0.12897526459E+04 -0.37683863732E+02 -0.47875947969E+03  0.13762603680E+04  0.50400001928E-02 0. -1.
       -1    1    3    3    0  502  0.12897526459E+04  0.37683863732E+02  0.82956078484E+03  0.15339664458E+04  0.50400001928E-02 0.  1.
</event>
<event>
 5   0  0.1001573E-05  0.2964834E+04  0.7818609E-02  0.8253845E-01
       -2   -1    0    0    0  501  0.00000000000E+00  0.00000000000E+00  0.27502181066E+04  0.27502181066E+04  0.25500000920E-02 0. -1.
        2   -1    0    0  501    0  0.00000000000E+00  0.00000000000E+00 -0.79904942760E+03  0.79904942760E+03  0.25500000920E-02 0.  1.
    10030    2    1    2    0    0  0.00000000000E+00  0.00000000000E+00  0.19511686790E+04  0.35492675342E+04  0.29648340283E+04 0.  0.
        1    1    3    3  502    0 -0.92047736303E+03  0.75870917620E+03  0.20292161497E+04  0.23538556397E+04  0.50400001928E-02 0. -1.
       -1    1    3    3    0  502  0.92047736303E+03 -0.75870917620E+03 -0.78047470749E+02  0.11954118945E+04  0.50400001928E-02 0.  1.
</event>
<event>
 5   0  0.3746518E-06  0.2884819E+04  0.7818609E-02  0.8277409E-01
       -1   -1    0    0    0  501  0.00000000000E+00  0.00000000000E+00  0.86676881597E+03  0.86676881598E+03  0.50400001928E-02 0. -1.
        1   -1    0    0  501    0  0.00000000000E+00  0.00000000000E+00 -0.24003453330E+04  0.24003453330E+04  0.50400001928E-02 0.  1.
    10030    2    1    2    0    0  0.00000000000E+00  0.00000000000E+00 -0.15335765170E+04  0.32671141490E+04  0.28848185262E+04 0.  0.
        4    1    3    3  502    0  0.12778902933E+04  0.62614409972E+03 -0.50002554376E+03  0.15083392167E+04  0.12699999809E+01 0.  1.
       -4    1    3    3    0  502 -0.12778902933E+04 -0.62614409972E+03 -0.10335509733E+04  0.17587749323E+04  0.12699999809E+01 0. -1.
</event>
<event>
 5   0  0.9360689E-06  0.2850908E+04  0.7818609E-02  0.8287635E-01
        2   -1    0    0  501    0  0.00000000000E+00  0.00000000000E+00  0.19131362250E+04  0.19131362250E+04  0.25500000920E-02 0. -1.
       -2   -1    0    0    0  501  0.00000000000E+00  0.00000000000E+00 -0.10620880589E+04  0.10620880589E+04  0.25500000920E-02 0.  1.
    10030    2    1    2    0    0  0.00000000000E+00  0.00000000000E+00  0.85104816606E+03  0.29752242839E+04  0.28509080236E+04 0.  0.
        5    1    3    3  502    0  0.12632043881E+04  0.65395418120E+03  0.52205425306E+03  0.15152241189E+04  0.46999998093E+01 0. -1.
       -5    1    3    3    0  502 -0.12632043881E+04 -0.65395418120E+03  0.32899391301E+03  0.14600001651E+04  0.46999998093E+01 0.  1.
</event>
<event>
 5   0  0.3649705E-06  0.2858795E+04  0.7818609E-02  0.8285244E-01
        1   -1    0    0  501    0  0.00000000000E+00  0.00000000000E+00  0.11928107466E+04  0.11928107466E+04  0.50400001928E-02 0.  1.
       -1   -1    0    0    0  501  0.00000000000E+00  0.00000000000E+00 -0.17129094643E+04  0.17129094643E+04  0.50400001928E-02 0. -1.
    10030    2    1    2    0    0  0.00000000000E+00  0.00000000000E+00 -0.52009871777E+03  0.29057202109E+04  0.28587947229E+04 0.  0.
        2    1    3    3  502    0 -0.49499957556E+03  0.23379474755E+03  0.10820381473E+04  0.12126380812E+04  0.25500000920E-02 0.  1.
       -2    1    3    3    0  502  0.49499957556E+03 -0.23379474755E+03 -0.16021368650E+04  0.16930821297E+04  0.25500000920E-02 0. -1.
</event>
<event>
 5   0  0.3486236E-06  0.2901554E+04  0.7818609E-02  0.8272415E-01
        1   -1    0    0  501    0  0.00000000000E+00  0.00000000000E+00  0.22941930446E+04  0.22941930447E+04  0.50400001928E-02 0. -1.
       -1   -1    0    0    0  501  0.00000000000E+00  0.00000000000E+00 -0.91742649307E+03  0.91742649309E+03  0.50400001928E-02 0.  1.
    10030    2    1    2    0    0  0.00000000000E+00  0.00000000000E+00  0.13767665516E+04  0.32116195377E+04  0.29015537075E+04 0.  0.
        5    1    3    3  502    0 -0.14241117817E+04 -0.26449529672E+03  0.59792304808E+03  0.15670310112E+04  0.46999998093E+01 0.  1.
       -5    1    3    3    0  502  0.14241117817E+04  0.26449529672E+03  0.77884350349E+03  0.16445885265E+04  0.46999998093E+01 0. -1.
</event>
<event>
 5   0  0.3564340E-06  0.2884571E+04  0.7818609E-02  0.8277483E-01
       -1   -1    0    0    0  501  0.00000000000E+00  0.00000000000E+00  0.20524724616E+04  0.20524724616E+04  0.50400001928E-02 0.  1.
        1   -1    0    0  501    0  0.00000000000E+00  0.00000000000E+00 -0.10135031452E+04  0.10135031452E+04  0.50400001928E-02 0. -1.
    10030    2    1    2    0    0  0.00000000000E+00  0.00000000000E+00  0.10389693164E+04  0.30659756069E+04  0.28845708834E+04 0.  0.
        1    1    3    3  502    0 -0.36933489574E+03 -0.10313631349E+04  0.15166010819E+04  0.18708813492E+04  0.50400001928E-02 0.  1.
       -1    1    3    3    0  502  0.36933489574E+03  0.10313631349E+04 -0.47763176551E+03  0.11950942576E+04  0.50400001928E-02 0. -1.
</event>
<event>
 5   0  0.9360689E-06  0.2900890E+04  0.7818609E-02  0.8272613E-01
        2   -1    0    0  501    0  0.00000000000E+00  0.00000000000E+00  0.27111348897E+04  0.27111348897E+04  0.25500000920E-02 0. -1.
       -2   -1    0    0    0  501  0.00000000000E+00  0.00000000000E+00 -0.77598140597E+03  0.77598140597E+03  0.25500000920E-02 0.  1.
    10030    2    1    2    0    0  0.00000000000E+00  0.00000000000E+00  0.19351534838E+04  0.34871162957E+04  0.29008897004E+04 0.  0.
        5    1    3    3  502    0 -0.93145678961E+03  0.38170825858E+03 -0.28769899591E+03  0.10469506903E+04  0.46999998093E+01 0.  1.
       -5    1    3    3    0  502  0.93145678961E+03 -0.38170825858E+03  0.22228524797E+04  0.24401656054E+04  0.46999998093E+01 0. -1.
</event>
<event>
 5   0  0.3649705E-06  0.2872271E+04  0.7818609E-02  0.8281176E-01
       -1   -1    0    0    0  501  0.00000000000E+00  0.00000000000E+00  0.12723206980E+04  0.12723206980E+04  0.50400001928E-02 0.  1.
        1   -1    0    0  501    0  0.00000000000E+00  0.00000000000E+00 -0.16210421089E+04  0.16210421089E+04  0.50400001928E-02 0. -1.
    10030    2    1    2    0    0  0.00000000000E+00  0.00000000000E+00 -0.34872141089E+03  0.28933628069E+04  0.28722711762E+04 0.  0.
        2    1    3    3  502    0 -0.13319568238E+04  0.21065705038E+03 -0.67195158996E+03  0.15066533485E+04  0.25500000920E-02 0. -1.
       -2    1    3    3    0  502  0.13319568238E+04 -0.21065705038E+03  0.32323017907E+03  0.13867094584E+04  0.25500000920E-02 0.  1.
</event>
<event>
 5   0  0.3474078E-06  0.2842691E+04  0.7818609E-02  0.8290136E-01
        1   -1    0    0  501    0  0.00000000000E+00  0.00000000000E+00  0.24989000323E+04  0.24989000324E+04  0.50400001928E-02 0.  1.
       -1   -1    0    0    0  501  0.00000000000E+00  0.00000000000E+00 -0.80844496081E+03  0.80844496082E+03  0.50400001928E-02 0. -1.
    10030    2    1    2    0    0  0.00000000000E+00  0.00000000000E+00  0.16904550715E+04  0.33073449932E+04  0.28426910762E+04 0.  0.
        3    1    3    3  502    0 -0.11580821721E+03 -0.11105098289E+04  0.18685259722E+04  0.21767023091E+04  0.10100000352E+00 0.  1.
       -3    1    3    3    0  502  0.11580821721E+03  0.11105098289E+04 -0.17807090067E+03  0.11306426841E+04  0.10100000352E+00 0. -1.
</event>
<event>
 5   0  0.9646321E-06  0.3164113E+04  0.7818609E-02  0.8198360E-01
       -2   -1    0    0    0  501  0.00000000000E+00  0.00000000000E+00  0.92614484196E+03  0.92614484196E+03  0.25500000920E-02 0. -1.
        2   -1    0    0  501    0  0.00000000000E+00  0.00000000000E+00 -0.27024962523E+04  0.27024962523E+04  0.25500000920E-02 0.  1.
    10030    2    1    2    0    0  0.00000000000E+00  0.00000000000E+00 -0.17763514103E+04  0.36286410942E+04  0.31641131234E+04 0.  0.
        3    1    3    3  502    0 -0.13385889930E+04  0.71733254326E+03 -0.37979213617E+03  0.15654483533E+04  0.10100000352E+00 0. -1.
       -3    1    3    3    0  502  0.13385889930E+04 -0.71733254326E+03 -0.13965592741E+04  0.20631927409E+04  0.10100000352E+00 0.  1.
</event>
<event>
 5   0  0.9360689E-06  0.2878388E+04  0.7818609E-02  0.8279337E-01
        2   -1    0    0  501    0  0.00000000000E+00  0.00000000000E+00  0.22442878606E+04  0.22442878607E+04  0.25500000920E-02 0.  1.
       -2   -1    0    0    0  501  0.00000000000E+00  0.00000000000E+00 -0.92291141262E+03  0.92291141262E+03  0.25500000920E-02 0. -1.
    10030    2    1    2    0    0  0.00000000000E+00  0.00000000000E+00  0.13213764480E+04  0.31671992733E+04  0.28783876596E+04 0.  0.
        5    1    3    3  502    0 -0.41019619193E+03  0.41547893086E+03  0.21081129475E+04  0.21874747878E+04  0.46999998093E+01 0.  1.
       -5    1    3    3    0  502  0.41019619193E+03 -0.41547893086E+03 -0.78673649946E+03  0.97972448547E+03  0.46999998093E+01 0. -1.
</event>
<event>
 5   0  0.1001573E-05  0.2964677E+04  0.7818609E-02  0.8253890E-01
        2   -1    0    0  501    0  0.00000000000E+00  0.00000000000E+00  0.21588132117E+04  0.21588132117E+04  0.25500000920E-02 0.  1.
       -2   -1    0    0    0  501  0.00000000000E+00  0.00000000000E+00 -0.10178403157E+04  0.10178403157E+04  0.25500000920E-02 0. -1.
    10030    2    1    2    0    0  0.00000000000E+00  0.00000000000E+00  0.11409728960E+04  0.31766535275E+04  0.29646767926E+04 0.  0.
        1    1    3    3  502    0 -0.42457259855E+03 -0.87301835001E+02  0.20893907373E+04  0.21338784302E+04  0.50400001928E-02 0.  1.
       -1    1    3    3    0  502  0.42457259855E+03  0.87301835001E+02 -0.94841784128E+03  0.10427750973E+04  0.50400001928E-02 0. -1.
</event>
<event>
 5   0  0.3746518E-06  0.2939601E+04  0.7818609E-02  0.8261192E-01
        1   -1    0    0  501    0  0.00000000000E+00  0.00000000000E+00  0.19079460458E+04  0.19079460458E+04  0.50400001928E-02 0.  1.
       -1   -1    0    0    0  501  0.00000000000E+00  0.00000000000E+00 -0.11322714396E+04  0.11322714396E+04  0.50400001928E-02 0. -1.
    10030    2    1    2    0    0  0.00000000000E+00  0.00000000000E+00  0.77567460620E+03  0.30402174854E+04  0.29396005280E+04 0.  0.
        4    1    3    3  502    0 -0.57501006098E+03  0.80654284875E+03 -0.73522359464E+03  0.12335733801E+04  0.12699999809E+01 0. -1.
       -4    1    3    3    0  502  0.57501006098E+03 -0.80654284875E+03  0.15108982008E+04  0.18066441053E+04  0.12699999809E+01 0.  1.
</event>
<event>
 5   0  0.3474078E-06  0.2863639E+04  0.7818609E-02  0.8283779E-01
       -1   -1    0    0    0  501  0.00000000000E+00  0.00000000000E+00  0.12204641084E+04  0.12204641084E+04  0.50400001928E-02 0.  1.
        1   -1    0    0  501    0  0.00000000000E+00  0.00000000000E+00 -0.16797764373E+04  0.16797764373E+04  0.50400001928E-02 0. -1.
    10030    2    1    2    0    0  0.00000000000E+00  0.00000000000E+00 -0.45931232892E+03  0.29002405458E+04  0.28636388403E+04 0.  0.
        3    1    3    3  502    0  0.52115248210E+03  0.37025168274E+03 -0.15272109938E+04  0.16556145832E+04  0.10100000352E+00 0. -1.
       -3    1    3    3    0  502 -0.52115248210E+03 -0.37025168274E+03  0.10678986649E+04  0.12446259626E+04  0.10100000352E+00 0.  1.
</event>
<event>
 5   0  0.3564340E-06  0.2860008E+04  0.7818609E-02  0.8284877E-01
       -1   -1    0    0    0  501  0.00000000000E+00  0.00000000000E+00  0.84336779424E+03  0.84336779426E+03  0.50400001928E-02 0. -1.
        1   -1    0    0  501    0  0.00000000000E+00  0.00000000000E+00 -0.24246973336E+04  0.24246973336E+04  0.50400001928E-02 0.  1.
    10030    2    1    2    0    0  0.00000000000E+00  0.00000000000E+00 -0.15813295393E+04  0.32680651278E+04  0.28600081412E+04 0.  0.
        1    1    3    3  502    0 -0.41298161752E+03  0.37843486015E+03 -0.22941187580E+04  0.23615138441E+04  0.50400001928E-02 0.  1.
       -1    1    3    3    0  502  0.41298161752E+03 -0.37843486015E+03  0.71278921869E+03  0.90655128377E+03  0.50400001928E-02 0. -1.
</event>
<event>
 5   0  0.9251510E-06  0.2867762E+04  0.7818609E-02  0.8282534E-01
       -2   -1    0    0    0  501  0.00000000000E+00  0.00000000000E+00  0.12084079322E+04  0.12084079322E+04  0.25500000920E-02 0.  1.
        2   -1    0    0  501    0  0.00000000000E+00  0.00000000000E+00 -0.17014243838E+04  0.17014243838E+04  0.25500000920E-02 0. -1.
    10030    2    1    2    0    0  0.00000000000E+00  0.00000000000E+00 -0.49301645164E+03  0.29098323160E+04  0.28677619995E+04 0.  0.
        2    1    3    3  502    0  0.96388103545E+03  0.22870404067E+03 -0.12983656334E+04  0.16331336463E+04  0.25500000920E-02 0. -1.
       -2    1    3    3    0  502 -0.96388103545E+03 -0.22870404067E+03  0.80534918175E+03  0.12766986697E+04  0.25500000920E-02 0.  1.
</event>
<event>
 5   0  0.3474078E-06  0.2911224E+04  0.7818609E-02  0.8269546E-01
        1   -1    0    0  501    0  0.00000000000E+00  0.00000000000E+00  0.32024864827E+04  0.32024864827E+04  0.50400001928E-02 0. -1.
       -1   -1    0    0    0  501  0.00000000000E+00  0.00000000000E+00 -0.66161299146E+03  0.66161299148E+03  0.50400001928E-02 0.  1.
    10030    2    1    2    0    0  0.00000000000E+00  0.00000000000E+00  0.25408734912E+04  0.38640994742E+04  0.29112242524E+04 0.  0.
        3    1    3    3  502    0 -0.64489689827E+03  0.12573269729E+04  0.80674431135E+03  0.16271445911E+04  0.10100000352E+00 0.  1.
       -3    1    3    3    0  502  0.64489689827E+03 -0.12573269729E+04  0.17341291799E+04  0.22369548831E+04  0.10100000352E+00 0. -1.
</event>
<event>
 5   0  0.3188375E-06  0.2896383E+04  0.7818609E-02  0.8273955E-01
       -4   -1    0    0    0  501  0.00000000000E+00  0.00000000000E+00  0.20488920015E+04  0.20488923951E+04  0.12699999809E+01 0. -1.
        4   -1    0    0  501    0  0.00000000000E+00  0.00000000000E+00 -0.10236049967E+04  0.10236057846E+04  0.12699999809E+01 0.  1.
    10030    2    1    2    0    0  0.00000000000E+00  0.00000000000E+00  0.10252870048E+04  0.30724981797E+04  0.28963825062E+04 0.  0.
        5    1    3    3  502    0  0.10389944625E+04 -0.99057154089E+03  0.71529438695E+03  0.16038733182E+04  0.46999998093E+01 0. -1.
       -5    1    3    3    0  502 -0.10389944625E+04  0.99057154089E+03  0.30999261783E+03  0.14686248615E+04  0.46999998093E+01 0.  1.
</event>
<event>
 5   0  0.3746518E-06  0.2883515E+04  0.7818609E-02  0.8277799E-01
        1   -1    0    0  501    0  0.00000000000E+00  0.00000000000E+00  0.23822974277E+04  0.23822974277E+04  0.50400001928E-02 0. -1.
       -1   -1    0    0    0  501  0.00000000000E+00  0.00000000000E+00 -0.87254605032E+03  0.87254605033E+03  0.50400001928E-02 0.  1.
    10030    2    1    2    0    0  0.00000000000E+00  0.00000000000E+00  0.15097513774E+04  0.32548434781E+04  0.28835146688E+04 0.  0.
        4    1    3    3  502    0 -0.23716287315E+03  0.13577347716E+04  0.12324063809E+04  0.18489232106E+04  0.12699999809E+01 0. -1.
       -4    1    3    3    0  502  0.23716287315E+03 -0.13577347716E+04  0.27734499655E+03  0.14059202674E+04  0.12699999809E+01 0.  1.
</event>
<event>
 5   0  0.1001573E-05  0.2980538E+04  0.7818609E-02  0.8249310E-01
        2   -1    0    0  501    0  0.00000000000E+00  0.00000000000E+00  0.23485395028E+04  0.23485395028E+04  0.25500000920E-02 0.  1.
       -2   -1    0    0    0  501  0.00000000000E+00  0.00000000000E+00 -0.94565234169E+03  0.94565234169E+03  0.25500000920E-02 0. -1.
    10030    2    1    2    0    0  0.00000000000E+00  0.00000000000E+00  0.14028871611E+04  0.32941918445E+04  0.29805381262E+04 0.  0.
        1    1    3    3  502    0 -0.10217803749E+03  0.13337946563E+04 -0.24530517329E+02  0.13379276074E+04  0.50400001928E-02 0. -1.
       -1    1    3    3    0  502  0.10217803749E+03 -0.13337946563E+04  0.14274176784E+04  0.19562642371E+04  0.50400001928E-02 0.  1.
</event>
<event>
 5   0  0.9646321E-06  0.2910580E+04  0.7818609E-02  0.8269737E-01
        2   -1    0    0  501    0  0.00000000000E+00  0.00000000000E+00  0.16236753594E+04  0.16236753594E+04  0.25500000920E-02 0.  1.
       -2   -1    0    0    0  501  0.00000000000E+00  0.00000000000E+00 -0.13043670304E+04  0.13043670304E+04  0.25500000920E-02 0. -1.
    10030    2    1    2    0    0  0.00000000000E+00  0.00000000000E+00  0.31930832896E+03  0.29280423898E+04  0.29105797408E+04 0.  0.
        3    1    3    3  502    0 -0.16334365983E+03 -0.98972543893E+03  0.12203190288E+04  0.15796886205E+04  0.10100000352E+00 0.  1.
       -3    1    3    3    0  502  0.16334365983E+03  0.98972543893E+03 -0.90101069981E+03  0.13483537692E+04  0.10100000352E+00 0. -1.
</event>
<event>
 5   0  0.3649705E-06  0.2848565E+04  0.7818609E-02  0.8288347E-01
       -1   -1    0    0    0  501  0.00000000000E+00  0.00000000000E+00  0.84926119866E+03  0.84926119867E+03  0.50400001928E-02 0.  1.
        1   -1    0    0  501    0  0.00000000000E+00  0.00000000000E+00 -0.23886418606E+04  0.23886418607E+04  0.50400001928E-02 0. -1.
    10030    2    1    2    0    0  0.00000000000E+00  0.00000000000E+00 -0.15393806620E+04  0.32379030593E+04  0.28485651474E+04 0.  0.
        2    1    3    3  502    0 -0.79030071289E+03 -0.37551658509E+02 -0.21158727280E+04  0.22589605452E+04  0.25500000920E-02 0. -1.
       -2    1    3    3    0  502  0.79030071289E+03  0.37551658509E+02  0.57649206596E+03  0.97894251413E+03  0.25500000920E-02 0.  1.
</event>
<event>
 5   0  0.3486236E-06  0.2915226E+04  0.7818609E-02  0.8268362E-01
       -1   -1    0    0    0  501  0.00000000000E+00  0.00000000000E+00  0.13222593253E+04  0.13222593253E+04  0.50400001928E-02 0.  1.
        1   -1    0    0  501    0  0.00000000000E+00  0.00000000000E+00 -0.16068226835E+04  0.16068226835E+04  0.50400001928E-02 0. -1.
    10030    2    1    2    0    0  0.00000000000E+00  0.00000000000E+00 -0.28456335818E+03  0.29290820088E+04  0.29152264251E+04 0.  0.
        5    1    3    3  502    0 -0.24729587554E+03  0.93736961139E+03  0.95137557908E+03  0.13582910663E+04  0.46999998093E+01 0.  1.
       -5    1    3    3    0  502  0.24729587554E+03 -0.93736961139E+03 -0.12359389373E+04  0.15707909425E+04  0.46999998093E+01 0. -1.
</event>
<event>
 5   0  0.9360689E-06  0.2895356E+04  0.7818609E-02  0.8274260E-01
       -2   -1    0    0    0  501  0.00000000000E+00  0.00000000000E+00  0.13545905027E+04  0.13545905027E+04  0.25500000920E-02 0.  1.
        2   -1    0    0  501    0  0.00000000000E+00  0.00000000000E+00 -0.15471629154E+04  0.15471629154E+04  0.25500000920E-02 0. -1.
    10030    2    1    2    0    0  0.00000000000E+00  0.00000000000E+00 -0.19257241263E+03  0.29017534181E+04  0.28953564142E+04 0.  0.
        5    1    3    3  502    0 -0.64017743437E+02 -0.45382725508E+03 -0.14725254154E+04  0.15422096608E+04  0.46999998093E+01 0. -1.
       -5    1    3    3    0  502  0.64017743437E+02  0.45382725508E+03  0.12799530027E+04  0.13595437573E+04  0.46999998093E+01 0.  1.
</event>
<event>
 5   0  0.1001573E-05  0.2860502E+04  0.7818609E-02  0.8284727E-01
       -2   -1    0    0    0  501  0.00000000000E+00  0.00000000000E+00  0.14069478587E+04  0.14069478587E+04  0.25500000920E-02 0.  1.
        2   -1    0    0  501    0  0.00000000000E+00  0.00000000000E+00 -0.14539399917E+04  0.14539399917E+04  0.25500000920E-02 0. -1.
    10030    2    1    2    0    0  0.00000000000E+00  0.00000000000E+00 -0.46992133057E+02  0.28608878504E+04  0.28605018847E+04 0.  0.
        1    1    3    3  502    0 -0.88204206694E+03 -0.11423800356E+03 -0.11437227436E+04  0.14488444511E+04  0.50400001928E-02 0. -1.
       -1    1    3    3    0  502  0.88204206694E+03  0.11423800356E+03  0.10967306106E+04  0.14120433993E+04  0.50400001928E-02 0.  1.
</event>
<event>
 5   0  0.3486236E-06  0.2096425E+04  0.7818609E-02  0.8562820E-01
       -1   -1    0    0    0  501  0.00000000000E+00  0.00000000000E+00  0.90859783849E+03  0.90859783851E+03  0.50400001928E-02 0. -1.
        1   -1    0    0  501    0  0.00000000000E+00  0.00000000000E+00 -0.12092806816E+04  0.12092806816E+04  0.50400001928E-02 0.  1.
    10030    2    1    2    0    0  0.00000000000E+00  0.00000000000E+00 -0.30068284309E+03  0.21178785201E+04  0.20964253513E+04 0.  0.
        5    1    3    3  502    0 -0.55691801144E+03  0.87384595560E+03  0.92731815252E+01  0.10362781998E+04  0.46999998093E+01 0.  1.
       -5    1    3    3    0  502  0.55691801144E+03 -0.87384595560E+03 -0.30995602461E+03  0.10816003203E+04  0.46999998093E+01 0. -1.
</event>
<event>
 5   0  0.3746518E-06  0.2923673E+04  0.7818609E-02  0.8265869E-01
        1   -1    0    0  501    0  0.00000000000E+00  0.00000000000E+00  0.13387387419E+04  0.13387387419E+04  0.50400001928E-02 0. -1.
       -1   -1    0    0    0  501  0.00000000000E+00  0.00000000000E+00 -0.15962537051E+04  0.15962537051E+04  0.50400001928E-02 0.  1.
    10030    2    1    2    0    0  0.00000000000E+00  0.00000000000E+00 -0.25751496327E+03  0.29349924470E+04  0.29236734954E+04 0.  0.
        4    1    3    3  502    0  0.10628654740E+04  0.63190999149E+03 -0.91150164689E+03  0.15361738568E+04  0.12699999809E+01 0.  1.
       -4    1    3    3    0  502 -0.10628654740E+04 -0.63190999149E+03  0.65398668362E+03  0.13988185902E+04  0.12699999809E+01 0. -1.
</event>
<event>
 5   0  0.9505359E-06  0.2884748E+04  0.7818609E-02  0.8277430E-01
        2   -1    0    0  501    0  0.00000000000E+00  0.00000000000E+00  0.15744215144E+04  0.15744215144E+04  0.25500000920E-02 0. -1.
       -2   -1    0    0    0  501  0.00000000000E+00  0.00000000000E+00 -0.13214015786E+04  0.13214015786E+04  0.25500000920E-02 0.  1.
    10030    2    1    2    0    0  0.00000000000E+00  0.00000000000E+00  0.25301993575E+03  0.28958230930E+04  0.28847482209E+04 0.  0.
        4    1    3    3  502    0  0.11554878245E+04  0.59322392254E+03 -0.50309383145E+03  0.13929004813E+04  0.12699999809E+01 0.  1.
       -4    1    3    3    0  502 -0.11554878245E+04 -0.59322392254E+03  0.75611376720E+03  0.15029226117E+04  0.12699999809E+01 0. -1.
</event>
<event>
 5   0  0.9646321E-06  0.2914513E+04  0.7818609E-02  0.8268573E-01
       -2   -1    0    0    0  501  0.00000000000E+00  0.00000000000E+00  0.86329167790E+03  0.86329167790E+03  0.25500000920E-02 0. -1.
        2   -1    0    0  501    0  0.00000000000E+00  0.00000000000E+00 -0.24598829560E+04  0.24598829560E+04  0.25500000920E-02 0.  1.
    10030    2    1    2    0    0  0.00000000000E+00  0.00000000000E+00 -0.15965912781E+04  0.33231746339E+04  0.29145129847E+04 0.  0.
        3    1    3    3  502    0  0.81669828559E+03  0.11365386087E+04 -0.12612856847E+04  0.18840269869E+04  0.10100000352E+00 0.  1.
       -3    1    3    3    0  502 -0.81669828559E+03 -0.11365386087E+04 -0.33530559336E+03  0.14391476470E+04  0.10100000352E+00 0. -1.
</event>
<event>
 5   0  0.9360689E-06  0.2928611E+04  0.7818609E-02  0.8264415E-01
       -2   -1    0    0    0  501  0.00000000000E+00  0.00000000000E+00  0.24510740228E+04  0.24510740228E+04  0.25500000920E-02 0. -1.
        2   -1    0    0  501    0  0.00000000000E+00  0.00000000000E+00 -0.87479637783E+03  0.87479637783E+03  0.25500000920E-02 0.  1.
    10030    2    1    2    0    0  0.00000000000E+00  0.00000000000E+00  0.15762776449E+04  0.33258704006E+04  0.29286110543E+04 0.  0.
        5    1    3    3  502    0 -0.24260731842E+03  0.12621929480E+04  0.15848579970E+04  0.20405357899E+04  0.46999998093E+01 0. -1.
       -5    1    3    3    0  502  0.24260731842E+03 -0.12621929480E+04 -0.85803521005E+01  0.12853346107E+04  0.46999998093E+01 0.  1.
</event>
<event>
 5   0  0.9360689E-06  0.2950585E+04  0.7818609E-02  0.8257984E-01
        2   -1    0    0  501    0  0.00000000000E+00  0.00000000000E+00  0.15436585567E+04  0.15436585567E+04  0.25500000920E-02 0.  1.
       -2   -1    0    0    0  501  0.00000000000E+00  0.00000000000E+00 -0.14099538299E+04  0.14099538299E+04  0.25500000920E-02 0. -1.
    10030    2    1    2    0    0  0.00000000000E+00  0.00000000000E+00  0.13370472679E+03  0.29536123867E+04  0.29505845483E+04 0.  0.
        5    1    3    3  502    0 -0.14740812337E+04  0.45134762990E+01  0.73830744577E+01  0.14741141255E+04  0.46999998093E+01 0. -1.
       -5    1    3    3    0  502  0.14740812337E+04 -0.45134762990E+01  0.12632165233E+03  0.14794982612E+04  0.46999998093E+01 0.  1.
</event>
<event>
 5   0  0.9360689E-06  0.2912862E+04  0.7818609E-02  0.8269061E-01
       -2   -1    0    0    0  501  0.00000000000E+00  0.00000000000E+00  0.10068907786E+04  0.10068907786E+04  0.25500000920E-02 0. -1.
        2   -1    0    0  501    0  0.00000000000E+00  0.00000000000E+00 -0.21066743407E+04  0.21066743407E+04  0.25500000920E-02 0.  1.
    10030    2    1    2    0    0  0.00000000000E+00  0.00000000000E+00 -0.10997835621E+04  0.31135651193E+04  0.29128618004E+04 0.  0.
        5    1    3    3  502    0  0.31909387720E+03 -0.14153324426E+04 -0.68586546429E+03  0.16048116247E+04  0.46999998093E+01 0.  1.
       -5    1    3    3    0  502 -0.31909387720E+03  0.14153324426E+04 -0.41391809783E+03  0.15087534946E+04  0.46999998093E+01 0. -1.
</event>
<event>
 5   0  0.3486236E-06  0.2906801E+04  0.7818609E-02  0.8270857E-01
       -1   -1    0    0    0  501  0.00000000000E+00  0.00000000000E+00  0.13376202018E+04  0.13376202019E+04  0.50400001928E-02 0.  1.
        1   -1    0    0  501    0  0.00000000000E+00  0.00000000000E+00 -0.15792028277E+04  0.15792028277E+04  0.50400001928E-02 0. -1.
    10030    2    1    2    0    0  0.00000000000E+00  0.00000000000E+00 -0.24158262586E+03  0.29168230296E+04  0.29068014072E+04 0.  0.
        5    1    3    3  502    0  0.58143015945E+03 -0.84609990781E+03 -0.11531265424E+04  0.15439135329E+04  0.46999998093E+01 0. -1.
       -5    1    3    3    0  502 -0.58143015945E+03  0.84609990781E+03  0.91154391652E+03  0.13729094967E+04  0.46999998093E+01 0.  1.
</event>
<event>
 5   0  0.1001573E-05  0.2928674E+04  0.7818609E-02  0.8264397E-01
        2   -1    0    0  501    0  0.00000000000E+00  0.00000000000E+00  0.16780616319E+04  0.16780616319E+04  0.25500000920E-02 0. -1.
       -2   -1    0    0    0  501  0.00000000000E+00  0.00000000000E+00 -0.12778328272E+04  0.12778328272E+04  0.25500000920E-02 0.  1.
    10030    2    1    2    0    0  0.00000000000E+00  0.00000000000E+00  0.40022880470E+03  0.29558944590E+04  0.29286735832E+04 0.  0.
        1    1    3    3  502    0  0.57362655361E+03 -0.12210052310E+04 -0.37472388367E+03  0.14001139904E+04  0.50400001928E-02 0.  1.
       -1    1    3    3    0  502 -0.57362655361E+03  0.12210052310E+04  0.77495268837E+03  0.15557804686E+04  0.50400001928E-02 0. -1.
</event>
<event>
 5   0  0.3649705E-06  0.2935148E+04  0.7818609E-02  0.8262496E-01
       -1   -1    0    0    0  501  0.00000000000E+00  0.00000000000E+00  0.10333763906E+04  0.10333763906E+04  0.50400001928E-02 0. -1.
        1   -1    0    0  501    0  0.00000000000E+00  0.00000000000E+00 -0.20842101596E+04  0.20842101596E+04  0.50400001928E-02 0.  1.
    10030    2    1    2    0    0  0.00000000000E+00  0.00000000000E+00 -0.10508337690E+04  0.31175865502E+04  0.29351480862E+04 0.  0.
        2    1    3    3  502    0  0.12954231725E+04  0.30568456266E+03  0.13124096582E+03  0.13374559577E+04  0.25500000920E-02 0. -1.
       -2    1    3    3    0  502 -0.12954231725E+04 -0.30568456266E+03 -0.11820747348E+04  0.17801305925E+04  0.25500000920E-02 0.  1.
</event>
<event>
 5   0  0.3649705E-06  0.2910367E+04  0.7818609E-02  0.8269800E-01
        1   -1    0    0  501    0  0.00000000000E+00  0.00000000000E+00  0.21214046883E+04  0.21214046883E+04  0.50400001928E-02 0. -1.
       -1   -1    0    0    0  501  0.00000000000E+00  0.00000000000E+00 -0.99818703891E+03  0.99818703892E+03  0.50400001928E-02 0.  1.
    10030    2    1    2    0    0  0.00000000000E+00  0.00000000000E+00  0.11232176494E+04  0.31195917273E+04  0.29103667564E+04 0.  0.
        2    1    3    3  502    0  0.58529756362E+03 -0.68146391164E+03  0.17887198424E+04  0.20016205873E+04  0.25500000920E-02 0. -1.
       -2    1    3    3    0  502 -0.58529756362E+03  0.68146391164E+03 -0.66550219301E+03  0.11179711399E+04  0.25500000920E-02 0.  1.
</event>
<event>
 5   0  0.3474078E-06  0.2847436E+04  0.7818609E-02  0.8288691E-01
        1   -1    0    0  501    0  0.00000000000E+00  0.00000000000E+00  0.20685454625E+04  0.20685454626E+04  0.50400001928E-02 0. -1.
       -1   -1    0    0    0  501  0.00000000000E+00  0.00000000000E+00 -0.97990233552E+03  0.97990233553E+03  0.50400001928E-02 0.  1.
    10030    2    1    2    0    0  0.00000000000E+00  0.00000000000E+00  0.10886431270E+04  0.30484477981E+04  0.28474357095E+04 0.  0.
        3    1    3    3  502    0  0.29616504047E+03 -0.80670181591E+03 -0.67092814269E+03  0.10902413191E+04  0.10100000352E+00 0.  1.
       -3    1    3    3    0  502 -0.29616504047E+03  0.80670181591E+03  0.17595712697E+04  0.19582064790E+04  0.10100000352E+00 0. -1.
</event>
<event>
 5   0  0.1001573E-05  0.2871126E+04  0.7818609E-02  0.8281520E-01
        2   -1    0    0  501    0  0.00000000000E+00  0.00000000000E+00  0.17329678235E+04  0.17329678235E+04  0.25500000920E-02 0.  1.
       -2   -1    0    0    0  501  0.00000000000E+00  0.00000000000E+00 -0.11891978175E+04  0.11891978176E+04  0.25500000920E-02 0. -1.
    10030    2    1    2    0    0  0.00000000000E+00  0.00000000000E+00  0.54377000594E+03  0.29221656410E+04  0.28711262972E+04 0.  0.
        1    1    3    3  502    0 -0.20010393962E+03  0.35329200600E+03 -0.11295402859E+04  0.12002991651E+04  0.50400001928E-02 0. -1.
       -1    1    3    3    0  502  0.20010393962E+03 -0.35329200600E+03  0.16733102919E+04  0.17218664760E+04  0.50400001928E-02 0.  1.
</event>
<event>
 5   0  0.3746518E-06  0.2876043E+04  0.7818609E-02  0.8280041E-01
       -1   -1    0    0    0  501  0.00000000000E+00  0.00000000000E+00  0.71089800790E+03  0.71089800792E+03  0.50400001928E-02 0.  1.
        1   -1    0    0  501    0  0.00000000000E+00  0.00000000000E+00 -0.29088637809E+04  0.29088637809E+04  0.50400001928E-02 0. -1.
    10030    2    1    2    0    0  0.00000000000E+00  0.00000000000E+00 -0.21979657730E+04  0.36197617888E+04  0.28760427446E+04 0.  0.
        4    1    3    3  502    0 -0.26733127702E+03 -0.10536440626E+04  0.85880220453E+02  0.10904168228E+04  0.12699999809E+01 0.  1.
       -4    1    3    3    0  502  0.26733127702E+03  0.10536440626E+04 -0.22838459935E+04  0.25293449660E+04  0.12699999809E+01 0. -1.
</event>
<event>
 5   0  0.3746518E-06  0.2876996E+04  0.7818609E-02  0.8279755E-01
        1   -1    0    0  501    0  0.00000000000E+00  0.00000000000E+00  0.13609658221E+04  0.13609658221E+04  0.50400001928E-02 0.  1.
       -1   -1    0    0    0  501  0.00000000000E+00  0.00000000000E+00 -0.15204466189E+04  0.15204466189E+04  0.50400001928E-02 0. -1.
    10030    2    1    2    0    0  0.00000000000E+00  0.00000000000E+00 -0.15948079678E+03  0.28814124410E+04  0.28769955736E+04 0.  0.
        4    1    3    3  502    0  0.14839490743E+03 -0.11536903029E+04  0.76787556771E+03  0.13937922599E+04  0.12699999809E+01 0.  1.
       -4    1    3    3    0  502 -0.14839490743E+03  0.11536903029E+04 -0.92735636448E+03  0.14876201811E+04  0.12699999809E+01 0. -1.
</event>
<event>
 5   0  0.3486236E-06  0.2932821E+04  0.7818609E-02  0.8263179E-01
        1   -1    0    0  501    0  0.00000000000E+00  0.00000000000E+00  0.15993100257E+04  0.15993100257E+04  0.50400001928E-02 0.  1.
       -1   -1    0    0    0  501  0.00000000000E+00  0.00000000000E+00 -0.13445548780E+04  0.13445548780E+04  0.50400001928E-02 0. -1.
    10030    2    1    2    0    0  0.00000000000E+00  0.00000000000E+00  0.25475514769E+03  0.29438649036E+04  0.29328212331E+04 0.  0.
        5    1    3    3  502    0 -0.41328221561E+03  0.12671664868E+04 -0.48633695344E+03  0.14188230395E+04  0.46999998093E+01 0.  1.
       -5    1    3    3    0  502  0.41328221561E+03 -0.12671664868E+04  0.74109210113E+03  0.15250418642E+04  0.46999998093E+01 0. -1.
</event>
<event>
 5   0  0.9251510E-06  0.3036124E+04  0.7818609E-02  0.8233490E-01
       -2   -1    0    0    0  501  0.00000000000E+00  0.00000000000E+00  0.17600059899E+04  0.17600059899E+04  0.25500000920E-02 0. -1.
        2   -1    0    0  501    0  0.00000000000E+00  0.00000000000E+00 -0.13093774488E+04  0.13093774488E+04  0.25500000920E-02 0.  1.
    10030    2    1    2    0    0  0.00000000000E+00  0.00000000000E+00  0.45062854108E+03  0.30693834387E+04  0.30361239454E+04 0.  0.
        2    1    3    3  502    0 -0.94254656817E+03  0.48055088253E+03  0.13259039825E+04  0.16962737263E+04  0.25500000920E-02 0. -1.
       -2    1    3    3    0  502  0.94254656817E+03 -0.48055088253E+03 -0.87527544139E+03  0.13731097124E+04  0.25500000920E-02 0.  1.
</event>
<event>
 5   0  0.9505359E-06  0.2881347E+04  0.7818609E-02  0.8278449E-01
        2   -1    0    0  501    0  0.00000000000E+00  0.00000000000E+00  0.74345915011E+03  0.74345915011E+03  0.25500000920E-02 0.  1.
       -2   -1    0    0    0  501  0.00000000000E+00  0.00000000000E+00 -0.27917340374E+04  0.27917340374E+04  0.25500000920E-02 0. -1.
    10030    2    1    2    0    0  0.00000000000E+00  0.00000000000E+00 -0.20482748873E+04  0.35351931875E+04  0.28813470563E+04 0.  0.
        4    1    3    3  502    0  0.81109663989E+03  0.17312255704E+03  0.42118157920E+03  0.93018531194E+03  0.12699999809E+01 0.  1.
       -4    1    3    3    0  502 -0.81109663989E+03 -0.17312255704E+03 -0.24694564665E+04  0.26050078756E+04  0.12699999809E+01 0. -1.
</event>
<event>
 5   0  0.9360689E-06  0.2892435E+04  0.7818609E-02  0.8275132E-01
       -2   -1    0    0    0  501  0.00000000000E+00  0.00000000000E+00  0.84781838413E+03  0.84781838414E+03  0.25500000920E-02 0. -1.
        2   -1    0    0  501    0  0.00000000000E+00  0.00000000000E+00 -0.24669727781E+04  0.24669727781E+04  0.25500000920E-02 0.  1.
    10030    2    1    2    0    0  0.00000000000E+00  0.00000000000E+00 -0.16191543940E+04  0.33147911623E+04  0.28924348736E+04 0.  0.
        5    1    3    3  502    0  0.85912447404E+03  0.11229461931E+04 -0.46117970105E+03  0.14872161313E+04  0.46999998093E+01 0. -1.
       -5    1    3    3    0  502 -0.85912447404E+03 -0.11229461931E+04 -0.11579746930E+04  0.18275750310E+04  0.46999998093E+01 0.  1.
</event>
<event>
 5   0  0.9646321E-06  0.2798832E+04  0.7818609E-02  0.8303631E-01
        2   -1    0    0  501    0  0.00000000000E+00  0.00000000000E+00  0.13265564893E+04  0.13265564893E+04  0.25500000920E-02 0. -1.
       -2   -1    0    0    0  501  0.00000000000E+00  0.00000000000E+00 -0.14762769203E+04  0.14762769203E+04  0.25500000920E-02 0.  1.
    10030    2    1    2    0    0  0.00000000000E+00  0.00000000000E+00 -0.14972043099E+03  0.28028334097E+04  0.27988317053E+04 0.  0.
        3    1    3    3  502    0 -0.23323160944E+03 -0.80979448118E+03  0.10439661701E+04  0.13416517655E+04  0.10100000352E+00 0. -1.
       -3    1    3    3    0  502  0.23323160944E+03  0.80979448118E+03 -0.11936866011E+04  0.14611816441E+04  0.10100000352E+00 0.  1.
</event>
<event>
 5   0  0.9360689E-06  0.2873371E+04  0.7818609E-02  0.8280845E-01
        2   -1    0    0  501    0  0.00000000000E+00  0.00000000000E+00  0.17448292460E+04  0.17448292460E+04  0.25500000920E-02 0. -1.
       -2   -1    0    0    0  501  0.00000000000E+00  0.00000000000E+00 -0.11829607754E+04  0.11829607754E+04  0.25500000920E-02 0.  1.
    10030    2    1    2    0    0  0.00000000000E+00  0.00000000000E+00  0.56186847059E+03  0.29277900215E+04  0.28733705350E+04 0.  0.
        5    1    3    3  502    0  0.50855904061E+03 -0.84116219227E+03  0.13485649234E+04  0.16687826623E+04  0.46999998093E+01 0. -1.
       -5    1    3    3    0  502 -0.50855904061E+03  0.84116219227E+03 -0.78669645280E+03  0.12590073591E+04  0.46999998093E+01 0.  1.
</event>
<event>
 5   0  0.9251510E-06  0.2919670E+04  0.7818609E-02  0.8267049E-01
       -2   -1    0    0    0  501  0.00000000000E+00  0.00000000000E+00  0.97746309548E+03  0.97746309548E+03  0.25500000920E-02 0. -1.
        2   -1    0    0  501    0  0.00000000000E+00  0.00000000000E+00 -0.21802544852E+04  0.21802544852E+04  0.25500000920E-02 0.  1.
    10030    2    1    2    0    0  0.00000000000E+00  0.00000000000E+00 -0.12027913897E+04  0.31577175807E+04  0.29196700485E+04 0.  0.
        2    1    3    3  502    0 -0.11201872282E+04 -0.93540968533E+03 -0.56228678523E+03  0.15639619990E+04  0.25500000920E-02 0. -1.
       -2    1    3    3    0  502  0.11201872282E+04  0.93540968533E+03 -0.64050460448E+03  0.15937555816E+04  0.25500000920E-02 0.  1.
</event>
<event>
 5   0  0.3564340E-06  0.2923053E+04  0.7818609E-02  0.8266051E-01
       -1   -1    0    0    0  501  0.00000000000E+00  0.00000000000E+00  0.26618345744E+04  0.26618345744E+04  0.50400001928E-02 0.  1.
        1   -1    0    0  501    0  0.00000000000E+00  0.00000000000E+00 -0.80247639963E+03  0.80247639964E+03  0.50400001928E-02 0. -1.
    10030    2    1    2    0    0  0.00000000000E+00  0.00000000000E+00  0.18593581748E+04  0.34643109741E+04  0.29230528054E+04 0.  0.
        1    1    3    3  502    0  0.31339460788E+02 -0.11558456454E+04 -0.12977041107E+03  0.11635298352E+04  0.50400001928E-02 0. -1.
       -1    1    3    3    0  502 -0.31339460788E+02  0.11558456454E+04  0.19891285859E+04  0.23007811389E+04  0.50400001928E-02 0.  1.
</event>
<event>
 5   0  0.3746518E-06  0.2707887E+04  0.7818609E-02  0.8332451E-01
        1   -1    0    0  501    0  0.00000000000E+00  0.00000000000E+00  0.10393911578E+04  0.10393911578E+04  0.50400001928E-02 0.  1.
       -1   -1    0    0    0  501  0.00000000000E+00  0.00000000000E+00 -0.17636890408E+04  0.17636890408E+04  0.50400001928E-02 0. -1.
    10030    2    1    2    0    0  0.00000000000E+00  0.00000000000E+00 -0.72429788295E+03  0.28030801986E+04  0.27078868471E+04 0.  0.
        4    1    3    3  502    0  0.37414604661E+03 -0.56282861180E+03 -0.15765924625E+04  0.17153444891E+04  0.12699999809E+01 0. -1.
       -4    1    3    3    0  502 -0.37414604661E+03  0.56282861180E+03  0.85229457958E+03  0.10877357095E+04  0.12699999809E+01 0.  1.
</event>
<event>
 5   0  0.9505359E-06  0.2909693E+04  0.7818609E-02  0.8269999E-01
        2   -1    0    0  501    0  0.00000000000E+00  0.00000000000E+00  0.19332558191E+04  0.19332558191E+04  0.25500000920E-02 0. -1.
       -2   -1    0    0    0  501  0.00000000000E+00  0.00000000000E+00 -0.10948256985E+04  0.10948256985E+04  0.25500000920E-02 0.  1.
    10030    2    1    2    0    0  0.00000000000E+00  0.00000000000E+00  0.83843012063E+03  0.30280815176E+04  0.29096928721E+04 0.  0.
        4    1    3    3  502    0 -0.12474947062E+04 -0.59620692294E+03 -0.51827823064E+02  0.13836160859E+04  0.12699999809E+01 0.  1.
       -4    1    3    3    0  502  0.12474947062E+04  0.59620692294E+03  0.89025794369E+03  0.16444654317E+04  0.12699999809E+01 0. -1.
</event>
<event>
 5   0  0.9505359E-06  0.2925207E+04  0.7818609E-02  0.8265417E-01
        2   -1    0    0  501    0  0.00000000000E+00  0.00000000000E+00  0.19630610673E+04  0.19630610673E+04  0.25500000920E-02 0. -1.
       -2   -1    0    0    0  501  0.00000000000E+00  0.00000000000E+00 -0.10897309197E+04  0.10897309197E+04  0.25500000920E-02 0.  1.
    10030    2    1    2    0    0  0.00000000000E+00  0.00000000000E+00  0.87333014760E+03  0.30527919871E+04  0.29252065516E+04 0.  0.
        4    1    3    3  502    0 -0.26817314104E+03 -0.63898463593E+03 -0.90753021047E+03  0.11418541476E+04  0.12699999809E+01 0.  1.
       -4    1    3    3    0  502  0.26817314104E+03  0.63898463593E+03  0.17808603581E+04  0.19109378395E+04  0.12699999809E+01 0. -1.
</event>
<event>
 5   0  0.3649705E-06  0.2838149E+04  0.7818609E-02  0.8291522E-01
       -1   -1    0    0    0  501  0.00000000000E+00  0.00000000000E+00  0.11400287927E+04  0.11400287927E+04  0.50400001928E-02 0. -1.
        1   -1    0    0  501    0  0.00000000000E+00  0.00000000000E+00 -0.17664224482E+04  0.17664224482E+04  0.50400001928E-02 0.  1.
    10030    2    1    2    0    0  0.00000000000E+00  0.00000000000E+00 -0.62639365553E+03  0.29064512410E+04  0.28381490102E+04 0.  0.
        2    1    3    3  502    0 -0.69483971061E+03  0.83905902782E+03  0.61805581902E+03  0.12525235611E+04  0.25500000920E-02 0. -1.
       -2    1    3    3    0  502  0.69483971061E+03 -0.83905902782E+03 -0.12444494746E+04  0.16539276799E+04  0.25500000920E-02 0.  1.
</event>
<event>
 5   0  0.3649705E-06  0.2124341E+04  0.7818609E-02  0.8550596E-01
       -1   -1    0    0    0  501  0.00000000000E+00  0.00000000000E+00  0.13594411031E+04  0.13594411031E+04  0.50400001928E-02 0. -1.
        1   -1    0    0  501    0  0.00000000000E+00  0.00000000000E+00 -0.82990444647E+03  0.82990444649E+03  0.50400001928E-02 0.  1.
    10030    2    1    2    0    0  0.00000000000E+00  0.00000000000E+00  0.52953665658E+03  0.21893455496E+04  0.21243410425E+04 0.  0.
        2    1    3    3  502    0  0.30585965136E+03  0.26823072628E+03 -0.74643256860E+03  0.85009377619E+03  0.25500000920E-02 0.  1.
       -2    1    3    3    0  502 -0.30585965136E+03 -0.26823072628E+03  0.12759692252E+04  0.13392517734E+04  0.25500000920E-02 0. -1.
</event>
<event>
 5   0  0.9251510E-06  0.2837502E+04  0.7818609E-02  0.8291719E-01
       -2   -1    0    0    0  501  0.00000000000E+00  0.00000000000E+00  0.93143519887E+03  0.93143519887E+03  0.25500000920E-02 0. -1.
        2   -1    0    0  501    0  0.00000000000E+00  0.00000000000E+00 -0.21610252939E+04  0.21610252939E+04  0.25500000920E-02 0.  1.
    10030    2    1    2    0    0  0.00000000000E+00  0.00000000000E+00 -0.12295900950E+04  0.30924604928E+04  0.28375024401E+04 0.  0.
        2    1    3    3  502    0  0.87059900452E+03  0.61004290715E+03  0.40917971170E+03  0.11390886760E+04  0.25500000920E-02 0. -1.
       -2    1    3    3    0  502 -0.87059900452E+03 -0.61004290715E+03 -0.16387698067E+04  0.19533718168E+04  0.25500000920E-02 0.  1.
</event>
<event>
 5   0  0.9646321E-06  0.2916153E+04  0.7818609E-02  0.8268088E-01
       -2   -1    0    0    0  501  0.00000000000E+00  0.00000000000E+00  0.86340617145E+03  0.86340617145E+03  0.25500000920E-02 0. -1.
        2   -1    0    0  501    0  0.00000000000E+00  0.00000000000E+00 -0.24623260603E+04  0.24623260603E+04  0.25500000920E-02 0.  1.
    10030    2    1    2    0    0  0.00000000000E+00  0.00000000000E+00 -0.15989198888E+04  0.33257322317E+04  0.29161532995E+04 0.  0.
        3    1    3    3  502    0 -0.87204888169E+03  0.97260711748E+03 -0.15381643349E+04  0.20180147146E+04  0.10100000352E+00 0.  1.
       -3    1    3    3    0  502  0.87204888169E+03 -0.97260711748E+03 -0.60755553934E+02  0.13077175171E+04  0.10100000352E+00 0. -1.
</event>
<event>
 5   0  0.9251510E-06  0.2995768E+04  0.7818609E-02  0.8244940E-01
        2   -1    0    0  501    0  0.00000000000E+00  0.00000000000E+00  0.13410059829E+04  0.13410059829E+04  0.25500000920E-02 0.  1.
       -2   -1    0    0    0  501  0.00000000000E+00  0.00000000000E+00 -0.16731149993E+04  0.16731149993E+04  0.25500000920E-02 0. -1.
    10030    2    1    2    0    0  0.00000000000E+00  0.00000000000E+00 -0.33210901634E+03  0.30141209822E+04  0.29957684985E+04 0.  0.
        2    1    3    3  502    0 -0.26365471232E+02 -0.13677266860E+04 -0.77994465851E+03  0.15747015895E+04  0.25500000920E-02 0. -1.
       -2    1    3    3    0  502  0.26365471232E+02  0.13677266860E+04  0.44783564217E+03  0.14394193927E+04  0.25500000920E-02 0.  1.
</event>
<event>
 5   0  0.1001573E-05  0.2864310E+04  0.7818609E-02  0.8283576E-01
        2   -1    0    0  501    0  0.00000000000E+00  0.00000000000E+00  0.11512836879E+04  0.11512836879E+04  0.25500000920E-02 0.  1.
       -2   -1    0    0    0  501  0.00000000000E+00  0.00000000000E+00 -0.17815487445E+04  0.17815487445E+04  0.25500000920E-02 0. -1.
    10030    2    1    2    0    0  0.00000000000E+00  0.00000000000E+00 -0.63026505660E+03  0.29328324324E+04  0.28643100452E+04 0.  0.
        1    1    3    3  502    0 -0.10048461576E+04 -0.46603456274E+03  0.61442022781E+03  0.12666555296E+04  0.50400001928E-02 0.  1.
       -1    1    3    3    0  502  0.10048461576E+04  0.46603456274E+03 -0.12446852844E+04  0.16661769028E+04  0.50400001928E-02 0. -1.
</event>
<event>
 5   0  0.3486236E-06  0.2952092E+04  0.7818609E-02  0.8257545E-01
        1   -1    0    0  501    0  0.00000000000E+00  0.00000000000E+00  0.19248439211E+04  0.19248439211E+04  0.50400001928E-02 0. -1.
       -1   -1    0    0    0  501  0.00000000000E+00  0.00000000000E+00 -0.11318899457E+04  0.11318899457E+04  0.50400001928E-02 0.  1.
    10030    2    1    2    0    0  0.00000000000E+00  0.00000000000E+00  0.79295397543E+03  0.30567338668E+04  0.29520917881E+04 0.  0.
        5    1    3    3  502    0  0.71500583697E+03 -0.34732034807E+03 -0.89132268388E+03  0.11942960219E+04  0.46999998093E+01 0.  1.
       -5    1    3    3    0  502 -0.71500583697E+03  0.34732034807E+03  0.16842766593E+04  0.18624378449E+04  0.46999998093E+01 0. -1.
</event>
<event>
 5   0  0.9360689E-06  0.2830860E+04  0.7818609E-02  0.8293751E-01
       -2   -1    0    0    0  501  0.00000000000E+00  0.00000000000E+00  0.20103810119E+04  0.20103810119E+04  0.25500000920E-02 0. -1.
        2   -1    0    0  501    0  0.00000000000E+00  0.00000000000E+00 -0.99654824585E+03  0.99654824586E+03  0.25500000920E-02 0.  1.
    10030    2    1    2    0    0  0.00000000000E+00  0.00000000000E+00  0.10138327660E+04  0.30069292577E+04  0.28308597075E+04 0.  0.
        5    1    3    3  502    0  0.38386030672E+03 -0.12298801857E+04 -0.11559381583E+03  0.12935756748E+04  0.46999998093E+01 0.  1.
       -5    1    3    3    0  502 -0.38386030672E+03  0.12298801857E+04  0.11294265819E+04  0.17133535829E+04  0.46999998093E+01 0. -1.
</event>
<event>
 5   0  0.9505359E-06  0.2913028E+04  0.7818609E-02  0.8269012E-01
        2   -1    0    0  501    0  0.00000000000E+00  0.00000000000E+00  0.21833185806E+04  0.21833185806E+04  0.25500000920E-02 0.  1.
       -2   -1    0    0    0  501  0.00000000000E+00  0.00000000000E+00 -0.97165544530E+03  0.97165544530E+03  0.25500000920E-02 0. -1.
    10030    2    1    2    0    0  0.00000000000E+00  0.00000000000E+00  0.12116631353E+04  0.31549740259E+04  0.29130282440E+04 0.  0.
        4    1    3    3  502    0  0.53852446452E+03 -0.71673206638E+02 -0.85781258747E+03  0.10153766274E+04  0.12699999809E+01 0. -1.
       -4    1    3    3    0  502 -0.53852446452E+03  0.71673206638E+02  0.20694757227E+04  0.21395973984E+04  0.12699999809E+01 0.  1.
</event>
<event>
 5   0  0.9251510E-06  0.2921402E+04  0.7818609E-02  0.8266538E-01
       -2   -1    0    0    0  501  0.00000000000E+00  0.00000000000E+00  0.12277098869E+04  0.12277098869E+04  0.25500000920E-02 0.  1.
        2   -1    0    0  501    0  0.00000000000E+00  0.00000000000E+00 -0.17379084587E+04  0.17379084587E+04  0.25500000920E-02 0. -1.
    10030    2    1    2    0    0  0.00000000000E+00  0.00000000000E+00 -0.51019857181E+03  0.29656183456E+04  0.29214019903E+04 0.  0.
        2    1    3    3  502    0 -0.33366575495E+03  0.14108389254E+04 -0.73937905972E+02  0.14516425604E+04  0.25500000920E-02 0. -1.
       -2    1    3    3    0  502  0.33366575495E+03 -0.14108389254E+04 -0.43626066584E+03  0.15139757851E+04  0.25500000920E-02 0.  1.
</event>
<event>
 5   0  0.3474078E-06  0.2897521E+04  0.7818609E-02  0.8273615E-01
        1   -1    0    0  501    0  0.00000000000E+00  0.00000000000E+00  0.11010147403E+04  0.11010147403E+04  0.50400001928E-02 0.  1.
       -1   -1    0    0    0  501  0.00000000000E+00  0.00000000000E+00 -0.19063387577E+04  0.19063387577E+04  0.50400001928E-02 0. -1.
    10030    2    1    2    0    0  0.00000000000E+00  0.00000000000E+00 -0.80532401740E+03  0.30073534981E+04  0.28975210594E+04 0.  0.
        3    1    3    3  502    0 -0.55795591464E+03  0.87135226811E+03 -0.14551707521E+04  0.17855227542E+04  0.10100000352E+00 0. -1.
       -3    1    3    3    0  502  0.55795591464E+03 -0.87135226811E+03  0.64984673472E+03  0.12218307439E+04  0.10100000352E+00 0.  1.
</event>
<event>
 5   0  0.3486236E-06  0.2877974E+04  0.7818609E-02  0.8279461E-01
        1   -1    0    0  501    0  0.00000000000E+00  0.00000000000E+00  0.17840488347E+04  0.17840488347E+04  0.50400001928E-02 0.  1.
       -1   -1    0    0    0  501  0.00000000000E+00  0.00000000000E+00 -0.11606651675E+04  0.11606651675E+04  0.50400001928E-02 0. -1.
    10030    2    1    2    0    0  0.00000000000E+00  0.00000000000E+00  0.62338366720E+03  0.29447140023E+04  0.28779738287E+04 0.  0.
        5    1    3    3  502    0  0.12439280373E+04  0.50797931856E+03  0.83867073493E+03  0.15839162357E+04  0.46999998093E+01 0.  1.
       -5    1    3    3    0  502 -0.12439280373E+04 -0.50797931856E+03 -0.21528706772E+03  0.13607977666E+04  0.46999998093E+01 0. -1.
</event>
<event>
 5   0  0.1001573E-05  0.2635628E+04  0.7818609E-02  0.8356199E-01
       -2   -1    0    0    0  501  0.00000000000E+00  0.00000000000E+00  0.34743829606E+04  0.34743829606E+04  0.25500000920E-02 0. -1.
        2   -1    0    0  501    0  0.00000000000E+00  0.00000000000E+00 -0.49983932751E+03  0.49983932751E+03  0.25500000920E-02 0.  1.
    10030    2    1    2    0    0  0.00000000000E+00  0.00000000000E+00  0.29745436331E+04  0.39742222882E+04  0.26356276236E+04 0.  0.
        1    1    3    3  502    0  0.10513880053E+04  0.64039666498E+02  0.29316866148E+03  0.10933735321E+04  0.50400001928E-02 0.  1.
       -1    1    3    3    0  502 -0.10513880053E+04 -0.64039666498E+02  0.26813749717E+04  0.28808487561E+04  0.50400001928E-02 0. -1.
</event>
<event>
 5   0  0.9360689E-06  0.3213348E+04  0.7818609E-02  0.8185301E-01
        2   -1    0    0  501    0  0.00000000000E+00  0.00000000000E+00  0.28759296479E+04  0.28759296479E+04  0.25500000920E-02 0.  1.
       -2   -1    0    0    0  501  0.00000000000E+00  0.00000000000E+00 -0.89758831349E+03  0.89758831349E+03  0.25500000920E-02 0. -1.
    10030    2    1    2    0    0  0.00000000000E+00  0.00000000000E+00  0.19783413344E+04  0.37735179614E+04  0.32133476888E+04 0.  0.
        5    1    3    3  502    0 -0.88615523139E+03  0.64083110157E+03 -0.39306806451E+03  0.11620930205E+04  0.46999998093E+01 0. -1.
       -5    1    3    3    0  502  0.88615523139E+03 -0.64083110157E+03  0.23714093989E+04  0.26114249409E+04  0.46999998093E+01 0.  1.
</event>
<event>
 5   0  0.9360689E-06  0.2928002E+04  0.7818609E-02  0.8264595E-01
        2   -1    0    0  501    0  0.00000000000E+00  0.00000000000E+00  0.16823197028E+04  0.16823197028E+04  0.25500000920E-02 0. -1.
       -2   -1    0    0    0  501  0.00000000000E+00  0.00000000000E+00 -0.12740136310E+04  0.12740136310E+04  0.25500000920E-02 0.  1.
    10030    2    1    2    0    0  0.00000000000E+00  0.00000000000E+00  0.40830607176E+03  0.29563333338E+04  0.29280015253E+04 0.  0.
        5    1    3    3  502    0 -0.63135092983E+03 -0.84119468463E+03 -0.82406402918E+03  0.13361572169E+04  0.46999998093E+01 0.  1.
       -5    1    3    3    0  502  0.63135092983E+03  0.84119468463E+03  0.12323701009E+04  0.16201761169E+04  0.46999998093E+01 0. -1.
</event>
<event>
 5   0  0.3746518E-06  0.2937021E+04  0.7818609E-02  0.8261947E-01
        1   -1    0    0  501    0  0.00000000000E+00  0.00000000000E+00  0.18626959804E+04  0.18626959804E+04  0.50400001928E-02 0. -1.
       -1   -1    0    0    0  501  0.00000000000E+00  0.00000000000E+00 -0.11577426224E+04  0.11577426224E+04  0.50400001928E-02 0.  1.
    10030    2    1    2    0    0  0.00000000000E+00  0.00000000000E+00  0.70495335794E+03  0.30204386028E+04  0.29370206190E+04 0.  0.
        4    1    3    3  502    0  0.98518141708E+03  0.74474891429E+03  0.11695793453E+04  0.17009264616E+04  0.12699999809E+01 0. -1.
       -4    1    3    3    0  502 -0.98518141708E+03 -0.74474891429E+03 -0.46462598734E+03  0.13195121413E+04  0.12699999809E+01 0.  1.
</event>
<event>
 5   0  0.3746518E-06  0.2864163E+04  0.7818609E-02  0.8283620E-01
       -1   -1    0    0    0  501  0.00000000000E+00  0.00000000000E+00  0.15166014669E+04  0.15166014669E+04  0.50400001928E-02 0. -1.
        1   -1    0    0  501    0  0.00000000000E+00  0.00000000000E+00 -0.13522721257E+04  0.13522721257E+04  0.50400001928E-02 0.  1.
    10030    2    1    2    0    0  0.00000000000E+00  0.00000000000E+00  0.16432934119E+03  0.28688735926E+04  0.28641633260E+04 0.  0.
        4    1    3    3  502    0 -0.28781491721E+03  0.12247095583E+04 -0.60314275056E+03  0.13951823247E+04  0.12699999809E+01 0.  1.
       -4    1    3    3    0  502  0.28781491721E+03 -0.12247095583E+04  0.76747209175E+03  0.14736912679E+04  0.12699999809E+01 0. -1.
</event>
<event>
 5   0  0.3649705E-06  0.2974920E+04  0.7818609E-02  0.8250929E-01
        1   -1    0    0  501    0  0.00000000000E+00  0.00000000000E+00  0.20460837211E+04  0.20460837211E+04  0.50400001928E-02 0. -1.
       -1   -1    0    0    0  501  0.00000000000E+00  0.00000000000E+00 -0.10813520352E+04  0.10813520352E+04  0.50400001928E-02 0.  1.
    10030    2    1    2    0    0  0.00000000000E+00  0.00000000000E+00  0.96473168586E+03  0.31274357563E+04  0.29749196937E+04 0.  0.
        2    1    3    3  502    0 -0.11505419852E+04 -0.34304512891E+03 -0.44078211073E+03  0.12789510113E+04  0.25500000920E-02 0. -1.
       -2    1    3    3    0  502  0.11505419852E+04  0.34304512891E+03  0.14055137966E+04  0.18484847450E+04  0.25500000920E-02 0.  1.
</event>
<event>
 5   0  0.1001573E-05  0.2921451E+04  0.7818609E-02  0.8266524E-01
       -2   -1    0    0    0  501  0.00000000000E+00  0.00000000000E+00  0.11173706814E+04  0.11173706814E+04  0.25500000920E-02 0.  1.
        2   -1    0    0  501    0  0.00000000000E+00  0.00000000000E+00 -0.19095889586E+04  0.19095889586E+04  0.25500000920E-02 0. -1.
    10030    2    1    2    0    0  0.00000000000E+00  0.00000000000E+00 -0.79221827723E+03  0.30269596400E+04  0.29214508148E+04 0.  0.
        1    1    3    3  502    0 -0.58280691678E+03 -0.14457897858E+03 -0.17757975031E+04  0.18745729528E+04  0.50400001928E-02 0. -1.
       -1    1    3    3    0  502  0.58280691678E+03  0.14457897858E+03  0.98357922585E+03  0.11523866872E+04  0.50400001928E-02 0.  1.
</event>
<event>
 5   0  0.9360689E-06  0.2886649E+04  0.7818609E-02  0.8276861E-01
       -2   -1    0    0    0  501  0.00000000000E+00  0.00000000000E+00  0.99897752399E+03  0.99897752399E+03  0.25500000920E-02 0.  1.
        2   -1    0    0  501    0  0.00000000000E+00  0.00000000000E+00 -0.20853170884E+04  0.20853170884E+04  0.25500000920E-02 0. -1.
    10030    2    1    2    0    0  0.00000000000E+00  0.00000000000E+00 -0.10863395644E+04  0.30842946123E+04  0.28866485076E+04 0.  0.
        5    1    3    3  502    0  0.78450925325E+02 -0.13875113559E+04 -0.12684989181E+03  0.13955125565E+04  0.46999998093E+01 0.  1.
       -5    1    3    3    0  502 -0.78450925325E+02  0.13875113559E+04 -0.95948967256E+03  0.16887820558E+04  0.46999998093E+01 0. -1.
</event>
<event>
 5   0  0.9646321E-06  0.2814248E+04  0.7818609E-02  0.8298859E-01
       -2   -1    0    0    0  501  0.00000000000E+00  0.00000000000E+00  0.21289010828E+04  0.21289010828E+04  0.25500000920E-02 0.  1.
        2   -1    0    0  501    0  0.00000000000E+00  0.00000000000E+00 -0.93005640945E+03  0.93005640945E+03  0.25500000920E-02 0. -1.
    10030    2    1    2    0    0  0.00000000000E+00  0.00000000000E+00  0.11988446733E+04  0.30589574922E+04  0.28142481036E+04 0.  0.
        3    1    3    3  502    0  0.10065780319E+04 -0.51993568294E+03  0.15065343260E+04  0.18849875687E+04  0.10100000352E+00 0.  1.
       -3    1    3    3    0  502 -0.10065780319E+04  0.51993568294E+03 -0.30768965264E+03  0.11739699235E+04  0.10100000352E+00 0. -1.
</event>
<event>
 5   0  0.3746518E-06  0.2905848E+04  0.7818609E-02  0.8271140E-01
        1   -1    0    0  501    0  0.00000000000E+00  0.00000000000E+00  0.15212627623E+04  0.15212627623E+04  0.50400001928E-02 0. -1.
       -1   -1    0    0    0  501  0.00000000000E+00  0.00000000000E+00 -0.13876553097E+04  0.13876553097E+04  0.50400001928E-02 0.  1.
    10030    2    1    2    0    0  0.00000000000E+00  0.00000000000E+00  0.13360745257E+03  0.29089180720E+04  0.29058481375E+04 0.  0.
        4    1    3    3  502    0 -0.12595593825E+04 -0.19405080939E+03  0.76528091945E+03  0.14865402965E+04  0.12699999809E+01 0. -1.
       -4    1    3    3    0  502  0.12595593825E+04  0.19405080939E+03 -0.63167346688E+03  0.14223777755E+04  0.12699999809E+01 0.  1.
</event>
<event>
 5   0  0.1001573E-05  0.2310892E+04  0.7818609E-02  0.8473639E-01
        2   -1    0    0  501    0  0.00000000000E+00  0.00000000000E+00  0.13076458348E+04  0.13076458348E+04  0.25500000920E-02 0.  1.
       -2   -1    0    0    0  501  0.00000000000E+00  0.00000000000E+00 -0.10209612757E+04  0.10209612757E+04  0.25500000920E-02 0. -1.
    10030    2    1    2    0    0  0.00000000000E+00  0.00000000000E+00  0.28668455902E+03  0.23286071105E+04  0.23108922603E+04 0.  0.
        1    1    3    3  502    0  0.44633884887E+03  0.65798420933E+03 -0.70147247945E+03  0.10602948775E+04  0.50400001928E-02 0. -1.
       -1    1    3    3    0  502 -0.44633884887E+03 -0.65798420933E+03  0.98815703847E+03  0.12683122330E+04  0.50400001928E-02 0.  1.
</event>
<event>
 5   0  0.3746518E-06  0.2172923E+04  0.7818609E-02  0.8529783E-01
       -1   -1    0    0    0  501  0.00000000000E+00  0.00000000000E+00  0.76611605634E+03  0.76611605636E+03  0.50400001928E-02 0. -1.
        1   -1    0    0  501    0  0.00000000000E+00  0.00000000000E+00 -0.15407567586E+04  0.15407567586E+04  0.50400001928E-02 0.  1.
    10030    2    1    2    0    0  0.00000000000E+00  0.00000000000E+00 -0.77464070226E+03  0.23068728150E+04  0.21729229086E+04 0.  0.
        4    1    3    3  502    0  0.10708292064E+04  0.14915814670E+03 -0.27360267177E+03  0.11152503651E+04  0.12699999809E+01 0.  1.
       -4    1    3    3    0  502 -0.10708292064E+04 -0.14915814670E+03 -0.50103803049E+03  0.11916224498E+04  0.12699999809E+01 0. -1.
</event>
<event>
 5   0  0.9646321E-06  0.2931141E+04  0.7818609E-02  0.8263672E-01
        2   -1    0    0  501    0  0.00000000000E+00  0.00000000000E+00  0.18730372165E+04  0.18730372165E+04  0.25500000920E-02 0.  1.
       -2   -1    0    0    0  501  0.00000000000E+00  0.00000000000E+00 -0.11467456012E+04  0.11467456012E+04  0.25500000920E-02 0. -1.
    10030    2    1    2    0    0  0.00000000000E+00  0.00000000000E+00  0.72629161531E+03  0.30197828178E+04  0.29311412037E+04 0.  0.
        3    1    3    3  502    0 -0.11328999453E+04  0.20864693419E+03  0.12965816091E+04  0.17343931817E+04  0.10100000352E+00 0.  1.
       -3    1    3    3    0  502  0.11328999453E+04 -0.20864693419E+03 -0.57028999381E+03  0.12853896361E+04  0.10100000352E+00 0. -1.
</event>
<event>
 5   0  0.9505359E-06  0.2850765E+04  0.7818609E-02  0.8287679E-01
        2   -1    0    0  501    0  0.00000000000E+00  0.00000000000E+00  0.14101344002E+04  0.14101344002E+04  0.25500000920E-02 0.  1.
       -2   -1    0    0    0  501  0.00000000000E+00  0.00000000000E+00 -0.14407950571E+04  0.14407950571E+04  0.25500000920E-02 0. -1.
    10030    2    1    2    0    0  0.00000000000E+00  0.00000000000E+00 -0.30660656920E+02  0.28509294574E+04  0.28507645808E+04 0.  0.
        4    1    3    3  502    0 -0.76019347627E+03  0.11414167101E+04  0.37326238753E+03  0.14212855625E+04  0.12699999809E+01 0.  1.
       -4    1    3    3    0  502  0.76019347627E+03 -0.11414167101E+04 -0.40392304445E+03  0.14296438949E+04  0.12699999809E+01 0. -1.
</event>
<event>
 5   0  0.3564340E-06  0.2559852E+04  0.7818609E-02  0.8381968E-01
        1   -1    0    0  501    0  0.00000000000E+00  0.00000000000E+00  0.72429942681E+03  0.72429942682E+03  0.50400001928E-02 0.  1.
       -1   -1    0    0    0  501  0.00000000000E+00  0.00000000000E+00 -0.22617857825E+04  0.22617857825E+04  0.50400001928E-02 0. -1.
    10030    2    1    2    0    0  0.00000000000E+00  0.00000000000E+00 -0.15374863557E+04  0.29860852093E+04  0.25598516721E+04 0.  0.
        1    1    3    3  502    0  0.43314295780E+03  0.11803498487E+04 -0.10481491722E+04  0.16369041738E+04  0.50400001928E-02 0. -1.
       -1    1    3    3    0  502 -0.43314295780E+03 -0.11803498487E+04 -0.48933718350E+03  0.13491810354E+04  0.50400001928E-02 0.  1.
</event>
<event>
 5   0  0.1001573E-05  0.2925409E+04  0.7818609E-02  0.8265357E-01
        2   -1    0    0  501    0  0.00000000000E+00  0.00000000000E+00  0.88392077063E+03  0.88392077063E+03  0.25500000920E-02 0.  1.
       -2   -1    0    0    0  501  0.00000000000E+00  0.00000000000E+00 -0.24204715058E+04  0.24204715058E+04  0.25500000920E-02 0. -1.
    10030    2    1    2    0    0  0.00000000000E+00  0.00000000000E+00 -0.15365507352E+04  0.33043922764E+04  0.29254093995E+04 0.  0.
        1    1    3    3  502    0  0.28111664572E+03 -0.11405138659E+03 -0.23845449478E+04  0.24037655658E+04  0.50400001928E-02 0. -1.
       -1    1    3    3    0  502 -0.28111664572E+03  0.11405138659E+03  0.84799421261E+03  0.90062671064E+03  0.50400001928E-02 0.  1.
</event>
<event>
 5   0  0.3486236E-06  0.2866047E+04  0.7818609E-02  0.8283052E-01
        1   -1    0    0  501    0  0.00000000000E+00  0.00000000000E+00  0.15589124250E+04  0.15589124250E+04  0.50400001928E-02 0. -1.
       -1   -1    0    0    0  501  0.00000000000E+00  0.00000000000E+00 -0.13173009747E+04  0.13173009747E+04  0.50400001928E-02 0.  1.
    10030    2    1    2    0    0  0.00000000000E+00  0.00000000000E+00  0.24161145029E+03  0.28762133997E+04  0.28660473526E+04 0.  0.
        5    1    3    3  502    0  0.13686411598E+04  0.32032563504E+03  0.40062738173E+03  0.14616126456E+04  0.46999998093E+01 0.  1.
       -5    1    3    3    0  502 -0.13686411598E+04 -0.32032563504E+03 -0.15901593145E+03  0.14146007540E+04  0.46999998093E+01 0. -1.
</event>
<event>
 5   0  0.3486236E-06  0.2962314E+04  0.7818609E-02  0.8254575E-01
       -1   -1    0    0    0  501  0.00000000000E+00  0.00000000000E+00  0.11973909822E+04  0.11973909822E+04  0.50400001928E-02 0. -1.
        1   -1    0    0  501    0  0.00000000000E+00  0.00000000000E+00 -0.18321715982E+04  0.18321715982E+04  0.50400001928E-02 0.  1.
    10030    2    1    2    0    0  0.00000000000E+00  0.00000000000E+00 -0.63478061597E+03  0.30295625804E+04  0.29623137913E+04 0.  0.
        5    1    3    3  502    0 -0.43840251952E+03 -0.99319377341E+03 -0.13478212726E+04  0.17306862551E+04  0.46999998093E+01 0.  1.
       -5    1    3    3    0  502  0.43840251952E+03  0.99319377341E+03  0.71304065660E+03  0.12988763254E+04  0.46999998093E+01 0. -1.
</event>
<event>
 5   0  0.3564340E-06  0.2798080E+04  0.7818609E-02  0.8303865E-01
        1   -1    0    0  501    0  0.00000000000E+00  0.00000000000E+00  0.12905517230E+04  0.12905517230E+04  0.50400001928E-02 0. -1.
       -1   -1    0    0    0  501  0.00000000000E+00  0.00000000000E+00 -0.15166483855E+04  0.15166483855E+04  0.50400001928E-02 0.  1.
    10030    2    1    2    0    0  0.00000000000E+00  0.00000000000E+00 -0.22609666250E+03  0.28072001084E+04  0.27980801897E+04 0.  0.
        1    1    3    3  502    0 -0.26171832603E+03  0.12352262585E+04  0.49143752682E+03  0.13549137370E+04  0.50400001928E-02 0. -1.
       -1    1    3    3    0  502  0.26171832603E+03 -0.12352262585E+04 -0.71753418932E+03  0.14522863715E+04  0.50400001928E-02 0.  1.
</event>
<event>
 5   0  0.3474078E-06  0.2830287E+04  0.7818609E-02  0.8293927E-01
        1   -1    0    0  501    0  0.00000000000E+00  0.00000000000E+00  0.24034490485E+04  0.24034490485E+04  0.50400001928E-02 0.  1.
       -1   -1    0    0    0  501  0.00000000000E+00  0.00000000000E+00 -0.83323205552E+03  0.83323205554E+03  0.50400001928E-02 0. -1.
    10030    2    1    2    0    0  0.00000000000E+00  0.00000000000E+00  0.15702169930E+04  0.32366811041E+04  0.28302867636E+04 0.  0.
        3    1    3    3  502    0 -0.77103926547E+03 -0.11561736419E+04  0.47955063583E+03  0.14701047111E+04  0.10100000352E+00 0.  1.
       -3    1    3    3    0  502  0.77103926547E+03  0.11561736419E+04  0.10906663572E+04  0.17665763929E+04  0.10100000352E+00 0. -1.
</event>
<event>
 5   0  0.3474078E-06  0.2905188E+04  0.7818609E-02  0.8271336E-01
       -1   -1    0    0    0  501  0.00000000000E+00  0.00000000000E+00  0.14012904125E+04  0.14012904125E+04  0.50400001928E-02 0. -1.
        1   -1    0    0  501    0  0.00000000000E+00  0.00000000000E+00 -0.15057756766E+04  0.15057756766E+04  0.50400001928E-02 0.  1.
    10030    2    1    2    0    0  0.00000000000E+00  0.00000000000E+00 -0.10448526410E+03  0.29070660891E+04  0.29051877867E+04 0.  0.
        3    1    3    3  502    0  0.24746690308E+03 -0.11629561497E+04 -0.88724132503E+03  0.14835444224E+04  0.10100000352E+00 0.  1.
       -3    1    3    3    0  502 -0.24746690308E+03  0.11629561497E+04  0.78275606093E+03  0.14235216666E+04  0.10100000352E+00 0. -1.
</event>
<event>
 5   0  0.3746518E-06  0.2860596E+04  0.7818609E-02  0.8284699E-01
       -1   -1    0    0    0  501  0.00000000000E+00  0.00000000000E+00  0.10241115253E+04  0.10241115253E+04  0.50400001928E-02 0.  1.
        1   -1    0    0  501    0  0.00000000000E+00  0.00000000000E+00 -0.19975868509E+04  0.19975868509E+04  0.50400001928E-02 0. -1.
    10030    2    1    2    0    0  0.00000000000E+00  0.00000000000E+00 -0.97347532557E+03  0.30216983762E+04  0.28605955442E+04 0.  0.
        4    1    3    3  502    0  0.67258691537E+03  0.11810626419E+04 -0.16150712967E+02  0.13592441213E+04  0.12699999809E+01 0. -1.
       -4    1    3    3    0  502 -0.67258691537E+03 -0.11810626419E+04 -0.95732461260E+03  0.16624542549E+04  0.12699999809E+01 0.  1.
</event>
<event>
 5   0  0.3474078E-06  0.2923832E+04  0.7818609E-02  0.8265822E-01
        1   -1    0    0  501    0  0.00000000000E+00  0.00000000000E+00  0.16776965643E+04  0.16776965643E+04  0.50400001928E-02 0. -1.
       -1   -1    0    0    0  501  0.00000000000E+00  0.00000000000E+00 -0.12738883514E+04  0.12738883514E+04  0.50400001928E-02 0.  1.
    10030    2    1    2    0    0  0.00000000000E+00  0.00000000000E+00  0.40380821286E+03  0.29515849158E+04  0.29238318081E+04 0.  0.
        3    1    3    3  502    0  0.78868510601E+03 -0.11614110869E+04 -0.20976346603E+03  0.14194719550E+04  0.10100000352E+00 0. -1.
       -3    1    3    3    0  502 -0.78868510601E+03  0.11614110869E+04  0.61357167889E+03  0.15321129608E+04  0.10100000352E+00 0.  1.
</event>
<event>
 5   0  0.3564340E-06  0.2891173E+04  0.7818609E-02  0.8275509E-01
        1   -1    0    0  501    0  0.00000000000E+00  0.00000000000E+00  0.22156222521E+04  0.22156222521E+04  0.50400001928E-02 0.  1.
       -1   -1    0    0    0  501  0.00000000000E+00  0.00000000000E+00 -0.94317537854E+03  0.94317537856E+03  0.50400001928E-02 0. -1.
    10030    2    1    2    0    0  0.00000000000E+00  0.00000000000E+00  0.12724468736E+04  0.31587976307E+04  0.28911730189E+04 0.  0.
        1    1    3    3  502    0  0.11802832341E+04  0.58897843367E+02 -0.27342093703E+03  0.12129701058E+04  0.50400001928E-02 0. -1.
       -1    1    3    3    0  502 -0.11802832341E+04 -0.58897843367E+02  0.15458678106E+04  0.19458275249E+04  0.50400001928E-02 0.  1.
</event>
<event>
 5   0  0.3486236E-06  0.2111498E+04  0.7818609E-02  0.8556195E-01
       -1   -1    0    0    0  501  0.00000000000E+00  0.00000000000E+00  0.96449626574E+03  0.96449626575E+03  0.50400001928E-02 0. -1.
        1   -1    0    0  501    0  0.00000000000E+00  0.00000000000E+00 -0.11556354895E+04  0.11556354895E+04  0.50400001928E-02 0.  1.
    10030    2    1    2    0    0  0.00000000000E+00  0.00000000000E+00 -0.19113922380E+03  0.21201317553E+04  0.21114981546E+04 0.  0.
        5    1    3    3  502    0  0.27130962996E+03 -0.45023530812E+03  0.82374119391E+03  0.97718595596E+03  0.46999998093E+01 0. -1.
       -5    1    3    3    0  502 -0.27130962996E+03  0.45023530812E+03 -0.10148804177E+04  0.11429457993E+04  0.46999998093E+01 0.  1.
</event>
<event>
 5   0  0.9646321E-06  0.2919839E+04  0.7818609E-02  0.8266999E-01
       -2   -1    0    0    0  501  0.00000000000E+00  0.00000000000E+00  0.18627142262E+04  0.18627142262E+04  0.25500000920E-02 0. -1.
        2   -1    0    0  501    0  0.00000000000E+00  0.00000000000E+00 -0.11442252108E+04  0.11442252108E+04  0.25500000920E-02 0.  1.
    10030    2    1    2    0    0  0.00000000000E+00  0.00000000000E+00  0.71848901536E+03  0.30069394370E+04  0.29198387477E+04 0.  0.
        3    1    3    3  502    0 -0.15748979887E+03 -0.69266889305E+03  0.16727414591E+04  0.18173214442E+04  0.10100000352E+00 0. -1.
       -3    1    3    3    0  502  0.15748979887E+03  0.69266889305E+03 -0.95425244378E+03  0.11896179928E+04  0.10100000352E+00 0.  1.
</event>
<event>
 5   0  0.9251510E-06  0.2885372E+04  0.7818609E-02  0.8277243E-01
       -2   -1    0    0    0  501  0.00000000000E+00  0.00000000000E+00  0.84987070177E+03  0.84987070177E+03  0.25500000920E-02 0. -1.
        2   -1    0    0  501    0  0.00000000000E+00  0.00000000000E+00 -0.24490106358E+04  0.24490106358E+04  0.25500000920E-02 0.  1.
    10030    2    1    2    0    0  0.00000000000E+00  0.00000000000E+00 -0.15991399340E+04  0.32988813376E+04  0.28853716486E+04 0.  0.
        2    1    3    3  502    0 -0.10974089241E+04 -0.62875080499E+03 -0.60514354814E+01  0.12647808274E+04  0.25500000920E-02 0. -1.
       -2    1    3    3    0  502  0.10974089241E+04  0.62875080499E+03 -0.15930884985E+04  0.20341005102E+04  0.25500000920E-02 0.  1.
</event>
<event>
 5   0  0.3486236E-06  0.2966305E+04  0.7818609E-02  0.8253419E-01
        1   -1    0    0  501    0  0.00000000000E+00  0.00000000000E+00  0.14335295405E+04  0.14335295405E+04  0.50400001928E-02 0. -1.
       -1   -1    0    0    0  501  0.00000000000E+00  0.00000000000E+00 -0.15344936329E+04  0.15344936329E+04  0.50400001928E-02 0.  1.
    10030    2    1    2    0    0  0.00000000000E+00  0.00000000000E+00 -0.10096409237E+03  0.29680231735E+04  0.29663054142E+04 0.  0.
        5    1    3    3  502    0 -0.12518985511E+04  0.76097689674E+03  0.18070162368E+03  0.14761473458E+04  0.46999998093E+01 0. -1.
       -5    1    3    3    0  502  0.12518985511E+04 -0.76097689674E+03 -0.28166571605E+03  0.14918758277E+04  0.46999998093E+01 0.  1.
</event>
<event>
 5   0  0.9646321E-06  0.2176743E+04  0.7818609E-02  0.8528171E-01
        2   -1    0    0  501    0  0.00000000000E+00  0.00000000000E+00  0.24179975837E+04  0.24179975837E+04  0.25500000920E-02 0.  1.
       -2   -1    0    0    0  501  0.00000000000E+00  0.00000000000E+00 -0.48988969639E+03  0.48988969640E+03  0.25500000920E-02 0. -1.
    10030    2    1    2    0    0  0.00000000000E+00  0.00000000000E+00  0.19281078873E+04  0.29078872801E+04  0.21767426142E+04 0.  0.
        3    1    3    3  502    0 -0.87200497092E+03 -0.33296145175E+03  0.21631848053E+03  0.95814909741E+03  0.10100000352E+00 0. -1.
       -3    1    3    3    0  502  0.87200497092E+03  0.33296145175E+03  0.17117894068E+04  0.19497381827E+04  0.10100000352E+00 0.  1.
</event>
<event>
 5   0  0.1001573E-05  0.2884775E+04  0.7818609E-02  0.8277422E-01
       -2   -1    0    0    0  501  0.00000000000E+00  0.00000000000E+00  0.12040476893E+04  0.12040476893E+04  0.25500000920E-02 0.  1.
        2   -1    0    0  501    0  0.00000000000E+00  0.00000000000E+00 -0.17279068341E+04  0.17279068341E+04  0.25500000920E-02 0. -1.
    10030    2    1    2    0    0  0.00000000000E+00  0.00000000000E+00 -0.52385914475E+03  0.29319545234E+04  0.28847753680E+04 0.  0.
        1    1    3    3  502    0  0.52374318429E+03  0.15841791626E+02  0.11038952619E+04  0.12219421568E+04  0.50400001928E-02 0.  1.
       -1    1    3    3    0  502 -0.52374318429E+03 -0.15841791626E+02 -0.16277544066E+04  0.17100123665E+04  0.50400001928E-02 0. -1.
</event>
<event>
 5   0  0.9505359E-06  0.2904014E+04  0.7818609E-02  0.8271684E-01
        2   -1    0    0  501    0  0.00000000000E+00  0.00000000000E+00  0.15402974124E+04  0.15402974124E+04  0.25500000920E-02 0.  1.
       -2   -1    0    0    0  501  0.00000000000E+00  0.00000000000E+00 -0.13687769552E+04  0.13687769552E+04  0.25500000920E-02 0. -1.
    10030    2    1    2    0    0  0.00000000000E+00  0.00000000000E+00  0.17152045726E+03  0.29090743676E+04  0.29040135001E+04 0.  0.
        4    1    3    3  502    0  0.79542304752E+03 -0.32592267618E+03  0.12580126227E+04  0.15236537622E+04  0.12699999809E+01 0.  1.
       -4    1    3    3    0  502 -0.79542304752E+03  0.32592267618E+03 -0.10864921654E+04  0.13854206054E+04  0.12699999809E+01 0. -1.
</event>
<event>
 5   0  0.9251510E-06  0.2455729E+04  0.7818609E-02  0.8418929E-01
        2   -1    0    0  501    0  0.00000000000E+00  0.00000000000E+00  0.15232090341E+04  0.15232090341E+04  0.25500000920E-02 0.  1.
       -2   -1    0    0    0  501  0.00000000000E+00  0.00000000000E+00 -0.98978615875E+03  0.98978615875E+03  0.25500000920E-02 0. -1.
    10030    2    1    2    0    0  0.00000000000E+00  0.00000000000E+00  0.53342287537E+03  0.25129951929E+04  0.24557289906E+04 0.  0.
        2    1    3    3  502    0 -0.11445099147E+04 -0.43367484124E+03  0.16605921342E+03  0.12351325739E+04  0.25500000920E-02 0. -1.
       -2    1    3    3    0  502  0.11445099147E+04  0.43367484124E+03  0.36736366196E+03  0.12778626190E+04  0.25500000920E-02 0.  1.
</event>
<event>
 5   0  0.3486236E-06  0.2868309E+04  0.7818609E-02  0.8282369E-01
        1   -1    0    0  501    0  0.00000000000E+00  0.00000000000E+00  0.13060401651E+04  0.13060401651E+04  0.50400001928E-02 0.  1.
       -1   -1    0    0    0  501  0.00000000000E+00  0.00000000000E+00 -0.15748364934E+04  0.15748364934E+04  0.50400001928E-02 0. -1.
    10030    2    1    2    0    0  0.00000000000E+00  0.00000000000E+00 -0.26879632830E+03  0.28808766585E+04  0.28683094072E+04 0.  0.
        5    1    3    3  502    0  0.37228723585E+03  0.62160730297E+03  0.11086772020E+04  0.13244548514E+04  0.46999998093E+01 0.  1.
       -5    1    3    3    0  502 -0.37228723585E+03 -0.62160730297E+03 -0.13774735303E+04  0.15564218071E+04  0.46999998093E+01 0. -1.
</event>
<event>
 5   0  0.9251510E-06  0.2890361E+04  0.7818609E-02  0.8275751E-01
        2   -1    0    0  501    0  0.00000000000E+00  0.00000000000E+00  0.16003367351E+04  0.16003367351E+04  0.25500000920E-02 0.  1.
       -2   -1    0    0    0  501  0.00000000000E+00  0.00000000000E+00 -0.13050666876E+04  0.13050666876E+04  0.25500000920E-02 0. -1.
    10030    2    1    2    0    0  0.00000000000E+00  0.00000000000E+00  0.29527004757E+03  0.29054034227E+04  0.28903606432E+04 0.  0.
        2    1    3    3  502    0 -0.10650799630E+03 -0.13027812023E+04 -0.47198473948E+03  0.13897310562E+04  0.25500000920E-02 0. -1.
       -2    1    3    3    0  502  0.10650799630E+03  0.13027812023E+04  0.76725478705E+03  0.15156723665E+04  0.25500000920E-02 0.  1.
</event>
<event>
 5   0  0.3486236E-06  0.2863494E+04  0.7818609E-02  0.8283823E-01
       -1   -1    0    0    0  501  0.00000000000E+00  0.00000000000E+00  0.11668018167E+04  0.11668018167E+04  0.50400001928E-02 0. -1.
        1   -1    0    0  501    0  0.00000000000E+00  0.00000000000E+00 -0.17568534294E+04  0.17568534294E+04  0.50400001928E-02 0.  1.
    10030    2    1    2    0    0  0.00000000000E+00  0.00000000000E+00 -0.59005161274E+03  0.29236552461E+04  0.28634942103E+04 0.  0.
        5    1    3    3  502    0  0.25927437295E+03 -0.98791024789E+03  0.72939232975E+03  0.12550797262E+04  0.46999998093E+01 0. -1.
       -5    1    3    3    0  502 -0.25927437295E+03  0.98791024789E+03 -0.13194439425E+04  0.16685755199E+04  0.46999998093E+01 0.  1.
</event>
<event>
 5   0  0.3746518E-06  0.2898009E+04  0.7818609E-02  0.8273470E-01
        1   -1    0    0  501    0  0.00000000000E+00  0.00000000000E+00  0.16946307667E+04  0.16946307667E+04  0.50400001928E-02 0.  1.
       -1   -1    0    0    0  501  0.00000000000E+00  0.00000000000E+00 -0.12389802761E+04  0.12389802761E+04  0.50400001928E-02 0. -1.
    10030    2    1    2    0    0  0.00000000000E+00  0.00000000000E+00  0.45565049060E+03  0.29336110428E+04  0.28980090374E+04 0.  0.
        4    1    3    3  502    0  0.70051343670E+03  0.22376541969E+03  0.14916915089E+04  0.16631101012E+04  0.12699999809E+01 0.  1.
       -4    1    3    3    0  502 -0.70051343670E+03 -0.22376541969E+03 -0.10360410183E+04  0.12705009416E+04  0.12699999809E+01 0. -1.
</event>
<event>
 5   0  0.3649705E-06  0.2642865E+04  0.7818609E-02  0.8353785E-01
       -1   -1    0    0    0  501  0.00000000000E+00  0.00000000000E+00  0.13508005222E+04  0.13508005222E+04  0.50400001928E-02 0.  1.
        1   -1    0    0  501    0  0.00000000000E+00  0.00000000000E+00 -0.12927030076E+04  0.12927030076E+04  0.50400001928E-02 0. -1.
    10030    2    1    2    0    0  0.00000000000E+00  0.00000000000E+00  0.58097514538E+02  0.26435035298E+04  0.26428650346E+04 0.  0.
        2    1    3    3  502    0 -0.56842303517E+03 -0.10985969819E+03 -0.11590976384E+04  0.12956393154E+04  0.25500000920E-02 0. -1.
       -2    1    3    3    0  502  0.56842303517E+03  0.10985969819E+03  0.12171951529E+04  0.13478642144E+04  0.25500000920E-02 0.  1.
</event>
<event>
 5   0  0.3746518E-06  0.2901318E+04  0.7818609E-02  0.8272485E-01
        1   -1    0    0  501    0  0.00000000000E+00  0.00000000000E+00  0.22275145160E+04  0.22275145160E+04  0.50400001928E-02 0.  1.
       -1   -1    0    0    0  501  0.00000000000E+00  0.00000000000E+00 -0.94473533723E+03  0.94473533724E+03  0.50400001928E-02 0. -1.
    10030    2    1    2    0    0  0.00000000000E+00  0.00000000000E+00  0.12827791787E+04  0.31722498532E+04  0.29013180987E+04 0.  0.
        4    1    3    3  502    0 -0.20697406728E+03 -0.43896622949E+03 -0.85334057607E+03  0.98169311235E+03  0.12699999809E+01 0. -1.
       -4    1    3    3    0  502  0.20697406728E+03  0.43896622949E+03  0.21361197548E+04  0.21905567409E+04  0.12699999809E+01 0.  1.
</event>
<event>
 5   0  0.1001573E-05  0.2916012E+04  0.7818609E-02  0.8268129E-01
        2   -1    0    0  501    0  0.00000000000E+00  0.00000000000E+00  0.14116898042E+04  0.14116898042E+04  0.25500000920E-02 0.  1.
       -2   -1    0    0    0  501  0.00000000000E+00  0.00000000000E+00 -0.15058416084E+04  0.15058416084E+04  0.25500000920E-02 0. -1.
    10030    2    1    2    0    0  0.00000000000E+00  0.00000000000E+00 -0.94151804205E+02  0.29175314126E+04  0.29160118281E+04 0.  0.
        1    1    3    3  502    0 -0.10083768047E+04 -0.55590718921E+03  0.84777525231E+03  0.14298879193E+04  0.50400001928E-02 0.  1.
       -1    1    3    3    0  502  0.10083768047E+04  0.55590718921E+03 -0.94192705652E+03  0.14876434933E+04  0.50400001928E-02 0. -1.
</event>
<event>
 5   0  0.9505359E-06  0.2901093E+04  0.7818609E-02  0.8272552E-01
        2   -1    0    0  501    0  0.00000000000E+00  0.00000000000E+00  0.19052108697E+04  0.19052108697E+04  0.25500000920E-02 0. -1.
       -2   -1    0    0    0  501  0.00000000000E+00  0.00000000000E+00 -0.11043844973E+04  0.11043844973E+04  0.25500000920E-02 0.  1.
    10030    2    1    2    0    0  0.00000000000E+00  0.00000000000E+00  0.80082637238E+03  0.30095953670E+04  0.29010931379E+04 0.  0.
        4    1    3    3  502    0 -0.14167093954E+04  0.22757094643E+03  0.62103997214E+03  0.15635044953E+04  0.12699999809E+01 0. -1.
       -4    1    3    3    0  502  0.14167093954E+04 -0.22757094643E+03  0.17978640023E+03  0.14460908718E+04  0.12699999809E+01 0.  1.
</event>
<event>
 5   0  0.3474078E-06  0.2842884E+04  0.7818609E-02  0.8290077E-01
       -1   -1    0    0    0  501  0.00000000000E+00  0.00000000000E+00  0.17280225915E+04  0.17280225915E+04  0.50400001928E-02 0. -1.
        1   -1    0    0  501    0  0.00000000000E+00  0.00000000000E+00 -0.11692539978E+04  0.11692539978E+04  0.50400001928E-02 0.  1.
    10030    2    1    2    0    0  0.00000000000E+00  0.00000000000E+00  0.55876859367E+03  0.28972765893E+04  0.28428839747E+04 0.  0.
        3    1    3    3  502    0 -0.85901097722E+03  0.97245122728E+03  0.87095215789E+03  0.15627280377E+04  0.10100000352E+00 0. -1.
       -3    1    3    3    0  502  0.85901097722E+03 -0.97245122728E+03 -0.31218356422E+03  0.13345485515E+04  0.10100000352E+00 0.  1.
</event>
<event>
 5   0  0.9646321E-06  0.2935417E+04  0.7818609E-02  0.8262417E-01
       -2   -1    0    0    0  501  0.00000000000E+00  0.00000000000E+00  0.12491932608E+04  0.12491932608E+04  0.25500000920E-02 0. -1.
        2   -1    0    0  501    0  0.00000000000E+00  0.00000000000E+00 -0.17244471326E+04  0.17244471326E+04  0.25500000920E-02 0.  1.
    10030    2    1    2    0    0  0.00000000000E+00  0.00000000000E+00 -0.47525387181E+03  0.29736403934E+04  0.29354166564E+04 0.  0.
        3    1    3    3  502    0  0.64236420653E+03  0.85015881165E+03 -0.12601094822E+04  0.16502356487E+04  0.10100000352E+00 0.  1.
       -3    1    3    3    0  502 -0.64236420653E+03 -0.85015881165E+03  0.78485561041E+03  0.13234047447E+04  0.10100000352E+00 0. -1.
</event>
<event>
 5   0  0.3474078E-06  0.2899525E+04  0.7818609E-02  0.8273019E-01
       -1   -1    0    0    0  501  0.00000000000E+00  0.00000000000E+00  0.11612513278E+04  0.11612513278E+04  0.50400001928E-02 0. -1.
        1   -1    0    0  501    0  0.00000000000E+00  0.00000000000E+00 -0.18099538938E+04  0.18099538938E+04  0.50400001928E-02 0.  1.
    10030    2    1    2    0    0  0.00000000000E+00  0.00000000000E+00 -0.64870256596E+03  0.29712052216E+04  0.28995250387E+04 0.  0.
        3    1    3    3  502    0 -0.79609409661E+03 -0.41840513980E+03 -0.14895557476E+04  0.17400014388E+04  0.10100000352E+00 0.  1.
       -3    1    3    3    0  502  0.79609409661E+03  0.41840513980E+03  0.84085318160E+03  0.12312037828E+04  0.10100000352E+00 0. -1.
</event>
<event>
 5   0  0.3649705E-06  0.2892285E+04  0.7818609E-02  0.8275177E-01
        1   -1    0    0  501    0  0.00000000000E+00  0.00000000000E+00  0.26045353662E+04  0.26045353662E+04  0.50400001928E-02 0. -1.
       -1   -1    0    0    0  501  0.00000000000E+00  0.00000000000E+00 -0.80295628002E+03  0.80295628004E+03  0.50400001928E-02 0.  1.
    10030    2    1    2    0    0  0.00000000000E+00  0.00000000000E+00  0.18015790862E+04  0.34074916462E+04  0.28922849298E+04 0.  0.
        2    1    3    3  502    0 -0.33523653271E+03  0.54150564233E+03  0.24304179734E+04  0.25124775460E+04  0.25500000920E-02 0. -1.
       -2    1    3    3    0  502  0.33523653271E+03 -0.54150564233E+03 -0.62883888725E+03  0.89501410026E+03  0.25500000920E-02 0.  1.
</event>
<event>
 5   0  0.9251510E-06  0.2876027E+04  0.7818609E-02  0.8280046E-01
       -2   -1    0    0    0  501  0.00000000000E+00  0.00000000000E+00  0.91143609366E+03  0.91143609366E+03  0.25500000920E-02 0.  1.
        2   -1    0    0  501    0  0.00000000000E+00  0.00000000000E+00 -0.22688178564E+04  0.22688178564E+04  0.25500000920E-02 0. -1.
    10030    2    1    2    0    0  0.00000000000E+00  0.00000000000E+00 -0.13573817627E+04  0.31802539500E+04  0.28760267622E+04 0.  0.
        2    1    3    3  502    0  0.13203694429E+04  0.56934967507E+03 -0.69931793920E+03  0.15989309236E+04  0.25500000920E-02 0.  1.
       -2    1    3    3    0  502 -0.13203694429E+04 -0.56934967507E+03 -0.65806382349E+03  0.15813230265E+04  0.25500000920E-02 0. -1.
</event>
<event>
 5   0  0.3486236E-06  0.2948719E+04  0.7818609E-02  0.8258528E-01
        1   -1    0    0  501    0  0.00000000000E+00  0.00000000000E+00  0.86593439044E+03  0.86593439046E+03  0.50400001928E-02 0. -1.
       -1   -1    0    0    0  501  0.00000000000E+00  0.00000000000E+00 -0.25102773994E+04  0.25102773994E+04  0.50400001928E-02 0.  1.
    10030    2    1    2    0    0  0.00000000000E+00  0.00000000000E+00 -0.16443430090E+04  0.33762117899E+04  0.29487187250E+04 0.  0.
        5    1    3    3  502    0  0.80784602473E+03  0.10067132267E+04 -0.16379430844E+04  0.20854175501E+04  0.46999998093E+01 0.  1.
       -5    1    3    3    0  502 -0.80784602473E+03 -0.10067132267E+04 -0.63999246075E+01  0.12907942398E+04  0.46999998093E+01 0. -1.
</event>
<event>
 5   0  0.3564340E-06  0.2861843E+04  0.7818609E-02  0.8284322E-01
       -1   -1    0    0    0  501  0.00000000000E+00  0.00000000000E+00  0.19872574078E+04  0.19872574078E+04  0.50400001928E-02 0. -1.
        1   -1    0    0  501    0  0.00000000000E+00  0.00000000000E+00 -0.10303324593E+04  0.10303324593E+04  0.50400001928E-02 0.  1.
    10030    2    1    2    0    0  0.00000000000E+00  0.00000000000E+00  0.95692494849E+03  0.30175898671E+04  0.28618426318E+04 0.  0.
        1    1    3    3  502    0  0.11850312555E+04  0.69371723773E+03  0.54074800022E+02  0.13742149637E+04  0.50400001928E-02 0.  1.
       -1    1    3    3    0  502 -0.11850312555E+04 -0.69371723773E+03  0.90285014846E+03  0.16433749034E+04  0.50400001928E-02 0. -1.
</event>
<event>
 5   0  0.9505359E-06  0.2931971E+04  0.7818609E-02  0.8263428E-01
       -2   -1    0    0    0  501  0.00000000000E+00  0.00000000000E+00  0.10179638988E+04  0.10179638988E+04  0.25500000920E-02 0.  1.
        2   -1    0    0  501    0  0.00000000000E+00  0.00000000000E+00 -0.21111888239E+04  0.21111888239E+04  0.25500000920E-02 0. -1.
    10030    2    1    2    0    0  0.00000000000E+00  0.00000000000E+00 -0.10932249251E+04  0.31291527228E+04  0.29319713548E+04 0.  0.
        4    1    3    3  502    0 -0.57305562316E+03  0.10639342221E+03  0.88899048178E+03  0.10630230464E+04  0.12699999809E+01 0.  1.
       -4    1    3    3    0  502  0.57305562316E+03 -0.10639342221E+03 -0.19822154069E+04  0.20661296764E+04  0.12699999809E+01 0. -1.
</event>
<event>
 5   0  0.3564340E-06  0.2888875E+04  0.7818609E-02  0.8276195E-01
        1   -1    0    0  501    0  0.00000000000E+00  0.00000000000E+00  0.14072967214E+04  0.14072967214E+04  0.50400001928E-02 0.  1.
       -1   -1    0    0    0  501  0.00000000000E+00  0.00000000000E+00 -0.14825588001E+04  0.14825588001E+04  0.50400001928E-02 0. -1.
    10030    2    1    2    0    0  0.00000000000E+00  0.00000000000E+00 -0.75262078723E+02  0.28898555215E+04  0.28888753097E+04 0.  0.
        1    1    3    3  502    0  0.13469280425E+04 -0.39094047670E+03 -0.38321972134E+03  0.14539281147E+04  0.50400001928E-02 0. -1.
       -1    1    3    3    0  502 -0.13469280425E+04  0.39094047670E+03  0.30795764261E+03  0.14359274068E+04  0.50400001928E-02 0.  1.
</event>
<event>
 5   0  0.9505359E-06  0.2902203E+04  0.7818609E-02  0.8272222E-01
       -2   -1    0    0    0  501  0.00000000000E+00  0.00000000000E+00  0.14792627068E+04  0.14792627068E+04  0.25500000920E-02 0.  1.
        2   -1    0    0  501    0  0.00000000000E+00  0.00000000000E+00 -0.14234768581E+04  0.14234768581E+04  0.25500000920E-02 0. -1.
    10030    2    1    2    0    0  0.00000000000E+00  0.00000000000E+00  0.55785848677E+02  0.29027395649E+04  0.29022034596E+04 0.  0.
        4    1    3    3  502    0  0.10937633969E+04 -0.44840197888E+03  0.86966107664E+03  0.14675471727E+04  0.12699999809E+01 0.  1.
       -4    1    3    3    0  502 -0.10937633969E+04  0.44840197888E+03 -0.81387522797E+03  0.14351923922E+04  0.12699999809E+01 0. -1.
</event>
<event>
 5   0  0.9360689E-06  0.2906235E+04  0.7818609E-02  0.8271025E-01
       -2   -1    0    0    0  501  0.00000000000E+00  0.00000000000E+00  0.22271698101E+04  0.22271698101E+04  0.25500000920E-02 0.  1.
        2   -1    0    0  501    0  0.00000000000E+00  0.00000000000E+00 -0.94808682367E+03  0.94808682367E+03  0.25500000920E-02 0. -1.
    10030    2    1    2    0    0  0.00000000000E+00  0.00000000000E+00  0.12790829864E+04  0.31752566337E+04  0.29062349189E+04 0.  0.
        5    1    3    3  502    0  0.13889407869E+03 -0.66907661618E+03  0.20406595073E+04  0.21520381963E+04  0.46999998093E+01 0.  1.
       -5    1    3    3    0  502 -0.13889407869E+03  0.66907661618E+03 -0.76157652096E+03  0.10232184374E+04  0.46999998093E+01 0. -1.
</event>
<event>
 5   0  0.3746518E-06  0.2925111E+04  0.7818609E-02  0.8265445E-01
        1   -1    0    0  501    0  0.00000000000E+00  0.00000000000E+00  0.11637444050E+04  0.11637444050E+04  0.50400001928E-02 0. -1.
       -1   -1    0    0    0  501  0.00000000000E+00  0.00000000000E+00 -0.18380918685E+04  0.18380918685E+04  0.50400001928E-02 0.  1.
    10030    2    1    2    0    0  0.00000000000E+00  0.00000000000E+00 -0.67434746348E+03  0.30018362734E+04  0.29251113673E+04 0.  0.
        4    1    3    3  502    0  0.10272738777E+04  0.63424682922E+03  0.51001410107E+03  0.13106016391E+04  0.12699999809E+01 0. -1.
       -4    1    3    3    0  502 -0.10272738777E+04 -0.63424682922E+03 -0.11843615645E+04  0.16912346344E+04  0.12699999809E+01 0.  1.
</event>
<event>
 5   0  0.9360689E-06  0.2757989E+04  0.7818609E-02  0.8316431E-01
        2   -1    0    0  501    0  0.00000000000E+00  0.00000000000E+00  0.26577096746E+04  0.26577096746E+04  0.25500000920E-02 0.  1.
       -2   -1    0    0    0  501  0.00000000000E+00  0.00000000000E+00 -0.71551274896E+03  0.71551274896E+03  0.25500000920E-02 0. -1.
    10030    2    1    2    0    0  0.00000000000E+00  0.00000000000E+00  0.19421969256E+04  0.33732224235E+04  0.27579885099E+04 0.  0.
        5    1    3    3  502    0 -0.21417571988E+03  0.69738325248E+03  0.24023496254E+04  0.25106812726E+04  0.46999998093E+01 0.  1.
       -5    1    3    3    0  502  0.21417571988E+03 -0.69738325248E+03 -0.46015269985E+03  0.86254115090E+03  0.46999998093E+01 0. -1.
</event>
<event>
 5   0  0.3649705E-06  0.2911687E+04  0.7818609E-02  0.8269409E-01
       -1   -1    0    0    0  501  0.00000000000E+00  0.00000000000E+00  0.16954334070E+04  0.16954334070E+04  0.50400001928E-02 0. -1.
        1   -1    0    0  501    0  0.00000000000E+00  0.00000000000E+00 -0.12501110469E+04  0.12501110469E+04  0.50400001928E-02 0.  1.
    10030    2    1    2    0    0  0.00000000000E+00  0.00000000000E+00  0.44532236010E+03  0.29455444540E+04  0.29116868180E+04 0.  0.
        2    1    3    3  502    0 -0.10393048980E+04  0.71885260121E+02  0.12514218244E+04  0.16283054825E+04  0.25500000920E-02 0. -1.
       -2    1    3    3    0  502  0.10393048980E+04 -0.71885260121E+02 -0.80609946431E+03  0.13172389715E+04  0.25500000920E-02 0.  1.
</event>
<event>
 5   0  0.9251510E-06  0.2794506E+04  0.7818609E-02  0.8304976E-01
       -2   -1    0    0    0  501  0.00000000000E+00  0.00000000000E+00  0.13144496145E+04  0.13144496145E+04  0.25500000920E-02 0.  1.
        2   -1    0    0  501    0  0.00000000000E+00  0.00000000000E+00 -0.14852729266E+04  0.14852729266E+04  0.25500000920E-02 0. -1.
    10030    2    1    2    0    0  0.00000000000E+00  0.00000000000E+00 -0.17082331209E+03  0.27997225412E+04  0.27945063435E+04 0.  0.
        2    1    3    3  502    0 -0.34670822381E+03 -0.11342679814E+04  0.65457787220E+03  0.13547112744E+04  0.25500000920E-02 0.  1.
       -2    1    3    3    0  502  0.34670822381E+03  0.11342679814E+04 -0.82540118429E+03  0.14450112668E+04  0.25500000920E-02 0. -1.
</event>
<event>
 5   0  0.3486236E-06  0.2905814E+04  0.7818609E-02  0.8271150E-01
       -1   -1    0    0    0  501  0.00000000000E+00  0.00000000000E+00  0.29368908203E+04  0.29368908203E+04  0.50400001928E-02 0. -1.
        1   -1    0    0  501    0  0.00000000000E+00  0.00000000000E+00 -0.71876641771E+03  0.71876641772E+03  0.50400001928E-02 0.  1.
    10030    2    1    2    0    0  0.00000000000E+00  0.00000000000E+00  0.22181244026E+04  0.36556572381E+04  0.29058138235E+04 0.  0.
        5    1    3    3  502    0  0.11521329951E+04  0.81593458297E+03  0.67735376355E+03  0.15658831033E+04  0.46999998093E+01 0.  1.
       -5    1    3    3    0  502 -0.11521329951E+04 -0.81593458297E+03  0.15407706391E+04  0.20897741348E+04  0.46999998093E+01 0. -1.
</event>
</LesHouchesEvents>
